Membrane in water
40155
    1TCq1    O1    1   3.668   1.824  11.003 -0.4176 -0.0596 -0.0668
    1TCq1    C1    2   3.566   1.878  11.078  0.1650 -0.0430  0.9655
    1TCq1    O2    3   3.478   1.819  11.138 -0.7755 -0.6482  0.1786
    1TCq1    C2    4   3.619   1.993  11.134  0.6586 -0.0821 -0.3575
    1TCq1    C3    5   3.714   2.058  11.064  0.4584  0.2886  0.6306
    1TCq1    C4    6   3.787   2.148  11.119 -0.2052 -0.1268 -1.0110
    1TCq1    C5    7   3.787   2.167  11.254 -0.4242 -0.0058  0.2614
    1TCq1    C6    8   3.688   2.106  11.322  0.2470  1.0942 -0.0715
    1TCq1    C7    9   3.602   2.013  11.268  0.2891 -0.1800 -0.5296
    1TCq1    C8   10   3.652   2.170  11.454  0.5862 -0.5249 -0.7636
    1TCq1    O4   11   3.696   2.278  11.483  0.4844 -0.7296  0.1438
    1TCq1    C9   12   3.885   2.209  11.034 -0.0374 -0.1958  0.3140
    1TCq1    O5   13   3.951   2.305  11.085  0.3341 -0.3418  0.4037
    1TCq1    O6   14   3.915   2.150  10.929  0.6343  0.1564  0.2155
    1TCq1    H1   15   3.750   1.879  10.997 -0.8458  0.8042  2.0292
    1TCq1    H2   16   3.701   2.059  10.956 -0.0735  2.1282  0.7251
    1TCq1    H3   17   3.855   2.239  11.299  0.2697 -0.1810 -0.5032
    1TCq1    H4   18   3.515   1.978  11.322  0.4889  1.3977  0.7982
    2MPD2     C   19   3.408   2.137  11.914  0.5241  0.5623  0.1663
    2MPD2    C1   20   3.491   2.228  11.860 -0.0044 -0.6281 -0.2407
    2MPD2    C2   21   3.554   2.213  11.735  0.9051  0.1715 -0.1601
    2MPD2    C3   22   3.525   2.102  11.658  0.0672 -0.2968 -0.2503
    2MPD2    C4   23   3.439   2.013  11.711  0.2027  0.3989 -0.1162
    2MPD2    C5   24   3.380   2.035  11.832  0.6100  0.4207 -0.5081
    2MPD2     H   25   3.628   2.282  11.696  2.3728 -1.3370 -0.0447
    2MPD2    H1   26   3.410   1.921  11.661  0.0492  0.2310  0.2886
    2MPD2    H2   27   3.359   2.144  12.010  0.0778 -1.1986  0.0647
    2MPD2    H3   28   3.336   1.947  11.878  0.2298  0.6410 -0.4548
    2MPD2     N   29   3.576   2.082  11.528 -0.1358 -0.6394 -0.2285
    2MPD2    H5   30   3.559   1.994  11.481 -1.1550 -0.9721  0.7813
    2MPD2    N1   31   3.503   2.351  11.923 -0.1200  0.7712 -0.3297
    2MPD2    H7   32   3.549   2.422  11.867 -0.0990  0.7700 -0.3139
    3TCq1    O1   33   3.520   3.319   9.994 -0.4526  0.0803 -0.3122
    3TCq1    C1   34   3.437   3.304  10.106  0.4199  0.1388  0.5579
    3TCq1    O2   35   3.354   3.384  10.145 -0.4394 -0.0707  0.1432
    3TCq1    C2   36   3.408   3.160  10.134  0.0539 -1.0104  0.2224
    3TCq1    C3   37   3.506   3.069  10.130  0.1257 -0.2239 -0.2437
    3TCq1    C4   38   3.479   2.944  10.161 -0.2067 -0.6474  0.1178
    3TCq1    C5   39   3.355   2.906  10.202  0.3278  0.6651  0.0416
    3TCq1    C6   40   3.259   2.996  10.205  0.2377  0.8828 -1.3684
    3TCq1    C7   41   3.283   3.130  10.184 -0.3349  0.2511 -0.5515
    3TCq1    C8   42   3.139   2.958  10.270 -0.5209  0.6642  0.0956
    3TCq1    O4   43   3.102   2.839  10.264  0.4948 -0.3726  0.1496
    3TCq1    C9   44   3.589   2.853  10.156  0.0413 -0.1141  0.4221
    3TCq1    O5   45   3.569   2.742  10.213  0.4156  0.0127 -0.4553
    3TCq1    O6   46   3.703   2.901  10.123  0.2414  0.6608 -0.4783
    3TCq1    H1   47   3.553   3.233   9.961  2.0358  2.0232 -2.9766
    3TCq1    H2   48   3.607   3.101  10.106 -1.6163  2.3483 -4.0893
    3TCq1    H3   49   3.342   2.799  10.216 -0.7344  0.6331 -1.2718
    3TCq1    H4   50   3.204   3.203  10.195 -1.5886 -0.6892 -3.2305
    4MPD2     C   51   2.761   3.068  10.603 -0.0832 -0.0567 -0.9922
    4MPD2    C1   52   2.843   3.177  10.598  0.4279 -0.5652  0.3940
    4MPD2    C2   53   2.945   3.177  10.503  1.0687 -0.2039  0.1637
    4MPD2    C3   54   2.968   3.061  10.421 -0.4555  0.4338 -0.0121
    4MPD2    C4   55   2.880   2.959  10.426  0.1594 -0.6633  0.4876
    4MPD2    C5   56   2.778   2.962  10.514  0.0129  0.1173  0.6198
    4MPD2     H   57   3.019   3.255  10.490 -0.0522  1.0510  1.3375
    4MPD2    H1   58   2.892   2.871  10.365 -0.7370 -1.1142  0.9737
    4MPD2    H2   59   2.672   3.070  10.666  0.1598  0.4854 -0.6711
    4MPD2    H3   60   2.702   2.886  10.524 -2.7893  2.7958 -0.2848
    4MPD2     N   61   3.091   3.064  10.347 -0.2495 -0.1596 -0.1821
    4MPD2    H5   62   3.145   3.150  10.350 -1.4084  0.4991  1.9888
    4MPD2    N1   63   2.823   3.281  10.682 -0.2893  0.2911  0.1499
    4MPD2    H7   64   2.887   3.358  10.664  2.4156 -2.0246 -0.2469
    5TCq1    O1   65   3.233   0.889  11.528  0.4927  0.0193  0.3249
    5TCq1    C1   66   3.353   0.916  11.460  0.0776 -0.0458 -0.2272
    5TCq1    O2   67   3.440   0.993  11.494 -0.0207 -0.2127  0.0845
    5TCq1    C2   68   3.355   0.824  11.340  0.9541  0.5168 -0.1761
    5TCq1    C3   69   3.237   0.799  11.276  0.0298 -0.2812 -1.0492
    5TCq1    C4   70   3.248   0.717  11.168 -0.0502 -0.4763  0.1244
    5TCq1    C5   71   3.369   0.675  11.118 -0.2873 -0.1245 -0.3062
    5TCq1    C6   72   3.482   0.703  11.183 -1.1102 -0.0668 -0.5588
    5TCq1    C7   73   3.474   0.787  11.290 -0.4957  0.2582 -0.3742
    5TCq1    C8   74   3.599   0.623  11.166  0.4038 -0.2125 -0.0992
    5TCq1    O4   75   3.601   0.548  11.070 -0.2472  0.6120  0.3387
    5TCq1    C9   76   3.127   0.689  11.096 -0.2515  0.6196  0.1363
    5TCq1    O5   77   3.146   0.630  10.983  0.4305  0.1922  0.0664
    5TCq1    O6   78   3.014   0.685  11.151  0.0813 -0.2356 -0.0240
    5TCq1    H1   79   3.193   0.805  11.496 -0.6361  0.2312  1.1862
    5TCq1    H2   80   3.136   0.831  11.300  0.0264 -1.9338  1.1063
    5TCq1    H3   81   3.371   0.601  11.039  0.6593 -1.2900  0.8095
    5TCq1    H4   82   3.558   0.824  11.347 -0.9761 -2.2119  1.9393
    6MPD2     C   83   3.859   0.544  11.407  0.0075  0.3393  0.2702
    6MPD2    C1   84   3.786   0.529  11.293  0.4734  0.1195  0.1262
    6MPD2    C2   85   3.841   0.442  11.190 -0.1616 -0.8753  0.0987
    6MPD2    C3   86   3.945   0.359  11.224  0.3073 -0.2822  0.7808
    6MPD2    C4   87   4.012   0.377  11.344 -0.2230  0.4573 -0.3103
    6MPD2    C5   88   3.976   0.473  11.431  0.6498  0.4267 -0.3300
    6MPD2     H   89   3.818   0.447  11.085  0.3881 -0.7214 -0.0187
    6MPD2    H1   90   4.093   0.314  11.377  0.3792  0.9336 -0.8848
    6MPD2    H2   91   3.841   0.616  11.486 -0.8402 -1.1290  1.4302
    6MPD2    H3   92   4.013   0.474  11.533 -1.6637  0.9834  0.5025
    6MPD2     N   93   3.959   0.250  11.140  0.7291  0.2413 -0.1870
    6MPD2    H5   94   3.901   0.253  11.057  0.8621 -0.3754 -0.3065
    6MPD2    N1   95   3.684   0.627  11.274  0.2849  0.7340 -0.2337
    6MPD2    H7   96   3.670   0.697  11.346  1.7853  0.0992  0.6549
    7TCq1    O1   97   0.594   0.147  12.793 -0.2792  0.1205  0.3415
    7TCq1    C1   98   0.580   0.113  12.920 -0.0144  0.3019 -0.3026
    7TCq1    O2   99   0.614   0.173  13.025  0.0333 -0.0942  0.6207
    7TCq1    C2  100   0.565   4.697  12.923 -0.5724 -0.3803  0.4077
    7TCq1    C3  101   0.511   4.629  12.812 -0.0769  0.4658  0.9809
    7TCq1    C4  102   0.568   4.510  12.780  0.2729  0.8093 -0.5486
    7TCq1    C5  103   0.684   4.465  12.843  0.1244  0.3790  0.7234
    7TCq1    C6  104   0.724   4.520  12.961  0.2014  0.2270 -0.1749
    7TCq1    C7  105   0.663   4.636  12.999  0.6216  0.0601 -0.0720
    7TCq1    C8  106   0.851   4.476  13.020 -0.2223  0.6636  0.6514
    7TCq1    O4  107   0.862   4.357  13.019  0.1320 -0.2671  0.1801
    7TCq1    C9  108   0.536   4.445  12.654  0.4502 -0.4867 -0.2525
    7TCq1    O5  109   0.627   4.371  12.606  0.6025  0.8553  0.6139
    7TCq1    O6  110   0.431   4.467  12.589  0.2307 -0.3488 -1.1035
    7TCq1    H1  111   0.605   0.073  12.729 -0.2878 -0.1589  0.6630
    7TCq1    H2  112   0.432   4.659  12.744  0.3862  2.8507  1.5144
    7TCq1    H3  113   0.731   4.377  12.802 -0.6317 -0.3468  1.4385
    7TCq1    H4  114   0.696   4.682  13.091 -1.7223 -1.0906  1.3524
    8MPD2     C  115   1.297   4.541  13.267  0.1694  0.3800 -0.1025
    8MPD2    C1  116   1.247   4.420  13.206  0.2568 -0.0248  0.4416
    8MPD2    C2  117   1.124   4.427  13.141  0.1742 -0.5742  0.1398
    8MPD2    C3  118   1.059   4.554  13.131  0.0482 -0.1445  0.4665
    8MPD2    C4  119   1.112   4.664  13.183  0.0762 -0.1820  0.4000
    8MPD2    C5  120   1.226   4.657  13.254 -0.6530 -0.1270 -0.5488
    8MPD2     H  121   1.079   4.347  13.084 -1.5123  0.6403 -0.2468
    8MPD2    H1  122   1.068   0.035  13.160 -0.7193 -0.9402 -1.3072
    8MPD2    H2  123   1.379   4.547  13.337 -0.5993 -2.0005  1.0120
    8MPD2    H3  124   1.272   0.021  13.293 -4.3799  1.3605  0.4594
    8MPD2     N  125   0.933   4.577  13.068  0.4196 -0.2569  0.5392
    8MPD2    H5  126   0.905   4.674  13.058 -0.3288 -0.2920  2.2168
    8MPD2    N1  127   1.315   4.295  13.231  0.1984  0.5300 -0.6329
    8MPD2    H7  128   1.401   4.303  13.285 -0.1507  1.3779 -0.2164
    9TCq1    O1  129   2.805   2.449  10.307  0.9258 -0.1994 -0.2767
    9TCq1    C1  130   2.718   2.482  10.406  0.5212  0.1936 -0.3433
    9TCq1    O2  131   2.617   2.421  10.442  0.2752 -0.2993  0.7760
    9TCq1    C2  132   2.771   2.579  10.510  0.7444  0.2334  0.1378
    9TCq1    C3  133   2.681   2.604  10.604 -0.0814  0.1797  0.0591
    9TCq1    C4  134   2.731   2.676  10.708  0.5147 -0.3068 -0.7807
    9TCq1    C5  135   2.865   2.702  10.727 -0.4404 -0.6186 -0.1050
    9TCq1    C6  136   2.957   2.660  10.630  1.0989 -1.2897 -1.3164
    9TCq1    C7  137   2.904   2.608  10.517 -0.2439  0.6549  0.3855
    9TCq1    C8  138   3.083   2.727  10.611 -1.0594 -0.0988  0.1808
    9TCq1    O4  139   3.160   2.691  10.525  0.9008  0.0958 -0.4182
    9TCq1    C9  140   2.643   2.739  10.802 -0.0116 -0.1600 -0.4749
    9TCq1    O5  141   2.694   2.807  10.894  0.1234 -0.2416 -0.4583
    9TCq1    O6  142   2.518   2.722  10.776  0.5567 -0.5235 -0.0065
    9TCq1    H1  143   2.887   2.501  10.294  0.2753  0.4386 -1.9316
    9TCq1    H2  144   2.575   2.601  10.581 -0.2539 -2.8643  1.2579
    9TCq1    H3  145   2.890   2.781  10.796 -2.8962  0.3873 -0.3682
    9TCq1    H4  146   2.976   2.564  10.448 -3.7093 -0.7561 -2.3763
   10MPD2     C  147   3.310   2.915  10.612 -0.0847  0.6600  0.3675
   10MPD2    C1  148   3.227   2.893  10.720 -0.7573  0.2715 -0.4068
   10MPD2    C2  149   3.253   2.964  10.833 -0.5656  0.1546  0.6741
   10MPD2    C3  150   3.370   3.042  10.842 -0.2238 -0.5956  0.6711
   10MPD2    C4  151   3.439   3.063  10.727 -0.5526 -0.3056  0.7869
   10MPD2    C5  152   3.422   2.991  10.617 -0.2687 -0.0349  0.2385
   10MPD2     H  153   3.187   2.942  10.915 -1.8276 -0.9237 -0.6150
   10MPD2    H1  154   3.520   3.135  10.723 -0.1889 -0.5644  3.0620
   10MPD2    H2  155   3.283   2.883  10.512  1.5672 -2.6217  0.9707
   10MPD2    H3  156   3.479   3.007  10.526  1.1109 -2.1022  0.7467
   10MPD2     N  157   3.412   3.111  10.958  0.0296  0.5170  0.3918
   10MPD2    H5  158   3.502   3.157  10.946 -0.2849  1.8622  3.0145
   10MPD2    N1  159   3.108   2.814  10.709 -0.2245  0.0863  0.3687
   10MPD2    H7  160   3.029   2.838  10.768 -0.0831  2.0745 -0.2523
   11TCq1    O1  161   0.434   2.981  14.150 -0.0609  0.3000  0.0374
   11TCq1    C1  162   0.555   3.036  14.120 -0.0238 -0.0445 -0.6131
   11TCq1    O2  163   0.655   2.971  14.101 -0.5616  0.5593 -0.0342
   11TCq1    C2  164   0.549   3.181  14.108 -0.2884 -0.4491 -0.2258
   11TCq1    C3  165   0.669   3.240  14.138  0.4440  0.3636  0.4228
   11TCq1    C4  166   0.689   3.371  14.103  0.2596 -0.4512 -0.9040
   11TCq1    C5  167   0.575   3.438  14.062 -0.4361 -0.1746 -0.0601
   11TCq1    C6  168   0.455   3.377  14.036  0.4396  0.0884  0.2777
   11TCq1    C7  169   0.446   3.245  14.050  0.2466  0.4366  0.4193
   11TCq1    C8  170   0.350   3.456  13.973  0.3600 -0.4215 -0.4904
   11TCq1    O4  171   0.367   3.575  13.976  0.4982 -0.6121 -0.1982
   11TCq1    C9  172   0.806   3.442  14.142 -0.5638 -0.1355 -0.0161
   11TCq1    O5  173   0.883   3.376  14.215 -0.0462 -0.0135  0.3710
   11TCq1    O6  174   0.830   3.561  14.107  0.1555  0.3874  0.1717
   11TCq1    H1  175   0.366   3.048  14.174  1.0507  1.6220 -0.4809
   11TCq1    H2  176   0.747   3.183  14.189  0.7980  0.2302 -0.2654
   11TCq1    H3  177   0.583   3.546  14.069 -1.5329 -0.2581  2.5088
   11TCq1    H4  178   0.363   3.178  14.031 -0.1443  1.3818 -1.1589
   12MPD2     C  179   0.148   3.555  13.769 -0.1679  0.1794 -0.2945
   12MPD2    C1  180   0.157   3.427  13.820  0.1978 -0.1157 -0.1626
   12MPD2    C2  181   0.067   3.333  13.780  0.0611 -0.3351 -0.3934
   12MPD2    C3  182   4.691   3.364  13.695  0.0960 -0.3085 -0.2435
   12MPD2    C4  183   4.681   3.487  13.651  0.3798 -0.4373 -0.2650
   12MPD2    C5  184   0.042   3.580  13.683  0.9156 -0.7380 -0.0485
   12MPD2     H  185   0.074   3.229  13.811 -1.7675 -0.2957  0.1479
   12MPD2    H1  186   4.591   3.511  13.595  0.2778 -1.6599 -0.6188
   12MPD2    H2  187   0.218   3.637  13.784 -0.1375  0.1505 -0.2792
   12MPD2    H3  188   0.030   3.681  13.645 -0.1550 -0.8550 -0.0357
   12MPD2     N  189   4.608   3.263  13.638 -0.5774 -0.2114 -0.1849
   12MPD2    H5  190   4.527   3.299  13.587 -0.6556  1.7855  1.3485
   12MPD2    N1  191   0.253   3.380  13.919  0.1341 -0.0512 -0.3976
   12MPD2    H7  192   0.256   3.279  13.928  1.5100  0.1697  1.4671
   13TCq1    O1  193   4.176   2.946  10.874 -0.5007  0.7623  0.1707
   13TCq1    C1  194   4.069   2.975  10.948 -0.6552 -0.5400  1.3456
   13TCq1    O2  195   4.069   2.988  11.067  0.1685 -0.0853  0.1849
   13TCq1    C2  196   3.964   2.924  10.860  0.3376  0.2166 -0.5913
   13TCq1    C3  197   3.954   2.952  10.722 -0.2104  0.6204  0.0635
   13TCq1    C4  198   3.841   2.920  10.656  0.0985  0.4614 -0.2261
   13TCq1    C5  199   3.740   2.848  10.716 -1.2791  0.3797  0.0310
   13TCq1    C6  200   3.750   2.823  10.849  1.1083  0.3509  0.0672
   13TCq1    C7  201   3.861   2.859  10.920  0.4742 -0.6975  0.8728
   13TCq1    C8  202   3.624   2.811  10.918 -0.3185  0.5471 -0.3879
   13TCq1    O4  203   3.607   2.871  11.024 -0.1652  0.2213 -0.3771
   13TCq1    C9  204   3.832   2.943  10.514 -0.1655 -0.3691 -0.2184
   13TCq1    O5  205   3.924   3.002  10.455  0.3771 -0.2097  0.2301
   13TCq1    O6  206   3.755   2.863  10.456  0.0526 -0.0032 -0.1432
   13TCq1    H1  207   4.144   2.901  10.792 -0.6182  0.3769  0.4273
   13TCq1    H2  208   4.038   3.001  10.674  0.0968 -0.4639 -0.5182
   13TCq1    H3  209   3.652   2.826  10.656 -0.0583  0.9888 -1.9957
   13TCq1    H4  210   3.867   2.828  11.023  1.2492 -1.3535  0.6292
   14MPD2     C  211   3.375   2.550  10.831 -0.1279 -0.7895  0.2685
   14MPD2    C1  212   3.421   2.667  10.890  0.5494 -0.2347  0.2321
   14MPD2    C2  213   3.350   2.722  10.996  0.2663 -0.0664  0.1677
   14MPD2    C3  214   3.231   2.674  11.039 -0.4032 -0.1323  0.0836
   14MPD2    C4  215   3.183   2.562  10.976 -0.0983  0.7733  0.7129
   14MPD2    C5  216   3.246   2.509  10.868 -0.0469 -0.0072 -0.0035
   14MPD2     H  217   3.387   2.811  11.045  1.1612  0.2588 -1.1066
   14MPD2    H1  218   3.093   2.510  11.008  0.8267 -2.8276 -2.5055
   14MPD2    H2  219   3.430   2.490  10.760 -1.7416 -2.2647  0.2808
   14MPD2    H3  220   3.204   2.428  10.810 -0.5945  1.3488 -1.5136
   14MPD2     N  221   3.172   2.751  11.131 -0.3916  0.7908 -0.1231
   14MPD2    H5  222   3.226   2.827  11.171  1.4886 -0.2950 -0.6088
   14MPD2    N1  223   3.551   2.711  10.857 -0.5560  0.3072 -0.2662
   14MPD2    H7  224   3.589   2.674  10.770  0.7322 -0.9031  0.8112
   15TCq1    O1  225   0.572   3.054   1.652  0.5725 -0.2052  0.6980
   15TCq1    C1  226   0.558   2.959   1.558  0.0720  0.8072  0.5312
   15TCq1    O2  227   0.509   2.979   1.449  0.0745  0.3294  0.1207
   15TCq1    C2  228   0.592   2.832   1.612 -1.0766 -0.5062  0.1029
   15TCq1    C3  229   0.575   2.801   1.740  0.3391 -0.0838  0.7790
   15TCq1    C4  230   0.623   2.679   1.788  0.0816  0.5201  0.5494
   15TCq1    C5  231   0.684   2.583   1.712 -0.3656 -0.2128  0.6863
   15TCq1    C6  232   0.699   2.616   1.585  0.6190 -0.1404 -0.1411
   15TCq1    C7  233   0.648   2.737   1.536  0.2522 -0.7155 -0.4111
   15TCq1    C8  234   0.742   2.510   1.498  0.5977 -0.1252 -0.0043
   15TCq1    O4  235   0.801   2.416   1.543  0.2647  0.0196  0.4165
   15TCq1    C9  236   0.601   2.649   1.932 -0.0667  0.1209  0.4331
   15TCq1    O5  237   0.548   2.742   2.002 -0.3341 -0.3727 -0.1590
   15TCq1    O6  238   0.665   2.550   1.977 -0.0960  0.3951  0.1692
   15TCq1    H1  239   0.608   3.031   1.740  0.8725 -0.6390  0.4614
   15TCq1    H2  240   0.508   2.855   1.806 -2.0101 -1.8964 -0.1293
   15TCq1    H3  241   0.709   2.482   1.744  0.6896  0.3790  1.7303
   15TCq1    H4  242   0.653   2.756   1.429  1.9183 -1.2162 -0.4295
   16MPD2     C  243   0.646   2.443   1.148 -0.3711  0.1101  0.0183
   16MPD2    C1  244   0.723   2.422   1.262  0.4212  0.0284  0.0242
   16MPD2    C2  245   0.822   2.327   1.269  0.7147 -0.1076 -0.9914
   16MPD2    C3  246   0.850   2.247   1.165  0.0992  0.3165 -0.1381
   16MPD2    C4  247   0.769   2.260   1.047 -0.3664  0.3351  0.2577
   16MPD2    C5  248   0.672   2.361   1.038 -0.4905  0.3825  0.7752
   16MPD2     H  249   0.881   2.316   1.359  1.6823 -0.1964 -1.6336
   16MPD2    H1  250   0.769   2.195   0.960  0.6368 -0.4831  0.8811
   16MPD2    H2  251   0.562   2.512   1.143 -2.4345 -2.4534 -0.5218
   16MPD2    H3  252   0.611   2.365   0.949  0.3738  2.8940  0.2954
   16MPD2     N  253   0.953   2.152   1.179  0.0422  0.0741 -0.9134
   16MPD2    H5  254   1.008   2.159   1.264 -0.3447  0.0427 -0.6594
   16MPD2    N1  255   0.701   2.523   1.365 -0.4889  0.5666 -0.5515
   16MPD2    H7  256   0.651   2.608   1.338 -0.3489  1.7823  3.0179
   17TCq1    O1  257   3.832   1.589  11.302  0.1956  0.3744 -0.1913
   17TCq1    C1  258   3.836   1.723  11.308 -0.5553  0.1537  0.4035
   17TCq1    O2  259   3.774   1.792  11.385 -0.0480  0.4763  0.3991
   17TCq1    C2  260   3.967   1.764  11.260 -0.1456 -0.2812  0.2062
   17TCq1    C3  261   4.027   1.863  11.329 -0.4629 -0.0038  0.3993
   17TCq1    C4  262   4.135   1.935  11.265 -0.4659  0.6806  0.1304
   17TCq1    C5  263   4.168   1.901  11.139  0.2869 -0.1411 -0.3466
   17TCq1    C6  264   4.106   1.794  11.074 -0.4612 -1.0189  0.3057
   17TCq1    C7  265   3.998   1.724  11.131  0.0440  0.0829 -0.9483
   17TCq1    C8  266   4.164   1.731  10.956 -0.4517 -0.2533  0.1851
   17TCq1    O4  267   4.137   1.612  10.933 -1.1619 -0.3989 -0.1451
   17TCq1    C9  268   4.211   2.028  11.340 -0.0646 -0.2045  0.1056
   17TCq1    O5  269   4.271   2.113  11.273 -0.4094 -0.7004  0.4538
   17TCq1    O6  270   4.226   2.006  11.466 -0.2256  0.6063 -0.0201
   17TCq1    H1  271   3.902   1.547  11.246 -1.1720 -1.2710 -0.6615
   17TCq1    H2  272   3.996   1.885  11.431 -1.6934  1.9918 -0.4018
   17TCq1    H3  273   4.247   1.961  11.093 -0.7353  0.4028 -1.4008
   17TCq1    H4  274   3.950   1.642  11.077 -0.2749 -1.2559  1.3901
   18MPD2     C  275   4.353   1.653  10.723 -0.0770 -0.0753  0.5689
   18MPD2    C1  276   4.302   1.780  10.750 -0.0919  0.5786 -0.3726
   18MPD2    C2  277   4.325   1.886  10.668 -0.3475 -0.1127 -0.6062
   18MPD2    C3  278   4.386   1.860  10.543  0.3056 -0.4387  0.0535
   18MPD2    C4  279   4.423   1.733  10.517 -0.5925  0.3457 -0.2720
   18MPD2    C5  280   4.408   1.631  10.602 -1.0300 -0.1945 -0.3241
   18MPD2     H  281   4.282   1.981  10.697  0.7171  0.4174 -0.7928
   18MPD2    H1  282   4.477   1.715  10.426  0.3262 -0.3156  0.4118
   18MPD2    H2  283   4.337   1.567  10.787 -0.3266 -0.0230  0.5793
   18MPD2    H3  284   4.426   1.529  10.570  2.5223  0.7310 -1.2400
   18MPD2     N  285   4.389   1.951  10.436  0.4275 -0.0501  0.2866
   18MPD2    H5  286   4.440   1.912  10.357  0.7420  0.2014  0.3661
   18MPD2    N1  287   4.229   1.812  10.865 -0.0824 -0.4244  0.0135
   18MPD2    H7  288   4.219   1.908  10.897 -4.3216 -0.2383 -1.8790
   19TMC2    C1  289   0.957   2.959  13.462  0.2709  1.1475  0.1780
   19TMC2    C2  290   0.861   3.040  13.405 -0.5470 -0.0226 -1.3990
   19TMC2    C3  291   0.734   2.996  13.419 -0.1485 -0.7589  0.2347
   19TMC2    C4  292   0.921   2.837  13.520 -0.1831 -0.2606 -0.0650
   19TMC2    C5  293   0.801   2.787  13.507  0.4316  0.4628 -0.2179
   19TMC2    C6  294   0.699   2.870  13.463  0.2703  0.1734  0.6773
   19TMC2     C  295   1.088   3.009  13.484  0.7190 -0.5558 -0.4548
   19TMC2     O  296   1.131   3.101  13.411 -0.1595  0.4041 -0.2878
   19TMC2     H  297   0.890   3.120  13.338 -0.4098  1.6533  0.6330
   19TMC2    H1  298   0.999   2.783  13.572 -1.5397 -1.2693  0.9530
   19TMC2    H2  299   0.597   2.834  13.464  0.4454 -0.3697 -0.4438
   19TMC2    C7  300   0.765   2.667  13.586  0.4587 -0.0213 -0.4487
   19TMC2    C8  301   0.635   3.066  13.342 -0.2369 -0.4896 -1.1735
   19TMC2    O1  302   0.650   2.657  13.627 -0.3292 -0.0611 -0.1447
   19TMC2    O2  303   0.527   3.016  13.319 -0.0698  0.0009 -0.6268
   19TMC2    O5  304   0.660   3.202  13.335  0.0781 -0.2393  0.3098
   19TMC2    H5  305   0.735   3.224  13.394  1.4440 -1.0509 -1.1417
   20MPD2     C  306   1.342   3.123  13.598  0.0646 -0.4492  0.5916
   20MPD2    C1  307   1.249   3.053  13.666 -0.0018 -0.9946  0.0180
   20MPD2    C2  308   1.269   3.037  13.804  0.5135 -1.0359  0.4794
   20MPD2    C3  309   1.370   3.103  13.870  0.2467  0.3181  0.0196
   20MPD2    C4  310   1.461   3.176  13.799 -0.3851  0.0141  0.4606
   20MPD2    C5  311   1.449   3.175  13.661  0.7842  0.1686  0.3590
   20MPD2     H  312   1.204   2.976  13.866 -0.9395  0.9791  0.9181
   20MPD2    H1  313   1.541   3.227  13.850  0.4273 -0.6263 -0.1825
   20MPD2    H2  314   1.329   3.139  13.492 -1.5791  1.2020  1.0464
   20MPD2    H3  315   1.527   3.214  13.596 -1.6401  1.4020 -1.7855
   20MPD2     N  316   1.394   3.096  14.008  0.5195 -0.3174  0.2106
   20MPD2    H5  317   1.470   3.156  14.038  0.4625 -0.4943  0.7003
   20MPD2    N1  318   1.138   2.980  13.607  0.3772  0.0538  0.2879
   20MPD2    H7  319   1.088   2.918  13.669 -1.2356 -0.7888 -1.8766
   21MPD2     C  320   3.129   3.902  14.436  0.3354  0.2384 -0.0725
   21MPD2    C1  321   3.131   3.780  14.487 -0.0272 -0.3782 -0.5879
   21MPD2    C2  322   3.020   3.741  14.563 -0.7997 -0.2679 -0.1861
   21MPD2    C3  323   2.918   3.830  14.594  0.3071  0.0715 -0.9313
   21MPD2    C4  324   2.921   3.957  14.543  0.2289  0.5848  0.2304
   21MPD2    C5  325   3.030   3.994  14.463  0.4609  0.5211  0.3843
   21MPD2     H  326   3.015   3.637  14.594  1.3714 -0.6410 -1.0847
   21MPD2    H1  327   2.842   4.028  14.564 -1.0105  0.0694 -2.5917
   21MPD2    H2  328   3.205   3.935  14.366 -0.8270 -0.3156 -1.5765
   21MPD2    H3  329   3.032   4.088  14.410  0.9853 -1.3384 -2.8732
   21MPD2     N  330   2.820   3.794  14.691 -0.1721 -0.7393  0.4642
   21MPD2    H5  331   2.733   3.846  14.685  0.0220 -0.1632  2.6759
   21MPD2    N1  332   3.224   3.678  14.444 -0.1074  0.4322  0.3262
   21MPD2    H7  333   3.204   3.585  14.478 -2.7829  1.1402  0.6747
   22TCq2    C1  334   2.839   3.699  14.789  0.4533  0.3015 -0.1364
   22TCq2    O2  335   2.938   3.633  14.822  0.2415  0.0830  0.0070
   22TCq2    C2  336   2.718   3.651  14.859 -0.2259  0.2904  0.0143
   22TCq2    C3  337   2.749   3.584  14.975  0.6855 -0.0275  0.1401
   22TCq2    C4  338   2.674   3.479  15.010 -0.8778 -0.3697 -0.0351
   22TCq2    C5  339   2.583   3.425  14.924  0.5509  0.0975  0.4299
   22TCq2    C6  340   2.567   3.487  14.806  0.0648 -0.5666 -0.2081
   22TCq2    C7  341   2.622   3.606  14.775 -0.0305  0.8373  0.5592
   22TCq2    C8  342   2.489   3.410  14.705  0.4848 -0.0846 -0.3184
   22TCq2    O4  343   2.466   3.288  14.716 -0.2601 -0.7575  0.0902
   22TCq2    C9  344   2.694   3.418  15.142 -0.8941 -0.1579  0.3882
   22TCq2    O5  345   2.762   3.474  15.233 -0.1746  0.1162  0.1463
   22TCq2    O6  346   2.608   3.328  15.166 -1.2312 -0.2377 -0.2259
   22TCq2    H2  347   2.830   3.620  15.037  0.4336  1.0118 -0.1344
   22TCq2    H3  348   2.528   3.336  14.949  2.2616 -1.6937 -2.1096
   22TCq2    H4  349   2.613   3.657  14.679 -1.0829 -2.8018 -1.2793
   23MPD2     C  350   4.508   4.094  14.113 -0.3457  0.0116 -0.4690
   23MPD2    C1  351   4.438   4.147  14.215 -1.0354  0.9554  0.3091
   23MPD2    C2  352   4.344   4.244  14.191  0.3029  0.5545 -0.2035
   23MPD2    C3  353   4.315   4.284  14.062  0.2715 -0.0822  0.1839
   23MPD2    C4  354   4.385   4.224  13.958 -0.5080  0.1194 -0.1250
   23MPD2    C5  355   4.482   4.131  13.980 -0.1648 -0.6372  0.1333
   23MPD2     H  356   4.285   4.280  14.273  1.4273 -2.2294  1.8399
   23MPD2    H1  357   4.373   4.249  13.853  0.8031 -1.5366 -0.6655
   23MPD2    H2  358   4.573   4.008  14.125  0.5304  0.6647 -0.6350
   23MPD2    H3  359   4.536   4.081  13.900 -0.8949 -0.2742 -0.5833
   23MPD2     N  360   4.211   4.373  14.035 -0.1713 -0.1702  0.3192
   23MPD2    H5  361   4.175   4.374  13.940  2.5016 -0.4777 -0.6924
   23MPD2    N1  362   4.449   4.107  14.352  0.5076  0.3333  0.1350
   23MPD2    H7  363   4.377   4.148  14.410 -1.6956 -2.9805 -0.2354
   24TCq2    C1  364   4.125   4.436  14.117 -0.2815  0.3474 -0.0345
   24TCq2    O2  365   4.144   4.460  14.235  0.2398  0.1769  0.2472
   24TCq2    C2  366   4.014   4.494  14.063  0.9381  0.0481  0.2920
   24TCq2    C3  367   3.937   4.566  14.145  0.1153  0.0179 -0.2125
   24TCq2    C4  368   3.812   4.594  14.107 -0.1143 -0.1288 -0.4185
   24TCq2    C5  369   3.765   4.548  13.986  0.2050  0.7878 -0.6728
   24TCq2    C6  370   3.843   4.478  13.900 -0.5452 -0.2820  0.9867
   24TCq2    C7  371   3.973   4.460  13.933 -0.5471 -0.6711 -0.2219
   24TCq2    C8  372   3.788   4.394  13.797 -0.7426  0.2543 -0.0757
   24TCq2    O4  373   3.869   4.354  13.711  0.1592  0.4180 -0.3733
   24TCq2    C9  374   3.731   4.671  14.195 -0.3470 -0.4702  0.5075
   24TCq2    O5  375   3.610   4.672  14.168  0.3586  0.4384 -0.1681
   24TCq2    O6  376   3.785   0.003  14.294  0.7191  0.0025 -0.0400
   24TCq2    H2  377   3.969   4.603  14.242  1.0426  0.2468 -0.5997
   24TCq2    H3  378   3.663   4.570  13.959 -0.4542  0.2173  1.3371
   24TCq2    H4  379   4.034   4.391  13.875 -0.2278 -0.9135  0.3973
   25TMC2    C1  380   3.425   2.478  11.383  0.0376 -0.7156  0.3989
   25TMC2    C2  381   3.421   2.614  11.370 -0.8661  0.7479  0.1441
   25TMC2    C3  382   3.366   2.676  11.480  0.0921 -0.2970 -1.1666
   25TMC2    C4  383   3.376   2.405  11.486  0.0808  0.6387  0.6010
   25TMC2    C5  384   3.331   2.472  11.597 -0.2103 -0.0109 -0.1086
   25TMC2    C6  385   3.321   2.613  11.595  0.7762  0.3430 -0.0627
   25TMC2     C  386   3.478   2.419  11.266 -0.0599 -0.2232  0.5052
   25TMC2     O  387   3.581   2.465  11.219  0.1003  0.4997  0.0445
   25TMC2     H  388   3.459   2.676  11.289  0.1439 -1.7138 -1.2608
   25TMC2    H1  389   3.406   2.301  11.497 -1.4189 -0.1430 -2.6814
   25TMC2    H2  390   3.268   2.653  11.681 -1.8710 -2.6915 -0.3111
   25TMC2    C7  391   3.239   2.407  11.696  0.1297  0.5989  0.0214
   25TMC2    C8  392   3.361   2.822  11.467 -0.8248  0.6653 -0.2004
   25TMC2    O1  393   3.205   2.478  11.791 -0.2705 -0.3829  0.2975
   25TMC2    O2  394   3.348   2.876  11.356 -0.2483 -0.2255 -0.8771
   25TMC2    O5  395   3.449   2.857  11.564 -0.2082 -0.3376  0.1888
   25TMC2    H5  396   3.479   2.798  11.637 -0.5557  0.6764  1.1528
   26MPD2     C  397   3.417   2.130  10.845  0.1396 -0.4015  0.3366
   26MPD2    C1  398   3.318   2.102  10.936  0.4430  0.9028  1.0139
   26MPD2    C2  399   3.313   2.174  11.052 -0.1722  0.2288  0.1397
   26MPD2    C3  400   3.409   2.266  11.082 -1.0625  0.3408 -0.6451
   26MPD2    C4  401   3.519   2.279  10.999  0.4353  0.0445  0.2756
   26MPD2    C5  402   3.514   2.223  10.874  0.1333  0.2881 -0.1392
   26MPD2     H  403   3.225   2.168  11.115 -0.1794  3.1441  0.3832
   26MPD2    H1  404   3.598   2.350  11.019  1.1979 -1.1288  1.5021
   26MPD2    H2  405   3.422   2.076  10.751  0.6838 -0.8873  0.6449
   26MPD2    H3  406   3.590   2.252  10.803  0.9621 -0.5682  0.3914
   26MPD2     N  407   3.398   2.317  11.218  0.3659  0.1537  1.4282
   26MPD2    H5  408   3.314   2.292  11.269 -0.8197 -0.0089 -0.6174
   26MPD2    N1  409   3.220   2.009  10.905 -0.1446 -0.5328  0.3553
   26MPD2    H7  410   3.240   1.968  10.814 -1.0149 -0.3984  0.1039
   27TMC2    C1  411   2.028   3.764  11.738 -0.2177 -0.1181  0.2690
   27TMC2    C2  412   2.066   3.762  11.607 -0.1387 -0.2387 -0.6687
   27TMC2    C3  413   2.098   3.877  11.542  0.5802  0.2067 -0.5753
   27TMC2    C4  414   2.039   3.882  11.807  0.4432  0.0924 -0.6479
   27TMC2    C5  415   2.062   3.997  11.739  0.1474 -0.1015 -0.4628
   27TMC2    C6  416   2.093   4.000  11.604  0.1408 -0.0255  0.7518
   27TMC2     C  417   2.031   3.644  11.822 -0.3822  0.4628  0.7209
   27TMC2     O  418   2.084   3.551  11.763  0.0266 -0.0318  0.1360
   27TMC2     H  419   2.055   3.671  11.549 -0.1230  0.0115 -1.0650
   27TMC2    H1  420   2.039   3.885  11.916 -0.2117  1.5467 -0.6839
   27TMC2    H2  421   2.062   4.091  11.553  1.4220  0.1964  0.3708
   27TMC2    C7  422   2.011   4.118  11.808  0.0248 -0.2232  0.3979
   27TMC2    C8  423   2.083   3.875  11.395 -0.0907  0.1003 -0.3614
   27TMC2    O1  424   1.930   4.104  11.897  0.1490 -0.1149 -0.6293
   27TMC2    O2  425   2.009   3.795  11.340  0.1119  0.5675  0.5045
   27TMC2    O5  426   2.144   3.980  11.332  0.0472  0.0747 -0.6024
   27TMC2    H5  427   2.220   4.016  11.383 -0.0748  2.0970 -1.8475
   28MPD2     C  428   1.998   3.393  12.267  0.7194 -0.2363 -0.1337
   28MPD2    C1  429   1.915   3.505  12.273 -0.7711 -0.8463 -0.4634
   28MPD2    C2  430   1.905   3.588  12.164  0.1380  0.2420  0.3435
   28MPD2    C3  431   1.977   3.555  12.051 -0.2143  0.0534 -0.3199
   28MPD2    C4  432   2.067   3.451  12.049  0.4826  0.1503  0.5615
   28MPD2    C5  433   2.070   3.371  12.156 -0.0134  0.1117  0.2277
   28MPD2     H  434   1.841   3.675  12.163 -3.3962 -2.3758 -0.0991
   28MPD2    H1  435   2.114   3.424  11.955  0.6366 -1.6306  1.1553
   28MPD2    H2  436   1.996   3.318  12.344 -0.9260 -0.4309 -0.3762
   28MPD2    H3  437   2.129   3.280  12.162 -1.5258 -0.7112  2.6293
   28MPD2     N  438   1.976   3.652  11.951 -0.1324  0.6469  0.0920
   28MPD2    H5  439   1.922   3.737  11.969 -0.9829  0.0059  0.5456
   28MPD2    N1  440   1.844   3.522  12.394 -0.0856  0.0673 -0.1642
   28MPD2    H7  441   1.861   3.458  12.471 -1.3654  0.1247  0.1590
   29MPD2     C  442   1.814   1.623  14.030 -0.0076 -0.1373 -0.3731
   29MPD2    C1  443   1.889   1.584  14.144 -0.3097  0.2692 -0.0241
   29MPD2    C2  444   1.962   1.680  14.209 -0.7852 -0.4800  0.2613
   29MPD2    C3  445   1.947   1.814  14.184 -0.1361 -0.6844 -1.2603
   29MPD2    C4  446   1.884   1.852  14.072 -0.0893 -0.0952  0.6530
   29MPD2    C5  447   1.819   1.756  13.999  0.0728  0.3016  0.4683
   29MPD2     H  448   2.014   1.637  14.294 -1.7241  3.1603  2.6390
   29MPD2    H1  449   1.869   1.959  14.064 -0.2059 -0.0152  1.9180
   29MPD2    H2  450   1.754   1.553  13.973  0.3989 -2.3924  1.9483
   29MPD2    H3  451   1.747   1.784  13.923 -0.7582 -0.1534  1.0809
   29MPD2     N  452   2.004   1.914  14.271 -0.1981  0.1744  0.3666
   29MPD2    H5  453   2.003   2.009  14.236 -2.1309  0.1073  0.2664
   29MPD2    N1  454   1.904   1.453  14.196 -1.0553 -0.1354 -0.1983
   29MPD2    H7  455   1.981   1.443  14.262 -1.7755  1.0149  0.7963
   30TCq2    C1  456   2.047   1.892  14.395  0.6416  0.7194  0.2525
   30TCq2    O2  457   2.014   1.799  14.468 -0.0306  0.1112 -0.0174
   30TCq2    C2  458   2.128   2.003  14.444  0.1942 -0.0422  1.1387
   30TCq2    C3  459   2.111   2.038  14.574 -0.1617  0.5276  0.1139
   30TCq2    C4  460   2.172   2.152  14.619 -0.5232 -0.0611 -0.0239
   30TCq2    C5  461   2.270   2.216  14.547 -0.0506 -0.1637 -0.2445
   30TCq2    C6  462   2.287   2.180  14.410  0.0390  0.4405 -0.1292
   30TCq2    C7  463   2.208   2.076  14.362  0.5026 -0.0819 -0.4395
   30TCq2    C8  464   2.347   2.267  14.308 -0.5714  0.0355 -0.6690
   30TCq2    O4  465   2.312   2.247  14.194 -0.5517  0.3772 -0.2175
   30TCq2    C9  466   2.134   2.203  14.753  0.1416 -0.6558 -0.5238
   30TCq2    O5  467   2.008   2.195  14.781 -0.5765 -0.0865 -0.7825
   30TCq2    O6  468   2.231   2.261  14.804 -0.3244  0.4136  0.3513
   30TCq2    H2  469   2.041   1.984  14.638  0.6942 -0.1887  0.4387
   30TCq2    H3  470   2.316   2.306  14.587 -2.4129  0.4882  1.0014
   30TCq2    H4  471   2.232   2.037  14.264 -0.1559 -1.1724 -0.1671
   31MPD2     C  472   4.515   0.723  14.931 -0.7735  0.2221 -0.7882
   31MPD2    C1  473   4.395   0.743  14.866  0.4815  0.4158  0.1696
   31MPD2    C2  474   4.283   0.677  14.906  0.0222 -0.5676  0.5438
   31MPD2    C3  475   4.285   0.590  15.014  0.6398 -0.4195  0.0658
   31MPD2    C4  476   4.412   0.563  15.070  0.3660  0.0854 -0.2980
   31MPD2    C5  477   4.524   0.632  15.031 -0.5165  0.2936  0.0533
   31MPD2     H  478   4.195   0.693  14.844  0.0335 -0.8513  0.4532
   31MPD2    H1  479   4.427   0.490  15.149 -1.3267 -0.9582 -0.9403
   31MPD2    H2  480   4.599   0.789  14.912  0.7952 -0.9482  2.1694
   31MPD2    H3  481   4.618   0.618  15.083 -1.3527  2.7681  2.2037
   31MPD2     N  482   4.173   0.528  15.058 -0.0037 -0.3149 -0.0395
   31MPD2    H5  483   4.194   0.457  15.127  1.5370 -0.1769 -0.3736
   31MPD2    N1  484   4.402   0.845  14.768 -0.0864 -0.0703  0.4889
   31MPD2    H7  485   4.494   0.884  14.748  0.6811 -1.9678  0.2484
   32TCq2    C1  486   4.042   0.562  15.021 -0.1005 -0.0961 -1.1681
   32TCq2    O2  487   4.001   0.653  14.946  0.2819  0.0205  0.0477
   32TCq2    C2  488   3.948   0.498  15.109  0.2487  0.8263 -0.4663
   32TCq2    C3  489   3.819   0.543  15.109  0.2543  0.6712  0.1701
   32TCq2    C4  490   3.734   0.510  15.213 -0.6293  0.4831 -0.1472
   32TCq2    C5  491   3.779   0.442  15.321 -0.0744  0.3790 -0.0309
   32TCq2    C6  492   3.900   0.386  15.318 -0.4380  0.1481 -0.7024
   32TCq2    C7  493   3.989   0.419  15.216  0.3287 -0.8988  0.0044
   32TCq2    C8  494   3.956   0.317  15.434  0.1649  0.0410  0.7276
   32TCq2    O4  495   4.059   0.259  15.412 -0.0006 -0.5532 -0.6535
   32TCq2    C9  496   3.605   0.573  15.221 -0.2565  1.0711 -0.6438
   32TCq2    O5  497   3.532   0.537  15.313  0.1227 -0.4677  0.0740
   32TCq2    O6  498   3.582   0.680  15.154  0.9405  0.4115  0.0641
   32TCq2    H2  499   3.786   0.599  15.022  1.6789  0.3975 -0.5481
   32TCq2    H3  500   3.703   0.404  15.388  1.4879  0.2018  1.6020
   32TCq2    H4  501   4.090   0.380  15.212  0.8104  0.3607 -0.4567
   33MPD2     C  502   4.509   2.677  10.434  0.5531  0.3547  0.2459
   33MPD2    C1  503   4.452   2.654  10.307 -0.0813  0.6734  0.0020
   33MPD2    C2  504   4.398   2.759  10.233  0.1178  0.2830  0.0104
   33MPD2    C3  505   4.410   2.894  10.277  0.0004 -0.1149  0.1452
   33MPD2    C4  506   4.473   2.912  10.397  0.2572  0.3413 -0.0188
   33MPD2    C5  507   4.516   2.807  10.476  0.0715  0.2620  0.3577
   33MPD2     H  508   4.360   2.745  10.132  0.7003 -0.7418 -0.0601
   33MPD2    H1  509   4.486   3.009  10.443 -0.7826 -0.1063  1.2348
   33MPD2    H2  510   4.546   2.602  10.503  1.5994 -0.4278 -1.1566
   33MPD2    H3  511   4.554   2.831  10.575 -1.5749  0.4008  0.9571
   33MPD2     N  512   4.342   2.996  10.211 -0.4894 -0.0765  0.1217
   33MPD2    H5  513   4.298   2.970  10.124 -0.6259 -1.1927  0.5260
   33MPD2    N1  514   4.441   2.521  10.266 -0.6636  0.2387 -0.7960
   33MPD2    H7  515   4.450   2.454  10.341  1.4324  2.2634  0.7558
   34TCq2    C1  516   4.373   3.129  10.227  0.3558 -0.1508  0.4507
   34TCq2    O2  517   4.460   3.195  10.289 -0.4675  0.1378  0.1399
   34TCq2    C2  518   4.286   3.221  10.153 -0.9440  0.1748  0.8648
   34TCq2    C3  519   4.152   3.192  10.119  0.5118 -0.2178  0.1709
   34TCq2    C4  520   4.075   3.272  10.049  0.5148 -0.4695 -0.7594
   34TCq2    C5  521   4.116   3.393  10.006  0.6233 -0.3579 -0.3610
   34TCq2    C6  522   4.250   3.421  10.039  0.3667  0.2093 -0.4302
   34TCq2    C7  523   4.336   3.345  10.118  0.3020  0.1418  0.4813
   34TCq2    C8  524   4.320   3.517   9.954 -0.0822 -0.1417 -0.3673
   34TCq2    O4  525   4.401   3.602   9.996  0.1500  0.6175  0.0297
   34TCq2    C9  526   3.937   3.235  10.020  0.4672 -0.3895  0.9325
   34TCq2    O5  527   3.891   3.126  10.060  0.3253  0.4426 -0.0077
   34TCq2    O6  528   3.861   3.326   9.985  0.6826 -0.1703  0.2155
   34TCq2    H2  529   4.110   3.099  10.157 -1.9288 -0.6472 -3.6155
   34TCq2    H3  530   4.055   3.466   9.955 -2.5348 -2.6113  0.2256
   34TCq2    H4  531   4.441   3.369  10.135  0.6729 -0.9672 -0.2326
   35MPD2     C  532   1.471   4.159  11.809 -0.6696 -0.9588  0.7119
   35MPD2    C1  533   1.416   4.036  11.834 -0.1692  0.0568 -0.0424
   35MPD2    C2  534   1.350   3.971  11.734 -0.2531  0.1806 -0.2772
   35MPD2    C3  535   1.321   4.033  11.613  0.3191 -0.2080 -0.6487
   35MPD2    C4  536   1.361   4.163  11.593 -0.1736 -0.1803  0.4477
   35MPD2    C5  537   1.447   4.212  11.685  0.4349  0.6249  0.1814
   35MPD2     H  538   1.317   3.868  11.742  0.5121 -0.1584 -1.4392
   35MPD2    H1  539   1.333   4.215  11.503  2.3284 -1.8937 -1.3379
   35MPD2    H2  540   1.524   4.220  11.880  0.1086 -1.4227  0.5348
   35MPD2    H3  541   1.501   4.304  11.671  1.2828 -0.0086 -0.6882
   35MPD2     N  542   1.254   3.958  11.518  0.5259 -0.6481  0.5785
   35MPD2    H5  543   1.224   3.867  11.551 -2.8944 -0.3967 -1.7988
   35MPD2    N1  544   1.423   3.975  11.964 -0.4122  0.5305  0.6720
   35MPD2    H7  545   1.392   3.878  11.965 -1.2253  0.8104  2.6474
   36TCq2    C1  546   1.207   4.004  11.395  0.5250 -0.0558  0.6750
   36TCq2    O2  547   1.241   4.091  11.319  0.3864  0.3931 -0.1922
   36TCq2    C2  548   1.099   3.927  11.338  0.1411 -0.3391 -0.6194
   36TCq2    C3  549   1.014   3.987  11.248  0.4880 -0.5152  0.3231
   36TCq2    C4  550   0.893   3.933  11.213  0.3175  0.5078 -0.3816
   36TCq2    C5  551   0.864   3.813  11.272  0.5498 -0.0278  0.1522
   36TCq2    C6  552   0.949   3.754  11.357 -0.8113  0.4751  0.4743
   36TCq2    C7  553   1.070   3.806  11.397  0.4237 -0.2685  0.1366
   36TCq2    C8  554   0.922   3.612  11.381  0.3632 -0.0306 -0.4756
   36TCq2    O4  555   0.826   3.560  11.321  0.4343  0.0372  0.3739
   36TCq2    C9  556   0.792   4.003  11.137 -0.3757  0.3151  0.1491
   36TCq2    O5  557   0.835   4.103  11.066 -0.4313  0.0100 -0.5007
   36TCq2    O6  558   0.682   3.949  11.122  0.3723 -0.7088  0.3858
   36TCq2    H2  559   1.039   4.089  11.221  0.5560 -0.8991 -1.0482
   36TCq2    H3  560   0.765   3.779  11.243 -0.0457 -0.5800  2.8192
   36TCq2    H4  561   1.138   3.755  11.465  0.1220  1.1863  1.5431
   37TMC2    C1  562   3.245   4.691  11.742 -0.6351  0.2447 -0.0736
   37TMC2    C2  563   3.222   4.657  11.609  0.9851 -1.1713 -0.7410
   37TMC2    C3  564   3.324   4.647  11.522  0.3243  0.0369 -0.0289
   37TMC2    C4  565   3.374   4.718  11.779 -0.3049 -0.0760  0.1284
   37TMC2    C5  566   3.474   4.716  11.688  0.5188  0.2745 -0.4358
   37TMC2    C6  567   3.461   4.680  11.561  1.2158 -0.0949  0.4863
   37TMC2     C  568   3.153   4.651  11.837 -0.3799 -0.2116  0.2174
   37TMC2     O  569   3.039   4.626  11.796  0.5360  0.3243  0.3542
   37TMC2     H  570   3.120   4.642  11.574  0.8371 -0.7470 -0.4963
   37TMC2    H1  571   3.395   0.053  11.866 -0.3740  1.4164 -0.9153
   37TMC2    H2  572   3.547   4.675  11.495  1.8895 -0.2613  1.3738
   37TMC2    C7  573   3.610   4.708  11.750 -0.0766 -0.5298  0.6190
   37TMC2    C8  574   3.291   4.614  11.383  0.0388 -0.6544  0.1609
   37TMC2    O1  575   3.606   4.672  11.863 -0.4270  0.6097  0.0152
   37TMC2    O2  576   3.188   4.663  11.330  0.3208  0.8078 -0.4984
   37TMC2    O5  577   3.404   4.617  11.319  0.1614  0.0707  0.1452
   37TMC2    H5  578   3.476   4.568  11.362 -0.1262  0.4939  1.0992
   38MPD2     C  579   3.050   4.525  12.320  0.4990  0.0838  0.1832
   38MPD2    C1  580   3.186   4.515  12.288  0.5151 -0.0040 -0.0324
   38MPD2    C2  581   3.233   4.566  12.174  0.1606 -0.2732 -0.2029
   38MPD2    C3  582   3.152   4.602  12.077 -0.9769  1.0184 -0.1609
   38MPD2    C4  583   3.016   4.586  12.093  1.0199  0.4746  0.0501
   38MPD2    C5  584   2.970   4.564  12.221 -0.4465  0.0884  0.1907
   38MPD2     H  585   3.340   4.561  12.160  0.2242  1.6733 -0.4395
   38MPD2    H1  586   2.953   4.612  12.009  2.0545 -0.4399 -1.0046
   38MPD2    H2  587   3.001   4.508  12.416  0.7716 -0.3715  0.2401
   38MPD2    H3  588   2.866   4.537  12.230  0.1359 -2.4386 -0.5996
   38MPD2     N  589   3.212   4.639  11.960  0.2404  0.0592 -0.3006
   38MPD2    H5  590   3.313   4.633  11.956  0.0963 -0.7350 -2.3264
   38MPD2    N1  591   3.286   4.467  12.368 -0.2753 -0.6152 -0.0662
   38MPD2    H7  592   3.380   4.472  12.330 -1.1548 -0.6862 -2.2426
   39MPD2     C  593   1.455   1.544   1.789  0.2358  0.5421  0.0907
   39MPD2    C1  594   1.416   1.677   1.804  0.3502  0.1531 -0.9763
   39MPD2    C2  595   1.310   1.725   1.729 -0.5389  0.4484 -0.3934
   39MPD2    C3  596   1.245   1.641   1.635 -0.2885  0.0316 -1.1891
   39MPD2    C4  597   1.306   1.526   1.599  0.1078 -0.3745 -0.3908
   39MPD2    C5  598   1.413   1.481   1.680 -0.7891  0.7345  0.2768
   39MPD2     H  599   1.270   1.825   1.741  3.0488  1.6873  1.2690
   39MPD2    H1  600   1.263   1.461   1.524 -1.9622  2.8147 -1.9472
   39MPD2    H2  601   1.536   1.495   1.842  1.1604  2.0927  0.1174
   39MPD2    H3  602   1.442   1.378   1.665  0.3053  1.2240 -1.0378
   39MPD2     N  603   1.140   1.681   1.546  0.0949  0.1238 -0.2161
   39MPD2    H5  604   1.114   1.617   1.472  0.3817  0.7235 -0.8271
   39MPD2    N1  605   1.479   1.750   1.905 -0.0651  0.1664 -0.6096
   39MPD2    H7  606   1.552   1.706   1.960 -0.4612  0.1579 -0.0811
   40TCq2    C1  607   1.467   1.887   1.919 -0.1818 -0.1427  1.1841
   40TCq2    O2  608   1.430   1.975   1.842  0.0607 -0.5478  0.4934
   40TCq2    C2  609   1.534   1.932   2.045  0.1518 -0.0676  0.3169
   40TCq2    C3  610   1.565   1.836   2.140  0.3236 -0.1893  0.2889
   40TCq2    C4  611   1.611   1.871   2.263 -0.8062  0.1716 -0.0757
   40TCq2    C5  612   1.619   2.006   2.301 -0.6323  0.1316  0.2419
   40TCq2    C6  613   1.582   2.104   2.204  0.0630 -0.2820 -0.3721
   40TCq2    C7  614   1.539   2.068   2.078 -0.5989 -0.4926  0.1561
   40TCq2    C8  615   1.608   2.246   2.230  0.4391 -0.0196 -0.3519
   40TCq2    O4  616   1.573   2.294   2.337  0.2014 -0.2995 -0.4978
   40TCq2    C9  617   1.637   1.769   2.363 -0.1143 -0.3998 -0.5038
   40TCq2    O5  618   1.689   1.799   2.475  0.4403 -0.3044  0.1733
   40TCq2    O6  619   1.587   1.654   2.341  0.3004 -0.0930 -1.0525
   40TCq2    H2  620   1.566   1.730   2.117 -3.0341 -0.2296  0.3638
   40TCq2    H3  621   1.651   2.035   2.400  0.1862  1.2028 -0.3443
   40TCq2    H4  622   1.505   2.145   2.009 -1.7105 -2.5346 -1.6143
   41TMC2    C1  623   0.952   4.271  14.190 -0.3206 -0.1958  0.8764
   41TMC2    C2  624   0.941   4.406  14.165  0.7661  0.0704  0.2756
   41TMC2    C3  625   0.947   4.436  14.032 -0.4771 -0.0692  0.5271
   41TMC2    C4  626   0.950   4.175  14.098  0.9390 -0.7148 -0.1312
   41TMC2    C5  627   0.942   4.202  13.970 -0.0744 -0.6198  0.4394
   41TMC2    C6  628   0.948   4.337  13.931  0.0651 -0.6686 -0.5924
   41TMC2     C  629   0.903   4.232  14.316 -0.0476  0.5991 -0.3756
   41TMC2     O  630   0.971   4.151  14.376  0.9826 -0.0233 -0.2035
   41TMC2     H  631   0.949   4.484  14.239 -1.4136  1.5067 -1.0008
   41TMC2    H1  632   0.931   4.076  14.137 -1.0533 -1.6940 -3.5806
   41TMC2    H2  633   0.973   4.358  13.828  0.5497  0.0841 -0.3200
   41TMC2    C7  634   0.901   4.092  13.886  0.2407  0.7658  0.1928
   41TMC2    C8  635   0.947   4.574  13.990  0.4456 -0.6175  0.3556
   41TMC2    O1  636   0.925   3.979  13.924  0.0535  0.3637  0.6793
   41TMC2    O2  637   0.914   4.652  14.076  0.1220  0.2035  0.1133
   41TMC2    O5  638   0.905   4.572  13.861 -0.3516 -0.3564 -0.2419
   41TMC2    H5  639   0.970   4.538  13.797  1.2102  0.0751  1.1201
   42MPD2     C  640   0.712   4.182  14.527  0.6963 -0.1662  0.6081
   42MPD2    C1  641   0.680   4.250  14.413  0.1206 -0.2288 -0.0978
   42MPD2    C2  642   0.552   4.294  14.400  0.2776 -0.1520  0.5329
   42MPD2    C3  643   0.457   4.266  14.496  0.2466 -0.2814  0.7141
   42MPD2    C4  644   0.493   4.184  14.607  0.3792  0.1620 -0.1044
   42MPD2    C5  645   0.621   4.145  14.625 -0.2668  0.5048 -0.1861
   42MPD2     H  646   0.534   4.345  14.306  0.4877  0.8561  1.0394
   42MPD2    H1  647   0.425   4.161  14.688  3.4787 -1.5689  2.0214
   42MPD2    H2  648   0.806   4.140  14.558  0.2278 -2.2234 -0.7642
   42MPD2    H3  649   0.653   4.081  14.707 -1.2161 -1.2164 -1.1444
   42MPD2     N  650   0.326   4.306  14.482  0.5469  1.0860 -0.5902
   42MPD2    H5  651   0.273   4.273  14.562 -0.2514  1.1434 -1.1028
   42MPD2    N1  652   0.777   4.274  14.317 -0.2066  0.8397 -0.2591
   42MPD2    H7  653   0.749   4.329  14.236 -0.6068  0.6882 -0.2203
   43MPD2     C  654   1.812   3.041   0.242 -0.1070  0.0806 -0.3116
   43MPD2    C1  655   1.841   3.004   0.372 -0.3587 -0.3727 -0.1958
   43MPD2    C2  656   1.783   3.071   0.476 -0.3937  0.2754  0.3273
   43MPD2    C3  657   1.700   3.180   0.452  0.2567  0.5485  0.2279
   43MPD2    C4  658   1.689   3.222   0.324 -0.2326 -0.2414 -0.0200
   43MPD2    C5  659   1.749   3.163   0.219  0.5391  0.2715 -0.1259
   43MPD2     H  660   1.799   3.028   0.575  1.0877  0.0055 -0.0415
   43MPD2    H1  661   1.627   3.310   0.304 -1.3526 -0.6700  1.5626
   43MPD2    H2  662   1.858   2.989   0.160  1.0158  2.0735 -0.9644
   43MPD2    H3  663   1.722   3.204   0.122 -0.9148 -0.0790  0.1265
   43MPD2     N  664   1.613   3.233   0.550 -0.0407  0.0757 -0.2967
   43MPD2    H5  665   1.546   3.299   0.512  0.8584  0.5343 -1.0722
   43MPD2    N1  666   1.927   2.892   0.402 -0.0189  0.5921 -0.5632
   43MPD2    H7  667   1.927   2.856   0.497  1.3360  1.3102 -0.2829
   44TCq2    C1  668   1.478   3.356   1.100  0.1180 -0.5728  0.4882
   44TCq2    O2  669   1.572   3.304   1.159  0.1850 -0.1349  0.2169
   44TCq2    C2  670   1.421   3.307   0.974 -0.4505 -1.1937  0.3365
   44TCq2    C3  671   1.321   3.376   0.914 -0.0353 -0.0664 -0.1283
   44TCq2    C4  672   1.301   3.367   0.779  0.0750  0.2056 -0.2355
   44TCq2    C5  673   1.392   3.306   0.694 -0.2300 -0.0700  0.4245
   44TCq2    C6  674   1.502   3.258   0.755  0.6683  0.1482  0.5668
   44TCq2    C7  675   1.515   3.254   0.894 -0.3345 -0.4589  0.1790
   44TCq2    C8  676   1.622   3.216   0.689  0.3791  0.0369  0.4006
   44TCq2    O4  677   1.713   3.164   0.748 -0.1540 -0.1750  0.0678
   44TCq2    C9  678   1.174   3.420   0.726 -0.1948 -0.5738 -0.9613
   44TCq2    O5  679   1.112   3.508   0.795 -0.5671  0.7634 -0.2228
   44TCq2    O6  680   1.151   3.402   0.603  0.1849 -0.1266 -0.4800
   44TCq2    H2  681   1.234   3.418   0.963  0.2515  2.1758 -1.5283
   44TCq2    H3  682   1.368   3.297   0.589  0.7737  0.4642  0.1533
   44TCq2    H4  683   1.601   3.215   0.947 -1.9185  0.7096  3.5870
   45TMC2    C1  684   2.196   0.149   9.480 -0.7337 -0.1711  0.4128
   45TMC2    C2  685   2.171   0.088   9.358 -0.5341  0.1280  0.0046
   45TMC2    C3  686   2.150   0.165   9.251 -0.5812  0.1830  0.4553
   45TMC2    C4  687   2.188   0.281   9.501  0.4368 -0.2877 -0.3749
   45TMC2    C5  688   2.162   0.350   9.388 -0.4254 -0.2195  0.5814
   45TMC2    C6  689   2.152   0.300   9.264  0.1782 -0.0352 -0.3222
   45TMC2     C  690   2.211   0.059   9.598  0.9209 -0.4740  0.8480
   45TMC2     O  691   2.301   0.083   9.678  0.5063  0.1930 -0.6104
   45TMC2     H  692   2.182   4.708   9.339 -0.2088  0.3005 -0.7599
   45TMC2    H1  693   2.211   0.322   9.599  1.7571 -1.1685 -0.3132
   45TMC2    H2  694   2.152   0.354   9.170  1.4394 -0.8864 -0.8065
   45TMC2    C7  695   2.126   0.489   9.404  0.7813 -0.1038  1.0266
   45TMC2    C8  696   2.176   0.109   9.118 -0.5689  0.1054  0.6574
   45TMC2    O1  697   2.039   0.512   9.325 -0.0931  0.1893  0.1382
   45TMC2    O2  698   2.128   0.157   9.014 -0.4295  0.3542  0.4650
   45TMC2    O5  699   2.291   0.038   9.128 -0.5018  0.4537 -0.4649
   45TMC2    H5  700   2.324   0.046   9.220  0.8222 -2.8066 -0.6267
   46MPD2     C  701   2.206   4.531   9.751  0.4445  0.1066  0.2080
   46MPD2    C1  702   2.136   4.549   9.637 -0.1705 -0.5912  0.1406
   46MPD2    C2  703   2.059   4.446   9.584 -0.1911 -0.8040 -0.2217
   46MPD2    C3  704   2.071   4.316   9.633 -0.0208 -0.5834  0.0537
   46MPD2    C4  705   2.151   4.295   9.744 -0.2416  0.3127  0.1215
   46MPD2    C5  706   2.206   4.403   9.803 -0.1786  0.2395 -0.0369
   46MPD2     H  707   1.983   4.463   9.509  0.8937  0.7836 -0.9701
   46MPD2    H1  708   2.167   4.201   9.795  2.4359  1.6585  1.7241
   46MPD2    H2  709   2.252   4.613   9.805 -1.7277 -0.6193  3.1531
   46MPD2    H3  710   2.260   4.387   9.895 -0.7036  0.6784  0.3457
   46MPD2     N  711   2.005   4.204   9.573  1.1755  0.1369 -0.0031
   46MPD2    H5  712   1.937   4.227   9.502  0.8718  0.0442  0.2599
   46MPD2    N1  713   2.126   4.676   9.576  0.8049  0.2028  0.5745
   46MPD2    H7  714   2.057   4.690   9.503  0.6439 -1.3143  0.4357
   47TMC2    C1  715   3.793   0.580   9.494  0.0071  0.1486 -0.1724
   47TMC2    C2  716   3.832   0.495   9.400 -0.6586 -0.4294 -0.0741
   47TMC2    C3  717   3.743   0.420   9.328  0.3746  0.1384  0.2282
   47TMC2    C4  718   3.666   0.597   9.533 -0.2029  0.1901  0.4540
   47TMC2    C5  719   3.578   0.504   9.476  0.6317  0.0662  0.5424
   47TMC2    C6  720   3.613   0.413   9.376  0.5447 -0.3918 -0.3265
   47TMC2     C  721   3.888   0.653   9.573  0.3257 -0.1675  0.2350
   47TMC2     O  722   3.851   0.762   9.616  0.2009 -0.1534  0.5008
   47TMC2     H  723   3.933   0.487   9.361 -0.1888  0.7160  0.8817
   47TMC2    H1  724   3.642   0.664   9.614 -0.9710 -0.9981  1.2079
   47TMC2    H2  725   3.546   0.345   9.324  1.0495 -0.1768 -1.2694
   47TMC2    C7  726   3.432   0.511   9.497 -0.0728 -0.7170  0.3967
   47TMC2    C8  727   3.783   0.362   9.202 -0.1302  0.0165 -0.1441
   47TMC2    O1  728   3.361   0.414   9.468  0.6562 -0.2437  0.3917
   47TMC2    O2  729   3.868   0.419   9.136 -0.1946  0.2988 -0.6964
   47TMC2    O5  730   3.753   0.233   9.183  0.6826  0.0972 -0.4164
   47TMC2    H5  731   3.696   0.191   9.250  1.6813 -2.5849 -1.2648
   48MPD2     C  732   4.115   0.775   9.713 -0.7298 -1.2326  0.0061
   48MPD2    C1  733   4.132   0.666   9.631 -0.4383  0.0992  0.3273
   48MPD2    C2  734   4.255   0.625   9.609 -0.2823 -0.1190 -0.2283
   48MPD2    C3  735   4.369   0.686   9.660 -0.5306  0.4505  0.0263
   48MPD2    C4  736   4.356   0.797   9.738 -0.1075 -0.3793  0.3180
   48MPD2    C5  737   4.229   0.841   9.761 -0.7647 -0.0599 -0.4018
   48MPD2     H  738   4.262   0.546   9.536 -1.3882  0.0599 -0.5256
   48MPD2    H1  739   4.443   0.839   9.786  0.6377  0.0917 -1.4645
   48MPD2    H2  740   4.022   0.806   9.759 -1.1901 -2.9305  0.2063
   48MPD2    H3  741   4.213   0.924   9.829 -0.4918  1.4439 -2.1697
   48MPD2     N  742   4.497   0.650   9.604 -0.4020 -0.8160 -0.2063
   48MPD2    H5  743   4.495   0.581   9.529 -0.5105 -1.1532  0.1074
   48MPD2    N1  744   4.022   0.602   9.570 -0.0904  0.4097 -0.2327
   48MPD2    H7  745   4.041   0.510   9.530  1.6067  0.8937 -0.5737
   49MPD2     C  746   2.067   1.478   9.994 -0.3788  0.5095 -0.2125
   49MPD2    C1  747   2.107   1.509  10.125  0.3199  0.2050  0.2055
   49MPD2    C2  748   2.212   1.603  10.140  0.1099  0.4594 -0.3540
   49MPD2    C3  749   2.275   1.649  10.025  0.1384 -0.0651 -0.0387
   49MPD2    C4  750   2.236   1.613   9.898 -0.4602  0.3264  0.6010
   49MPD2    C5  751   2.130   1.526   9.880 -0.1689  0.3063 -0.3388
   49MPD2     H  752   2.236   1.643  10.238  0.1773 -1.2421  0.3246
   49MPD2    H1  753   2.291   1.651   9.813 -0.3005  0.4189  0.7447
   49MPD2    H2  754   1.981   1.417   9.968 -0.1104 -0.1840  0.5507
   49MPD2    H3  755   2.082   1.490   9.790 -2.5147  1.5395  0.3978
   49MPD2     N  756   2.394   1.725  10.034 -0.5843  0.0406 -0.2834
   49MPD2    H5  757   2.438   1.761   9.951  0.5929  1.2883  0.8816
   49MPD2    N1  758   2.042   1.468  10.244  0.3157 -0.8487  0.0457
   49MPD2    H7  759   2.073   1.513  10.330  0.9289 -0.5602 -0.3214
   50TCq2    C1  760   1.924   1.399  10.239 -0.2087  0.8036 -0.0057
   50TCq2    O2  761   1.844   1.382  10.150  0.1087 -0.3630 -0.4694
   50TCq2    C2  762   1.871   1.367  10.370  0.3049 -0.3310  0.5539
   50TCq2    C3  763   1.741   1.317  10.371  0.3516 -0.2381  0.7853
   50TCq2    C4  764   1.685   1.265  10.487 -0.5016  0.7655 -0.0297
   50TCq2    C5  765   1.756   1.272  10.605 -0.2273 -0.7960 -0.6898
   50TCq2    C6  766   1.886   1.315  10.595  0.5026 -1.1631 -0.4571
   50TCq2    C7  767   1.949   1.365  10.482  0.6056  0.2945  0.4900
   50TCq2    C8  768   1.962   1.311  10.721 -0.1074  0.5012 -0.0576
   50TCq2    O4  769   1.928   1.231  10.807 -0.3293 -0.0004  0.0464
   50TCq2    C9  770   1.543   1.230  10.498 -0.5696 -0.4989  0.8087
   50TCq2    O5  771   1.469   1.251  10.400 -0.4203  0.3947 -0.2769
   50TCq2    O6  772   1.500   1.192  10.611 -0.0769 -0.0030  0.5385
   50TCq2    H2  773   1.679   1.321  10.281  1.1122 -2.0031  0.1892
   50TCq2    H3  774   1.708   1.265  10.702  2.5662  1.5540  0.8893
   50TCq2    H4  775   2.057   1.375  10.475  0.5673  1.4132  1.4123
   51MPD2     C  776   2.741   2.033   1.036  0.9446  0.0749 -0.3250
   51MPD2    C1  777   2.812   2.020   1.152 -0.0756 -0.4045  0.2511
   51MPD2    C2  778   2.844   2.134   1.228  0.0657  0.2827  0.6379
   51MPD2    C3  779   2.814   2.262   1.193 -0.6522 -0.7401  0.3600
   51MPD2    C4  780   2.741   2.276   1.075 -0.3762 -0.0189 -0.0169
   51MPD2    C5  781   2.701   2.160   1.013 -0.1258  0.0038 -0.5926
   51MPD2     H  782   2.908   2.120   1.314  1.3667  0.6651 -0.2782
   51MPD2    H1  783   2.717   2.378   1.048  2.3185  0.6413  0.0607
   51MPD2    H2  784   2.720   1.958   0.961 -1.5324  0.6173 -0.1545
   51MPD2    H3  785   2.651   2.177   0.918 -0.6559 -1.7149 -0.6072
   51MPD2     N  786   2.820   2.381   1.273 -0.8536 -0.3925  0.4544
   51MPD2    H5  787   2.815   2.466   1.219  0.7321 -0.0132  0.9026
   51MPD2    N1  788   2.874   1.897   1.193  0.5472  0.2516 -0.9406
   51MPD2    H7  789   2.920   1.904   1.283 -1.8538  0.7611  0.2564
   52TCq2    C1  790   2.867   2.395   1.401  0.2863 -0.0834 -0.7527
   52TCq2    O2  791   2.904   2.312   1.483  0.0434 -0.5656  1.3308
   52TCq2    C2  792   2.872   2.531   1.451 -0.3079  0.0904 -0.2190
   52TCq2    C3  793   2.830   2.635   1.369  0.6679  0.2765  0.7949
   52TCq2    C4  794   2.864   2.762   1.401 -0.2031 -0.7747  0.1891
   52TCq2    C5  795   2.953   2.791   1.506 -0.4363 -0.1316  0.2503
   52TCq2    C6  796   2.993   2.685   1.585  0.3448 -0.2707  0.2128
   52TCq2    C7  797   2.949   2.555   1.557  0.0349  0.6184 -0.1503
   52TCq2    C8  798   3.134   2.686   1.644  0.1330  0.5733  0.4634
   52TCq2    O4  799   3.189   2.577   1.659  0.0645 -0.2891 -0.1899
   52TCq2    C9  800   2.833   2.867   1.307  0.3516 -0.1009 -0.7102
   52TCq2    O5  801   2.896   2.974   1.329  0.0298  0.4049  0.6775
   52TCq2    O6  802   2.737   2.850   1.232  0.4271  0.1680  0.6844
   52TCq2    H2  803   2.756   2.616   1.292  2.2808  0.5059 -0.8106
   52TCq2    H3  804   3.001   2.888   1.514 -0.0683 -0.3424  0.5989
   52TCq2    H4  805   2.986   2.469   1.613 -1.4148  0.6892  0.9242
   53TMC2    C1  806   4.183   4.543  12.141  0.4666 -0.0967 -0.5016
   53TMC2    C2  807   4.296   4.481  12.201 -0.2647 -0.8812  0.2130
   53TMC2    C3  808   4.299   4.467  12.340 -0.0000 -0.9329 -0.3210
   53TMC2    C4  809   4.088   4.593  12.221  0.6209 -0.4587 -0.2253
   53TMC2    C5  810   4.082   4.567  12.362 -0.3187  0.1116 -0.2144
   53TMC2    C6  811   4.190   4.518  12.419  0.6108  0.2783 -0.6975
   53TMC2     C  812   4.187   4.572  11.996 -0.3284 -0.7133  0.4135
   53TMC2     O  813   4.286   4.554  11.931 -0.2998 -0.6678  0.6629
   53TMC2     H  814   4.379   4.452  12.137 -0.6974  2.6927 -1.9788
   53TMC2    H1  815   4.004   4.646  12.177 -0.6712 -2.2829  0.0348
   53TMC2    H2  816   4.200   4.503  12.525 -0.5306 -2.2621 -0.9437
   53TMC2    C7  817   4.003   4.667  12.429 -0.2940  1.2399 -0.4524
   53TMC2    C8  818   4.416   4.440  12.405  0.0479  1.2014 -0.1828
   53TMC2    O1  819   3.965   0.042  12.374 -0.3212 -0.0532 -0.2449
   53TMC2    O2  820   4.455   4.486  12.515  0.1473  0.3353 -0.0186
   53TMC2    O5  821   4.465   4.326  12.346 -0.0758  0.3926  0.5713
   53TMC2    H5  822   4.422   4.297  12.262  0.9483 -0.1146  0.2167
   54MPD2     C  823   4.116   4.677  11.708 -0.4111 -0.0178  0.2045
   54MPD2    C1  824   4.029   4.654  11.814  0.4090 -0.2204  0.2690
   54MPD2    C2  825   3.892   4.673  11.801 -0.4816  0.0241 -0.2235
   54MPD2    C3  826   3.846   4.717  11.678  0.0205 -0.1369 -0.0307
   54MPD2    C4  827   3.933   0.027  11.578  0.1872 -0.0503 -0.3760
   54MPD2    C5  828   4.059   0.000  11.591 -0.4046 -0.9163 -0.5497
   54MPD2     H  829   3.835   4.653  11.892  1.0376  0.1643  0.7673
   54MPD2    H1  830   3.888   0.072  11.491 -2.8290  1.6727  2.0726
   54MPD2    H2  831   4.223   4.662  11.704 -0.4501 -1.0199  2.5035
   54MPD2    H3  832   4.115   0.021  11.501 -1.2501 -1.1695 -1.1446
   54MPD2     N  833   3.710   0.014  11.655  0.0164 -0.4962  0.0911
   54MPD2    H5  834   3.685   0.049  11.563 -3.5929 -2.0684  0.4676
   54MPD2    N1  835   4.067   4.609  11.946  0.0788  0.0301 -0.5903
   54MPD2    H7  836   3.993   4.599  12.014  0.3230  0.1461 -0.3037
   55MPD2     C  837   4.276   2.996   0.264 -0.1709  0.1103  0.3518
   55MPD2    C1  838   4.231   2.895   0.352  0.2559  0.1665  0.4656
   55MPD2    C2  839   4.097   2.867   0.357  0.7644 -0.4453 -0.3209
   55MPD2    C3  840   4.013   2.930   0.267  0.2176 -0.0415  0.1805
   55MPD2    C4  841   4.055   3.030   0.177 -0.2866 -0.3056 -0.4990
   55MPD2    C5  842   4.184   3.060   0.187  0.3741 -0.5284  0.0829
   55MPD2     H  843   4.051   2.787   0.413  0.4664  0.5285  0.8173
   55MPD2    H1  844   3.994   3.091   0.111 -0.8274  0.3926  0.6408
   55MPD2    H2  845   4.380   3.028   0.261 -0.5085  0.9933 -2.1531
   55MPD2    H3  846   4.223   3.140   0.126 -1.2492  0.2710  0.1042
   55MPD2     N  847   3.880   2.885   0.270 -0.2581  0.1110 -0.3003
   55MPD2    H5  848   3.872   2.823   0.350 -2.6841 -0.7232 -1.1976
   55MPD2    N1  849   4.326   2.828   0.430 -0.3434 -0.5977  0.4469
   55MPD2    H7  850   4.422   2.829   0.398 -0.0444 -1.3856  1.3184
   56TCq2    C1  851   4.290   2.743   0.534  0.7538  0.4681 -0.1352
   56TCq2    O2  852   4.182   2.726   0.588 -0.3840 -0.2195  0.3962
   56TCq2    C2  853   4.410   2.670   0.575  0.2489  0.0061  0.1359
   56TCq2    C3  854   4.497   2.631   0.483  0.0094 -0.1593  0.0405
   56TCq2    C4  855   4.603   2.554   0.529 -0.3213  0.0323  0.0619
   56TCq2    C5  856   4.621   2.517   0.664  0.5320  0.2117 -0.0272
   56TCq2    C6  857   4.519   2.554   0.752  0.1115  0.1720  0.3018
   56TCq2    C7  858   4.407   2.613   0.703 -0.3276 -0.1314  0.5461
   56TCq2    C8  859   4.509   2.471   0.880 -0.0500  0.5258 -0.4464
   56TCq2    O4  860   4.610   2.452   0.946 -0.0480 -0.1169 -0.2637
   56TCq2    C9  861   4.695   2.505   0.421 -0.1631  0.1288  0.0343
   56TCq2    O5  862   4.707   2.573   0.315 -0.5923  0.2323  0.3718
   56TCq2    O6  863   0.012   2.389   0.445  0.0503  0.7185  0.0234
   56TCq2    H2  864   4.505   2.662   0.379  2.4081  1.1856  0.6110
   56TCq2    H3  865   4.706   2.459   0.696 -0.6736  0.1122  3.0109
   56TCq2    H4  866   4.313   2.626   0.755 -0.3191 -1.1134  0.8019
   57TMC2    C1  867   4.011   3.464  12.996  0.4178 -0.1040 -0.1386
   57TMC2    C2  868   4.142   3.481  13.025  0.4563  0.3911 -0.1380
   57TMC2    C3  869   4.230   3.491  12.917  0.5478  0.6774  0.0845
   57TMC2    C4  870   3.970   3.457  12.863  0.0441 -0.3253 -0.6971
   57TMC2    C5  871   4.059   3.469  12.760 -0.6264 -0.3098  0.4547
   57TMC2    C6  872   4.187   3.497  12.787  0.0517 -0.3768  0.0334
   57TMC2     C  873   3.928   3.431  13.112 -0.4928  0.0189 -0.1585
   57TMC2     O  874   3.968   3.468  13.217  0.0575 -0.4488  0.3115
   57TMC2     H  875   4.185   3.468  13.124  1.4758  0.0391 -0.6293
   57TMC2    H1  876   3.865   3.433  12.849  0.2669 -1.1396 -0.9531
   57TMC2    H2  877   4.259   3.516  12.709 -0.9077 -0.6160 -0.9032
   57TMC2    C7  878   4.011   3.447  12.624 -0.1453  0.2136  0.9300
   57TMC2    C8  879   4.370   3.469  12.932  0.5183  0.2490  0.3785
   57TMC2    O1  880   3.888   3.438  12.616 -0.1154 -0.1181 -0.7149
   57TMC2    O2  881   4.438   3.413  12.847  0.1012 -0.5263  0.7324
   57TMC2    O5  882   4.405   3.531  13.047 -0.1067 -0.6616  0.2249
   57TMC2    H5  883   4.332   3.586  13.082 -0.5489 -0.2753 -1.3307
   58MPD2     C  884   3.483   3.280  13.323 -0.4549  0.5050 -0.2197
   58MPD2    C1  885   3.569   3.389  13.349  0.9019  0.4056  0.1350
   58MPD2    C2  886   3.689   3.407  13.283  0.6709 -0.3499  0.0388
   58MPD2    C3  887   3.707   3.326  13.173 -0.3173 -0.4609  0.2593
   58MPD2    C4  888   3.626   3.224  13.143 -0.4865  0.4321  0.0499
   58MPD2    C5  889   3.520   3.201  13.219 -0.3209 -0.1137 -0.4379
   58MPD2     H  890   3.747   3.495  13.308  2.0394 -0.8060 -1.4781
   58MPD2    H1  891   3.640   3.154  13.061  1.4526  1.0270 -0.1184
   58MPD2    H2  892   3.387   3.265  13.370  0.9985 -0.8777  2.3050
   58MPD2    H3  893   3.454   3.118  13.197 -0.5947 -0.3275  1.1745
   58MPD2     N  894   3.823   3.342  13.090  0.0906  0.1897 -0.0303
   58MPD2    H5  895   3.825   3.289  13.003  1.1173  0.1564  0.0115
   58MPD2    N1  896   3.546   3.485  13.453  0.3195 -0.3922  0.3153
   58MPD2    H7  897   3.616   3.556  13.473  3.2250 -3.0165 -0.6000
   59MPD2     C  898   1.603   3.023  13.070  0.1745 -0.1289  0.1509
   59MPD2    C1  899   1.654   3.083  12.955 -0.6036  0.0224 -0.3946
   59MPD2    C2  900   1.738   3.187  12.961  0.2483  0.1590 -0.2879
   59MPD2    C3  901   1.760   3.250  13.083 -0.9519  0.0917 -0.5070
   59MPD2    C4  902   1.706   3.189  13.196  0.0204 -0.1315  0.0150
   59MPD2    C5  903   1.619   3.079  13.189  0.4370 -0.2442 -0.0057
   59MPD2     H  904   1.775   3.235  12.871  2.2616  0.7625  0.8564
   59MPD2    H1  905   1.734   3.222  13.295 -0.6533 -0.9111  0.4635
   59MPD2    H2  906   1.535   2.938  13.071  2.3324 -1.8050  2.0340
   59MPD2    H3  907   1.574   3.038  13.279  0.9043 -0.8561 -0.0533
   59MPD2     N  908   1.841   3.371  13.100  0.2261 -0.4538 -0.6231
   59MPD2    H5  909   1.847   3.414  13.192  1.3629 -0.9135 -0.4931
   59MPD2    N1  910   1.624   3.026  12.830 -0.1932  0.6848 -0.2490
   59MPD2    H7  911   1.677   3.052  12.748  0.2628 -0.3268 -0.2797
   60TCq2    C1  912   1.516   2.941  12.806  0.5447 -0.0747 -0.0007
   60TCq2    O2  913   1.423   2.915  12.880 -0.0245 -0.7256 -0.0831
   60TCq2    C2  914   1.516   2.886  12.667 -0.0490  0.1130 -0.2069
   60TCq2    C3  915   1.412   2.808  12.631 -0.3730 -0.3453  1.2704
   60TCq2    C4  916   1.382   2.775  12.503  0.1160  0.5454 -0.2416
   60TCq2    C5  917   1.453   2.829  12.393 -0.6714  0.0331 -0.1451
   60TCq2    C6  918   1.560   2.904  12.435 -0.2699  0.5054  0.7176
   60TCq2    C7  919   1.587   2.942  12.565  0.4145  0.0016  0.1123
   60TCq2    C8  920   1.601   2.985  12.328 -0.0672 -0.3242 -0.0647
   60TCq2    O4  921   1.638   2.930  12.224 -0.0080 -0.2642  0.4221
   60TCq2    C9  922   1.265   2.697  12.474  0.2697  0.5650 -0.8689
   60TCq2    O5  923   1.175   2.691  12.562 -0.4251 -1.1382  0.2079
   60TCq2    O6  924   1.242   2.662  12.353 -0.3138  0.0335 -0.5137
   60TCq2    H2  925   1.341   2.773  12.704  0.8486  0.2533  2.7419
   60TCq2    H3  926   1.415   2.814  12.293 -0.9182  3.7068 -0.6003
   60TCq2    H4  927   1.680   2.996  12.579 -1.0745  1.9377  2.4850
   61MPD2     C  928   1.205   0.237  14.406  0.4556 -0.5981  0.6227
   61MPD2    C1  929   1.075   0.290  14.412 -0.2873  0.3399  0.2673
   61MPD2    C2  930   1.014   0.317  14.289  0.9666 -0.0866 -0.5378
   61MPD2    C3  931   1.069   0.295  14.169  0.5183 -0.3484  0.3229
   61MPD2    C4  932   1.196   0.241  14.164 -0.3830  0.6504 -0.6124
   61MPD2    C5  933   1.261   0.212  14.283 -0.3115  0.4075  1.1184
   61MPD2     H  934   0.912   0.350  14.306  0.1346 -2.0816 -1.6267
   61MPD2    H1  935   1.247   0.210  14.073 -0.1108 -3.1851  0.8469
   61MPD2    H2  936   1.268   0.219  14.493  1.3734 -1.7663 -0.2749
   61MPD2    H3  937   1.360   0.171  14.291 -0.3694 -0.3516 -1.8792
   61MPD2     N  938   1.017   0.329  14.042  0.3069  0.3615 -0.3907
   61MPD2    H5  939   1.077   0.287  13.972  0.0909 -3.1881  1.5634
   61MPD2    N1  940   1.010   0.320  14.529  0.4184 -0.1402 -0.1844
   61MPD2    H7  941   0.936   0.388  14.518  1.3608  1.2102  1.9121
   62TCq2    C1  942   1.050   0.277  14.655 -0.5523  0.2249 -0.2199
   62TCq2    O2  943   1.128   0.192  14.683 -0.4731 -0.1463 -0.0317
   62TCq2    C2  944   0.959   0.334  14.759  0.2948  0.5763 -0.4921
   62TCq2    C3  945   0.958   0.272  14.872 -0.0991  0.1586 -0.3246
   62TCq2    C4  946   0.910   0.336  14.981  0.5623 -0.2821 -0.5811
   62TCq2    C5  947   0.898   0.473  14.975  0.1394 -0.6143 -0.5778
   62TCq2    C6  948   0.911   0.538  14.859 -0.2960  0.3907 -0.1149
   62TCq2    C7  949   0.935   0.465  14.746 -0.1624 -0.0030 -0.0801
   62TCq2    C8  950   0.902   0.681  14.851  0.5417  0.4691 -0.1832
   62TCq2    O4  951   1.000   0.743  14.808 -0.4015  0.0631  0.0622
   62TCq2    C9  952   0.899   0.267  15.104 -0.3910 -0.1131  0.4359
   62TCq2    O5  953   0.881   0.335  15.209  0.3937 -0.2412  0.4725
   62TCq2    O6  954   0.884   0.142  15.097 -0.0225  0.0911 -0.0274
   62TCq2    H2  955   0.958   0.164  14.876 -0.4481  0.1468 -0.6615
   62TCq2    H3  956   0.893   0.527  15.069  1.3408  0.6952 -1.2669
   62TCq2    H4  957   0.949   0.524  14.656 -0.6252  0.0963 -0.0889
   63TMC2    C1  958   4.566   0.274  10.754  1.1346 -0.0185 -0.4574
   63TMC2    C2  959   4.524   0.405  10.792  0.2436 -0.1370 -0.5796
   63TMC2    C3  960   4.552   0.505  10.707 -0.2010 -0.3479 -0.1983
   63TMC2    C4  961   4.644   0.263  10.641  1.0203  0.4027  0.2115
   63TMC2    C5  962   4.673   0.368  10.567  1.1551 -1.0496  0.5559
   63TMC2    C6  963   4.636   0.492  10.600  0.4567  0.1559  0.8752
   63TMC2     C  964   4.523   0.161  10.838 -0.7826  0.0556 -1.2648
   63TMC2     O  965   4.456   0.179  10.938 -0.3126 -0.1682  0.3776
   63TMC2     H  966   4.449   0.412  10.870  0.8855 -1.1440  0.1109
   63TMC2    H1  967   4.684   0.164  10.620 -2.0253 -0.6381 -0.7403
   63TMC2    H2  968   4.659   0.581  10.542 -0.3150 -0.2089  0.0031
   63TMC2    C7  969   4.667   0.335  10.433 -0.3682 -0.3647 -0.5636
   63TMC2    C8  970   4.554   0.644  10.759  0.4240 -0.0910  0.2819
   63TMC2    O1  971   4.639   0.223  10.409  0.7403  0.4025 -0.2243
   63TMC2    O2  972   4.566   0.736  10.683 -0.4060 -0.3604  0.4540
   63TMC2    O5  973   4.634   0.634  10.870  0.3293 -0.0426 -0.0681
   63TMC2    H5  974   4.632   0.540  10.897  0.7133 -0.2196 -0.6490
   64MPD2     C  975   4.524   4.386  10.917  0.5879  0.1980  0.0017
   64MPD2    C1  976   4.530   4.413  10.784  0.1628  0.6264 -0.3435
   64MPD2    C2  977   4.547   4.547  10.737 -0.0053 -0.2197 -0.0395
   64MPD2    C3  978   4.543   4.649  10.828  0.4740 -0.1331  0.0697
   64MPD2    C4  979   4.533   4.624  10.963 -0.5577  0.8368 -0.7172
   64MPD2    C5  980   4.534   4.491  11.008  0.6701 -0.1998 -0.4069
   64MPD2     H  981   4.562   4.571  10.632 -1.8238 -0.6670 -0.4163
   64MPD2    H1  982   4.540   4.702  11.038 -1.9927 -0.6032  0.9102
   64MPD2    H2  983   4.530   4.288  10.964 -0.9409  0.2281  0.2392
   64MPD2    H3  984   4.541   4.464  11.113 -1.5506 -1.2428 -0.5223
   64MPD2     N  985   4.548   0.049  10.773  0.3217  0.5439 -0.2318
   64MPD2    H5  986   4.552   0.057  10.672  0.9678 -2.0824 -0.4138
   64MPD2    N1  987   4.527   4.306  10.695  0.6817  0.3243  0.1823
   64MPD2    H7  988   4.539   4.323  10.596 -1.6370  1.9234  0.1833
   65MPD2     C  989   0.979   4.290  15.818 -0.2931 -0.3355 -0.0147
   65MPD2    C1  990   1.003   4.222  15.698 -0.4224  0.2542  0.1448
   65MPD2    C2  991   0.942   4.100  15.677 -0.1866  0.1247  0.0468
   65MPD2    C3  992   0.860   4.042  15.770 -0.1922 -0.1680  0.2002
   65MPD2    C4  993   0.845   4.106  15.887 -0.0667 -0.0918 -0.0748
   65MPD2    C5  994   0.907   4.225  15.910  0.2548 -0.2017 -0.1125
   65MPD2     H  995   0.953   4.058  15.578 -2.6786  2.4436 -1.1990
   65MPD2    H1  996   0.769   4.082  15.961  1.4102 -0.3999  1.3444
   65MPD2    H2  997   1.024   4.387  15.837  0.2967 -1.1375  2.6867
   65MPD2    H3  998   0.888   4.265  16.009  0.1375  1.6713 -0.8872
   65MPD2     N  999   0.801   3.913  15.757 -0.0114 -0.5493  0.4483
   65MPD2    H5 1000   0.745   3.877  15.834  0.8235 -1.6156  0.5646
   65MPD2    N1 1001   1.073   4.286  15.589  0.6164  0.4780 -0.0595
   65MPD2    H7 1002   1.070   4.240  15.498  0.1220 -0.8746  0.6364
   66TCq2    C1 1003   1.149   4.395  15.597 -0.4554  0.6089 -0.3564
   66TCq2    O2 1004   1.174   4.474  15.691 -0.1047  0.0117 -0.1747
   66TCq2    C2 1005   1.213   4.433  15.472  0.7950  0.6437  0.7366
   66TCq2    C3 1006   1.234   4.339  15.379  0.3377 -0.1761  0.1762
   66TCq2    C4 1007   1.289   4.372  15.259  0.4619  0.8103  0.0470
   66TCq2    C5 1008   1.333   4.496  15.233  0.0699 -0.0662 -0.5262
   66TCq2    C6 1009   1.318   4.591  15.333 -0.1057  0.0322 -0.6259
   66TCq2    C7 1010   1.256   4.561  15.456 -0.0401  0.0785 -0.8151
   66TCq2    C8 1011   1.314   4.725  15.283  0.5938 -0.4722  0.1892
   66TCq2    O4 1012   1.291   0.012  15.162  0.0558  0.8085 -0.1344
   66TCq2    C9 1013   1.295   4.269  15.163 -0.0911  1.1403 -0.0707
   66TCq2    O5 1014   1.205   4.183  15.170 -0.2661  0.0028 -0.5783
   66TCq2    O6 1015   1.357   4.302  15.056 -0.0378  0.4922 -0.2528
   66TCq2    H2 1016   1.216   4.234  15.399 -0.7080 -0.0822 -0.2532
   66TCq2    H3 1017   1.379   4.521  15.138 -0.6457 -1.4549 -1.2465
   66TCq2    H4 1018   1.235   4.637  15.530 -0.9498  1.2944 -2.3044
   67MPD2     C 1019   1.716   3.634  13.925  0.1473 -0.6713 -0.2194
   67MPD2    C1 1020   1.621   3.629  14.025 -0.2866  0.5705  0.7545
   67MPD2    C2 1021   1.494   3.592  13.997 -0.2016  0.2209  0.2892
   67MPD2    C3 1022   1.463   3.562  13.866 -0.2616  0.3199  0.1223
   67MPD2    C4 1023   1.556   3.566  13.764 -0.3201 -0.5268  0.3137
   67MPD2    C5 1024   1.684   3.590  13.802 -0.3695 -0.0995 -0.8749
   67MPD2     H 1025   1.420   3.592  14.077 -0.0340 -3.5507  0.4626
   67MPD2    H1 1026   1.535   3.521  13.667  1.8812  0.9055 -0.8294
   67MPD2    H2 1027   1.818   3.668  13.923 -0.0824  0.0361  0.3640
   67MPD2    H3 1028   1.755   3.571  13.723 -1.8731 -0.2144 -2.1979
   67MPD2     N 1029   1.335   3.515  13.829 -0.3367 -0.0121 -0.2129
   67MPD2    H5 1030   1.325   3.479  13.735 -0.4294 -1.1586  0.2318
   67MPD2    N1 1031   1.657   3.681  14.144  0.0816 -0.8437 -0.2099
   67MPD2    H7 1032   1.588   3.715  14.210 -1.0047 -2.7555 -0.3749
   68TCq2    C1 1033   1.783   3.709  14.195 -0.6500 -0.1554  0.3269
   68TCq2    O2 1034   1.890   3.653  14.169  0.0089 -0.5281 -0.7027
   68TCq2    C2 1035   1.776   3.793  14.312  0.2757 -0.0462 -0.6772
   68TCq2    C3 1036   1.682   3.893  14.308  0.2462  0.3289  0.7561
   68TCq2    C4 1037   1.692   3.991  14.401 -0.2321  0.5339  0.2076
   68TCq2    C5 1038   1.793   3.996  14.498 -0.1179  0.1206  0.8281
   68TCq2    C6 1039   1.885   3.889  14.500 -0.3561  0.0100  0.2249
   68TCq2    C7 1040   1.880   3.795  14.399 -0.4011 -0.1402 -0.2777
   68TCq2    C8 1041   2.011   3.904  14.581 -0.9481  0.9165  0.0258
   68TCq2    O4 1042   2.113   3.840  14.552 -0.0114 -0.1798 -0.1549
   68TCq2    C9 1043   1.590   4.095  14.404  0.3908  0.9742 -0.8035
   68TCq2    O5 1044   1.496   4.095  14.316 -0.0023  0.2642  0.2552
   68TCq2    O6 1045   1.598   4.185  14.491 -0.0686 -0.3655 -0.4085
   68TCq2    H2 1046   1.591   3.893  14.249  0.5672  1.1125  0.2600
   68TCq2    H3 1047   1.793   4.082  14.564  0.0669  0.4034  0.4580
   68TCq2    H4 1048   1.949   3.711  14.401 -0.5748 -0.3075 -1.5149
   69TMC2    C1 1049   3.600   0.681  12.012  0.0076  0.1969 -0.4520
   69TMC2    C2 1050   3.518   0.646  11.908  0.4586  0.4071 -0.8685
   69TMC2    C3 1051   3.562   0.657  11.782  0.0217 -0.5255 -1.1553
   69TMC2    C4 1052   3.728   0.723  11.997 -0.6271  0.7946 -0.9602
   69TMC2    C5 1053   3.772   0.742  11.869  0.5381  0.6689 -0.4437
   69TMC2    C6 1054   3.685   0.714  11.763 -0.0640  0.1839 -1.1595
   69TMC2     C 1055   3.581   0.606  12.134 -0.3483 -0.2779 -0.6602
   69TMC2     O 1056   3.469   0.597  12.179  0.2637  0.3429 -0.1421
   69TMC2     H 1057   3.428   0.592  11.937  0.9969  1.0551  2.0660
   69TMC2    H1 1058   3.793   0.744  12.082 -0.8953 -1.5474 -0.1554
   69TMC2    H2 1059   3.716   0.737  11.662  0.6295  0.0029 -0.9893
   69TMC2    C7 1060   3.900   0.673  11.849 -0.7077 -0.5344 -0.4860
   69TMC2    C8 1061   3.474   0.644  11.671  0.1500 -0.1955  0.0570
   69TMC2    O1 1062   3.912   0.586  11.932  0.5789  0.1435  0.3345
   69TMC2    O2 1063   3.513   0.664  11.557  0.6806  0.6179  0.5153
   69TMC2    O5 1064   3.348   0.654  11.720 -0.0751 -0.1678  0.7092
   69TMC2    H5 1065   3.329   0.671  11.815 -0.2055 -0.3342  0.7129
   70MPD2     C 1066   3.831   0.411  12.306  0.3295  0.4469 -0.2920
   70MPD2    C1 1067   3.711   0.474  12.293  0.1267 -0.0330  0.1886
   70MPD2    C2 1068   3.621   0.481  12.392 -0.1602  0.0977  0.8732
   70MPD2    C3 1069   3.652   0.422  12.516 -0.1057 -0.3086 -0.4358
   70MPD2    C4 1070   3.773   0.358  12.531 -0.0480 -0.5671 -0.4828
   70MPD2    C5 1071   3.856   0.354  12.430  0.4441 -0.0485 -0.2167
   70MPD2     H 1072   3.526   0.531  12.378 -0.0581 -0.0685 -0.3896
   70MPD2    H1 1073   3.807   0.318  12.626 -0.6121 -0.9882 -0.4612
   70MPD2    H2 1074   3.899   0.392  12.224  0.0485 -1.4616 -0.0952
   70MPD2    H3 1075   3.953   0.306  12.435  0.5936  0.2253 -0.4522
   70MPD2     N 1076   3.580   0.438  12.629  0.3641  1.0287 -0.5033
   70MPD2    H5 1077   3.621   0.406  12.717  1.3159  2.7807 -0.3111
   70MPD2    N1 1078   3.701   0.547  12.174 -0.2014 -0.7341  0.6829
   70MPD2    H7 1079   3.775   0.557  12.105 -1.4007 -0.8103 -0.6194
   71TMC2    C1 1080   2.272   1.414   1.319  0.4354 -0.2463 -0.6808
   71TMC2    C2 1081   2.287   1.534   1.384 -0.1546  0.2927 -0.7181
   71TMC2    C3 1082   2.309   1.538   1.517 -0.3869 -0.3362 -0.4031
   71TMC2    C4 1083   2.287   1.296   1.386  0.3473  0.2645 -0.7875
   71TMC2    C5 1084   2.307   1.304   1.520 -0.4264  0.0421 -0.2343
   71TMC2    C6 1085   2.317   1.420   1.589 -0.2426  0.2502 -0.0392
   71TMC2     C 1086   2.231   1.410   1.182  0.4223  0.0984 -1.0200
   71TMC2     O 1087   2.198   1.300   1.143  0.0110  0.6030  0.0556
   71TMC2     H 1088   2.284   1.629   1.331 -0.7743 -0.8932 -2.8172
   71TMC2    H1 1089   2.294   1.196   1.343  2.5772  0.2051 -0.2572
   71TMC2    H2 1090   2.332   1.426   1.696  1.8624 -1.1620 -0.2659
   71TMC2    C7 1091   2.262   1.191   1.600 -0.0221 -0.3671  0.2964
   71TMC2    C8 1092   2.241   1.641   1.594  0.0939 -0.0739 -0.6782
   71TMC2    O1 1093   2.319   1.165   1.702  0.3713  0.1815  0.2245
   71TMC2    O2 1094   2.251   1.658   1.714 -0.1120  0.5226  0.6219
   71TMC2    O5 1095   2.133   1.688   1.520  0.0454  0.3412 -0.6154
   71TMC2    H5 1096   2.116   1.679   1.424 -2.3409 -0.4147 -0.1294
   72MPD2     C 1097   2.183   1.548   0.684 -0.2901  0.3039 -0.2718
   72MPD2    C1 1098   2.116   1.458   0.759 -0.2393 -0.2946 -0.5012
   72MPD2    C2 1099   2.138   1.443   0.894  0.3278  0.1197 -0.0484
   72MPD2    C3 1100   2.221   1.537   0.963 -0.2511  0.2717  0.0501
   72MPD2    C4 1101   2.280   1.637   0.889 -0.3655 -0.1837  0.2313
   72MPD2    C5 1102   2.263   1.640   0.748  0.5044 -1.2342 -0.3678
   72MPD2     H 1103   2.078   1.369   0.947 -0.6431  1.1103  0.2300
   72MPD2    H1 1104   2.343   1.703   0.947 -1.3637  1.7709 -0.9071
   72MPD2    H2 1105   2.177   1.549   0.576  1.0825 -0.4857 -0.3647
   72MPD2    H3 1106   2.321   1.712   0.690  1.1196 -0.5617  1.0757
   72MPD2     N 1107   2.261   1.521   1.101  0.1214 -0.3151 -0.5117
   72MPD2    H5 1108   2.324   1.584   1.148 -0.4099 -0.8237  0.8606
   72MPD2    N1 1109   2.040   1.351   0.696 -0.1749 -0.0873 -0.3359
   72MPD2    H7 1110   1.988   1.297   0.765 -0.0481  1.0703  0.6642
   73TMC2    C1 1111   1.968   2.459  14.470  0.1616 -0.0779 -0.1495
   73TMC2    C2 1112   1.924   2.501  14.590  0.7271 -0.0734  0.1202
   73TMC2    C3 1113   1.999   2.601  14.643 -0.1879  0.4805  0.3223
   73TMC2    C4 1114   2.086   2.506  14.409 -0.1039  0.3673 -0.1917
   73TMC2    C5 1115   2.155   2.610  14.476 -0.2894 -0.3264  0.4136
   73TMC2    C6 1116   2.113   2.654  14.594 -0.2792  0.0839  1.1406
   73TMC2     C 1117   1.867   2.434  14.366  0.4304 -0.9786  0.0352
   73TMC2     O 1118   1.907   2.457  14.251 -0.0419 -0.0581  0.2550
   73TMC2     H 1119   1.829   2.474  14.634  0.2368 -2.9025 -2.7145
   73TMC2    H1 1120   2.122   2.478  14.311 -0.4834 -2.0453  0.3445
   73TMC2    H2 1121   2.157   2.749  14.624  1.3160 -0.7509  1.4447
   73TMC2    C7 1122   2.190   2.718  14.394 -0.0327 -0.5750  0.4820
   73TMC2    C8 1123   1.912   2.704  14.688  0.2065 -0.3483 -0.0819
   73TMC2    O1 1124   2.260   2.807  14.447  0.3346 -0.1114  0.2382
   73TMC2    O2 1125   1.930   2.827  14.668  0.7475  0.0407 -0.5125
   73TMC2    O5 1126   1.850   2.655  14.797 -0.1677  0.0141 -0.2123
   73TMC2    H5 1127   1.878   2.563  14.818 -0.0896 -0.0874 -0.7648
   74MPD2     C 1128   1.382   2.417  14.232 -0.2465 -0.6415  0.2739
   74MPD2    C1 1129   1.490   2.487  14.174  0.1293 -0.0039  0.2002
   74MPD2    C2 1130   1.617   2.471  14.235  0.0320  0.5832 -0.4310
   74MPD2    C3 1131   1.628   2.389  14.343  0.4386 -0.3021  0.0678
   74MPD2    C4 1132   1.525   2.318  14.399  0.3704  1.0307  0.1911
   74MPD2    C5 1133   1.404   2.325  14.337 -0.5708 -0.0680  0.5743
   74MPD2     H 1134   1.696   2.542  14.213 -0.7561  1.1033 -1.5829
   74MPD2    H1 1135   1.528   2.260  14.491  2.6803 -1.8830 -1.7095
   74MPD2    H2 1136   1.285   2.433  14.186  0.0718 -1.3040 -0.6234
   74MPD2    H3 1137   1.332   2.263  14.388 -0.0036 -1.3395 -0.1581
   74MPD2     N 1138   1.753   2.375  14.414 -0.1798  0.0371 -0.1957
   74MPD2    H5 1139   1.751   2.331  14.506  0.3334  1.2127  0.3703
   74MPD2    N1 1140   1.471   2.566  14.059 -0.3412  0.0602  0.3145
   74MPD2    H7 1141   1.390   2.544  14.002  0.0027 -1.9808  0.6265
   75TCq2    C1 1142   1.229   3.495  13.911  0.6474 -0.0886 -0.7396
   75TCq2    O2 1143   1.231   3.500  14.035 -0.0041 -0.0956 -0.2957
   75TCq2    C2 1144   1.123   3.417  13.855 -0.1119  0.7858  0.1342
   75TCq2    C3 1145   1.064   3.317  13.924 -0.4036  1.1838  0.2923
   75TCq2    C4 1146   0.971   3.237  13.863  0.3099  0.9117 -0.2538
   75TCq2    C5 1147   0.928   3.257  13.736  0.3442  0.4010  0.1809
   75TCq2    C6 1148   0.985   3.362  13.669 -0.2340 -0.4157  0.3157
   75TCq2    C7 1149   1.087   3.443  13.723 -0.3385 -0.7336  0.0249
   75TCq2    C8 1150   0.933   3.397  13.540  0.9437  0.0502  0.4678
   75TCq2    O4 1151   0.853   3.319  13.494  0.3709  0.3355 -0.4968
   75TCq2    C9 1152   0.932   3.124  13.939  0.5897 -0.3113 -0.5416
   75TCq2    O5 1153   0.966   3.109  14.059 -0.3979  0.1001  0.2923
   75TCq2    O6 1154   0.865   3.042  13.878  0.1579 -0.0681 -0.6899
   75TCq2    H2 1155   1.099   3.286  14.021  0.2296 -2.0585 -0.9854
   75TCq2    H3 1156   0.852   3.195  13.690  2.0107 -1.1053 -0.4877
   75TCq2    H4 1157   1.150   3.517  13.675  0.6921 -2.5798 -1.4999
   76MPD2     C 1158   4.723   4.539  12.299 -1.0799 -0.2224  0.2770
   76MPD2    C1 1159   4.713   4.492  12.175 -0.0649  0.0438  0.2087
   76MPD2    C2 1160   0.057   4.379  12.136 -0.6414 -0.1842  0.2509
   76MPD2    C3 1161   0.135   4.312  12.230  0.0006 -0.5876 -0.5844
   76MPD2    C4 1162   0.147   4.350  12.362 -0.5870  0.0655 -0.3439
   76MPD2    C5 1163   0.072   4.465  12.390 -0.2037  0.5725  0.8436
   76MPD2     H 1164   0.048   4.344  12.034 -0.0336 -0.8853  0.4329
   76MPD2    H1 1165   0.187   4.287  12.441 -1.9372  1.3358  1.3576
   76MPD2    H2 1166   4.686   4.633  12.338  0.0294 -0.1235  1.1018
   76MPD2    H3 1167   0.072   4.497  12.494  1.0324 -0.2011  1.0805
   76MPD2     N 1168   0.207   4.196  12.197  0.4316  0.0917 -0.1356
   76MPD2    H5 1169   0.269   4.156  12.267  0.8702 -1.8927 -1.6390
   76MPD2    N1 1170   4.626   4.556  12.086  0.7372  0.2127  0.6986
   76MPD2    H7 1171   4.607   4.514  11.995  0.8645  2.6762 -0.4713
   77TCq2    C1 1172   0.232   4.144  12.077 -0.1784  0.3277  0.0985
   77TCq2    O2 1173   0.189   4.177  11.970  0.2914 -0.1942 -0.7787
   77TCq2    C2 1174   0.328   4.033  12.085  0.6856  0.4991  0.1679
   77TCq2    C3 1175   0.362   3.975  11.966 -1.3582 -0.6171 -0.3049
   77TCq2    C4 1176   0.446   3.867  11.963 -0.2784  0.3949 -1.0421
   77TCq2    C5 1177   0.496   3.826  12.083 -0.1147  0.0708 -0.0221
   77TCq2    C6 1178   0.461   3.885  12.208  0.4661 -0.0960 -0.3198
   77TCq2    C7 1179   0.369   3.984  12.206 -0.2161  0.4744 -0.6021
   77TCq2    C8 1180   0.533   3.844  12.325 -0.2685  0.5183  0.1368
   77TCq2    O4 1181   0.596   3.741  12.312 -0.0978  0.3179 -0.3958
   77TCq2    C9 1182   0.484   3.811  11.840 -0.7020  0.4146 -1.7151
   77TCq2    O5 1183   0.573   3.723  11.846  0.0158 -0.0551  0.0076
   77TCq2    O6 1184   0.440   3.865  11.737  0.5257  0.1833  0.0168
   77TCq2    H2 1185   0.319   4.013  11.874  1.9405  1.6686 -0.8868
   77TCq2    H3 1186   0.571   3.748  12.079 -2.0372 -1.7575 -0.2669
   77TCq2    H4 1187   0.326   4.018  12.300  2.8068 -2.2986  1.7778
   78MPD1     C 1188   0.736   1.186   1.766 -0.7603 -0.0825 -0.6826
   78MPD1    C1 1189   0.673   1.127   1.657  0.1407  0.2365 -0.5698
   78MPD1    C2 1190   0.697   0.993   1.629  0.2111 -0.0125 -0.4887
   78MPD1    C3 1191   0.798   0.924   1.697 -0.3692 -0.2404  0.1240
   78MPD1    C4 1192   0.858   0.983   1.807 -0.1794 -0.7877 -0.2002
   78MPD1    C5 1193   0.818   1.113   1.844  0.0818  1.2828  0.1209
   78MPD1     H 1194   0.659   0.947   1.538  0.1691 -1.5326  0.3025
   78MPD1    H1 1195   0.933   0.940   1.872  0.2266  1.5883  0.8995
   78MPD1    H2 1196   0.726   1.289   1.800  2.7370  0.4225 -1.1881
   78MPD1    H3 1197   0.874   1.152   1.928 -0.2818 -1.4982  1.6510
   78MPD1     N 1198   0.847   0.811   1.632 -0.1235 -0.1232 -0.3127
   78MPD1    H5 1199   0.805   0.783   1.544  2.3511 -2.0562 -0.8998
   78MPD1    N1 1200   0.584   1.201   1.582  0.3164 -0.0045  0.5423
   78MPD1    H6 1201   0.596   1.188   1.481 -1.7818 -1.8481  0.5217
   78MPD1    H7 1202   0.601   1.301   1.592 -1.5211  0.3951 -0.3688
   79TCq2    C1 1203   0.936   0.719   1.681  0.6293 -0.1908  0.2012
   79TCq2    O2 1204   0.996   0.712   1.785 -0.7390 -0.3341  0.4196
   79TCq2    C2 1205   0.964   0.612   1.579  0.4585 -0.5267  0.4642
   79TCq2    C3 1206   0.874   0.567   1.485 -0.2013 -0.4437  0.7463
   79TCq2    C4 1207   0.913   0.472   1.389 -0.0443  0.1611 -0.1140
   79TCq2    C5 1208   1.043   0.424   1.387  0.6427  0.4797 -0.0438
   79TCq2    C6 1209   1.128   0.472   1.481  0.2106 -0.0034 -0.0232
   79TCq2    C7 1210   1.090   0.567   1.576 -0.0082 -0.1028  0.3349
   79TCq2    C8 1211   1.267   0.479   1.446  0.5489  0.7152  1.1812
   79TCq2    O4 1212   1.343   0.511   1.536  0.4828 -0.0658  0.3212
   79TCq2    C9 1213   0.820   0.424   1.290 -0.1799  0.6000  0.2920
   79TCq2    O5 1214   0.853   0.317   1.232  0.2929 -0.5688 -0.4099
   79TCq2    O6 1215   0.705   0.472   1.301  0.0885  0.1377  0.2365
   79TCq2    H2 1216   0.770   0.598   1.480 -0.0352 -0.0087 -0.1226
   79TCq2    H3 1217   1.073   0.356   1.308  2.5633 -0.7206  1.7319
   79TCq2    H4 1218   1.159   0.609   1.648 -0.9852 -1.3425  1.9974
   80MPD2     C 1219   4.108   4.207  12.059 -0.3615  0.0604 -0.3175
   80MPD2    C1 1220   3.978   4.258  12.024  0.3884 -0.1015  0.0607
   80MPD2    C2 1221   3.877   4.282  12.119  0.0329 -0.1185  0.4459
   80MPD2    C3 1222   3.909   4.249  12.251  0.1415  0.2277 -0.4889
   80MPD2    C4 1223   4.024   4.187  12.280 -0.2441 -0.1811  0.9229
   80MPD2    C5 1224   4.125   4.169  12.188  0.5154  0.4027 -0.2688
   80MPD2     H 1225   3.788   4.340  12.098 -1.6660 -3.1146 -0.5799
   80MPD2    H1 1226   4.049   4.155  12.381  1.7413  3.0728  1.4333
   80MPD2    H2 1227   4.179   4.174  11.984 -1.3209 -0.2854 -1.0640
   80MPD2    H3 1228   4.217   4.119  12.217  0.6540 -0.1296 -1.6195
   80MPD2     N 1229   3.819   4.271  12.357  0.0709 -0.1391 -0.2253
   80MPD2    H5 1230   3.848   4.220  12.439 -0.6432 -0.2932 -0.0653
   80MPD2    N1 1231   3.937   4.291  11.893 -0.0703 -0.6571 -0.3275
   80MPD2    H7 1232   3.839   4.311  11.876 -0.0835  0.7763  1.4680
   81TCq2    C1 1233   4.012   4.257  11.781 -0.1944 -0.4308 -0.0933
   81TCq2    O2 1234   4.109   4.187  11.779 -0.0057  0.2149  0.1077
   81TCq2    C2 1235   3.940   4.289  11.658  0.0150 -0.1577 -0.0438
   81TCq2    C3 1236   3.999   4.245  11.543  0.2140  0.5185 -0.3924
   81TCq2    C4 1237   3.936   4.261  11.424 -0.2608  0.2105  0.0693
   81TCq2    C5 1238   3.816   4.330  11.412 -0.3536  0.4990  0.1574
   81TCq2    C6 1239   3.757   4.368  11.531 -0.0603 -0.1660  0.1608
   81TCq2    C7 1240   3.818   4.347  11.651  0.7033 -0.8101 -0.2161
   81TCq2    C8 1241   3.612   4.363  11.523 -0.8841  0.4726 -0.7475
   81TCq2    O4 1242   3.558   4.431  11.434 -0.2000 -0.2247  0.2222
   81TCq2    C9 1243   3.992   4.206  11.304  0.5188 -0.2773  0.0125
   81TCq2    O5 1244   3.923   4.224  11.203 -0.4342 -0.6057  0.2438
   81TCq2    O6 1245   4.099   4.140  11.314  0.0577 -0.5639  0.1899
   81TCq2    H2 1246   4.100   4.206  11.542 -0.2324 -0.6236 -2.0832
   81TCq2    H3 1247   3.765   4.348  11.318  1.3351 -0.5101 -0.9568
   81TCq2    H4 1248   3.764   4.387  11.736  0.1369 -0.1941 -0.8633
   82MPD2     C 1249   1.526   4.226  10.114 -0.5217 -0.6427  0.2360
   82MPD2    C1 1250   1.520   4.102  10.060 -0.6252  0.4918 -0.0111
   82MPD2    C2 1251   1.598   4.008  10.115 -0.6380  0.5985 -0.3548
   82MPD2    C3 1252   1.707   4.041  10.195 -0.0347  0.3706 -0.2176
   82MPD2    C4 1253   1.728   4.175  10.224  0.1226 -0.3628 -0.6072
   82MPD2    C5 1254   1.632   4.264  10.190 -0.0627  0.2576 -0.5257
   82MPD2     H 1255   1.593   3.907  10.077  0.0543  0.1834  0.6749
   82MPD2    H1 1256   1.819   4.215  10.268  0.3390 -0.7803 -0.6778
   82MPD2    H2 1257   1.451   4.301  10.092 -0.4784 -0.6021  0.2277
   82MPD2    H3 1258   1.652   4.366  10.219 -0.8952 -0.0733  1.2443
   82MPD2     N 1259   1.780   3.939  10.262 -0.0094  0.4336  0.1158
   82MPD2    H5 1260   1.856   3.972  10.321  1.7346 -1.8673 -0.8569
   82MPD2    N1 1261   1.417   4.086   9.967 -0.3793 -0.1049  0.5547
   82MPD2    H7 1262   1.365   4.169   9.941  3.1449  1.0764 -2.6803
   83TCq2    C1 1263   1.734   3.817  10.274 -0.2169 -0.2304 -0.7171
   83TCq2    O2 1264   1.618   3.777  10.247  0.1239 -0.0038 -0.3607
   83TCq2    C2 1265   1.815   3.716  10.347  0.7191  0.1460  0.0723
   83TCq2    C3 1266   1.949   3.739  10.338  1.1748 -0.6115 -0.2286
   83TCq2    C4 1267   2.035   3.653  10.408 -0.1354  0.5262 -0.3526
   83TCq2    C5 1268   1.984   3.541  10.474 -0.6493  0.2704 -0.7848
   83TCq2    C6 1269   1.850   3.519  10.463  0.4235 -0.9648  0.1797
   83TCq2    C7 1270   1.767   3.602  10.395 -0.3336 -0.6709 -0.0263
   83TCq2    C8 1271   1.789   3.414  10.544  0.2589  0.7290  0.6335
   83TCq2    O4 1272   1.840   3.399  10.656 -0.3073  0.2406  0.6070
   83TCq2    C9 1273   2.167   3.696  10.434 -0.3998 -0.2086 -0.8684
   83TCq2    O5 1274   2.238   3.628  10.512 -0.8750  0.1774 -0.1006
   83TCq2    O6 1275   2.208   3.800  10.376 -0.1205 -0.1320  0.4188
   83TCq2    H2 1276   1.987   3.818  10.274  2.5831 -0.0382  1.2946
   83TCq2    H3 1277   2.041   3.472  10.534 -0.8309 -0.0551 -0.9881
   83TCq2    H4 1278   1.659   3.590  10.398 -0.3601 -0.1263  1.5349
   84TCq2    C1 1279   2.462   1.749  10.148  0.7757 -0.2175 -0.2877
   84TCq2    O2 1280   2.430   1.735  10.267 -0.1239 -0.1726 -0.6235
   84TCq2    C2 1281   2.586   1.824  10.121 -0.0880 -0.6916  0.1847
   84TCq2    C3 1282   2.657   1.816  10.001 -0.1363 -0.0899 -0.1315
   84TCq2    C4 1283   2.770   1.898   9.998  0.5988  0.1057 -0.0389
   84TCq2    C5 1284   2.809   1.972  10.105  0.1184  0.2504  0.0436
   84TCq2    C6 1285   2.752   1.954  10.226  0.4737  0.0862 -0.3210
   84TCq2    C7 1286   2.633   1.886  10.233 -0.3085  0.0594  1.0886
   84TCq2    C8 1287   2.774   2.051  10.334 -0.1697 -0.1155 -0.2493
   84TCq2    O4 1288   2.669   2.082  10.399 -0.1771 -0.7578 -0.3420
   84TCq2    C9 1289   2.848   1.911   9.870  0.2812  0.0901 -0.1568
   84TCq2    O5 1290   2.913   2.017   9.859  0.0476 -0.0466  0.1254
   84TCq2    O6 1291   2.799   1.848   9.770 -0.2470 -0.7064 -0.5873
   84TCq2    H2 1292   2.637   1.758   9.911  3.7168 -2.7543  0.7185
   84TCq2    H3 1293   2.892   2.040  10.087  0.6781 -0.3753  0.2614
   84TCq2    H4 1294   2.561   1.903  10.312 -1.2616 -1.3001  0.5175
   85MPD2     C 1295   3.204   0.466  15.871 -0.5280 -0.8503 -0.2078
   85MPD2    C1 1296   3.344   0.464  15.900 -0.4979 -0.1737 -0.7418
   85MPD2    C2 1297   3.428   0.569  15.870 -0.9165  0.0198 -0.1589
   85MPD2    C3 1298   3.373   0.687  15.820 -0.0251 -0.1804  0.6459
   85MPD2    C4 1299   3.234   0.694  15.795  0.0518 -0.0535 -0.0522
   85MPD2    C5 1300   3.154   0.583  15.820 -0.5473 -0.9031 -0.3068
   85MPD2     H 1301   3.533   0.549  15.887 -0.8554  1.1763  0.7913
   85MPD2    H1 1302   3.181   0.782  15.759 -0.2192 -0.6766 -1.1620
   85MPD2    H2 1303   3.135   0.383  15.885 -2.2681 -0.0151 -3.8353
   85MPD2    H3 1304   3.046   0.588  15.815 -0.4614  2.1063  0.5925
   85MPD2     N 1305   3.466   0.796  15.809 -0.1941 -0.0454  0.7857
   85MPD2    H5 1306   3.564   0.772  15.802 -0.3101 -0.7694  1.7934
   85MPD2    N1 1307   3.407   0.354  15.958 -0.0253 -0.0875  0.0592
   85MPD2    H7 1308   3.505   0.366  15.980  0.3658 -2.8873 -0.1996
   86TCq2    C1 1309   3.432   0.929  15.791  0.0133 -0.8584  0.2363
   86TCq2    O2 1310   3.323   0.987  15.805  0.4124  0.1216  0.0742
   86TCq2    C2 1311   3.544   1.016  15.751 -0.6190  0.2791 -0.1234
   86TCq2    C3 1312   3.516   1.149  15.726  0.2817 -0.0898  0.8081
   86TCq2    C4 1313   3.622   1.229  15.695 -0.4305 -0.3389 -0.1201
   86TCq2    C5 1314   3.752   1.186  15.691  0.0955  0.5513  0.1187
   86TCq2    C6 1315   3.771   1.054  15.727  0.7348  0.1328  0.1228
   86TCq2    C7 1316   3.668   0.969  15.756  0.4783 -0.2970  0.1342
   86TCq2    C8 1317   3.909   1.001  15.725  0.0789  0.1683 -0.7212
   86TCq2    O4 1318   3.926   0.881  15.732 -0.4152  0.1977  0.0035
   86TCq2    C9 1319   3.596   1.352  15.633 -0.1417 -0.1352 -0.0070
   86TCq2    O5 1320   3.475   1.392  15.628 -0.4868 -0.5267 -0.2172
   86TCq2    O6 1321   3.696   1.428  15.599  0.4430 -0.1629 -0.0755
   86TCq2    H2 1322   3.412   1.178  15.715  1.0091  2.1129 -0.3322
   86TCq2    H3 1323   3.835   1.250  15.662 -1.7744  1.9865 -2.0939
   86TCq2    H4 1324   3.699   0.880  15.809 -2.4821 -0.1788  2.0432
   87MPD2     C 1325   0.809   3.552   0.631 -0.4234 -0.6413 -0.4039
   87MPD2    C1 1326   0.820   3.681   0.657 -0.1917  0.2640 -0.2484
   87MPD2    C2 1327   0.709   3.763   0.648 -0.1747  0.2600 -1.0139
   87MPD2    C3 1328   0.587   3.715   0.595  0.2168  0.1724  0.0331
   87MPD2    C4 1329   0.584   3.589   0.556 -0.2456  0.1505  0.2366
   87MPD2    C5 1330   0.692   3.508   0.582 -0.8641 -0.0953 -0.3299
   87MPD2     H 1331   0.714   3.868   0.676 -1.3956  0.0861 -0.1761
   87MPD2    H1 1332   0.504   3.551   0.493 -0.2357  1.2801 -0.4716
   87MPD2    H2 1333   0.890   3.483   0.651  0.0124 -0.4585 -1.5507
   87MPD2    H3 1334   0.679   3.404   0.552 -1.1268 -0.1989  0.1398
   87MPD2     N 1335   0.477   3.806   0.573  1.0497  0.0073 -0.5411
   87MPD2    H5 1336   0.395   3.757   0.539  0.4380 -1.2149  2.7201
   87MPD2    N1 1337   0.955   3.727   0.685 -0.0319 -0.0023  0.3901
   87MPD2    H7 1338   1.028   3.661   0.705 -0.7812 -0.5881  1.1889
   88TCq2    C1 1339   0.993   3.858   0.670 -0.1986  0.6942 -0.8539
   88TCq2    O2 1340   0.927   3.959   0.649  0.7010 -0.3357 -0.4559
   88TCq2    C2 1341   1.134   3.877   0.688 -0.1519  0.5162  0.9027
   88TCq2    C3 1342   1.173   4.002   0.715 -0.1957 -0.5506  0.2456
   88TCq2    C4 1343   1.313   4.026   0.731  0.3966  0.2038 -0.1620
   88TCq2    C5 1344   1.402   3.932   0.736 -0.2781  0.8996  0.6280
   88TCq2    C6 1345   1.361   3.802   0.711  0.6744 -0.5355 -0.0052
   88TCq2    C7 1346   1.228   3.775   0.677  0.0906 -0.2164  0.2631
   88TCq2    C8 1347   1.466   3.716   0.670  0.3789 -0.6519 -0.5696
   88TCq2    O4 1348   1.445   3.660   0.561 -0.2490  0.3923  0.1170
   88TCq2    C9 1349   1.352   4.158   0.782  0.2435  0.1699  0.3308
   88TCq2    O5 1350   1.271   4.251   0.773  0.0964  0.3366  0.1883
   88TCq2    O6 1351   1.476   4.171   0.794 -0.1588 -0.1723  0.2568
   88TCq2    H2 1352   1.111   4.086   0.742 -0.2533 -0.0473 -1.4308
   88TCq2    H3 1353   1.503   3.955   0.769  0.4085  2.4082 -2.5915
   88TCq2    H4 1354   1.191   3.676   0.654 -1.3286 -0.3837  3.2076
   89MPD2     C 1355   1.757   2.511   2.235  0.3228  0.3098 -0.7036
   89MPD2    C1 1356   1.750   2.430   2.123 -0.6213 -0.4646  0.4659
   89MPD2    C2 1357   1.804   2.461   2.001  0.2852 -0.6746 -0.4627
   89MPD2    C3 1358   1.869   2.581   1.993  0.6799  0.2432  0.6118
   89MPD2    C4 1359   1.872   2.663   2.102  0.3867 -0.0139 -0.1025
   89MPD2    C5 1360   1.808   2.634   2.219  0.6973 -0.4405  1.2403
   89MPD2     H 1361   1.803   2.391   1.919 -1.1797 -2.5624  1.1509
   89MPD2    H1 1362   1.934   2.751   2.106  1.2106 -0.5975 -0.0641
   89MPD2    H2 1363   1.725   2.476   2.332 -0.6350  2.1578 -0.3520
   89MPD2    H3 1364   1.828   2.698   2.304  0.5406  1.9950 -0.5591
   89MPD2     N 1365   1.938   2.615   1.874 -0.3831  0.4221 -0.4794
   89MPD2    H5 1366   1.945   2.548   1.799 -0.4027 -1.1915  0.9512
   89MPD2    N1 1367   1.690   2.300   2.132 -0.9455 -0.6133 -0.1698
   89MPD2    H7 1368   1.700   2.239   2.052 -0.0300  0.7925 -1.1245
   90TCq2    C1 1369   1.993   2.735   1.840 -0.2203  0.1713 -0.0247
   90TCq2    O2 1370   1.985   2.842   1.897  0.3201  0.1114 -1.0992
   90TCq2    C2 1371   2.054   2.726   1.712  1.0065  0.1956  0.8339
   90TCq2    C3 1372   2.121   2.608   1.690  0.3006 -0.1192 -1.0316
   90TCq2    C4 1373   2.185   2.595   1.565  0.6680 -0.0553 -0.2785
   90TCq2    C5 1374   2.197   2.710   1.485 -0.2675 -0.0410  0.2402
   90TCq2    C6 1375   2.137   2.827   1.519 -0.2769  0.0533  0.1424
   90TCq2    C7 1376   2.070   2.839   1.639 -0.4011 -0.3519  0.5675
   90TCq2    C8 1377   2.156   2.946   1.441 -0.3646 -0.1304  0.2322
   90TCq2    O4 1378   2.133   3.049   1.501 -0.2739  0.2823 -0.1249
   90TCq2    C9 1379   2.253   2.475   1.532  0.1897 -0.5078 -0.0061
   90TCq2    O5 1380   2.292   2.412   1.635 -0.0844 -0.5629  0.3928
   90TCq2    O6 1381   2.290   2.459   1.414  0.4785  0.7757  0.0998
   90TCq2    H2 1382   2.118   2.517   1.749 -1.4449  1.0732  0.6847
   90TCq2    H3 1383   2.262   2.693   1.400 -0.2053 -0.8547  0.4520
   90TCq2    H4 1384   1.994   2.914   1.655  1.5640  1.9035 -0.7162
   91TMC2    C1 1385   3.998   1.444  16.269  0.1354  0.0827  0.4582
   91TMC2    C2 1386   4.047   1.533  16.172  0.1441  0.0973 -1.3269
   91TMC2    C3 1387   3.954   1.586  16.089  0.5808 -0.2172  0.1593
   91TMC2    C4 1388   3.866   1.415  16.276 -0.0502 -0.1527 -0.1428
   91TMC2    C5 1389   3.776   1.481  16.187  0.2189  0.2434 -0.0649
   91TMC2    C6 1390   3.819   1.569  16.096 -0.7162 -0.6007 -0.1629
   91TMC2     C 1391   4.095   1.382  16.359  0.0260 -0.3439  0.4345
   91TMC2     O 1392   4.056   1.281  16.417  0.4439 -0.3542 -0.2213
   91TMC2     H 1393   4.151   1.541  16.143  0.4599  1.0897  0.0282
   91TMC2    H1 1394   3.836   1.357  16.363  0.3808  0.1180  0.1852
   91TMC2    H2 1395   3.758   1.635  16.035  1.4828  0.1416 -1.5675
   91TMC2    C7 1396   3.643   1.449  16.195 -0.3963  0.8486 -0.2957
   91TMC2    C8 1397   4.010   1.680  15.993 -0.0450  0.1796 -0.2660
   91TMC2    O1 1398   3.621   1.383  16.296  0.3508 -0.4460  0.2589
   91TMC2    O2 1399   4.126   1.716  16.013  0.2724  0.0039  0.0786
   91TMC2    O5 1400   3.930   1.703  15.889  0.0777  0.3293 -0.2103
   91TMC2    H5 1401   3.848   1.651  15.889  1.1495 -1.3832  1.9531
   92MPD2     C 1402   4.344   1.254  16.436 -0.5214 -0.1178  0.0882
   92MPD2    C1 1403   4.338   1.386  16.395 -0.1216  0.0233 -0.4169
   92MPD2    C2 1404   4.453   1.458  16.388  0.0942 -0.2365  0.0440
   92MPD2    C3 1405   4.573   1.400  16.423 -0.3537 -0.1611 -0.0611
   92MPD2    C4 1406   4.585   1.271  16.469  0.7376  0.4385 -0.3166
   92MPD2    C5 1407   4.467   1.204  16.471  0.2359  0.2851  0.3456
   92MPD2     H 1408   4.445   1.558  16.348 -0.7388 -0.4519 -0.3316
   92MPD2    H1 1409   4.675   1.217  16.494 -1.5073 -2.3214  1.7614
   92MPD2    H2 1410   4.254   1.199  16.459  1.8202 -3.5239  1.2010
   92MPD2    H3 1411   4.472   1.102  16.505  1.9176 -0.4647 -2.1368
   92MPD2     N 1412   4.680   1.496  16.411  0.2173  0.4608 -0.7387
   92MPD2    H5 1413   4.650   1.589  16.383 -0.8448  0.3369 -0.0166
   92MPD2    N1 1414   4.219   1.439  16.348 -0.1309 -0.2188 -0.1038
   92MPD2    H7 1415   4.228   1.536  16.321 -3.0891  0.1963  0.4311
   93MPD2     C 1416   0.583   1.541  13.648  0.2923  0.5321 -0.0614
   93MPD2    C1 1417   0.600   1.646  13.736  0.0259  0.2175 -0.1388
   93MPD2    C2 1418   0.529   1.759  13.710 -0.0290  0.0802 -0.6353
   93MPD2    C3 1419   0.422   1.757  13.625  0.6859 -0.1289  0.2946
   93MPD2    C4 1420   0.394   1.637  13.561 -0.1712 -0.2637 -0.6937
   93MPD2    C5 1421   0.471   1.532  13.567  0.4165 -0.3349 -0.2620
   93MPD2     H 1422   0.554   1.853  13.758  0.3184 -0.2680 -0.1231
   93MPD2    H1 1423   0.308   1.617  13.498  0.7963 -1.6361 -1.5748
   93MPD2    H2 1424   0.642   1.450  13.650  2.0559  1.7336  1.9284
   93MPD2    H3 1425   0.449   1.450  13.499 -2.1715  0.0626  0.0833
   93MPD2     N 1426   0.343   1.868  13.595 -0.0976 -0.0375  0.0403
   93MPD2    H5 1427   0.256   1.859  13.544 -1.2486  0.3377  1.9040
   93MPD2    N1 1428   0.690   1.648  13.845  0.0515  0.3448 -0.9560
   93MPD2    H7 1429   0.673   1.724  13.910  0.4047 -2.1352  2.0134
   94TCq2    C1 1430   0.793   1.560  13.873 -0.2176 -0.5971 -0.6082
   94TCq2    O2 1431   0.836   1.472  13.798 -0.4191 -0.3060 -0.3551
   94TCq2    C2 1432   0.884   1.618  13.971 -0.0801 -0.9341 -0.2176
   94TCq2    C3 1433   0.813   1.709  14.037  0.2134  0.2717 -0.1351
   94TCq2    C4 1434   0.860   1.839  14.037  0.1335 -0.0345  0.4675
   94TCq2    C5 1435   0.968   1.869  13.972 -0.0344 -0.2532  0.1081
   94TCq2    C6 1436   1.048   1.774  13.920  0.3483 -0.2058  0.2176
   94TCq2    C7 1437   0.998   1.648  13.905  0.1817 -0.1176  0.5970
   94TCq2    C8 1438   1.182   1.803  13.862 -0.1005 -0.1486 -0.4717
   94TCq2    O4 1439   1.237   1.708  13.796 -0.5283 -0.2419 -0.1340
   94TCq2    C9 1440   0.772   1.941  14.084  0.1559  0.1246 -0.8997
   94TCq2    O5 1441   0.651   1.908  14.104  0.2856  0.3342 -0.1250
   94TCq2    O6 1442   0.804   2.061  14.062  0.3266  0.1386 -0.4386
   94TCq2    H2 1443   0.722   1.674  14.086 -0.9648  2.4400 -0.7573
   94TCq2    H3 1444   0.986   1.975  13.963  1.4172 -0.8631 -4.6131
   94TCq2    H4 1445   1.049   1.568  13.852  3.0631  1.1394  1.4660
   95TMC2    C1 1446   0.367   3.805  16.555 -0.3150  0.1611 -0.3436
   95TMC2    C2 1447   0.440   3.786  16.674  0.6340  0.3152  0.0308
   95TMC2    C3 1448   0.426   3.893  16.762 -0.5404  0.1233  0.5900
   95TMC2    C4 1449   0.298   3.923  16.529 -0.0066 -0.7726  0.1563
   95TMC2    C5 1450   0.292   4.017  16.615 -0.4034 -0.1269  0.1053
   95TMC2    C6 1451   0.361   4.006  16.734 -0.2657 -0.3187 -0.3511
   95TMC2     C 1452   0.403   3.723  16.437 -0.0199 -0.4829  0.2022
   95TMC2     O 1453   0.394   3.768  16.327  0.4570  0.2106  0.3065
   95TMC2     H 1454   0.491   3.693  16.697  1.0753  0.4862 -0.2424
   95TMC2    H1 1455   0.234   3.914  16.441 -1.2072 -0.1457  0.9510
   95TMC2    H2 1456   0.356   4.084  16.808 -1.3966 -2.1127  1.4675
   95TMC2    C7 1457   0.258   4.155  16.566 -0.5385  0.0921 -0.3165
   95TMC2    C8 1458   0.484   3.867  16.897  0.2649 -0.1376 -0.0210
   95TMC2    O1 1459   0.258   4.166  16.443  0.1011  0.1422  0.3565
   95TMC2    O2 1460   0.575   3.791  16.920 -0.4041 -0.9959  1.1308
   95TMC2    O5 1461   0.441   3.967  16.973 -0.4632  0.1184 -0.0238
   95TMC2    H5 1462   0.358   4.007  16.941 -0.4954 -1.3224 -1.7220
   96MPD2     C 1463   0.640   3.306  16.260 -0.6703 -0.3126 -0.0810
   96MPD2    C1 1464   0.620   3.427  16.199 -0.6216  0.1732  0.1519
   96MPD2    C2 1465   0.558   3.525  16.273 -0.1972  0.0505 -0.1864
   96MPD2    C3 1466   0.505   3.500  16.398  0.4855 -0.3953  0.3039
   96MPD2    C4 1467   0.523   3.374  16.452  0.2530  0.5741 -0.5383
   96MPD2    C5 1468   0.592   3.276  16.387  0.5185  0.5503  0.3448
   96MPD2     H 1469   0.552   3.626  16.236 -1.8091 -0.2558 -0.7891
   96MPD2    H1 1470   0.491   3.355  16.554  2.1834 -0.4321 -0.1336
   96MPD2    H2 1471   0.690   3.224  16.209 -0.2596 -0.2391  0.1941
   96MPD2    H3 1472   0.612   3.180  16.432 -0.3631  0.0680 -0.3030
   96MPD2     N 1473   0.428   3.592  16.475  0.2856  0.6140  0.3577
   96MPD2    H5 1474   0.393   3.568  16.567 -0.0118 -1.9038 -0.4401
   96MPD2    N1 1475   0.674   3.449  16.069  0.0261  0.2931  0.2069
   96MPD2    H7 1476   0.715   3.367  16.027 -1.6736 -0.0061 -0.8743
   97MPD2     C 1477   2.922   0.576   1.513  0.1035  0.2636  0.4669
   97MPD2    C1 1478   2.931   0.694   1.442  0.5813  0.4212 -0.6123
   97MPD2    C2 1479   3.012   0.692   1.327  0.4897 -0.4025  0.4467
   97MPD2    C3 1480   3.082   0.580   1.284 -0.5022 -0.4427  0.5609
   97MPD2    C4 1481   3.075   0.466   1.364  0.4416 -0.3611  0.1171
   97MPD2    C5 1482   2.988   0.467   1.471  0.0549 -1.0966 -0.0070
   97MPD2     H 1483   3.005   0.776   1.258 -0.3925 -0.7188  0.1618
   97MPD2    H1 1484   3.122   0.375   1.328 -2.9828 -1.6924 -0.9100
   97MPD2    H2 1485   2.867   0.566   1.606  0.9245  2.5030  1.1845
   97MPD2    H3 1486   2.977   0.373   1.525 -0.9879  0.3494  2.2696
   97MPD2     N 1487   3.165   0.580   1.179  0.0423 -1.0826  0.3154
   97MPD2    H5 1488   3.211   0.493   1.153  0.1471 -1.1411  0.6929
   97MPD2    N1 1489   2.861   0.811   1.482  0.4086 -0.6454  0.0869
   97MPD2    H7 1490   2.794   0.791   1.556  1.2166 -1.1334  0.7006
   98TCq2    C1 1491   3.218   0.702   1.129 -0.6947 -0.6117  0.0652
   98TCq2    O2 1492   3.210   0.812   1.184 -0.3856 -0.2180  0.0474
   98TCq2    C2 1493   3.280   0.691   1.000 -0.6019  0.4471 -0.4941
   98TCq2    C3 1494   3.278   0.566   0.936  0.7225 -0.4693 -0.5067
   98TCq2    C4 1495   3.338   0.564   0.809  0.5130  0.0292  0.2500
   98TCq2    C5 1496   3.375   0.681   0.741  0.8300 -0.4587  0.3754
   98TCq2    C6 1497   3.371   0.795   0.810 -0.3649  0.7230 -0.0624
   98TCq2    C7 1498   3.341   0.801   0.942 -0.0316  0.6211 -0.3819
   98TCq2    C8 1499   3.368   0.918   0.734  0.5299 -0.5281  0.4766
   98TCq2    O4 1500   3.358   1.025   0.794  0.9294  0.2370  0.5439
   98TCq2    C9 1501   3.336   0.444   0.738  0.9424 -0.2289 -0.0814
   98TCq2    O5 1502   3.289   0.339   0.795 -0.1888  0.5926  0.5710
   98TCq2    O6 1503   3.379   0.454   0.620  0.4708  0.4374  0.0428
   98TCq2    H2 1504   3.244   0.472   0.978  1.3221 -0.0992  0.7937
   98TCq2    H3 1505   3.420   0.665   0.644 -1.1866 -0.6915 -0.5134
   98TCq2    H4 1506   3.353   0.890   1.004  1.4209  0.2715 -0.1662
   99MPD2     C 1507   1.474   3.722   1.474 -0.7653  0.8286  0.0171
   99MPD2    C1 1508   1.349   3.727   1.409 -0.5599  0.3597  0.1218
   99MPD2    C2 1509   1.329   3.639   1.301  0.1665  0.2815  0.7692
   99MPD2    C3 1510   1.427   3.546   1.266 -0.6434  0.7665  0.2002
   99MPD2    C4 1511   1.535   3.532   1.352  0.2181 -0.0862  0.4143
   99MPD2    C5 1512   1.562   3.619   1.454  0.0815 -0.9252  0.7755
   99MPD2     H 1513   1.243   3.656   1.238 -1.3913  0.7048  2.9916
   99MPD2    H1 1514   1.611   3.454   1.343  0.8248  0.5037  0.4392
   99MPD2    H2 1515   1.492   3.785   1.560  3.4785  0.0509 -0.3479
   99MPD2    H3 1516   1.657   3.604   1.505 -0.0751  1.0962  1.6473
   99MPD2     N 1517   1.406   3.464   1.150 -0.7335 -0.8328 -0.5544
   99MPD2    H5 1518   1.321   3.481   1.097 -1.2882 -1.1647  0.2236
   99MPD2    N1 1519   1.244   3.817   1.435  0.3256  0.1129  0.6273
   99MPD2    H7 1520   1.168   3.803   1.368  1.7805 -1.8129 -0.6474
  100TCq2    C1 1521   1.234   3.922   1.518 -0.4427 -0.2778  0.3541
  100TCq2    O2 1522   1.318   3.993   1.574 -0.1979 -0.2415  0.1880
  100TCq2    C2 1523   1.103   3.985   1.511 -0.0334 -0.4215  0.0902
  100TCq2    C3 1524   1.089   4.123   1.524  0.0929  0.0693 -0.1062
  100TCq2    C4 1525   0.964   4.178   1.512 -0.3905  0.1530  0.0125
  100TCq2    C5 1526   0.852   4.111   1.477 -0.1465 -0.8892  0.4626
  100TCq2    C6 1527   0.863   3.973   1.484  0.7598  0.2828  0.4794
  100TCq2    C7 1528   0.992   3.906   1.488 -0.5753 -0.3739  0.1860
  100TCq2    C8 1529   0.736   3.903   1.483 -0.2039 -0.6620  0.9852
  100TCq2    O4 1530   0.638   3.973   1.510  0.4857 -0.0458  0.1318
  100TCq2    C9 1531   0.952   4.316   1.535  0.1288 -0.1206 -0.7390
  100TCq2    O5 1532   0.853   4.375   1.488 -0.4811 -0.5388  0.5200
  100TCq2    O6 1533   1.056   4.372   1.577 -0.7413  0.1542  0.2612
  100TCq2    H2 1534   1.171   4.189   1.549 -1.1710  0.3181  3.3593
  100TCq2    H3 1535   0.759   4.165   1.465  0.2588  0.1986  2.1970
  100TCq2    H4 1536   1.001   3.798   1.498  0.7614 -0.2718  0.1144
  101MPD2     C 1537   2.445   4.205  12.677 -0.2616  0.2647  0.2196
  101MPD2    C1 1538   2.318   4.252  12.712 -0.1524 -0.4848 -0.0747
  101MPD2    C2 1539   2.226   4.161  12.768  0.8045  0.2835  0.1987
  101MPD2    C3 1540   2.260   4.034  12.804 -0.6100 -0.3490 -0.6112
  101MPD2    C4 1541   2.391   3.996  12.770 -0.2203  0.1281  0.4222
  101MPD2    C5 1542   2.483   4.076  12.711  0.1321  0.1839 -0.1912
  101MPD2     H 1543   2.123   4.192  12.779  0.6485 -0.9680  2.2836
  101MPD2    H1 1544   2.421   3.893  12.781  1.2352  0.4593 -0.3780
  101MPD2    H2 1545   2.515   4.258  12.614 -0.1229  0.0158  0.1617
  101MPD2    H3 1546   2.572   4.028  12.671 -0.9335 -1.3201 -0.8023
  101MPD2     N 1547   2.175   3.952  12.872  0.2819 -0.0010  0.1657
  101MPD2    H5 1548   2.084   3.987  12.901  0.8596  0.1543  1.7619
  101MPD2    N1 1549   2.286   4.387  12.673  0.2355 -0.3684  0.3580
  101MPD2    H7 1550   2.342   4.430  12.600  1.5858 -2.2069  0.3046
  102TCq2    C1 1551   2.424   0.075  12.470  0.5981  0.6104 -0.3279
  102TCq2    O2 1552   2.522   0.006  12.489  0.1788 -1.1256  0.3794
  102TCq2    C2 1553   2.303   0.035  12.530 -0.2739 -0.2603  0.2400
  102TCq2    C3 1554   2.191   0.114  12.525  0.6978  0.4498  0.0172
  102TCq2    C4 1555   2.083   0.074  12.598  0.7729 -0.5984  0.9946
  102TCq2    C5 1556   2.085   4.675  12.658 -0.0313 -0.5746  0.8901
  102TCq2    C6 1557   2.196   4.604  12.666  0.7104  0.1930  0.1066
  102TCq2    C7 1558   2.312   4.651  12.610 -0.1744 -0.1154  0.0648
  102TCq2    C8 1559   2.186   4.465  12.720  0.1592 -0.1646  0.6486
  102TCq2    O4 1560   2.085   4.427  12.774  0.1671 -0.0343  0.1765
  102TCq2    C9 1561   1.964   0.158  12.601  0.2729 -0.7616  0.5570
  102TCq2    O5 1562   1.859   0.095  12.632  0.6883 -0.4024  0.0561
  102TCq2    O6 1563   1.985   0.285  12.598 -0.6229  0.4978  0.4886
  102TCq2    H2 1564   2.178   0.208  12.473  0.3364  1.3438  1.7171
  102TCq2    H3 1565   1.995   4.647  12.712 -1.1081  0.1353 -0.5367
  102TCq2    H4 1566   2.405   4.595  12.617  1.1882  2.4961  2.9359
  103TMC2    C1 1567   0.450   4.245  13.014 -0.5259 -0.2350 -0.5132
  103TMC2    C2 1568   0.342   4.326  13.016  0.8429  0.2473 -0.0905
  103TMC2    C3 1569   0.335   4.414  13.113 -0.1556  0.5711 -0.3852
  103TMC2    C4 1570   0.540   4.232  13.116  0.4199  0.1036  0.2578
  103TMC2    C5 1571   0.506   4.309  13.226  0.4044  0.8179  0.1050
  103TMC2    C6 1572   0.419   4.409  13.218  0.2052 -0.5404 -0.3306
  103TMC2     C 1573   0.476   4.184  12.880 -0.4810 -0.8671 -0.4027
  103TMC2     O 1574   0.404   4.220  12.788  0.0260 -0.1059 -0.1096
  103TMC2     H 1575   0.268   4.311  12.938  0.1759 -0.0084  0.5917
  103TMC2    H1 1576   0.633   4.176  13.117  0.2425 -0.1970  0.0951
  103TMC2    H2 1577   0.407   4.464  13.310  0.0060 -0.3523 -0.4683
  103TMC2    C7 1578   0.555   4.265  13.355  0.1634 -0.0580 -0.1916
  103TMC2    C8 1579   0.196   4.449  13.151  0.7037  0.3288 -0.4774
  103TMC2    O1 1580   0.536   4.329  13.459  0.1325  0.4841  1.0346
  103TMC2    O2 1581   0.158   4.443  13.267 -0.8094  0.1759  0.2233
  103TMC2    O5 1582   0.113   4.440  13.045 -0.2737  0.5036 -0.1208
  103TMC2    H5 1583   0.156   4.455  12.958 -1.1277 -0.8616 -0.7848
  104MPD2     C 1584   0.716   3.912  12.801 -0.4117  0.0945  0.2393
  104MPD2    C1 1585   0.620   4.009  12.769  0.6513  0.0172 -0.4966
  104MPD2    C2 1586   0.555   4.015  12.650  0.3303 -0.4532  0.8170
  104MPD2    C3 1587   0.585   3.921  12.560 -0.7193  0.3149 -0.6471
  104MPD2    C4 1588   0.675   3.823  12.588  0.0992  0.5545 -0.6165
  104MPD2    C5 1589   0.738   3.811  12.714 -0.3579 -0.2494 -0.4858
  104MPD2     H 1590   0.481   4.091  12.628  1.2356 -0.0801 -0.8525
  104MPD2    H1 1591   0.700   3.744  12.518  1.5421  0.2363  0.2450
  104MPD2    H2 1592   0.771   3.911  12.894 -0.6568 -0.9589  0.3698
  104MPD2    H3 1593   0.810   3.734  12.739  0.4839  0.1717 -1.6191
  104MPD2     N 1594   0.520   3.929  12.434 -0.1960 -0.2276  0.3155
  104MPD2    H5 1595   0.468   4.016  12.422 -0.4026 -0.5355 -0.9505
  104MPD2    N1 1596   0.576   4.091  12.877 -0.7009 -0.4543 -0.1885
  104MPD2    H7 1597   0.619   4.069  12.967 -1.1224  1.9344  0.5943
  105MPD2     C 1598   2.484   3.254  17.331 -0.2784  0.4851 -0.1292
  105MPD2    C1 1599   2.401   3.360  17.325 -0.3754 -0.0703 -0.3053
  105MPD2    C2 1600   2.325   3.389  17.432 -0.1940  0.4068 -0.0251
  105MPD2    C3 1601   2.327   3.311  17.550  0.2894  0.5346 -0.4549
  105MPD2    C4 1602   2.432   3.223  17.572  0.4463 -0.3140 -0.0627
  105MPD2    C5 1603   2.511   3.206  17.462 -0.3862  0.0263 -0.6594
  105MPD2     H 1604   2.248   3.463  17.414  1.4644  2.7273  2.4984
  105MPD2    H1 1605   2.452   3.155  17.653 -3.2236 -0.0362  1.0799
  105MPD2    H2 1606   2.551   3.218  17.254  0.5254 -0.9762  1.2580
  105MPD2    H3 1607   2.591   3.133  17.465 -0.7743 -0.3764 -0.3559
  105MPD2     N 1608   2.228   3.331  17.653 -0.1919 -0.2857  0.1446
  105MPD2    H5 1609   2.164   3.406  17.628  4.3696  3.6072  0.2111
  105MPD2    N1 1610   2.362   3.421  17.203 -0.1466  0.0109  0.1243
  105MPD2    H7 1611   2.297   3.499  17.215  0.8259  0.8546 -0.1057
  106TCq2    C1 1612   2.193   3.249   0.053 -0.0102 -0.5092  0.7943
  106TCq2    O2 1613   2.233   3.141   0.093 -0.4009 -0.0214 -0.2940
  106TCq2    C2 1614   2.081   3.307   0.118  0.1000  0.3263 -0.3725
  106TCq2    C3 1615   2.014   3.397   0.043  0.4442  0.0687  0.4730
  106TCq2    C4 1616   1.953   3.506   0.101  0.2932  0.1452  0.9772
  106TCq2    C5 1617   1.948   3.516   0.241 -0.6038  0.3059  0.0602
  106TCq2    C6 1618   2.011   3.418   0.313 -0.4963  0.1807 -0.1401
  106TCq2    C7 1619   2.086   3.320   0.254  0.6938 -0.1733  0.5657
  106TCq2    C8 1620   2.002   3.417   0.457  1.3053 -0.2067 -0.3936
  106TCq2    O4 1621   2.104   3.387   0.519 -0.2400 -0.5743  0.0899
  106TCq2    C9 1622   1.888   3.612   0.028 -0.1510 -0.1334 -0.3647
  106TCq2    O5 1623   1.796   3.680   0.084 -0.3314  0.3775 -0.2556
  106TCq2    O6 1624   1.927   3.625  17.615  0.1239 -0.7415 -0.5454
  106TCq2    H2 1625   1.982   3.377  17.647  1.2983  1.0267  0.0084
  106TCq2    H3 1626   1.909   3.606   0.288  0.7028  0.4571  0.8827
  106TCq2    H4 1627   2.122   3.238   0.314  3.1204 -0.2392 -1.0210
  107TMC2    C1 1628   2.571   2.498  11.136  0.0375  0.9535 -0.0067
  107TMC2    C2 1629   2.452   2.508  11.065  0.0190  0.5458 -0.2692
  107TMC2    C3 1630   2.448   2.451  10.939 -0.2808  0.5376  0.6318
  107TMC2    C4 1631   2.686   2.451  11.083  0.8086  0.0893 -0.2785
  107TMC2    C5 1632   2.687   2.399  10.956  0.4641  0.1504  0.4122
  107TMC2    C6 1633   2.568   2.390  10.889 -0.7327  0.2059  0.1728
  107TMC2     C 1634   2.554   2.522  11.280 -0.2700  0.4746 -0.5733
  107TMC2     O 1635   2.454   2.581  11.327  0.4218  0.0415 -0.7887
  107TMC2     H 1636   2.367   2.545  11.121 -2.2952 -1.8443 -2.1774
  107TMC2    H1 1637   2.783   2.461  11.131  0.4202 -0.9868  0.7319
  107TMC2    H2 1638   2.562   2.336  10.795 -1.3580  1.5743 -0.5665
  107TMC2    C7 1639   2.816   2.361  10.892 -0.2487 -0.0841 -0.5595
  107TMC2    C8 1640   2.325   2.455  10.860  0.1695  0.4374 -0.0965
  107TMC2    O1 1641   2.914   2.348  10.963  0.6383  0.6310 -0.5607
  107TMC2    O2 1642   2.257   2.354  10.861 -0.0404 -0.5047  0.0699
  107TMC2    O5 1643   2.365   2.506  10.745  0.3765 -0.8152  0.3029
  107TMC2    H5 1644   2.422   2.584  10.764 -0.1443 -0.3804  0.0874
  108MPD2     C 1645   2.832   2.452  11.523 -0.1112  0.3121 -0.1319
  108MPD2    C1 1646   2.708   2.504  11.477  0.4746 -0.3139 -0.0197
  108MPD2    C2 1647   2.631   2.569  11.572  0.1955  0.1676  0.5610
  108MPD2    C3 1648   2.673   2.580  11.706 -0.4248 -0.0047 -0.3595
  108MPD2    C4 1649   2.793   2.532  11.746  0.6335 -0.1407  0.8159
  108MPD2    C5 1650   2.880   2.471  11.658  0.0462  0.6438  0.1612
  108MPD2     H 1651   2.545   2.622  11.534  0.1319 -0.9562 -0.8966
  108MPD2    H1 1652   2.822   2.537  11.850  1.7710  1.6519  0.4143
  108MPD2    H2 1653   2.897   2.394  11.459  1.1549  2.4114 -0.7356
  108MPD2    H3 1654   2.976   2.430  11.687 -0.6626 -0.4627  0.9474
  108MPD2     N 1655   2.583   2.628  11.807  0.0363  0.4334  0.2760
  108MPD2    H5 1656   2.626   2.640  11.898  0.2773  1.1099  0.0734
  108MPD2    N1 1657   2.668   2.478  11.343  0.2568  0.4811  0.1042
  108MPD2    H7 1658   2.743   2.446  11.282 -0.5084  0.0270 -0.5895
  109MPD2     C 1659   2.084   0.266   1.976 -0.4426  0.2756  0.9393
  109MPD2    C1 1660   2.150   0.374   1.935  0.2635  0.8506  0.2922
  109MPD2    C2 1661   2.241   0.439   2.012  0.3939 -0.5978  0.4098
  109MPD2    C3 1662   2.248   0.397   2.143 -0.1085 -0.3850  0.0853
  109MPD2    C4 1663   2.190   0.281   2.186 -0.5406  0.1665 -0.0297
  109MPD2    C5 1664   2.125   0.207   2.090  1.0351  0.2348 -0.3513
  109MPD2     H 1665   2.283   0.536   1.986 -3.0395  0.4775 -1.2433
  109MPD2    H1 1666   2.197   0.256   2.291 -0.1225 -1.4557 -0.4552
  109MPD2    H2 1667   2.012   0.210   1.918  1.7749 -1.2209 -0.4043
  109MPD2    H3 1668   2.078   0.117   2.128 -0.4310 -0.2482 -3.3472
  109MPD2     N 1669   2.313   0.472   2.235  0.5613 -0.1463  0.4134
  109MPD2    H5 1670   2.360   0.554   2.198 -2.8889  0.7846 -1.8433
  109MPD2    N1 1671   2.119   0.420   1.803  0.7379 -0.1337  0.3941
  109MPD2    H7 1672   2.049   0.365   1.753  2.2683 -1.2202 -0.5656
  110TCq2    C1 1673   2.354   0.441   2.371  0.4263  0.2652 -0.3701
  110TCq2    O2 1674   2.331   0.340   2.438  0.0269  0.4081 -0.8016
  110TCq2    C2 1675   2.414   0.560   2.421 -0.0382  0.1750 -0.0140
  110TCq2    C3 1676   2.488   0.538   2.532 -0.4060  0.3986  0.3486
  110TCq2    C4 1677   2.568   0.637   2.574  0.4216  0.3054  0.1536
  110TCq2    C5 1678   2.571   0.758   2.514 -0.3498  0.0232  0.8007
  110TCq2    C6 1679   2.498   0.775   2.400 -0.7092 -0.3639  0.0331
  110TCq2    C7 1680   2.418   0.680   2.350  0.0580  0.0629  0.8899
  110TCq2    C8 1681   2.536   0.877   2.296  0.0792 -0.0898  0.5768
  110TCq2    O4 1682   2.507   0.854   2.180 -0.5095 -0.4898 -0.1711
  110TCq2    C9 1683   2.655   0.612   2.692 -0.1104 -0.6737 -1.0215
  110TCq2    O5 1684   2.644   0.503   2.754  0.9142  0.3123  0.0438
  110TCq2    O6 1685   2.730   0.705   2.721 -0.0604  0.2770 -0.1443
  110TCq2    H2 1686   2.491   0.440   2.577 -2.0921 -0.2191 -0.8875
  110TCq2    H3 1687   2.640   0.837   2.542  1.4851 -0.9070 -1.1424
  110TCq2    H4 1688   2.354   0.699   2.265  1.8135  0.9108 -0.2158
  111TMC2    C1 1689   3.172   0.234  11.192  0.3206 -0.7932  0.3217
  111TMC2    C2 1690   3.257   0.257  11.092 -0.3549 -0.4873  0.0894
  111TMC2    C3 1691   3.383   0.313  11.126  0.5180  0.3470  0.5073
  111TMC2    C4 1692   3.195   0.259  11.323  0.3097  0.0482  0.4335
  111TMC2    C5 1693   3.322   0.308  11.352  1.0223  0.2028 -0.1998
  111TMC2    C6 1694   3.419   0.331  11.261 -0.2914  0.3101  0.0850
  111TMC2     C 1695   3.032   0.214  11.154 -0.2097  0.7620 -0.3244
  111TMC2     O 1696   2.979   0.282  11.065 -0.3170 -0.3169 -0.0835
  111TMC2     H 1697   3.233   0.223  10.992 -0.5368 -2.1533  0.7051
  111TMC2    H1 1698   3.131   0.213  11.399  0.8959 -1.6287 -0.0958
  111TMC2    H2 1699   3.520   0.367  11.277  0.1130 -1.5882  1.8166
  111TMC2    C7 1700   3.370   0.289  11.492 -0.0718 -0.2020  0.4854
  111TMC2    C8 1701   3.500   0.257  11.061  0.4230 -0.2638 -0.2482
  111TMC2    O1 1702   3.280   0.264  11.570  0.1886  0.1544  0.0976
  111TMC2    O2 1703   3.589   0.202  11.124  0.2924 -0.3822  0.1187
  111TMC2    O5 1704   3.485   0.276  10.925  0.3159 -0.1220  0.4399
  111TMC2    H5 1705   3.418   0.344  10.901  2.8322  2.3959  0.5124
  112MPD2     C 1706   2.633   4.641  11.132 -0.0589  0.1366  0.0820
  112MPD2    C1 1707   2.656   0.029  11.065  0.3628  0.3592  0.3089
  112MPD2    C2 1708   2.774   0.092  11.093  0.9923  0.0029  0.3814
  112MPD2    C3 1709   2.864   0.043  11.187 -0.4875  0.9114 -0.4910
  112MPD2    C4 1710   2.840   4.648  11.251  0.2279  0.0405 -0.0157
  112MPD2    C5 1711   2.718   4.586  11.222  0.0146  0.1737  0.6541
  112MPD2     H 1712   2.804   0.175  11.031 -1.0679  0.8506  0.5213
  112MPD2    H1 1713   2.898   4.604  11.331 -1.7311  1.2185  2.0682
  112MPD2    H2 1714   2.543   4.585  11.105 -0.1706  0.8030 -0.9448
  112MPD2    H3 1715   2.688   4.498  11.279  1.1176 -1.5979 -1.4866
  112MPD2     N 1716   2.988   0.104  11.214 -0.3427  0.4490  0.0943
  112MPD2    H5 1717   3.047   0.051  11.278  1.8292  1.3177 -1.1872
  112MPD2    N1 1718   2.589   0.082  10.948 -0.0539  0.1588 -0.0358
  112MPD2    H7 1719   2.630   0.165  10.907 -1.3500  2.7894  3.9069
  113MPD2     C 1720   1.102   3.133   1.138  0.4464 -0.1353 -0.5883
  113MPD2    C1 1721   1.036   3.160   1.016 -0.2466  0.0373 -0.0243
  113MPD2    C2 1722   1.026   3.058   0.925  0.1484  0.5280  0.7364
  113MPD2    C3 1723   1.095   2.942   0.943 -0.7110 -0.2124  0.1066
  113MPD2    C4 1724   1.164   2.918   1.057  0.1721  0.1861  0.2454
  113MPD2    C5 1725   1.167   3.013   1.156 -0.4587  0.2187 -0.1424
  113MPD2     H 1726   0.966   3.075   0.835  1.8545 -1.2113 -0.7093
  113MPD2    H1 1727   1.221   2.828   1.079  1.8420  1.6278  1.8103
  113MPD2    H2 1728   1.109   3.207   1.216 -1.9566  0.9344 -1.3992
  113MPD2    H3 1729   1.230   2.985   1.240 -1.3235  1.5615  0.9398
  113MPD2     N 1730   1.085   2.842   0.845  0.5573  0.1244 -0.2484
  113MPD2    H5 1731   1.037   2.870   0.760  1.7026  1.7531 -0.3719
  113MPD2    N1 1732   0.965   3.282   0.995  0.2735  0.2209 -0.6578
  113MPD2    H7 1733   0.911   3.275   0.910  0.1641  0.1980 -0.5854
  114TCq2    C1 1734   1.119   2.716   0.857  0.3084  0.4605 -0.2263
  114TCq2    O2 1735   1.169   2.653   0.945 -1.1573  0.1257  1.0224
  114TCq2    C2 1736   1.061   2.640   0.749 -0.3524 -0.2225  0.3715
  114TCq2    C3 1737   1.106   2.682   0.629  0.0928 -0.8914 -0.2607
  114TCq2    C4 1738   1.019   2.685   0.528  0.4839 -0.4849 -0.4678
  114TCq2    C5 1739   0.888   2.642   0.541  0.4934  0.4121 -0.2166
  114TCq2    C6 1740   0.847   2.593   0.662  0.3996  0.4592 -0.6337
  114TCq2    C7 1741   0.931   2.601   0.771 -0.4900 -0.2899  0.1584
  114TCq2    C8 1742   0.707   2.560   0.674  0.1156  0.7897 -0.4789
  114TCq2    O4 1743   0.653   2.509   0.576 -0.1897 -0.0355 -0.1124
  114TCq2    C9 1744   1.061   2.746   0.403  0.2613 -0.1496  0.1259
  114TCq2    O5 1745   0.969   2.773   0.320  0.5115 -0.1120 -0.3458
  114TCq2    O6 1746   1.175   2.790   0.401  0.3013  0.1052 -0.1523
  114TCq2    H2 1747   1.212   2.704   0.621 -0.1207 -0.9795 -3.2140
  114TCq2    H3 1748   0.820   2.647   0.456  1.1684 -0.8867 -0.8423
  114TCq2    H4 1749   0.892   2.595   0.872  0.8829  1.7291  0.8246
  115TMC2    C1 1750   0.872   0.628  17.214 -0.1798 -0.1968 -0.4215
  115TMC2    C2 1751   0.816   0.672  17.095  0.6367  0.6284 -0.0764
  115TMC2    C3 1752   0.825   0.802  17.062  0.4600  0.4351 -0.2642
  115TMC2    C4 1753   0.949   0.708  17.287 -0.0964  0.0268  0.1842
  115TMC2    C5 1754   0.956   0.840  17.249 -0.7299  0.1588 -0.5091
  115TMC2    C6 1755   0.896   0.889  17.139 -0.2146 -0.5847 -0.5344
  115TMC2     C 1756   0.888   0.486  17.232  0.2732  0.1647  0.9754
  115TMC2     O 1757   0.856   0.419  17.135  0.1948  0.2209  0.2143
  115TMC2     H 1758   0.758   0.605  17.031  1.8414  2.4515 -3.0899
  115TMC2    H1 1759   0.992   0.685  17.384 -0.9070  1.4919  0.8863
  115TMC2    H2 1760   0.881   0.995  17.120 -0.4112 -0.3095  1.2015
  115TMC2    C7 1761   1.002   0.925  17.357 -0.0641  0.0049 -0.0302
  115TMC2    C8 1762   0.718   0.852  16.974 -0.5940 -0.9567 -0.3017
  115TMC2    O1 1763   0.987   0.891  17.474 -0.3066  0.6479  0.6380
  115TMC2    O2 1764   0.727   0.919  16.873  0.5855  0.2398  0.0942
  115TMC2    O5 1765   0.607   0.829  17.047  0.3367  0.0797 -0.8006
  115TMC2    H5 1766   0.634   0.791  17.133  1.7157  0.0375 -1.2361
  116MPD2     C 1767   1.169   0.118  17.452  0.5743 -0.4456  0.0905
  116MPD2    C1 1768   1.137   0.128  17.318 -0.0220 -0.3137  0.0506
  116MPD2    C2 1769   1.069   0.242  17.281 -0.7011 -0.1292 -0.1087
  116MPD2    C3 1770   1.022   0.330  17.378 -0.2650 -0.0852  0.2670
  116MPD2    C4 1771   1.048   0.315  17.510  0.3336 -0.6450  0.3709
  116MPD2    C5 1772   1.122   0.206  17.542  0.4356  0.5419  0.1461
  116MPD2     H 1773   1.046   0.258  17.176 -1.0378 -0.8405 -0.1488
  116MPD2    H1 1774   1.022   0.391  17.584  1.3863 -0.8841  0.9759
  116MPD2    H2 1775   1.238   0.040  17.482  0.2508 -0.6590  0.2724
  116MPD2    H3 1776   1.171   0.187  17.637  0.6982  0.5639  0.0125
  116MPD2     N 1777   0.947   0.448  17.354 -0.1867  0.2207  0.5654
  116MPD2    H5 1778   0.940   0.507  17.436 -1.0914 -1.2165  1.5043
  116MPD2    N1 1779   1.185   0.028  17.222 -0.1914 -0.0795  0.3503
  116MPD2    H7 1780   1.251   4.685  17.256 -1.2866 -0.7020  1.2327
  117TMC2    C1 1781   0.203   2.157  14.002  0.3645  0.0917  0.6471
  117TMC2    C2 1782   0.232   2.027  14.039 -0.0112 -0.1789 -0.4422
  117TMC2    C3 1783   0.352   1.972  14.004 -0.0452  0.0362  0.1944
  117TMC2    C4 1784   0.303   2.235  13.952  0.0014 -0.2878 -0.3394
  117TMC2    C5 1785   0.429   2.176  13.917 -0.3739 -0.3861 -0.1704
  117TMC2    C6 1786   0.456   2.042  13.942 -0.3479 -0.3163  0.6502
  117TMC2     C 1787   0.081   2.224  14.038 -0.7993  0.3090  0.3993
  117TMC2     O 1788   0.033   2.179  14.142 -0.1916 -0.5238 -0.2566
  117TMC2     H 1789   0.155   1.962  14.078  1.0818 -2.4233 -1.9766
  117TMC2    H1 1790   0.281   2.337  13.923 -1.7886 -0.8651 -1.0208
  117TMC2    H2 1791   0.545   1.995  13.902  0.1084  1.6893 -0.6668
  117TMC2    C7 1792   0.526   2.266  13.847 -0.0649 -0.3999 -0.1200
  117TMC2    C8 1793   0.346   1.826  13.996  0.3757  0.2853 -0.0534
  117TMC2    O1 1794   0.483   2.377  13.811  0.2405 -0.0561  0.3956
  117TMC2    O2 1795   0.243   1.762  13.989 -0.2378  0.4119  0.1587
  117TMC2    O5 1796   0.454   1.776  14.054  0.3838 -0.1529 -0.5368
  117TMC2    H5 1797   0.526   1.840  14.068  0.1631  0.2104 -1.0582
  118MPD2     C 1798   0.878   2.208  13.796  0.1503 -0.0947  0.2594
  118MPD2    C1 1799   0.763   2.281  13.784  0.8990 -0.4650 -0.4770
  118MPD2    C2 1800   0.767   2.404  13.721  0.0918  0.0426 -0.7662
  118MPD2    C3 1801   0.874   2.457  13.662  0.0837 -1.1354 -0.4575
  118MPD2    C4 1802   0.989   2.381  13.672 -0.1142  0.5457  0.3036
  118MPD2    C5 1803   0.986   2.258  13.724 -0.2516  0.1280 -0.4711
  118MPD2     H 1804   0.670   2.445  13.696 -0.4602 -0.6081  0.3050
  118MPD2    H1 1805   1.083   2.419  13.635  0.4046 -0.9672  0.0705
  118MPD2    H2 1806   0.882   2.110  13.842 -1.1371 -0.5755 -0.6421
  118MPD2    H3 1807   1.071   2.190  13.720 -0.0817  0.4690 -2.4372
  118MPD2     N 1808   0.877   2.576  13.590  0.2256 -0.3130 -1.2669
  118MPD2    H5 1809   0.965   2.605  13.550  0.6977 -1.8928 -1.3303
  118MPD2    N1 1810   0.652   2.223  13.855 -0.2783 -0.1822 -0.6059
  118MPD2    H7 1811   0.659   2.136  13.906  0.1639 -0.2983 -0.8615
  119MPD2     C 1812   3.902   3.794  13.453 -0.2712  0.9637 -0.6155
  119MPD2    C1 1813   3.779   3.832  13.501  0.5142 -0.5241 -0.5499
  119MPD2    C2 1814   3.670   3.832  13.415 -0.0987  0.8468 -0.3082
  119MPD2    C3 1815   3.681   3.790  13.285 -0.8807 -0.2190  0.3699
  119MPD2    C4 1816   3.806   3.759  13.243 -0.4512  0.3976  0.0853
  119MPD2    C5 1817   3.915   3.757  13.323  0.5354  0.2979 -0.2474
  119MPD2     H 1818   3.572   3.859  13.454  0.8208  0.5637  2.1717
  119MPD2    H1 1819   3.821   3.723  13.142 -0.0067  0.3006  0.1873
  119MPD2    H2 1820   3.989   3.790  13.518  0.9293  0.4135 -2.2603
  119MPD2    H3 1821   4.012   3.723  13.291 -0.1450  0.2949 -2.3269
  119MPD2     N 1822   3.570   3.770  13.198  0.1970  0.1237 -0.1321
  119MPD2    H5 1823   3.583   3.737  13.103 -2.6378  0.3742 -0.6256
  119MPD2    N1 1824   3.772   3.859  13.638 -0.0285  0.0196 -0.0277
  119MPD2    H7 1825   3.860   3.886  13.681 -0.3395  1.9456 -0.5896
  120TCq2    C1 1826   3.433   3.771  13.232 -0.8772 -0.1463 -0.0836
  120TCq2    O2 1827   3.382   3.762  13.343  0.0398  0.3818  0.4323
  120TCq2    C2 1828   3.345   3.775  13.117  0.0761 -0.4436  0.7855
  120TCq2    C3 1829   3.378   3.849  13.007  0.0011 -0.4061 -0.0678
  120TCq2    C4 1830   3.287   3.846  12.902 -0.8889 -0.5133 -0.5413
  120TCq2    C5 1831   3.164   3.780  12.909 -0.1125  0.2907  0.3382
  120TCq2    C6 1832   3.139   3.711  13.023  0.2584 -0.5169  0.6137
  120TCq2    C7 1833   3.232   3.703  13.127  0.2181  0.1015 -0.3942
  120TCq2    C8 1834   3.003   3.673  13.042 -0.5878 -1.0922 -0.7356
  120TCq2    O4 1835   2.922   3.672  12.953 -0.6247 -0.0071  0.0157
  120TCq2    C9 1836   3.306   3.934  12.789 -0.4439 -0.2474 -0.2902
  120TCq2    O5 1837   3.215   3.951  12.708  0.2429  0.2988 -0.7264
  120TCq2    O6 1838   3.406   4.007  12.790 -0.0542 -0.1196  0.0766
  120TCq2    H2 1839   3.465   3.913  13.007  0.5443 -1.1553  2.1042
  120TCq2    H3 1840   3.092   3.791  12.828 -0.8530  0.6920  1.0582
  120TCq2    H4 1841   3.212   3.634  13.208 -0.5170 -0.2256 -0.8571
  121TMC2    C1 1842   0.121   0.496  14.006 -0.0189  0.5819 -0.1653
  121TMC2    C2 1843   0.111   0.626  14.043  0.1477  0.1900 -0.0922
  121TMC2    C3 1844   0.006   0.666  14.114 -0.5185 -0.1405 -0.3939
  121TMC2    C4 1845   0.049   0.398  14.051  0.0148 -0.2344  0.7359
  121TMC2    C5 1846   4.664   0.437  14.120  0.4213  0.4764  0.2500
  121TMC2    C6 1847   4.641   0.575  14.144  0.2841 -0.4408 -0.0215
  121TMC2     C 1848   0.239   0.458  13.935  0.1714  0.3051 -0.5730
  121TMC2     O 1849   0.263   0.341  13.939 -0.7074 -0.0946 -0.0861
  121TMC2     H 1850   0.178   0.697  13.997  2.1764 -1.4969  0.2770
  121TMC2    H1 1851   0.071   0.292  14.047  0.2196 -0.1603 -0.1204
  121TMC2    H2 1852   4.545   0.609  14.182  0.6368  0.4671  0.0504
  121TMC2    C7 1853   4.554   0.338  14.146  1.0328 -0.4099  0.5902
  121TMC2    C8 1854   4.685   0.797  14.071 -0.6891  0.2401 -0.3366
  121TMC2    O1 1855   4.586   0.220  14.170  0.0113  0.0771  0.2458
  121TMC2    O2 1856   4.712   0.855  13.968 -0.0206  0.2581 -0.0488
  121TMC2    O5 1857   4.582   0.837  14.148  0.3911  0.8636  0.3570
  121TMC2    H5 1858   4.579   0.778  14.226 -2.0211  0.0817 -0.3280
  122MPD2     C 1859   0.494   0.422  13.786  0.0124 -0.3333  0.0101
  122MPD2    C1 1860   0.409   0.523  13.758  0.2508 -0.0053  0.2289
  122MPD2    C2 1861   0.437   0.608  13.658 -0.2070  0.3462  0.6752
  122MPD2    C3 1862   0.540   0.575  13.572 -0.4806 -0.1796 -0.2203
  122MPD2    C4 1863   0.597   0.451  13.575  0.2831  0.0158  0.5175
  122MPD2    C5 1864   0.600   0.393  13.699 -0.0014 -0.4433  0.7527
  122MPD2     H 1865   0.384   0.702  13.654 -1.9165 -0.8111 -3.9970
  122MPD2    H1 1866   0.689   0.434  13.520  0.9724 -0.3340  1.7863
  122MPD2    H2 1867   0.484   0.361  13.875  0.3187 -0.4922 -0.0633
  122MPD2    H3 1868   0.659   0.310  13.735  0.1956 -0.0269  1.3971
  122MPD2     N 1869   0.566   0.655  13.460  0.1609  0.5076  0.3068
  122MPD2    H5 1870   0.642   0.637  13.395  1.3265 -1.1125  2.1392
  122MPD2    N1 1871   0.296   0.549  13.840  0.1999  0.2718  1.3626
  122MPD2    H7 1872   0.244   0.635  13.825  1.2840  0.3123 -2.0777
  123MPD2     C 1873   2.956   3.365   9.469 -0.0658 -0.9584  0.2428
  123MPD2    C1 1874   2.955   3.227   9.512 -0.4521 -0.2245  0.1778
  123MPD2    C2 1875   3.070   3.156   9.503 -0.9239 -0.4334  0.4150
  123MPD2    C3 1876   3.187   3.201   9.439 -0.4113  0.4497 -1.1791
  123MPD2    C4 1877   3.183   3.329   9.387 -0.4309 -0.2221 -1.0509
  123MPD2    C5 1878   3.074   3.413   9.409  0.0139 -0.2553  0.6654
  123MPD2     H 1879   3.071   3.055   9.543  0.7806  0.4165  2.5685
  123MPD2    H1 1880   3.262   3.367   9.324  0.6407 -1.7583 -0.6206
  123MPD2    H2 1881   2.877   3.435   9.492 -1.3539 -2.0471 -0.8548
  123MPD2    H3 1882   3.090   3.515   9.377  1.5211 -1.4106 -2.2450
  123MPD2     N 1883   3.292   3.110   9.425  0.0680  0.1348 -0.0290
  123MPD2    H5 1884   3.279   3.019   9.470 -2.1138 -0.4864 -1.8929
  123MPD2    N1 1885   2.835   3.169   9.562 -0.2252 -0.1781  0.6035
  123MPD2    H7 1886   2.750   3.223   9.557 -0.3793 -0.3645  1.1026
  124TCq2    C1 1887   3.420   3.141   9.384 -0.2155  0.2481 -0.4118
  124TCq2    O2 1888   3.468   3.248   9.347  0.7500 -0.1226  0.9698
  124TCq2    C2 1889   3.513   3.036   9.419 -0.1867 -1.0142  0.7773
  124TCq2    C3 1890   3.639   3.081   9.451 -0.0866  0.5651 -0.4260
  124TCq2    C4 1891   3.726   3.001   9.513 -0.0027 -0.0474  0.7235
  124TCq2    C5 1892   3.691   2.874   9.550  0.0618  0.3973 -0.3253
  124TCq2    C6 1893   3.563   2.829   9.517  0.0389 -0.6763 -0.5365
  124TCq2    C7 1894   3.472   2.908   9.443  0.6276  0.5994  0.2032
  124TCq2    C8 1895   3.538   2.695   9.563 -0.1886 -0.0182  0.2560
  124TCq2    O4 1896   3.635   2.620   9.573  0.2318 -0.4049 -0.1285
  124TCq2    C9 1897   3.845   3.063   9.570 -0.6781 -0.3617 -0.9664
  124TCq2    O5 1898   3.927   2.979   9.613 -0.2297 -0.0335 -0.0492
  124TCq2    O6 1899   3.853   3.188   9.572 -0.6438 -0.0124 -0.1360
  124TCq2    H2 1900   3.666   3.183   9.428 -0.3698  0.5905 -0.6420
  124TCq2    H3 1901   3.754   2.811   9.612 -2.1002 -0.5313  0.8999
  124TCq2    H4 1902   3.375   2.872   9.408  0.7713  1.6609 -1.2693
  125TMC2    C1 1903   2.688   0.179   9.716  0.2807 -0.1469 -0.5274
  125TMC2    C2 1904   2.589   0.180   9.807  0.1636 -0.0247  0.1922
  125TMC2    C3 1905   2.575   0.287   9.894 -0.5592 -0.4561 -0.5322
  125TMC2    C4 1906   2.774   0.285   9.713 -0.0448  1.1046 -0.0261
  125TMC2    C5 1907   2.769   0.381   9.801  0.6202  0.4001  0.0412
  125TMC2    C6 1908   2.665   0.386   9.891  0.4010  0.7846  0.5029
  125TMC2     C 1909   2.713   0.070   9.629  0.2049  0.2542 -0.0545
  125TMC2     O 1910   2.825   0.066   9.579 -0.2756  0.6989 -0.3464
  125TMC2     H 1911   2.526   0.094   9.826 -0.7088  1.0905  2.4031
  125TMC2    H1 1912   2.842   0.287   9.628 -1.9807 -0.9516 -1.6456
  125TMC2    H2 1913   2.655   0.472   9.956 -0.6288  0.4166  0.8358
  125TMC2    C7 1914   2.845   0.498   9.781 -0.0079 -0.3165 -0.3478
  125TMC2    C8 1915   2.441   0.303   9.944 -0.2109 -0.8249  0.0265
  125TMC2    O1 1916   2.797   0.600   9.827  0.0551  0.7262  0.7486
  125TMC2    O2 1917   2.388   0.223  10.022 -0.5062 -0.0537  0.5393
  125TMC2    O5 1918   2.376   0.377   9.855  0.1147  0.2393  0.2436
  125TMC2    H5 1919   2.426   0.394   9.773  0.1152  0.7320  0.3466
  126MPD1     C 1920   2.601   4.330   9.450 -0.6304  0.2789 -0.0843
  126MPD1    C1 1921   2.482   4.389   9.495 -0.4597 -0.4164  0.8305
  126MPD1    C2 1922   2.489   4.519   9.550 -0.5741 -0.4654  0.4797
  126MPD1    C3 1923   2.610   4.584   9.558  0.4914  0.7067 -0.2259
  126MPD1    C4 1924   2.726   4.517   9.519  0.0865 -0.1917 -0.2468
  126MPD1    C5 1925   2.719   4.393   9.467  0.2820 -0.1664 -0.1282
  126MPD1     H 1926   2.397   4.564   9.584 -0.6015 -0.7117  0.7363
  126MPD1    H1 1927   2.828   4.554   9.526  0.4036 -1.9202  3.8252
  126MPD1    H2 1928   2.613   4.231   9.406 -1.1621  0.6636 -1.0943
  126MPD1    H3 1929   2.813   4.346   9.439 -1.4850 -1.4578 -3.8390
  126MPD1     N 1930   2.602   4.714   9.608 -0.5388  0.0204  0.7048
  126MPD1    H5 1931   2.515   0.026   9.643 -0.6523  1.1188 -0.7572
  126MPD1    N1 1932   2.359   4.324   9.480 -0.1205  0.0367 -0.0346
  126MPD1    H6 1933   2.366   4.225   9.461  0.4358  0.5221 -2.3495
  126MPD1    H7 1934   2.298   4.349   9.558  1.5446 -0.4198  1.3991
  127MPD2     C 1935   4.536   4.582   9.236 -0.7198 -0.1858 -0.6391
  127MPD2    C1 1936   4.624   4.570   9.340  0.1508 -0.6368  0.6626
  127MPD2    C2 1937   4.694   4.685   9.388  0.2554  0.0325  0.1332
  127MPD2    C3 1938   4.668   0.077   9.325  1.1565 -0.1413 -0.2156
  127MPD2    C4 1939   4.575   0.090   9.220 -0.4017 -0.6868 -0.2321
  127MPD2    C5 1940   4.514   4.705   9.171 -0.5147  0.3411  0.0543
  127MPD2     H 1941   0.049   4.687   9.460 -0.4074  0.8583  0.8618
  127MPD2    H1 1942   4.552   0.184   9.172  2.7407 -0.8138 -1.9528
  127MPD2    H2 1943   4.489   4.499   9.186  0.1629 -1.2412  0.2688
  127MPD2    H3 1944   4.442   4.707   9.090  1.2536 -2.3103 -1.5852
  127MPD2     N 1945   0.002   0.191   9.389  0.0757 -0.4810 -0.0351
  127MPD2    H5 1946   0.064   0.174   9.467 -0.2150 -1.9096 -0.1229
  127MPD2    N1 1947   4.642   4.439   9.393  0.1294 -0.1095  0.3980
  127MPD2    H7 1948   4.595   4.364   9.345 -0.0721  1.4898 -1.9019
  128TCq2    C1 1949   4.717   4.410   9.498 -0.0443 -0.0529  0.0035
  128TCq2    O2 1950   0.068   4.483   9.562 -0.2749 -0.5107 -0.2176
  128TCq2    C2 1951   4.715   4.272   9.529 -0.2150  0.4372  0.1936
  128TCq2    C3 1952   0.104   4.214   9.582 -0.2135  0.1618  0.2588
  128TCq2    C4 1953   0.099   4.088   9.629  0.3156 -0.0518  0.1780
  128TCq2    C5 1954   4.711   4.011   9.613  0.6665 -0.2293  0.2822
  128TCq2    C6 1955   4.601   4.076   9.559  0.5626  0.4750 -0.1131
  128TCq2    C7 1956   4.601   4.202   9.512  0.4239 -0.0575 -0.6964
  128TCq2    C8 1957   4.484   3.997   9.528 -0.4766 -0.0818  0.0934
  128TCq2    O4 1958   4.417   4.034   9.431  0.1129  0.6927  0.2243
  128TCq2    C9 1959   0.221   4.026   9.687  0.2391 -0.8333  0.1181
  128TCq2    O5 1960   0.216   3.904   9.714 -0.3101 -0.2359 -0.3730
  128TCq2    O6 1961   0.311   4.111   9.722  0.8009  0.5059  0.4675
  128TCq2    H2 1962   0.201   4.263   9.584  0.1670 -0.5183 -0.9826
  128TCq2    H3 1963   4.719   3.911   9.654 -1.4982  0.5860  2.6898
  128TCq2    H4 1964   4.509   4.244   9.473  0.1135  1.5400  1.7063
  129MPD2     C 1965   3.041   1.156   1.857  0.0971  0.0336 -0.4318
  129MPD2    C1 1966   3.071   1.107   1.730  0.0504 -0.0073  1.1619
  129MPD2    C2 1967   3.066   1.184   1.623  0.1194  0.3569  0.5398
  129MPD2    C3 1968   3.027   1.316   1.636 -0.1416 -0.3484 -0.2941
  129MPD2    C4 1969   2.999   1.362   1.769 -0.6283  0.2793 -0.0803
  129MPD2    C5 1970   3.000   1.280   1.875  0.6291  0.2216 -0.7589
  129MPD2     H 1971   3.106   1.149   1.529  0.7219  0.6531  0.6867
  129MPD2    H1 1972   2.962   1.463   1.785 -0.5506  0.1557  0.8639
  129MPD2    H2 1973   3.037   1.090   1.943  0.4799 -0.7300 -1.0000
  129MPD2    H3 1974   2.986   1.314   1.977 -0.6257 -0.1230 -0.8243
  129MPD2     N 1975   3.041   1.396   1.517 -0.1914 -0.2582  0.1560
  129MPD2    H5 1976   3.051   1.345   1.430 -1.8797  1.2483 -0.9353
  129MPD2    N1 1977   3.120   0.973   1.716  0.3285  0.3764 -0.1235
  129MPD2    H7 1978   3.127   0.941   1.620  1.4398 -1.0443  0.4208
  130TCq2    C1 1979   3.133   0.875   1.812 -0.5387 -0.1104 -0.5710
  130TCq2    O2 1980   3.106   0.875   1.933 -0.0443  0.0339 -0.0667
  130TCq2    C2 1981   3.188   0.756   1.753  0.6352  0.7166 -0.1214
  130TCq2    C3 1982   3.259   0.758   1.637  0.5233 -0.2350 -0.7183
  130TCq2    C4 1983   3.313   0.644   1.583 -0.4140 -0.0413 -0.3536
  130TCq2    C5 1984   3.290   0.526   1.646  0.2526  0.5635 -0.6791
  130TCq2    C6 1985   3.225   0.527   1.765 -0.2663 -0.3207  0.4720
  130TCq2    C7 1986   3.169   0.637   1.821 -0.0256 -0.0229  0.9206
  130TCq2    C8 1987   3.169   0.395   1.795  0.1082  0.3388  0.0841
  130TCq2    O4 1988   3.236   0.293   1.785 -0.0527  0.3436  0.0526
  130TCq2    C9 1989   3.403   0.652   1.469 -0.9623 -0.2073 -0.1984
  130TCq2    O5 1990   3.476   0.546   1.457 -0.7840 -0.0480  0.5322
  130TCq2    O6 1991   3.442   0.763   1.423  0.0136 -0.4684  0.0619
  130TCq2    H2 1992   3.288   0.850   1.587 -0.8509  2.1114  2.7331
  130TCq2    H3 1993   3.330   0.431   1.613  1.0523  0.2895  1.0466
  130TCq2    H4 1994   3.114   0.634   1.915 -1.8655 -1.4321 -0.2091
  131MPD2     C 1995   2.142   3.622   9.720 -0.2198 -0.0830 -0.2964
  131MPD2    C1 1996   2.278   3.637   9.695 -0.2341  0.7887  0.5111
  131MPD2    C2 1997   2.347   3.519   9.682 -1.1310  1.2175  0.4368
  131MPD2    C3 1998   2.290   3.399   9.699 -0.1578 -0.0570  0.2097
  131MPD2    C4 1999   2.162   3.387   9.741 -0.7945  0.6460  0.6627
  131MPD2    C5 2000   2.083   3.502   9.734 -0.0279  0.8270  0.9254
  131MPD2     H 2001   2.452   3.522   9.656 -0.7174  0.2491  2.0247
  131MPD2    H1 2002   2.107   3.294   9.745  0.7343 -0.2504  0.9180
  131MPD2    H2 2003   2.076   3.705   9.744 -0.6739 -0.5916  0.2353
  131MPD2    H3 2004   1.975   3.498   9.731  0.1693 -1.9400 -2.0860
  131MPD2     N 2005   2.370   3.290   9.665  0.2561  1.1274  0.5249
  131MPD2    H5 2006   2.463   3.315   9.633  0.1431  2.0897  0.9631
  131MPD2    N1 2007   2.332   3.768   9.690  0.1917 -0.0177 -0.2201
  131MPD2    H7 2008   2.274   3.845   9.721  1.0235 -0.1817  1.7371
  132TCq2    C1 2009   2.492   4.206   9.885  0.8911  0.1990 -0.0226
  132TCq2    O2 2010   2.419   4.156   9.969 -0.4680  0.1455  0.0155
  132TCq2    C2 2011   2.525   4.126   9.765 -0.1736 -0.4184  0.1560
  132TCq2    C3 2012   2.648   4.146   9.718 -0.4839  0.5675  0.5111
  132TCq2    C4 2013   2.698   4.042   9.641  1.2657  0.0393 -0.0383
  132TCq2    C5 2014   2.626   3.935   9.600 -0.0349 -0.3868  0.9723
  132TCq2    C6 2015   2.507   3.918   9.659  1.3491 -0.7740  0.8901
  132TCq2    C7 2016   2.456   4.009   9.743  0.0684  0.2813 -0.3623
  132TCq2    C8 2017   2.460   3.784   9.649 -0.2866 -0.5864  0.7487
  132TCq2    O4 2018   2.537   3.713   9.587 -0.2669 -0.1951 -0.2145
  132TCq2    C9 2019   2.834   4.048   9.587  0.6528 -0.0873  0.4737
  132TCq2    O5 2020   2.921   4.098   9.663 -0.0535 -0.4163  0.7529
  132TCq2    O6 2021   2.854   3.990   9.478 -0.1349  0.2520  0.2335
  132TCq2    H2 2022   2.706   4.237   9.729  1.3982 -0.6063  0.3047
  132TCq2    H3 2023   2.676   3.872   9.527 -2.3389 -1.3375  0.2051
  132TCq2    H4 2024   2.361   3.998   9.795 -0.2663 -1.2669 -1.3191
  133MPD2     C 2025   1.760   3.151   9.631  1.0401 -0.1056 -0.3411
  133MPD2    C1 2026   1.864   3.195   9.547 -0.0094  0.0194 -0.5573
  133MPD2    C2 2027   1.864   3.328   9.519 -0.6460  0.2154 -0.4360
  133MPD2    C3 2028   1.770   3.425   9.569  0.6833 -0.3563  0.1097
  133MPD2    C4 2029   1.669   3.375   9.648 -0.5224 -0.3841  0.1559
  133MPD2    C5 2030   1.660   3.239   9.670  0.1158  0.1811  0.3253
  133MPD2     H 2031   1.946   3.367   9.460  0.5439 -0.8940  0.4939
  133MPD2    H1 2032   1.588   3.435   9.688 -0.9689 -0.0815 -1.1699
  133MPD2    H2 2033   1.755   3.049   9.669  0.9976 -0.3924 -1.1164
  133MPD2    H3 2034   1.575   3.203   9.727 -0.0239 -0.2371 -0.1472
  133MPD2     N 2035   1.766   3.564   9.535 -0.0981  0.1639  0.0355
  133MPD2    H5 2036   1.688   3.615   9.574  0.6936 -0.6362  2.6825
  133MPD2    N1 2037   1.968   3.108   9.521  0.2525 -0.0332  0.2293
  133MPD2    H7 2038   1.948   3.010   9.535  0.7594 -0.7858 -4.6994
  134TCq2    C1 2039   2.086   3.143   9.456 -0.1462  0.0948  0.2688
  134TCq2    O2 2040   2.128   3.251   9.420 -0.2371 -0.4874  0.8092
  134TCq2    C2 2041   2.177   3.030   9.424  0.4358 -0.8303  0.3764
  134TCq2    C3 2042   2.134   2.903   9.416  0.2044  0.6021 -0.9135
  134TCq2    C4 2043   2.220   2.807   9.371  0.8453 -0.2241 -0.6117
  134TCq2    C5 2044   2.352   2.838   9.346 -0.1644 -0.3915  0.5018
  134TCq2    C6 2045   2.392   2.968   9.360  0.1613  0.4169 -0.2636
  134TCq2    C7 2046   2.306   3.066   9.397  0.6371 -0.1397 -0.0450
  134TCq2    C8 2047   2.524   3.004   9.327 -0.0414 -0.0449  0.5854
  134TCq2    O4 2048   2.545   3.127   9.325  0.4034  0.4332  0.1380
  134TCq2    C9 2049   2.183   2.666   9.368 -0.5853 -0.4721 -0.3518
  134TCq2    O5 2050   2.268   2.579   9.340 -0.1698 -0.0393  0.4126
  134TCq2    O6 2051   2.064   2.635   9.392  0.5168 -0.1384  0.3414
  134TCq2    H2 2052   2.030   2.880   9.435  0.1977  1.6461  0.2652
  134TCq2    H3 2053   2.414   2.761   9.302 -1.3650 -2.4220  2.3633
  134TCq2    H4 2054   2.337   3.164   9.432 -0.3552  0.5950 -1.2390
  135MPD2     C 2055   4.114   1.233   9.811  0.0841  0.2611 -0.6860
  135MPD2    C1 2056   4.029   1.127   9.816  0.2807  0.0177 -0.3992
  135MPD2    C2 2057   4.003   1.062   9.697 -0.1434  0.2136  0.1988
  135MPD2    C3 2058   4.061   1.103   9.577  0.2888 -0.5752 -0.3224
  135MPD2    C4 2059   4.152   1.204   9.576 -0.1315 -0.1757  0.1625
  135MPD2    C5 2060   4.176   1.269   9.694  0.2610  0.6908 -0.1836
  135MPD2     H 2061   3.931   0.981   9.692 -0.6618  0.7505 -0.9800
  135MPD2    H1 2062   4.191   1.240   9.481  0.2563  0.1946  0.4566
  135MPD2    H2 2063   4.144   1.288   9.899 -1.9492 -1.2700  0.9666
  135MPD2    H3 2064   4.234   1.361   9.697  0.0072  0.8486 -0.0904
  135MPD2     N 2065   4.035   1.012   9.471  0.3640 -0.5739 -0.1701
  135MPD2    H5 2066   3.968   0.937   9.481 -0.3716 -0.0213 -0.9206
  135MPD2    N1 2067   3.967   1.085   9.935 -0.0706  0.2251 -0.0116
  135MPD2    H7 2068   3.903   1.007   9.919 -1.3155  0.8274  2.0540
  136TCq2    C1 2069   3.990   1.130  10.060 -0.0852  0.5509 -0.0042
  136TCq2    O2 2070   4.063   1.228  10.086 -0.2411  0.1668 -0.1823
  136TCq2    C2 2071   3.952   1.032  10.161  0.9667  0.1343  0.4979
  136TCq2    C3 2072   3.955   1.071  10.294  0.1180  0.0791 -0.3692
  136TCq2    C4 2073   3.956   0.975  10.396 -0.2490 -0.7892  0.5931
  136TCq2    C5 2074   3.939   0.841  10.356  0.1498  0.3403  0.1471
  136TCq2    C6 2075   3.927   0.798  10.223 -0.1504  0.5557  0.3416
  136TCq2    C7 2076   3.926   0.898  10.121  0.3792 -1.3040  0.5830
  136TCq2    C8 2077   3.925   0.655  10.187  0.3748  0.1870  0.1945
  136TCq2    O4 2078   3.945   0.642  10.067 -0.4511 -0.3140 -0.3118
  136TCq2    C9 2079   3.950   1.013  10.533 -0.1755 -0.1276 -0.1644
  136TCq2    O5 2080   3.939   0.915  10.609 -0.4554 -0.6765  0.1637
  136TCq2    O6 2081   3.969   1.128  10.568 -0.2043 -0.0976  0.4171
  136TCq2    H2 2082   3.971   1.174  10.325 -0.0973 -0.4170  1.3883
  136TCq2    H3 2083   3.950   0.771  10.438 -0.4903  0.2728  0.1713
  136TCq2    H4 2084   3.912   0.868  10.017 -4.3977  0.9341  0.5890
  137MPD2     C 2085   4.012   4.185   9.571 -0.4616 -1.1533  0.3231
  137MPD2    C1 2086   4.022   4.282   9.674  0.5033  0.3278 -0.2535
  137MPD2    C2 2087   4.036   4.245   9.809  0.3820 -0.1371  0.9386
  137MPD2    C3 2088   4.047   4.110   9.837  0.0766  0.3135  0.1268
  137MPD2    C4 2089   4.065   4.027   9.731  0.2473 -0.1928 -0.3088
  137MPD2    C5 2090   4.040   4.057   9.599 -0.3752  0.3197 -0.0385
  137MPD2     H 2091   4.028   4.316   9.890  2.8901  1.5426 -0.2959
  137MPD2    H1 2092   4.085   3.922   9.748 -1.0491 -0.7266 -2.1598
  137MPD2    H2 2093   4.005   4.208   9.466  1.3950  0.9328  0.6699
  137MPD2    H3 2094   4.061   3.984   9.522  2.6188  0.3345  0.7568
  137MPD2     N 2095   4.060   4.071   9.971  0.2550 -0.0776 -0.1414
  137MPD2    H5 2096   4.074   4.148  10.037 -0.3784 -0.0415 -0.0503
  137MPD2    N1 2097   3.991   4.416   9.637 -0.0360  0.0948  0.2287
  137MPD2    H7 2098   3.963   4.435   9.541 -0.9748  1.0245  0.6897
  138TCq2    C1 2099   3.998   4.531   9.710 -0.3567  0.5601 -0.4040
  138TCq2    O2 2100   4.034   4.555   9.821  0.5266  0.4986 -0.2467
  138TCq2    C2 2101   3.925   4.643   9.654 -0.0157  0.2767 -0.4147
  138TCq2    C3 2102   3.848   4.622   9.545  0.1472  0.7762 -0.2340
  138TCq2    C4 2103   3.778   4.723   9.491  0.0922  0.0554 -1.0059
  138TCq2    C5 2104   3.795   0.125   9.548 -0.3398 -0.0585  0.3036
  138TCq2    C6 2105   3.880   0.144   9.651  1.2645  0.1144  0.5281
  138TCq2    C7 2106   3.949   0.037   9.710 -0.4072 -0.0495  0.3737
  138TCq2    C8 2107   3.847   0.255   9.744  0.4106  0.3522 -0.2546
  138TCq2    O4 2108   3.930   0.297   9.818 -0.2493 -0.0640 -0.2601
  138TCq2    C9 2109   3.668   4.708   9.401  0.1054 -0.3962 -0.1806
  138TCq2    O5 2110   3.636   4.588   9.382  0.7329 -0.0458  0.2771
  138TCq2    O6 2111   3.614   0.090   9.358  0.0998  0.4668  0.3720
  138TCq2    H2 2112   3.821   4.520   9.521 -0.1837  0.7321  0.3166
  138TCq2    H3 2113   3.729   0.203   9.512 -0.2903 -0.5111 -0.7698
  138TCq2    H4 2114   4.010   0.051   9.798  0.5530 -2.1032  0.0237
  139TMC2    C1 2115   4.722   3.564  12.722  0.0337  0.2162  0.5900
  139TMC2    C2 2116   4.632   3.540  12.620 -0.2394 -0.2467 -0.2337
  139TMC2    C3 2117   4.546   3.640  12.587  0.3195 -0.4683  0.3454
  139TMC2    C4 2118   4.720   3.684  12.791 -0.3139 -0.5782 -0.2001
  139TMC2    C5 2119   4.623   3.778  12.758  0.3006  0.3993 -0.0420
  139TMC2    C6 2120   4.536   3.762  12.653 -0.8398 -0.8008 -0.2897
  139TMC2     C 2121   0.072   3.452  12.774  0.0350  0.1520 -0.2240
  139TMC2     O 2122   0.042   3.339  12.743  0.1308 -0.7044 -0.7110
  139TMC2     H 2123   4.638   3.456  12.552  1.8812  1.8523 -2.6621
  139TMC2    H1 2124   0.035   3.696  12.890  2.4197  1.9316 -1.6394
  139TMC2    H2 2125   4.451   3.830  12.651  0.9955  1.4797 -2.0386
  139TMC2    C7 2126   4.598   3.890  12.852  0.4800  0.5797  0.0577
  139TMC2    C8 2127   4.431   3.581  12.514  0.1118  0.1358  0.7789
  139TMC2    O1 2128   4.482   3.931  12.861 -0.0136 -0.3458 -0.2779
  139TMC2    O2 2129   4.409   3.460  12.513  0.1172  0.2687  0.6244
  139TMC2    O5 2130   4.344   3.675  12.474  0.0054  0.2350  0.5567
  139TMC2    H5 2131   4.371   3.769  12.464  1.5842 -0.3153 -0.4379
  140MPD2     C 2132   0.309   3.447  13.066 -0.8064  0.2668  0.4284
  140MPD2    C1 2133   0.249   3.408  12.941  0.6161 -0.2967 -0.1351
  140MPD2    C2 2134   0.287   3.291  12.883 -0.4878  0.5282 -0.1356
  140MPD2    C3 2135   0.387   3.211  12.944  0.6109 -0.6225  0.5596
  140MPD2    C4 2136   0.444   3.252  13.058 -0.0423 -0.3057 -0.8912
  140MPD2    C5 2137   0.404   3.364  13.114  0.3740 -0.6581  0.4266
  140MPD2     H 2138   0.242   3.250  12.793 -1.0837  2.3976 -0.6882
  140MPD2    H1 2139   0.515   3.189  13.111 -2.0383 -1.4128  0.4604
  140MPD2    H2 2140   0.285   3.540  13.116 -1.0907  0.3268  0.1838
  140MPD2    H3 2141   0.454   3.391  13.207 -0.6001 -2.0330  1.3386
  140MPD2     N 2142   0.433   3.101  12.868 -0.3512 -0.1184  0.9974
  140MPD2    H5 2143   0.383   3.083  12.782 -1.1047  1.5879  1.0922
  140MPD2    N1 2144   0.156   3.492  12.873 -0.1379 -0.5150 -0.0203
  140MPD2    H7 2145   0.138   3.588  12.901 -3.5280 -0.6307 -1.7033
  141TCq2    C1 2146   0.280   4.398  14.391  0.3545 -0.2376 -0.1325
  141TCq2    O2 2147   0.340   4.451  14.298  0.2124 -0.3083 -0.0569
  141TCq2    C2 2148   0.150   4.451  14.429 -1.0374 -0.4099  0.3275
  141TCq2    C3 2149   0.070   4.395  14.518  0.0739  0.0487 -0.6989
  141TCq2    C4 2150   4.725   4.476  14.608 -0.2443  0.3883 -0.1037
  141TCq2    C5 2151   4.724   4.611  14.598  0.2658 -0.6223 -0.0413
  141TCq2    C6 2152   0.070   4.660  14.496 -0.3186 -0.3966  0.5521
  141TCq2    C7 2153   0.141   4.591  14.398  0.7107  0.3554  0.6643
  141TCq2    C8 2154   0.078   0.081  14.494 -0.5785 -0.2419 -0.0209
  141TCq2    O4 2155   0.035   0.149  14.590 -0.4036  0.5211 -0.1745
  141TCq2    C9 2156   4.667   4.411  14.729 -0.5290 -0.8118 -0.1542
  141TCq2    O5 2157   4.602   4.489  14.806 -0.1907 -0.2160 -0.1435
  141TCq2    O6 2158   4.725   4.303  14.761  0.0684  0.3384 -0.0517
  141TCq2    H2 2159   0.074   4.290  14.544  1.7662  0.6793  1.5277
  141TCq2    H3 2160   4.681   4.675  14.674 -0.9846 -1.7720  0.2131
  141TCq2    H4 2161   0.195   4.632  14.313 -0.2011  0.7466  0.2719
  142MPD2     C 2162   2.405   2.188  10.139 -0.5000 -0.1137  0.6544
  142MPD2    C1 2163   2.351   2.125  10.020  0.4857  0.1009 -0.6376
  142MPD2    C2 2164   2.412   2.143   9.901  0.3380  0.2134  0.5369
  142MPD2    C3 2165   2.532   2.212   9.889 -0.0403 -0.9838  0.3807
  142MPD2    C4 2166   2.568   2.285  10.000  0.5294  0.0324 -0.1008
  142MPD2    C5 2167   2.508   2.275  10.119 -0.4570  0.1400  0.1831
  142MPD2     H 2168   2.370   2.088   9.817 -1.9354  1.1198  1.0646
  142MPD2    H1 2169   2.648   2.358  10.003  0.6630 -0.1021 -0.3339
  142MPD2    H2 2170   2.361   2.174  10.237 -2.6129  1.0250 -0.1272
  142MPD2    H3 2171   2.551   2.323  10.205 -1.7025 -0.9362  1.4052
  142MPD2     N 2172   2.606   2.225   9.769 -0.3392  0.0159 -0.2402
  142MPD2    H5 2173   2.685   2.289   9.770 -1.4526  1.3772 -0.0911
  142MPD2    N1 2174   2.232   2.044  10.040  0.6197  0.0277  0.4718
  142MPD2    H7 2175   2.211   2.045  10.140 -1.9328  1.8697 -0.1113
  143TCq2    C1 2176   2.586   2.164   9.651  0.1054  0.4640  0.5884
  143TCq2    O2 2177   2.491   2.093   9.626  0.3141  0.0499 -0.1477
  143TCq2    C2 2178   2.660   2.224   9.543  0.1550  0.1413  0.6272
  143TCq2    C3 2179   2.588   2.221   9.426 -0.2536 -0.1125 -0.0985
  143TCq2    C4 2180   2.644   2.283   9.318 -0.7409 -0.2188  0.6360
  143TCq2    C5 2181   2.771   2.336   9.334  0.3207  0.3255  0.3105
  143TCq2    C6 2182   2.844   2.334   9.452  0.3376  0.2402  0.8480
  143TCq2    C7 2183   2.784   2.279   9.564  0.2324  0.0246 -0.1818
  143TCq2    C8 2184   2.972   2.389   9.463 -0.3261 -0.0523  0.7266
  143TCq2    O4 2185   3.016   2.473   9.380 -0.1682  0.2666  0.5220
  143TCq2    C9 2186   2.582   2.291   9.190  0.5828  0.1274 -0.1001
  143TCq2    O5 2187   2.652   2.343   9.099 -0.2572 -0.4610  0.1086
  143TCq2    O6 2188   2.455   2.278   9.193  0.1446  0.6696  0.3460
  143TCq2    H2 2189   2.483   2.194   9.429 -0.7809  1.7842 -1.1432
  143TCq2    H3 2190   2.828   2.358   9.244 -1.5266  1.7747 -0.5114
  143TCq2    H4 2191   2.828   2.273   9.663  1.7791 -0.8971 -0.9398
  144MPD2     C 2192   1.056   2.409   0.266  0.0535 -0.7328 -0.4866
  144MPD2    C1 2193   0.979   2.328   0.349 -0.6126  0.0113  0.5077
  144MPD2    C2 2194   1.031   2.303   0.481  0.4995 -0.0010 -0.2852
  144MPD2    C3 2195   1.158   2.342   0.514 -0.3672  0.1071  0.2202
  144MPD2    C4 2196   1.237   2.400   0.428 -0.2223  0.5119  0.3662
  144MPD2    C5 2197   1.184   2.443   0.307 -0.2264  0.0940  0.3124
  144MPD2     H 2198   0.963   2.261   0.555 -0.5162  0.9359 -0.6905
  144MPD2    H1 2199   1.338   2.429   0.454  0.0316 -0.1459  0.0977
  144MPD2    H2 2200   1.020   2.442   0.170 -2.6052 -3.0272 -0.2575
  144MPD2    H3 2201   1.242   2.515   0.250 -1.7390 -0.4575 -1.8872
  144MPD2     N 2202   1.216   2.323   0.648 -0.3572 -0.3715  0.0480
  144MPD2    H5 2203   1.311   2.355   0.659 -0.5531  0.5415 -0.9174
  144MPD2    N1 2204   0.845   2.283   0.324 -0.1039  0.1285 -0.6619
  144MPD2    H7 2205   0.806   2.226   0.398  0.0377  0.7192 -0.1357
  145TCq2    C1 2206   1.148   2.320   0.766 -0.0957 -0.5393  0.0128
  145TCq2    O2 2207   1.030   2.311   0.795  0.0081 -0.7122 -0.1858
  145TCq2    C2 2208   1.239   2.306   0.882 -0.9311  0.0077 -0.6927
  145TCq2    C3 2209   1.369   2.266   0.876 -0.1665  0.3633  0.6529
  145TCq2    C4 2210   1.444   2.252   0.992  0.3400  0.4825 -1.1672
  145TCq2    C5 2211   1.384   2.277   1.113 -0.5330  0.0588  0.7588
  145TCq2    C6 2212   1.260   2.326   1.115 -0.0061 -0.1808 -0.8190
  145TCq2    C7 2213   1.184   2.339   1.004  0.2812  0.3736  0.1489
  145TCq2    C8 2214   1.209   2.400   1.228  1.1566  0.2935  0.1795
  145TCq2    O4 2215   1.243   2.363   1.339  0.6619 -0.0620  0.2921
  145TCq2    C9 2216   1.581   2.208   0.998  0.2335  0.8533 -0.0145
  145TCq2    O5 2217   1.631   2.162   0.893 -0.5804 -0.1195 -0.6093
  145TCq2    O6 2218   1.628   2.166   1.110  0.0384 -0.7008  0.0277
  145TCq2    H2 2219   1.420   2.225   0.790  0.0665  0.0836  0.9255
  145TCq2    H3 2220   1.430   2.248   1.206 -1.3969  0.0211  1.1735
  145TCq2    H4 2221   1.081   2.372   1.007 -0.8040 -3.1358  1.4281
  146TMC2    C1 2222   1.812   1.133  12.982  0.9124  0.6733 -0.4659
  146TMC2    C2 2223   1.703   1.201  12.948  0.6021  0.0237  0.1497
  146TMC2    C3 2224   1.695   1.271  12.827  0.4908 -0.1858 -0.4109
  146TMC2    C4 2225   1.913   1.118  12.886  0.6189 -0.5756 -0.2602
  146TMC2    C5 2226   1.902   1.195  12.773  0.8215 -0.2980  0.2637
  146TMC2    C6 2227   1.795   1.274  12.738 -0.4533  0.2854  0.7739
  146TMC2     C 2228   1.838   1.121  13.127  0.4680 -0.7853  0.1145
  146TMC2     O 2229   1.774   1.195  13.201 -0.0380 -0.1254  0.7011
  146TMC2     H 2230   1.625   1.205  13.024 -0.5109  0.8958 -1.0441
  146TMC2    H1 2231   2.011   1.085  12.920  0.6795 -0.0859  0.0367
  146TMC2    H2 2232   1.801   1.333  12.647 -0.4906  1.2829  1.4240
  146TMC2    C7 2233   1.991   1.166  12.666 -0.5791  0.2585  0.4415
  146TMC2    C8 2234   1.621   1.395  12.855 -0.2087 -0.2759 -0.1613
  146TMC2    O1 2235   1.973   1.224  12.558 -0.7996 -0.1441  0.2164
  146TMC2    O2 2236   1.575   1.423  12.966  0.0180  0.0003 -0.3058
  146TMC2    O5 2237   1.573   1.435  12.740  0.2912  0.3792 -0.4348
  146TMC2    H5 2238   1.612   1.395  12.660 -2.0053 -1.9251 -0.4071
  147MPD2     C 2239   2.332   0.850  12.451  0.2893 -0.6079  0.3467
  147MPD2    C1 2240   2.364   0.869  12.584 -0.0925  0.2378  0.2978
  147MPD2    C2 2241   2.284   0.944  12.662  0.3703 -0.0496  0.0444
  147MPD2    C3 2242   2.171   1.009  12.614 -0.1576  0.0233 -0.7497
  147MPD2    C4 2243   2.140   0.988  12.479  0.1293 -0.1328 -0.2468
  147MPD2    C5 2244   2.219   0.913  12.395 -0.0650  0.5875 -0.3047
  147MPD2     H 2245   2.306   0.953  12.768  0.0982  2.5981 -0.1069
  147MPD2    H1 2246   2.057   1.042  12.436 -0.5377  1.1630  2.6406
  147MPD2    H2 2247   2.396   0.803  12.377 -0.6824 -2.1385  0.4931
  147MPD2    H3 2248   2.193   0.896  12.292  1.1522  1.2184 -0.7117
  147MPD2     N 2249   2.089   1.080  12.703  0.4105  0.5006 -0.2581
  147MPD2    H5 2250   2.098   1.061  12.802 -1.8507 -0.4950 -0.2525
  147MPD2    N1 2251   2.465   0.783  12.630 -0.0556 -0.0389  0.0938
  147MPD2    H7 2252   2.514   0.734  12.555  1.2581  1.4360 -0.0183
  148MPD2     C 2253   2.834   2.770  10.000  0.2153 -0.3480  0.2670
  148MPD2    C1 2254   2.865   2.908   9.998  0.5543  0.9196  0.1888
  148MPD2    C2 2255   2.793   2.999  10.073 -0.4143  0.4618  0.1456
  148MPD2    C3 2256   2.684   2.961  10.148 -0.3049 -0.0456  0.2511
  148MPD2    C4 2257   2.647   2.830  10.151 -0.3135  1.1826  0.1456
  148MPD2    C5 2258   2.719   2.730  10.080 -0.1993  0.2691 -0.4865
  148MPD2     H 2259   2.830   3.101  10.071  1.4363 -0.2406 -2.5044
  148MPD2    H1 2260   2.573   2.791  10.220  0.1748  2.3950  1.3659
  148MPD2    H2 2261   2.896   2.700   9.945 -2.2059 -1.4382 -1.0952
  148MPD2    H3 2262   2.721   2.622  10.088  0.0287  0.3656  0.6757
  148MPD2     N 2263   2.609   3.056  10.222 -0.4832 -1.3383 -0.4889
  148MPD2    H5 2264   2.532   3.010  10.269 -0.3128 -0.6297  0.4710
  148MPD2    N1 2265   2.994   2.959   9.956 -0.1339 -0.0132  0.4203
  148MPD2    H7 2266   3.023   3.055   9.974 -0.5462  0.2702 -0.4413
  149TCq2    C1 2267   3.092   2.877   9.897  0.5428 -0.7398 -0.1878
  149TCq2    O2 2268   3.099   2.755   9.872 -0.3528  0.2035 -0.5973
  149TCq2    C2 2269   3.196   2.973   9.851  0.2064 -0.4577 -0.2791
  149TCq2    C3 2270   3.333   2.932   9.829  0.3683 -0.8010 -0.2412
  149TCq2    C4 2271   3.422   3.031   9.795 -0.9716 -0.4331 -0.7285
  149TCq2    C5 2272   3.385   3.156   9.769  0.4958 -0.4615 -0.0007
  149TCq2    C6 2273   3.254   3.192   9.781  0.4308  0.0083 -0.2467
  149TCq2    C7 2274   3.154   3.104   9.817  0.8661 -0.7182 -0.3868
  149TCq2    C8 2275   3.226   3.331   9.740  0.5753 -0.0403 -0.2933
  149TCq2    O4 2276   3.318   3.395   9.681  0.1324  0.4972  0.0158
  149TCq2    C9 2277   3.553   3.011   9.819 -0.7505  0.2469  0.2902
  149TCq2    O5 2278   3.596   2.899   9.854  0.2871 -0.6450  0.0360
  149TCq2    O6 2279   3.614   3.114   9.857  0.1731  0.2012 -0.5472
  149TCq2    H2 2280   3.371   2.833   9.852 -0.3917 -0.9415  0.3945
  149TCq2    H3 2281   3.459   3.230   9.738  0.0757 -0.1197 -0.1865
  149TCq2    H4 2282   3.049   3.130   9.808  0.5246 -2.8547 -2.5275
  150MPD2     C 2283   3.640   3.839  11.320  0.1417  0.0889 -0.1574
  150MPD2    C1 2284   3.655   3.706  11.316  0.3489 -0.5135  0.0448
  150MPD2    C2 2285   3.768   3.649  11.371 -0.2335  0.2949  0.0159
  150MPD2    C3 2286   3.868   3.723  11.425 -0.6552 -0.3480 -0.0253
  150MPD2    C4 2287   3.850   3.856  11.444  0.0915  0.0963  0.5205
  150MPD2    C5 2288   3.739   3.917  11.386 -0.2569  0.0789 -0.5234
  150MPD2     H 2289   3.777   3.542  11.364  0.2721  0.2749  1.0284
  150MPD2    H1 2290   3.921   3.926  11.486  0.1518  0.7530 -0.6602
  150MPD2    H2 2291   3.558   3.884  11.265  2.1579  0.5411 -2.7577
  150MPD2    H3 2292   3.707   4.020  11.394  1.0139  0.4898 -0.7930
  150MPD2     N 2293   3.981   3.657  11.467 -0.0677 -0.4882  0.1549
  150MPD2    H5 2294   3.971   3.557  11.451  5.0360 -0.7971 -1.2162
  150MPD2    N1 2295   3.562   3.629  11.257 -0.1675 -0.3644 -0.1538
  150MPD2    H7 2296   3.472   3.670  11.231 -0.1255  0.0099  0.2799
  151TCq2    C1 2297   4.097   3.725  11.510 -0.0139 -0.0798  0.5186
  151TCq2    O2 2298   4.123   3.846  11.511 -0.0862  0.3886  0.0682
  151TCq2    C2 2299   4.211   3.639  11.522 -0.0108  0.3351  0.4885
  151TCq2    C3 2300   4.203   3.518  11.457 -0.3529  0.9882 -0.2851
  151TCq2    C4 2301   4.289   3.417  11.492 -0.3351 -0.0115 -0.0736
  151TCq2    C5 2302   4.390   3.443  11.583  0.1090  0.1834  0.2932
  151TCq2    C6 2303   4.398   3.568  11.640  0.2301  0.2136 -1.3042
  151TCq2    C7 2304   4.308   3.668  11.611  0.4648 -0.3634 -0.5365
  151TCq2    C8 2305   4.493   3.599  11.743  1.0441  0.1062  0.4020
  151TCq2    O4 2306   4.463   3.688  11.824  0.0040  0.2094 -0.2357
  151TCq2    C9 2307   4.274   3.285  11.426  0.6611 -0.5477  0.2740
  151TCq2    O5 2308   4.365   3.198  11.446  0.2871 -0.2487  0.0638
  151TCq2    O6 2309   4.172   3.272  11.356 -0.2748 -0.2601  0.2019
  151TCq2    H2 2310   4.127   3.493  11.384 -0.0860 -2.1966  0.5288
  151TCq2    H3 2311   4.455   3.361  11.609  1.7419  1.4870  0.3545
  151TCq2    H4 2312   4.304   3.761  11.666 -2.0174 -1.0582  0.4667
  152MPD2     C 2313   4.102   3.789  11.871  0.3479 -0.5616  1.1380
  152MPD2    C1 2314   4.099   3.655  11.901  0.4577 -0.2480  1.2122
  152MPD2    C2 2315   3.972   3.600  11.882  0.7788  0.2209 -0.9006
  152MPD2    C3 2316   3.859   3.663  11.825  0.5527 -0.8372 -0.5652
  152MPD2    C4 2317   3.873   3.796  11.797 -0.2519 -0.0384  0.2752
  152MPD2    C5 2318   3.996   3.854  11.827  0.0382 -0.5915  0.8043
  152MPD2     H 2319   3.959   3.498  11.916  2.8775  1.0229  2.2951
  152MPD2    H1 2320   3.789   3.850  11.754  0.2467 -1.5484 -2.6380
  152MPD2    H2 2321   4.196   3.840  11.891  0.1094  0.7021 -1.0266
  152MPD2    H3 2322   4.013   3.960  11.813 -2.2927 -0.4580 -0.9610
  152MPD2     N 2323   3.732   3.601  11.799  0.8520 -0.3101  0.4475
  152MPD2    H5 2324   3.663   3.662  11.757  1.1773  0.0955  0.4980
  152MPD2    N1 2325   4.216   3.583  11.940  0.5801  0.2012  0.0426
  152MPD2    H7 2326   4.301   3.635  11.959  2.4818 -2.2369 -1.7719
  153TCq2    C1 2327   4.226   3.449  11.944 -0.3385  0.2808  0.2150
  153TCq2    O2 2328   4.150   3.367  11.891  0.1776  0.4446 -0.3903
  153TCq2    C2 2329   4.339   3.412  12.025 -0.4196 -0.2001  0.3070
  153TCq2    C3 2330   4.410   3.323  11.948  0.2199  0.1687  0.5695
  153TCq2    C4 2331   4.546   3.318  11.978 -0.2950  0.0403 -0.2941
  153TCq2    C5 2332   4.607   3.391  12.076 -0.2096  0.0609  0.7034
  153TCq2    C6 2333   4.528   3.482  12.145 -0.2023  0.2552  0.6789
  153TCq2    C7 2334   4.400   3.500  12.114 -0.2051  0.0558  1.0666
  153TCq2    C8 2335   4.588   3.601  12.217  0.4702  0.1487 -0.1330
  153TCq2    O4 2336   4.527   3.704  12.216  0.3152  0.3448 -0.4639
  153TCq2    C9 2337   4.626   3.232  11.894 -0.4113 -0.1495  0.3870
  153TCq2    O5 2338   0.006   3.189  11.949 -0.7626  0.0571  0.7580
  153TCq2    O6 2339   4.583   3.198  11.782  0.0527  0.3425 -0.4072
  153TCq2    H2 2340   4.357   3.268  11.871  0.8644  0.2423  0.0809
  153TCq2    H3 2341   4.715   3.381  12.084 -0.4437 -1.5217  1.9330
  153TCq2    H4 2342   4.344   3.581  12.158  0.4084  0.8316  0.4065
  154MPD2     C 2343   0.908   2.974  17.469  0.0464  0.0685  0.1709
  154MPD2    C1 2344   0.926   3.061  17.576  0.4913 -0.2743  0.0522
  154MPD2    C2 2345   0.829   3.045  17.676 -1.0725  0.2897 -0.1301
  154MPD2    C3 2346   0.706   2.979  17.650 -0.1729  0.5690  0.2605
  154MPD2    C4 2347   0.702   2.889  17.548  0.0832  0.4481 -0.3156
  154MPD2    C5 2348   0.810   2.884  17.465  0.5389  0.3584  0.0113
  154MPD2     H 2349   0.835   3.112   0.055 -0.5038 -0.8223  0.7122
  154MPD2    H1 2350   0.618   2.822  17.533  1.4419 -1.2802 -0.2005
  154MPD2    H2 2351   0.985   2.959  17.394 -1.5137 -0.2738 -1.3685
  154MPD2    H3 2352   0.806   2.814  17.382  0.9910  0.1266  0.1886
  154MPD2     N 2353   0.591   2.994   0.030 -0.3423  0.1801  0.3909
  154MPD2    H5 2354   0.616   3.056   0.107 -0.5403  1.5493 -0.6413
  154MPD2    N1 2355   1.036   3.147  17.580 -0.2886 -0.5299  0.3309
  154MPD2    H7 2356   1.102   3.135  17.505 -0.1505 -0.7509  0.4864
  155TCq2    C1 2357   1.056   3.238  17.675 -0.2858 -0.2005 -0.4603
  155TCq2    O2 2358   0.966   3.297   0.025 -0.9911 -0.3553  0.7994
  155TCq2    C2 2359   1.188   3.297  17.659 -0.0317 -0.3873  0.2791
  155TCq2    C3 2360   1.199   3.432  17.670  0.7312 -0.5896  0.6214
  155TCq2    C4 2361   1.325   3.489  17.674 -0.5028  0.4156  0.3707
  155TCq2    C5 2362   1.437   3.414  17.656 -0.0273  0.4251 -0.2719
  155TCq2    C6 2363   1.420   3.280  17.630 -0.5568 -0.1066  0.4941
  155TCq2    C7 2364   1.292   3.214  17.633 -0.1129 -0.1642  0.0171
  155TCq2    C8 2365   1.533   3.198  17.592 -0.2407  0.5701 -0.4331
  155TCq2    O4 2366   1.517   3.077  17.596 -0.4793 -0.1307  0.3781
  155TCq2    C9 2367   1.345   3.622   0.007 -0.6407 -0.4444  0.1813
  155TCq2    O5 2368   1.251   3.684   0.064  0.6360 -0.1249 -0.6860
  155TCq2    O6 2369   1.462   3.659  17.703  0.1849  0.3790 -0.1283
  155TCq2    H2 2370   1.112   3.498  17.670 -0.8900 -2.6830 -3.3574
  155TCq2    H3 2371   1.536   3.455  17.673  0.3577 -0.1918 -1.0111
  155TCq2    H4 2372   1.280   3.107  17.624 -0.8095 -0.0659 -0.1600
  156MPD2     C 2373   0.251   1.072  12.466  0.0874  0.2240  0.1910
  156MPD2    C1 2374   0.119   1.086  12.431  0.5919 -0.1443  0.3916
  156MPD2    C2 2375   0.038   1.151  12.517 -0.7086 -0.9729  0.3509
  156MPD2    C3 2376   0.067   1.190  12.641  0.0729  0.0280 -0.4400
  156MPD2    C4 2377   0.194   1.170  12.681 -0.1375 -0.2537 -0.1663
  156MPD2    C5 2378   0.280   1.107  12.597 -1.0178  0.7221  0.2771
  156MPD2     H 2379   4.663   1.166  12.483  0.4220  3.3815 -1.1376
  156MPD2    H1 2380   0.225   1.189  12.783 -0.2756 -0.4037 -0.0968
  156MPD2    H2 2381   0.321   1.021  12.400 -0.2208  2.0158 -1.4998
  156MPD2    H3 2382   0.378   1.070  12.627  0.0174  1.4122 -2.2404
  156MPD2     N 2383   4.696   1.242  12.733 -0.2647  0.5274  0.0808
  156MPD2    H5 2384   4.603   1.245  12.693  0.2819 -0.6528 -1.2733
  156MPD2    N1 2385   0.076   1.024  12.311  0.0104  0.6964  0.1378
  156MPD2    H7 2386   0.151   0.990  12.252 -0.7762  1.5259 -1.3584
  157TCq2    C1 2387   4.670   0.991  12.277 -0.0533 -0.1750  0.4264
  157TCq2    O2 2388   4.573   0.997  12.350  0.2123 -0.1736  0.0865
  157TCq2    C2 2389   4.651   0.924  12.157  0.3170 -0.2196 -0.4757
  157TCq2    C3 2390   0.029   0.924  12.065 -0.1974 -0.1031 -0.1636
  157TCq2    C4 2391   4.715   0.904  11.937  0.1433  0.2384  0.7353
  157TCq2    C5 2392   4.587   0.867  11.897  0.1373 -0.4111 -0.1360
  157TCq2    C6 2393   4.489   0.874  11.987  0.3005 -0.8751 -0.0762
  157TCq2    C7 2394   4.517   0.905  12.120  0.0053 -0.1538  0.4913
  157TCq2    C8 2395   4.358   0.922  11.936  0.2413  0.6897 -0.3381
  157TCq2    O4 2396   4.352   0.982  11.831 -0.1417 -0.0866  0.3661
  157TCq2    C9 2397   0.092   0.892  11.842  0.0012 -0.0628 -0.8644
  157TCq2    O5 2398   0.208   0.935  11.874 -0.3560 -0.0559  0.0338
  157TCq2    O6 2399   0.059   0.869  11.719  0.3976 -0.5542  0.9892
  157TCq2    H2 2400   0.135   0.918  12.090  0.0923 -0.3431 -1.4323
  157TCq2    H3 2401   4.563   0.820  11.802 -0.6629 -0.9673  0.3342
  157TCq2    H4 2402   4.439   0.927  12.192  2.4831  0.1985  3.0639
  158TMC2    C1 2403   0.481   4.507  14.029 -0.0437  0.2651  0.8624
  158TMC2    C2 2404   0.577   4.606  14.056 -0.8880  0.0099 -0.1317
  158TMC2    C3 2405   0.527   0.011  14.075  0.0405 -0.0522 -0.1896
  158TMC2    C4 2406   0.349   4.539  14.001 -0.0895  0.0451  0.2174
  158TMC2    C5 2407   0.313   4.669  14.005  0.7032 -0.1684  0.0005
  158TMC2    C6 2408   0.401   0.043  14.041 -0.1671 -0.2719  0.1625
  158TMC2     C 2409   0.522   4.371  14.036 -0.2629  0.0576  0.9495
  158TMC2     O 2410   0.636   4.360  14.066  0.5692 -0.8392  0.4739
  158TMC2     H 2411   0.680   4.579  14.076 -0.8061  0.5454  0.1799
  158TMC2    H1 2412   0.291   4.465  13.946  0.0757  0.6765 -0.8208
  158TMC2    H2 2413   0.364   0.144  14.052 -0.8735 -0.4796 -0.3050
  158TMC2    C7 2414   0.178   4.701  13.996 -0.5097  0.5696  0.3859
  158TMC2    C8 2415   0.608   0.124  14.125 -0.6902  0.1982  0.1359
  158TMC2    O1 2416   0.142   0.050  14.084  0.0496 -0.0075  0.5627
  158TMC2    O2 2417   0.572   0.238  14.143 -0.0787  0.6353  0.4297
  158TMC2    O5 2418   0.736   0.086  14.162  0.0191 -0.0260  0.2657
  158TMC2    H5 2419   0.777   0.008  14.119 -2.5594 -1.5919  0.6252
  159MPD2     C 2420   0.458   3.868  14.048 -0.1153 -0.5760 -0.6542
  159MPD2    C1 2421   0.333   3.916  14.016 -0.4476 -0.1203 -0.0639
  159MPD2    C2 2422   0.325   4.054  14.009 -0.0141  1.2894 -0.2274
  159MPD2    C3 2423   0.426   4.137  14.038  0.6140  0.4597 -0.3687
  159MPD2    C4 2424   0.543   4.079  14.087  0.1145 -0.4117  0.3021
  159MPD2    C5 2425   0.559   3.945  14.089 -0.4244  0.3206  0.3642
  159MPD2     H 2426   0.235   4.102  13.974 -0.9270  0.3539  0.8339
  159MPD2    H1 2427   0.620   4.141  14.132 -1.6559  0.3849  2.2228
  159MPD2    H2 2428   0.482   3.762  14.049 -0.6519 -0.6886  0.5173
  159MPD2    H3 2429   0.652   3.897  14.117  1.0933  2.0848 -1.6748
  159MPD2     N 2430   0.418   4.278  14.025 -0.5484 -0.1825  0.3223
  159MPD2    H5 2431   0.331   4.315  13.991  0.8730 -0.9927 -4.2464
  159MPD2    N1 2432   0.210   3.835  13.999  0.0543 -0.5707 -0.4909
  159MPD2    H7 2433   0.214   3.735  14.015  0.6889 -0.6674 -1.2870
  160TMC2    C1 2434   3.403   2.858   1.358 -0.3248 -0.5231 -0.3398
  160TMC2    C2 2435   3.310   2.802   1.273  0.8983 -0.1868 -0.4435
  160TMC2    C3 2436   3.302   2.667   1.263 -0.4328  0.3366 -0.2934
  160TMC2    C4 2437   3.499   2.767   1.409 -0.2909 -1.2401 -0.8218
  160TMC2    C5 2438   3.493   2.635   1.397  0.4821  0.0234  0.6435
  160TMC2    C6 2439   3.395   2.584   1.322  0.0086  0.2298 -0.0511
  160TMC2     C 2440   3.484   2.972   1.313 -0.2175  0.2473  0.0741
  160TMC2     O 2441   3.607   2.960   1.320  0.1276  0.2892  0.4007
  160TMC2     H 2442   3.228   2.851   1.221 -0.3349  0.2789  1.8887
  160TMC2    H1 2443   3.566   2.797   1.489 -3.1542 -2.1683  1.9192
  160TMC2    H2 2444   3.382   2.476   1.320 -1.7631  0.4918 -2.1479
  160TMC2    C7 2445   3.620   2.570   1.371  0.2576  0.0597  0.1214
  160TMC2    C8 2446   3.186   2.597   1.213  0.3095 -0.2356 -0.4164
  160TMC2    O1 2447   3.608   2.453   1.356 -0.0052  0.4098 -0.3798
  160TMC2    O2 2448   3.198   2.485   1.170  0.0343  0.0510 -0.0082
  160TMC2    O5 2449   3.097   2.691   1.166  0.1040 -0.1778  0.7605
  160TMC2    H5 2450   3.010   2.652   1.143  0.9246 -1.4572 -0.1341
  161MPD2     C 2451   3.589   3.209   1.148 -0.1135 -0.4249 -0.8937
  161MPD2    C1 2452   3.459   3.170   1.157 -0.6592  0.2022 -0.2302
  161MPD2    C2 2453   3.359   3.255   1.104  0.9033 -0.4793 -0.0142
  161MPD2    C3 2454   3.388   3.380   1.052 -0.2374  0.5438 -0.0242
  161MPD2    C4 2455   3.520   3.418   1.051 -0.6451  0.2222 -0.2348
  161MPD2    C5 2456   3.623   3.331   1.096  0.1284 -0.5808  0.3063
  161MPD2     H 2457   3.258   3.217   1.113  0.7591  0.0656  0.6756
  161MPD2    H1 2458   3.558   3.512   1.012 -3.7559  1.4271 -0.3696
  161MPD2    H2 2459   3.669   3.146   1.186 -1.4640 -0.9996  0.9810
  161MPD2    H3 2460   3.729   3.350   1.098 -0.5380  3.3408 -0.7234
  161MPD2     N 2461   3.291   3.476   1.028 -0.2620 -0.6064  0.3926
  161MPD2    H5 2462   3.329   3.567   1.007  0.7861 -0.6147  2.2283
  161MPD2    N1 2463   3.409   3.055   1.230 -0.6509 -0.2353  0.4577
  161MPD2    H7 2464   3.309   3.044   1.237 -0.5532 -1.9554 -0.5440
  162TMC2    C1 2465   2.476   0.753   0.840  0.2610 -0.8228 -0.4637
  162TMC2    C2 2466   2.432   0.862   0.771  0.2470  0.2887 -0.1416
  162TMC2    C3 2467   2.299   0.901   0.780 -0.7788 -0.8418  0.2150
  162TMC2    C4 2468   2.384   0.692   0.927  0.1313  0.6419  0.8530
  162TMC2    C5 2469   2.250   0.727   0.934 -0.2157  0.3101  0.1004
  162TMC2    C6 2470   2.207   0.840   0.869  0.2200  0.0686 -0.5253
  162TMC2     C 2471   2.551   0.657   0.760  0.4578 -0.5778 -0.0566
  162TMC2     O 2472   2.576   0.546   0.812  0.1778 -0.1259 -0.3524
  162TMC2     H 2473   2.497   0.910   0.700 -0.1668  2.6967  1.1143
  162TMC2    H1 2474   2.426   0.605   0.977  1.4421  1.1960  0.7138
  162TMC2    H2 2475   2.103   0.871   0.878  1.4559  3.9303  0.4549
  162TMC2    C7 2476   2.161   0.630   0.997 -0.1098 -0.4208 -0.2162
  162TMC2    C8 2477   2.245   0.942   0.657 -0.6491 -0.6147 -0.4473
  162TMC2    O1 2478   2.044   0.664   0.970 -0.1724 -0.2407 -0.0912
  162TMC2    O2 2479   2.307   0.928   0.556  0.3344  0.5334 -0.2807
  162TMC2    O5 2480   2.161   1.045   0.686  0.0862  0.0683  0.0076
  162TMC2    H5 2481   2.150   1.071   0.780 -0.0678  2.8480 -0.7768
  163MPD2     C 2482   2.615   0.444   0.284  0.0517 -0.0303  0.7799
  163MPD2    C1 2483   2.650   0.396   0.410  0.0364  0.0590  0.3126
  163MPD2    C2 2484   2.621   0.473   0.521 -0.2538  0.2204  0.0830
  163MPD2    C3 2485   2.561   0.599   0.515 -0.4915  0.3231 -0.7729
  163MPD2    C4 2486   2.524   0.646   0.389 -0.2725 -0.0922 -0.1215
  163MPD2    C5 2487   2.547   0.564   0.279  0.5632 -0.3730 -0.3802
  163MPD2     H 2488   2.638   0.425   0.617  0.6260  1.3278  0.4788
  163MPD2    H1 2489   2.463   0.735   0.377  0.2045  0.1289 -0.9271
  163MPD2    H2 2490   2.645   0.394   0.193 -1.3278 -0.3458  0.5088
  163MPD2    H3 2491   2.512   0.603   0.184  3.5188 -0.5655 -1.5444
  163MPD2     N 2492   2.537   0.686   0.626  0.6434  0.3657 -0.0975
  163MPD2    H5 2493   2.506   0.781   0.613  3.5712  0.9320 -3.1098
  163MPD2    N1 2494   2.716   0.270   0.419 -0.7872 -0.3785 -0.2245
  163MPD2    H7 2495   2.701   0.207   0.341  0.0576 -0.1986 -0.5320
  164TCq2    C1 2496   2.728   3.303  10.776 -0.1380 -0.4812  0.5073
  164TCq2    O2 2497   2.638   3.231  10.812 -0.7192  0.7632  0.3899
  164TCq2    C2 2498   2.741   3.435  10.832 -0.3284 -0.2607  0.0916
  164TCq2    C3 2499   2.863   3.503  10.808 -0.0292 -0.3676 -0.9178
  164TCq2    C4 2500   2.856   3.641  10.817 -0.0555 -0.0913 -0.2998
  164TCq2    C5 2501   2.747   3.706  10.867 -0.1161 -0.6719  0.2560
  164TCq2    C6 2502   2.637   3.629  10.902 -0.7242 -0.7364 -0.0205
  164TCq2    C7 2503   2.627   3.496  10.879  0.9462  0.1980 -0.3352
  164TCq2    C8 2504   2.515   3.701  10.948  0.3481 -1.1871  0.1099
  164TCq2    O4 2505   2.405   3.649  10.961  0.1774  0.2762 -0.1350
  164TCq2    C9 2506   2.957   3.727  10.756  0.1690  0.5094  0.5488
  164TCq2    O5 2507   2.956   3.848  10.789 -0.1569 -0.4185  1.2692
  164TCq2    O6 2508   3.043   3.681  10.676 -0.5994 -0.6259 -0.0374
  164TCq2    H2 2509   2.950   3.461  10.759  0.4143 -1.6809  0.9815
  164TCq2    H3 2510   2.739   3.814  10.865  0.8728 -0.5951  0.4529
  164TCq2    H4 2511   2.530   3.451  10.860  1.6922 -1.8564  0.7684
  165MPD2     C 2512   3.335   2.969   1.762 -0.2543 -0.2952  0.3014
  165MPD2    C1 2513   3.310   2.839   1.729 -1.2479 -0.2489  0.1561
  165MPD2    C2 2514   3.418   2.747   1.733  0.0762 -0.2452 -0.0267
  165MPD2    C3 2515   3.548   2.789   1.750 -0.0960 -0.3036  0.6909
  165MPD2    C4 2516   3.569   2.923   1.764  0.3685 -0.0456  0.9035
  165MPD2    C5 2517   3.464   3.007   1.773 -0.3228 -0.6338  0.3074
  165MPD2     H 2518   3.405   2.642   1.710  3.0884 -0.6206  0.0178
  165MPD2    H1 2519   3.668   2.969   1.766 -0.0518  0.9158  0.0560
  165MPD2    H2 2520   3.252   3.038   1.755 -1.9417 -2.2307  1.0651
  165MPD2    H3 2521   3.485   3.113   1.781 -2.3693 -0.1531 -0.5904
  165MPD2     N 2522   3.656   2.700   1.770  0.6236  0.3578  0.1111
  165MPD2    H5 2523   3.745   2.736   1.803  0.8496  0.7712 -0.9590
  165MPD2    N1 2524   3.182   2.811   1.682 -0.2202 -0.1964 -0.2381
  165MPD2    H7 2525   3.115   2.887   1.673 -1.1851 -0.8473  1.3985
  166TCq2    C1 2526   3.653   2.567   1.753  0.0537  0.8693  0.0427
  166TCq2    O2 2527   3.566   2.485   1.730  0.1377  0.2769  0.1689
  166TCq2    C2 2528   3.786   2.510   1.764 -0.6532 -0.3993  0.7216
  166TCq2    C3 2529   3.791   2.397   1.835  0.5258 -0.4191 -0.3471
  166TCq2    C4 2530   3.914   2.355   1.869  0.2729  0.0369 -0.1852
  166TCq2    C5 2531   4.023   2.416   1.817 -0.0305 -0.0668 -0.6243
  166TCq2    C6 2532   4.017   2.539   1.752 -0.0584 -0.6058  0.1338
  166TCq2    C7 2533   3.890   2.584   1.715 -0.1474 -0.3313 -0.0787
  166TCq2    C8 2534   4.141   2.601   1.704  0.1366  0.3761  0.3117
  166TCq2    O4 2535   4.247   2.542   1.731 -0.1899  0.5068  0.1697
  166TCq2    C9 2536   3.929   2.237   1.950  0.2333  0.2138  0.1583
  166TCq2    O5 2537   4.048   2.198   1.956  0.0096 -0.0081 -0.0964
  166TCq2    O6 2538   3.823   2.170   1.981 -0.1292  0.1333  0.0755
  166TCq2    H2 2539   3.701   2.343   1.859  0.7449 -1.5769 -2.0945
  166TCq2    H3 2540   4.118   2.372   1.846 -0.4395 -0.2764  0.3947
  166TCq2    H4 2541   3.881   2.675   1.656 -2.0746 -1.2230 -1.1469
  167TMC2    C1 2542   1.958   4.519  12.389  0.5655  0.3991  0.2643
  167TMC2    C2 2543   1.855   4.586  12.439 -0.6037  0.6850  0.3453
  167TMC2    C3 2544   1.782   4.522  12.537  0.1261 -0.2462 -0.2247
  167TMC2    C4 2545   1.995   4.390  12.410 -0.4074  0.0784 -0.2388
  167TMC2    C5 2546   1.909   4.325  12.501  0.4868 -0.4993  0.7911
  167TMC2    C6 2547   1.804   4.390  12.560 -0.1809 -0.0039 -0.3879
  167TMC2     C 2548   2.026   4.582  12.283 -0.3861  0.6469 -0.1641
  167TMC2     O 2549   2.135   4.630  12.299  0.4374 -0.0096  0.3597
  167TMC2     H 2550   1.827   4.688  12.415  3.4969  2.0446  1.3358
  167TMC2    H1 2551   2.079   4.346  12.357 -0.4107  3.3269 -2.9123
  167TMC2    H2 2552   1.755   4.339  12.642 -0.4001  0.2570 -0.3553
  167TMC2    C7 2553   1.951   4.201  12.548 -0.1498  0.0144 -0.2916
  167TMC2    C8 2554   1.653   4.572  12.591 -0.1661 -0.7308 -0.2447
  167TMC2    O1 2555   1.917   4.169  12.662 -0.3720 -0.3246  0.0669
  167TMC2    O2 2556   1.560   4.493  12.602  0.1582  0.0869  0.0791
  167TMC2    O5 2557   1.650   4.707  12.577 -0.4851  0.4063 -0.4577
  167TMC2    H5 2558   1.740   0.015  12.597 -0.5694  0.9239 -0.9858
  168MPD2     C 2559   2.159   4.567  12.015 -0.1228  0.4951  0.6064
  168MPD2    C1 2560   2.052   4.490  12.049 -0.6148 -0.4285 -0.3221
  168MPD2    C2 2561   2.022   4.379  11.972 -0.3071 -0.2850 -0.5676
  168MPD2    C3 2562   2.108   4.344  11.864  0.0863  0.6606 -0.2194
  168MPD2    C4 2563   2.209   4.435  11.830  0.3790  0.0368 -0.4555
  168MPD2    C5 2564   2.233   4.547  11.901 -0.2802 -0.3712 -0.2677
  168MPD2     H 2565   1.935   4.327  12.009 -0.6508  0.9503  0.3717
  168MPD2    H1 2566   2.282   4.409  11.754 -0.8228 -1.2706 -1.1612
  168MPD2    H2 2567   2.183   4.658  12.068  3.0445 -0.7855  1.3772
  168MPD2    H3 2568   2.322   4.608  11.888 -0.6166 -0.2046 -1.7508
  168MPD2     N 2569   2.097   4.226  11.788 -0.2019  0.6328  0.1201
  168MPD2    H5 2570   2.163   4.223  11.711  2.7942 -2.4603  2.8251
  168MPD2    N1 2571   1.976   4.515  12.167 -0.3784  0.3852 -0.5287
  168MPD2    H7 2572   1.889   4.463  12.173  0.0834 -0.3421 -0.0101
  169MPD1     C 2573   3.390   4.632   8.774  0.0712  0.2083  0.0902
  169MPD1    C1 2574   3.401   4.621   8.908  0.5684 -0.8101  0.3748
  169MPD1    C2 2575   3.491   4.529   8.964 -0.1469  0.4558 -0.2365
  169MPD1    C3 2576   3.572   4.447   8.877  0.8494  0.9434 -0.2860
  169MPD1    C4 2577   3.549   4.465   8.739  0.5563  0.2730  0.6011
  169MPD1    C5 2578   3.467   4.564   8.688  0.4341  0.7386 -0.1292
  169MPD1     H 2579   3.493   4.510   9.071 -0.8174 -0.0079 -0.3048
  169MPD1    H1 2580   3.601   4.408   8.662  1.1395  1.0768  0.3950
  169MPD1    H2 2581   3.309   4.690   8.732  1.1869  1.2772 -0.5666
  169MPD1    H3 2582   3.446   4.586   8.584  3.2341  2.4510 -0.3369
  169MPD1     N 2583   3.663   4.355   8.923  0.3531 -0.2710 -0.5776
  169MPD1    H5 2584   3.674   4.343   9.023 -0.2237  3.4094 -0.1065
  169MPD1    N1 2585   3.301   4.687   8.985  0.6113  0.6617 -0.2936
  169MPD1    H6 2586   3.324   4.694   9.084 -1.2542  3.0099 -0.0184
  169MPD1    H7 2587   3.275   0.051   8.945 -1.3977 -1.3028 -3.4650
  170MPD1     C 2588   2.917   1.259  13.139  0.5592 -0.1567 -0.3895
  170MPD1    C1 2589   2.964   1.213  13.260  0.0536 -0.1775  0.0614
  170MPD1    C2 2590   3.027   1.296  13.347 -0.5291  0.5240 -0.0563
  170MPD1    C3 2591   3.042   1.429  13.307 -0.2424 -0.2915  0.3404
  170MPD1    C4 2592   2.996   1.477  13.183 -0.6953 -0.4438 -0.0274
  170MPD1    C5 2593   2.932   1.390  13.103 -0.3948 -0.1750  0.0230
  170MPD1     H 2594   3.067   1.257  13.440 -1.8256 -3.0481 -1.0126
  170MPD1    H1 2595   3.020   1.576  13.143 -0.9092 -0.1039  0.6915
  170MPD1    H2 2596   2.867   1.195  13.067 -0.8704  0.5344 -0.0328
  170MPD1    H3 2597   2.905   1.421  13.003  0.4597  0.9511  0.1350
  170MPD1     N 2598   3.112   1.509  13.400 -0.4243 -0.2395  0.4317
  170MPD1    H5 2599   3.129   1.458  13.486 -1.1553  0.2395  0.8596
  170MPD1    N1 2600   2.935   1.080  13.305 -0.8502  0.6177 -0.0782
  170MPD1    H6 2601   3.006   1.033  13.360 -0.5563  1.4520  0.2593
  170MPD1    H7 2602   2.898   1.020  13.231  0.2663 -0.0802 -0.0636
  171MPD1     C 2603   1.726   2.533  15.961  0.0781 -0.0916 -0.3860
  171MPD1    C1 2604   1.720   2.490  15.825 -0.4964  0.5760 -1.1006
  171MPD1    C2 2605   1.811   2.394  15.784 -0.1164 -0.2678  0.0054
  171MPD1    C3 2606   1.901   2.331  15.876 -0.0444 -0.6432 -0.5593
  171MPD1    C4 2607   1.902   2.371  16.010 -0.1221  0.1451  0.1095
  171MPD1    C5 2608   1.819   2.482  16.044  0.5708  0.4167  0.6559
  171MPD1     H 2609   1.818   2.364  15.680  1.0471  0.6526 -0.1889
  171MPD1    H1 2610   1.973   2.333  16.083  2.7772  0.3762 -2.5508
  171MPD1    H2 2611   1.658   2.606  16.002  0.9509  0.0719  0.7815
  171MPD1    H3 2612   1.820   2.508  16.149  0.0598  1.6107  0.3658
  171MPD1     N 2613   1.986   2.227  15.842 -0.3319 -0.2210  0.2651
  171MPD1    H5 2614   2.051   2.198  15.914 -3.0754 -0.0588  2.8230
  171MPD1    N1 2615   1.661   2.567  15.726  0.0862 -0.0801 -0.1839
  171MPD1    H6 2616   1.587   2.620  15.770  1.2578  1.1508  0.3254
  171MPD1    H7 2617   1.615   2.506  15.659  0.2875 -1.7345  1.1999
  172MPD1     C 2618   0.900   1.795   0.241 -0.7647 -0.1018  0.2897
  172MPD1    C1 2619   0.882   1.821   0.109 -0.5028  0.6173 -0.6171
  172MPD1    C2 2620   0.937   1.937   0.052 -0.0955 -0.4655  0.3050
  172MPD1    C3 2621   1.006   2.027   0.130  0.4050  0.4275  0.0079
  172MPD1    C4 2622   1.023   2.003   0.265  0.1813 -0.0547 -0.1035
  172MPD1    C5 2623   0.964   1.892   0.319  0.4225 -0.0249 -0.1452
  172MPD1     H 2624   0.926   1.961  17.652 -0.6401 -0.0193  0.4618
  172MPD1    H1 2625   1.090   2.064   0.324 -0.1905 -1.0892  1.3643
  172MPD1    H2 2626   0.858   1.702   0.278  0.0569 -0.2437  0.8820
  172MPD1    H3 2627   0.989   1.866   0.422 -0.0012 -0.2278 -0.0920
  172MPD1     N 2628   1.061   2.146   0.075  0.2873  0.5150  0.2822
  172MPD1    H5 2629   1.121   2.201   0.135  0.2984 -0.4902  1.1974
  172MPD1    N1 2630   0.838   1.722   0.023  0.0369  0.0806 -0.4789
  172MPD1    H6 2631   0.765   1.669   0.071  1.1004 -0.1221  0.9561
  172MPD1    H7 2632   0.794   1.767  17.650 -1.6832  2.1677  1.6712
  173MPD1     C 2633   2.915   2.112  14.386  0.1452 -0.7076 -0.0372
  173MPD1    C1 2634   2.866   2.013  14.305  0.5271 -1.2672 -0.7879
  173MPD1    C2 2635   2.741   1.952  14.339  0.1760 -0.3779  0.5393
  173MPD1    C3 2636   2.688   1.972  14.462  0.3133  0.9643  0.0798
  173MPD1    C4 2637   2.737   2.074  14.546 -0.3078  0.2580  0.6362
  173MPD1    C5 2638   2.844   2.143  14.500  0.1098  0.2038  0.0511
  173MPD1     H 2639   2.691   1.877  14.279  0.1276 -1.9047  2.4884
  173MPD1    H1 2640   2.696   2.098  14.644 -1.8464 -1.6875  0.4663
  173MPD1    H2 2641   3.006   2.165  14.364 -0.6705  0.5801 -0.3299
  173MPD1    H3 2642   2.879   2.220  14.568 -2.6136  0.7243  0.8453
  173MPD1     N 2643   2.579   1.894  14.494  0.4253  0.6098 -0.2247
  173MPD1    H5 2644   2.548   1.823  14.429  1.1422 -0.6438  0.8014
  173MPD1    N1 2645   2.924   1.992  14.181  0.4666 -0.0866 -0.5203
  173MPD1    H6 2646   2.904   1.900  14.141  0.3778 -0.0766 -0.4981
  173MPD1    H7 2647   3.022   2.020  14.181 -0.1163  1.9491 -1.1614
  174MPD1     C 2648   2.342   1.523  13.840 -0.0211  0.2644 -0.2431
  174MPD1    C1 2649   2.226   1.503  13.913  0.4600 -0.4009  0.3345
  174MPD1    C2 2650   2.238   1.506  14.054 -0.0100  0.5194 -0.4112
  174MPD1    C3 2651   2.351   1.551  14.119  0.3593 -0.1819 -0.0100
  174MPD1    C4 2652   2.457   1.570  14.040  0.1523 -0.9919 -0.0221
  174MPD1    C5 2653   2.457   1.548  13.908  0.9841 -0.1928  0.0389
  174MPD1     H 2654   2.150   1.483  14.114 -0.1200 -1.4366 -1.3444
  174MPD1    H1 2655   2.546   1.611  14.086  1.0397 -0.5421 -2.1236
  174MPD1    H2 2656   2.343   1.492  13.736 -2.3571  0.3579 -0.2854
  174MPD1    H3 2657   2.547   1.571  13.851  0.4042  2.6108  0.2632
  174MPD1     N 2658   2.365   1.581  14.251  0.0026 -0.0646 -0.2163
  174MPD1    H5 2659   2.457   1.613  14.278 -0.3558  0.7828  0.0119
  174MPD1    N1 2660   2.103   1.465  13.848 -0.5649 -0.5593  1.0077
  174MPD1    H6 2661   2.015   1.481  13.897 -0.1264 -0.2699  1.6969
  174MPD1    H7 2662   2.099   1.484  13.748 -1.8676 -2.3513  0.7144
  175MPD1     C 2663   1.472   2.903  15.348 -0.1044  0.4469  0.3995
  175MPD1    C1 2664   1.351   2.834  15.326 -0.3167  0.7680  0.1524
  175MPD1    C2 2665   1.260   2.832  15.429  0.0041 -0.2468  0.0310
  175MPD1    C3 2666   1.275   2.911  15.548 -0.4343  0.3472 -0.4625
  175MPD1    C4 2667   1.390   2.983  15.562 -0.0778  0.3559  0.0088
  175MPD1    C5 2668   1.489   2.969  15.465 -0.1255 -0.7914 -0.3567
  175MPD1     H 2669   1.176   2.764  15.421  0.3008 -1.0361  3.3774
  175MPD1    H1 2670   1.397   3.054  15.643 -1.7216 -2.6337  2.7592
  175MPD1    H2 2671   1.555   2.887  15.279 -0.7267 -2.6465  0.3498
  175MPD1    H3 2672   1.570   3.040  15.479 -1.1251  0.4016 -0.5854
  175MPD1     N 2673   1.180   2.903  15.656 -0.1300 -0.2595 -0.0821
  175MPD1    H5 2674   1.207   2.944  15.745 -0.3064  3.1407 -1.5851
  175MPD1    N1 2675   1.326   2.753  15.209 -0.7098  0.1008  0.6160
  175MPD1    H6 2676   1.358   2.796  15.122  0.9231 -0.1309  1.1033
  175MPD1    H7 2677   1.231   2.719  15.194 -1.1702  1.6437 -0.0867
  176MPD1     C 2678   3.011   4.251  16.683  0.3264 -0.5335  0.9135
  176MPD1    C1 2679   3.034   4.374  16.745 -0.6692 -0.3722 -0.4179
  176MPD1    C2 2680   2.921   4.422  16.812  0.8064  0.0201 -0.2099
  176MPD1    C3 2681   2.792   4.371  16.794  0.1048 -0.1417 -0.1721
  176MPD1    C4 2682   2.773   4.267  16.711  0.0804  0.4422  0.1140
  176MPD1    C5 2683   2.884   4.199  16.662 -0.4290  0.2167 -0.3887
  176MPD1     H 2684   2.938   4.510  16.873  1.0531 -1.0820  1.3184
  176MPD1    H1 2685   2.675   4.233  16.680  0.0933  0.9746 -0.5141
  176MPD1    H2 2686   3.083   4.182  16.640 -0.2377  1.9938 -4.0248
  176MPD1    H3 2687   2.870   4.116  16.593  0.3423 -0.4021  0.2116
  176MPD1     N 2688   2.683   4.443  16.855 -0.7772 -0.2017  0.1316
  176MPD1    H5 2689   2.699   4.540  16.879 -0.4820  0.1104 -1.2961
  176MPD1    N1 2690   3.158   4.429  16.768 -0.1014 -0.4503 -0.1067
  176MPD1    H6 2691   3.156   4.530  16.784 -0.3579 -0.7409  1.7137
  176MPD1    H7 2692   3.227   4.414  16.695 -0.7200 -1.8233 -0.4005
  177MPD1     C 2693   0.668   0.185   9.905  0.4926  1.2045  0.2752
  177MPD1    C1 2694   0.567   0.103   9.860  0.3254  0.1939 -0.7481
  177MPD1    C2 2695   0.467   0.156   9.779  0.2293  0.1656  0.1146
  177MPD1    C3 2696   0.450   0.291   9.771  0.5873 -0.3175 -0.0239
  177MPD1    C4 2697   0.548   0.377   9.820 -0.0966  0.0117 -0.2330
  177MPD1    C5 2698   0.666   0.321   9.870 -0.0121 -0.3497 -0.2413
  177MPD1     H 2699   0.389   0.089   9.744  2.7456 -1.2387 -2.7278
  177MPD1    H1 2700   0.546   0.484   9.802  1.5515  0.1842  0.6419
  177MPD1    H2 2701   0.755   0.148   9.957 -0.5566 -1.4563  0.1580
  177MPD1    H3 2702   0.751   0.384   9.892  0.5417 -0.9744 -0.5947
  177MPD1     N 2703   0.333   0.338   9.705 -0.5283  0.4008  0.1788
  177MPD1    H5 2704   0.280   0.268   9.655 -1.0162 -0.5016  1.9563
  177MPD1    N1 2705   0.580   4.693   9.873  0.3151 -0.3985 -0.1196
  177MPD1    H6 2706   0.491   4.644   9.868  1.2849 -2.2285  0.5975
  177MPD1    H7 2707   0.625   4.680   9.963 -0.1487 -0.9291  0.0388
  178MPD1     C 2708   2.732   1.177   0.103  1.1222  0.9334  0.5280
  178MPD1    C1 2709   2.839   1.114   0.160 -0.2467 -0.0216  0.2733
  178MPD1    C2 2710   2.921   1.033   0.084  0.4500  0.1499  1.1644
  178MPD1    C3 2711   2.909   1.025  17.651  0.1873  0.8736  0.0688
  178MPD1    C4 2712   2.812   1.105  17.594 -0.2971 -0.3025 -0.5406
  178MPD1    C5 2713   2.726   1.170  17.673  0.3391  0.6835 -0.0383
  178MPD1     H 2714   3.000   0.978   0.135  1.2318 -0.0721 -0.2878
  178MPD1    H1 2715   2.801   1.105  17.486 -0.4671  1.2442 -0.5240
  178MPD1    H2 2716   2.659   1.232   0.160 -2.8316 -2.5619 -1.2139
  178MPD1    H3 2717   2.642   1.227  17.634 -0.5370 -0.0319  0.7896
  178MPD1     N 2718   2.985   0.937  17.570 -0.6730  0.1258 -0.4722
  178MPD1    H5 2719   2.967   0.959  17.473 -1.5243  2.6751  0.2481
  178MPD1    N1 2720   2.826   1.082   0.299  0.0395 -0.1208 -0.2864
  178MPD1    H6 2721   2.911   1.046   0.341 -1.6294 -1.6403  1.7528
  178MPD1    H7 2722   2.788   1.161   0.351  1.5633  0.6261 -0.3120
  179MPD1     C 2723   3.392   3.259  15.455 -0.0669  0.1737 -0.1851
  179MPD1    C1 2724   3.423   3.314  15.574 -0.1317  0.3776 -0.3483
  179MPD1    C2 2725   3.315   3.374  15.644 -0.3540  0.1318 -0.6346
  179MPD1    C3 2726   3.185   3.369  15.592  0.4314  0.7678  0.3653
  179MPD1    C4 2727   3.164   3.328  15.464  0.3710 -0.1190 -0.1908
  179MPD1    C5 2728   3.268   3.277  15.395 -0.6188  0.9190  0.8354
  179MPD1     H 2729   3.333   3.418  15.742 -0.3123 -0.6495 -0.2970
  179MPD1    H1 2730   3.067   3.337  15.417  0.6605  0.7304 -0.6282
  179MPD1    H2 2731   3.466   3.210  15.393 -1.0114 -1.9079  0.3297
  179MPD1    H3 2732   3.269   3.246  15.291 -0.1470 -1.9645  1.6967
  179MPD1     N 2733   3.066   3.401  15.667 -0.0084  0.0643 -0.2665
  179MPD1    H5 2734   2.977   3.409  15.618 -0.6989  1.6871  1.2730
  179MPD1    N1 2735   3.549   3.293  15.640  0.1366  0.2948  0.3745
  179MPD1    H6 2736   3.627   3.284  15.575 -0.5439 -1.9134 -0.1384
  179MPD1    H7 2737   3.566   3.362  15.713 -1.9947 -1.2391  2.3507
  180MPD1     C 2738   2.747   0.478  15.165  0.3281 -0.5748 -0.2264
  180MPD1    C1 2739   2.850   0.519  15.085  0.2932  0.0838 -0.2182
  180MPD1    C2 2740   2.848   0.458  14.963 -0.3419 -0.5317 -0.0623
  180MPD1    C3 2741   2.752   0.381  14.923 -0.0350  0.0915 -0.1557
  180MPD1    C4 2742   2.642   0.348  14.999  0.4433 -0.3497 -0.0505
  180MPD1    C5 2743   2.645   0.401  15.125  0.0236 -0.3055 -0.1808
  180MPD1     H 2744   2.923   0.483  14.890  0.3033  0.3823  0.9173
  180MPD1    H1 2745   2.560   0.287  14.962 -1.8971  2.2564  0.8288
  180MPD1    H2 2746   2.746   0.504  15.270 -0.0519  3.8191 -1.3317
  180MPD1    H3 2747   2.561   0.390  15.193 -0.2753  1.6953 -0.2313
  180MPD1     N 2748   2.761   0.334  14.785  0.2673 -0.6819  0.5501
  180MPD1    H5 2749   2.840   0.357  14.727 -1.1130  0.2068 -0.9720
  180MPD1    N1 2750   2.948   0.610  15.123  0.0968 -0.2982  1.2242
  180MPD1    H6 2751   2.975   0.684  15.059  3.6365 -0.4177  2.5389
  180MPD1    H7 2752   2.929   0.650  15.215  1.3111  0.4431  1.1543
  181MPD1     C 2753   3.149   1.912   8.870  0.1672  0.3935 -0.1545
  181MPD1    C1 2754   3.201   2.034   8.893 -0.2622  0.2211 -0.5105
  181MPD1    C2 2755   3.327   2.046   8.951 -0.6263 -0.6769 -0.3706
  181MPD1    C3 2756   3.392   1.932   9.001 -0.2585  0.1526  0.1852
  181MPD1    C4 2757   3.332   1.814   8.984  1.1548  0.2367 -0.8326
  181MPD1    C5 2758   3.213   1.802   8.921  0.0146 -0.0621  0.2118
  181MPD1     H 2759   3.373   2.144   8.966 -2.0948 -0.1076  0.4508
  181MPD1    H1 2760   3.376   1.719   9.011 -2.7835 -1.2751  0.2516
  181MPD1    H2 2761   3.059   1.891   8.814 -0.5478 -1.2609  1.5973
  181MPD1    H3 2762   3.172   1.703   8.908 -0.9816  0.4914 -0.9804
  181MPD1     N 2763   3.515   1.937   9.074  0.5838 -0.2228 -0.0876
  181MPD1    H5 2764   3.541   1.846   9.109 -2.4218 -0.8143  0.6325
  181MPD1    N1 2765   3.143   2.152   8.841  0.4433  0.6472 -0.2785
  181MPD1    H6 2766   3.043   2.158   8.859  0.7823  0.2803  1.6712
  181MPD1    H7 2767   3.182   2.236   8.883 -0.3703 -0.2427  2.2624
  182MPD1     C 2768   4.508   2.001   1.024 -0.7995  0.3264  0.4938
  182MPD1    C1 2769   4.593   2.033   0.924  0.0226  0.4955 -0.0979
  182MPD1    C2 2770   4.721   1.972   0.931  0.0478 -0.2285 -0.3611
  182MPD1    C3 2771   0.032   1.894   1.036  0.4111  0.2342  0.1872
  182MPD1    C4 2772   4.669   1.875   1.139 -0.2165 -0.0307  0.4363
  182MPD1    C5 2773   4.544   1.923   1.130  0.3290  0.7790  0.3098
  182MPD1     H 2774   0.055   2.006   0.848 -0.0681  1.6204  0.3141
  182MPD1    H1 2775   4.692   1.804   1.217 -1.8060  0.0420  0.9777
  182MPD1    H2 2776   4.405   2.031   1.015 -1.0267 -0.5824  0.1016
  182MPD1    H3 2777   4.474   1.896   1.208  0.1268  4.4833  1.4121
  182MPD1     N 2778   0.159   1.825   1.048 -0.0043 -0.1090  0.0070
  182MPD1    H5 2779   0.174   1.761   1.125 -1.7264 -1.1742 -0.5605
  182MPD1    N1 2780   4.553   2.100   0.802  0.2766 -0.4229  0.7132
  182MPD1    H6 2781   4.632   2.142   0.752  0.2503  0.8571  1.7532
  182MPD1    H7 2782   4.484   2.172   0.825  0.1298  0.6055 -2.8143
  183MPD1     C 2783   4.332   1.272   8.493  0.4457 -0.2895  0.5813
  183MPD1    C1 2784   4.316   1.407   8.512 -0.1097 -0.2087  0.6061
  183MPD1    C2 2785   4.372   1.461   8.631 -0.1108  0.3487  0.0706
  183MPD1    C3 2786   4.446   1.388   8.716 -0.4270 -0.6169  0.0783
  183MPD1    C4 2787   4.472   1.258   8.686 -0.2414  0.5004  0.6308
  183MPD1    C5 2788   4.420   1.203   8.570 -0.8017 -0.2043  0.0083
  183MPD1     H 2789   4.347   1.561   8.663 -0.0702  0.0424  1.0863
  183MPD1    H1 2790   4.517   1.180   8.745 -0.8291 -0.7436 -0.5827
  183MPD1    H2 2791   4.284   1.217   8.413 -1.0198  0.6509  0.8222
  183MPD1    H3 2792   4.429   1.096   8.558 -1.7116 -0.2695 -0.0934
  183MPD1     N 2793   4.484   1.446   8.842 -0.2765  0.0245 -0.1711
  183MPD1    H5 2794   4.451   1.540   8.861 -0.4693  0.1395 -1.0831
  183MPD1    N1 2795   4.222   1.478   8.434  0.1210  0.1561 -0.3346
  183MPD1    H6 2796   4.200   1.432   8.346  0.5561  1.0441 -0.9120
  183MPD1    H7 2797   4.245   1.577   8.430  0.3306  0.1954  1.6334
  184MPD1     C 2798   0.117   3.856  10.083  0.5734  1.0986  0.3389
  184MPD1    C1 2799   4.718   3.843  10.027 -0.5092  0.4301 -0.1719
  184MPD1    C2 2800   4.662   3.952   9.959 -0.2062  0.1824 -0.1453
  184MPD1    C3 2801   4.714   4.075   9.973  0.2835  0.5856 -0.3104
  184MPD1    C4 2802   0.106   4.091  10.049 -0.1238 -0.6266  0.1907
  184MPD1    C5 2803   0.171   3.982  10.096 -0.1617 -0.6633  0.4150
  184MPD1     H 2804   4.575   3.945   9.895 -1.6414 -0.5808  1.9107
  184MPD1    H1 2805   0.141   4.191  10.072 -1.9231 -0.2653  1.3957
  184MPD1    H2 2806   0.173   3.772  10.122  0.0211  0.1528 -0.8758
  184MPD1    H3 2807   0.258   3.996  10.159  1.3254 -2.7772 -1.1444
  184MPD1     N 2808   4.661   4.194   9.908 -0.1406 -0.5567  0.1154
  184MPD1    H5 2809   4.722   4.274   9.920 -2.5983  1.1398  1.2711
  184MPD1    N1 2810   4.681   3.711  10.004 -0.0991 -0.0817 -0.2317
  184MPD1    H6 2811   4.701   3.641  10.075  1.4423 -0.1046 -0.6740
  184MPD1    H7 2812   4.587   3.699   9.970 -0.5141 -0.5195  1.0596
  185MPD1     C 2813   4.025   4.701   9.168 -0.4072 -0.4265  0.4051
  185MPD1    C1 2814   4.103   4.587   9.164  0.6994  0.2165 -0.1863
  185MPD1    C2 2815   4.187   4.554   9.272  0.3580 -0.0102  0.1556
  185MPD1    C3 2816   4.207   4.647   9.374  0.5513 -0.2632  0.4431
  185MPD1    C4 2817   4.132   0.038   9.370  0.9162  0.0371 -0.0400
  185MPD1    C5 2818   4.036   0.062   9.268 -0.0151  0.3178  0.1346
  185MPD1     H 2819   4.254   4.470   9.265  1.0152  0.5719 -0.5351
  185MPD1    H1 2820   4.140   0.109   9.452 -0.1746  1.6943 -1.3519
  185MPD1    H2 2821   3.946   4.707   9.093  2.2932 -3.9188 -2.7479
  185MPD1    H3 2822   3.958   0.136   9.283  0.3843  1.0834 -1.6148
  185MPD1     N 2823   4.282   4.617   9.487 -0.0950  0.2603  0.2792
  185MPD1    H5 2824   4.299   4.690   9.555  1.2516  0.5430 -0.3633
  185MPD1    N1 2825   4.068   4.495   9.074 -0.1702  0.6982  0.3029
  185MPD1    H6 2826   4.141   4.426   9.059 -0.5092  0.0830  1.5055
  185MPD1    H7 2827   4.030   4.540   8.991 -0.4048 -0.2666 -0.1105
  186MPD1     C 2828   4.152   3.645  15.930  0.5567  0.8831  0.3529
  186MPD1    C1 2829   4.103   3.597  16.043 -0.4894  0.6359 -0.3256
  186MPD1    C2 2830   3.989   3.656  16.101  0.2449 -0.1010 -0.1170
  186MPD1    C3 2831   3.934   3.765  16.045 -0.7989 -0.2144  0.1296
  186MPD1    C4 2832   3.980   3.808  15.923  0.0652 -0.4125  0.5255
  186MPD1    C5 2833   4.090   3.745  15.861  0.2920 -0.5168 -0.5372
  186MPD1     H 2834   3.970   3.600  16.192 -0.2847 -0.1386 -0.2485
  186MPD1    H1 2835   3.923   3.882  15.868 -0.7309 -0.9262  0.6518
  186MPD1    H2 2836   4.246   3.612  15.888 -0.5903  0.2488 -1.7059
  186MPD1    H3 2837   4.138   3.774  15.769 -0.8806 -2.0042 -1.6118
  186MPD1     N 2838   3.842   3.846  16.111  0.3418 -0.0137  0.7134
  186MPD1    H5 2839   3.804   3.921  16.055  0.7457  0.9018  1.6677
  186MPD1    N1 2840   4.146   3.476  16.095 -0.4452 -0.6893  0.0818
  186MPD1    H6 2841   4.155   3.498  16.194  2.5546  0.6661 -0.4946
  186MPD1    H7 2842   4.240   3.458  16.059 -0.5320 -0.3403 -0.3128
  187MPD1     C 2843   1.620   1.634   0.454 -0.6737  0.6986  0.3548
  187MPD1    C1 2844   1.548   1.631   0.333  0.2806  0.2638 -0.3615
  187MPD1    C2 2845   1.592   1.555   0.224 -0.1987 -0.9494 -0.4943
  187MPD1    C3 2846   1.730   1.519   0.221  0.0038 -0.9160 -0.4962
  187MPD1    C4 2847   1.802   1.543   0.344 -0.7648 -0.4417 -0.5551
  187MPD1    C5 2848   1.744   1.585   0.460 -0.0487  0.9491 -0.8498
  187MPD1     H 2849   1.527   1.561   0.137 -1.2832 -2.2703  0.2183
  187MPD1    H1 2850   1.906   1.514   0.346 -0.3741  0.9328 -0.8464
  187MPD1    H2 2851   1.575   1.657   0.550  1.4302  1.0191  1.2799
  187MPD1    H3 2852   1.791   1.580   0.557 -0.1431 -1.4118 -0.9332
  187MPD1     N 2853   1.794   1.468   0.101  0.3675 -0.5709  0.0914
  187MPD1    H5 2854   1.894   1.450   0.102  0.3485 -0.7635 -1.3649
  187MPD1    N1 2855   1.417   1.695   0.324  0.2937 -0.3950 -0.0417
  187MPD1    H6 2856   1.380   1.672   0.232  0.7776  1.1216 -0.6059
  187MPD1    H7 2857   1.356   1.641   0.386 -0.5505 -1.0950 -1.4732
  188MPD1     C 2858   2.355   1.306  10.526  0.1891  0.1320 -0.6868
  188MPD1    C1 2859   2.326   1.313  10.394  0.2121 -0.1161 -0.2525
  188MPD1    C2 2860   2.266   1.205  10.334 -0.6763  0.2463  0.4420
  188MPD1    C3 2861   2.233   1.084  10.402 -0.1521 -0.8142 -0.3163
  188MPD1    C4 2862   2.258   1.088  10.535  0.7947  0.5187 -0.2456
  188MPD1    C5 2863   2.312   1.195  10.602 -0.3116 -0.6192  0.1294
  188MPD1     H 2864   2.253   1.205  10.227 -1.1015  0.6463  0.4961
  188MPD1    H1 2865   2.231   1.002  10.597  0.1832  0.6054 -0.3924
  188MPD1    H2 2866   2.385   1.396  10.578  1.2569 -0.3063 -0.5485
  188MPD1    H3 2867   2.330   1.192  10.709  2.4761  1.5513 -0.2731
  188MPD1     N 2868   2.191   0.965  10.339 -0.1582  0.0759 -0.8953
  188MPD1    H5 2869   2.187   0.876  10.387  0.1811  1.3145  1.4658
  188MPD1    N1 2870   2.362   1.421  10.316 -0.4314  0.3997  0.0248
  188MPD1    H6 2871   2.349   1.510  10.364 -0.6014  0.8617 -0.8677
  188MPD1    H7 2872   2.309   1.421  10.229  1.8927 -3.3416 -1.4058
  189MPD1     C 2873   4.012   1.825   1.019  0.2335 -0.3988  0.9548
  189MPD1    C1 2874   3.920   1.737   1.049  0.4645 -0.3986 -0.0904
  189MPD1    C2 2875   3.830   1.707   0.946 -0.7181  0.5301 -0.2259
  189MPD1    C3 2876   3.819   1.786   0.834 -0.6920 -0.0092  0.2984
  189MPD1    C4 2877   3.911   1.887   0.818 -0.1140  0.7850 -0.5089
  189MPD1    C5 2878   4.005   1.913   0.919 -0.4874 -0.0114 -0.0299
  189MPD1     H 2879   3.770   1.617   0.945 -0.2576  0.1993  2.2845
  189MPD1    H1 2880   3.914   1.949   0.729  0.0116  1.9572  0.3009
  189MPD1    H2 2881   4.099   1.836   1.084  1.3069 -1.8307 -0.2409
  189MPD1    H3 2882   4.086   1.985   0.911  0.4111 -1.2718 -2.2604
  189MPD1     N 2883   3.723   1.747   0.740 -0.1768  0.0495  0.0069
  189MPD1    H5 2884   3.658   1.673   0.762  0.2222 -0.2748  0.0908
  189MPD1    N1 2885   3.926   1.654   1.160 -0.7815 -0.7056  0.0417
  189MPD1    H6 2886   3.957   1.704   1.243  0.1015  0.9565 -1.2985
  189MPD1    H7 2887   3.830   1.636   1.189 -0.9313 -1.1467 -0.7275
  190MPD1     C 2888   2.832   0.829  15.417  0.8303  0.4653  0.5740
  190MPD1    C1 2889   2.741   0.774  15.498  0.0794 -0.0385 -0.1914
  190MPD1    C2 2890   2.777   0.645  15.543  0.7210  0.1387 -0.2217
  190MPD1    C3 2891   2.905   0.597  15.518 -0.8243  0.5513  0.0055
  190MPD1    C4 2892   2.996   0.666  15.446  0.8382 -0.0440 -0.0646
  190MPD1    C5 2893   2.963   0.787  15.396 -0.2126  0.0829  0.2078
  190MPD1     H 2894   2.710   0.581  15.600  0.8919  0.6111  0.5065
  190MPD1    H1 2895   3.090   0.619  15.420  1.0781 -0.5796  1.8176
  190MPD1    H2 2896   2.810   0.925  15.373  2.6142  1.0553  0.9498
  190MPD1    H3 2897   3.041   0.841  15.343  0.5160 -0.9137  0.2582
  190MPD1     N 2898   2.924   0.462  15.555  0.6920  0.4731  0.1510
  190MPD1    H5 2899   2.859   0.422  15.622 -1.1468 -0.5511 -2.2050
  190MPD1    N1 2900   2.609   0.803  15.480 -0.1834 -0.2083  0.4751
  190MPD1    H6 2901   2.550   0.764  15.553 -0.6340  2.0418  1.3026
  190MPD1    H7 2902   2.602   0.905  15.479  1.3291 -0.1255 -0.3273
  191MPD1     C 2903   2.589   1.375  13.298  0.5287 -0.0581  0.2495
  191MPD1    C1 2904   2.512   1.449  13.385  0.1083 -0.1074 -0.2662
  191MPD1    C2 2905   2.421   1.541  13.326  0.3052 -0.4632 -0.7189
  191MPD1    C3 2906   2.405   1.560  13.193  0.7712 -0.5918  0.0367
  191MPD1    C4 2907   2.481   1.482  13.111 -0.2046 -0.5137  0.1916
  191MPD1    C5 2908   2.575   1.396  13.166  0.2192  0.4484  0.5146
  191MPD1     H 2909   2.374   1.613  13.392 -1.6679 -2.0597 -0.3938
  191MPD1    H1 2910   2.476   1.479  13.003 -4.1673 -0.7104  0.3712
  191MPD1    H2 2911   2.664   1.300  13.320  0.7598  0.1103  0.0285
  191MPD1    H3 2912   2.627   1.329  13.099 -0.6692  1.3082 -1.0362
  191MPD1     N 2913   2.308   1.656  13.149  0.2718  0.6182 -0.0355
  191MPD1    H5 2914   2.257   1.704  13.223  1.6912  2.8601 -0.5100
  191MPD1    N1 2915   2.502   1.415  13.525  0.1344  0.6612  0.3278
  191MPD1    H6 2916   2.481   1.493  13.587  0.4734  1.1309 -0.1477
  191MPD1    H7 2917   2.594   1.387  13.557  0.2449  0.5205 -0.1031
  192MPD1     C 2918   1.537   2.266  13.300 -0.5769  1.1731  0.0043
  192MPD1    C1 2919   1.544   2.123  13.318  0.5763 -0.2215  0.6388
  192MPD1    C2 2920   1.652   2.054  13.258  0.1892  0.2741 -0.5341
  192MPD1    C3 2921   1.731   2.115  13.160  0.2421  0.5058  0.3510
  192MPD1    C4 2922   1.718   2.256  13.147  0.2635  0.5573  0.3491
  192MPD1    C5 2923   1.621   2.324  13.214  0.1705 -0.6978 -0.0469
  192MPD1     H 2924   1.664   1.948  13.277 -0.5618  0.1421 -0.7980
  192MPD1    H1 2925   1.785   2.313  13.084  0.1950  1.1779  0.8401
  192MPD1    H2 2926   1.469   2.326  13.358  0.3739  2.4631 -0.2283
  192MPD1    H3 2927   1.618   2.432  13.212  1.1263 -0.6266  3.6336
  192MPD1     N 2928   1.844   2.057  13.090  0.5182 -0.3845 -0.4778
  192MPD1    H5 2929   1.907   2.119  13.040 -0.4968  1.3053  0.3168
  192MPD1    N1 2930   1.472   2.057  13.416  0.1448  0.3702  0.4482
  192MPD1    H6 2931   1.463   1.957  13.397 -0.3771  0.1470  1.8334
  192MPD1    H7 2932   1.380   2.091  13.441  0.9750  2.3254  0.8510
  193MPD1     C 2933   2.063   1.979  16.620  0.1559  0.5646  0.1640
  193MPD1    C1 2934   2.194   1.942  16.598  0.1545  0.1449  0.1677
  193MPD1    C2 2935   2.290   1.997  16.673 -0.1255 -0.1410 -0.3707
  193MPD1    C3 2936   2.264   2.096  16.769  0.3828 -0.5373  0.5015
  193MPD1    C4 2937   2.135   2.119  16.798  0.3794  0.0199  0.1464
  193MPD1    C5 2938   2.038   2.070  16.714 -0.1441  0.0335 -0.2518
  193MPD1     H 2939   2.394   1.969  16.672  0.6817  2.9080 -0.2958
  193MPD1    H1 2940   2.105   2.187  16.876  0.1556  0.5214 -0.3753
  193MPD1    H2 2941   1.982   1.927  16.570  0.7364  1.9810 -2.2561
  193MPD1    H3 2942   1.937   2.101  16.737 -0.0508  0.0199  0.1828
  193MPD1     N 2943   2.355   2.185  16.837 -0.4957 -0.0094 -0.1168
  193MPD1    H5 2944   2.305   2.237  16.908 -0.2059 -0.5091  0.4515
  193MPD1    N1 2945   2.220   1.830  16.515 -0.5904 -0.1623 -0.1554
  193MPD1    H6 2946   2.304   1.837  16.458 -0.9483  2.1214 -0.4209
  193MPD1    H7 2947   2.141   1.803  16.458 -2.4172 -2.7458  3.6330
  194MPD1     C 2948   4.190   0.308  16.777 -0.1800  0.1813  0.0820
  194MPD1    C1 2949   4.269   0.248  16.678  0.0078 -0.3759 -0.3552
  194MPD1    C2 2950   4.318   0.118  16.703  0.4121 -0.4190 -0.5076
  194MPD1    C3 2951   4.290   0.053  16.817 -0.1907  0.1042  0.1320
  194MPD1    C4 2952   4.214   0.112  16.910 -0.0278  0.2338 -0.0952
  194MPD1    C5 2953   4.165   0.234  16.893 -0.1335 -0.3437  0.3866
  194MPD1     H 2954   4.381   0.086  16.621  2.1503  1.7243 -0.0038
  194MPD1    H1 2955   4.188   0.067  17.005  1.4692  0.7180  0.5438
  194MPD1    H2 2956   4.151   0.409  16.776  1.5912  0.8408 -4.1236
  194MPD1    H3 2957   4.118   0.286  16.976  0.0137 -0.7184  0.7004
  194MPD1     N 2958   4.350   4.655  16.849  0.0239 -0.0089 -0.4821
  194MPD1    H5 2959   4.321   4.619  16.940  0.3605  1.3285  0.1602
  194MPD1    N1 2960   4.315   0.320  16.567 -0.7905 -0.4898 -0.1629
  194MPD1    H6 2961   4.239   0.381  16.537 -0.2112  0.1597 -0.3001
  194MPD1    H7 2962   4.325   0.256  16.488 -1.9707  0.6135 -1.2263
  195MPD1     C 2963   1.082   0.935  16.847 -0.0297 -0.6600  0.1400
  195MPD1    C1 2964   1.173   0.940  16.948  0.2930  0.6492  0.1720
  195MPD1    C2 2965   1.218   0.828  17.011 -0.1044 -0.4196 -0.6381
  195MPD1    C3 2966   1.176   0.702  16.970  0.3418  0.9554  0.0421
  195MPD1    C4 2967   1.100   0.696  16.855 -0.1546 -0.1006  0.6919
  195MPD1    C5 2968   1.047   0.810  16.802  0.1122  0.3151  0.4989
  195MPD1     H 2969   1.273   0.843  17.103 -1.5945  1.1691 -0.0166
  195MPD1    H1 2970   1.076   0.601  16.809 -2.6325  1.0055 -0.2991
  195MPD1    H2 2971   1.048   1.025  16.797 -0.5459 -0.5813  0.6428
  195MPD1    H3 2972   0.981   0.801  16.717  0.6293  0.1238  0.1195
  195MPD1     N 2973   1.215   0.583  17.026  0.4919 -0.0590 -0.0111
  195MPD1    H5 2974   1.201   0.496  16.975  1.3690 -0.8440  1.0768
  195MPD1    N1 2975   1.205   1.066  17.004 -0.2637  0.4207  0.1604
  195MPD1    H6 2976   1.209   1.141  16.935  0.9588  0.0598 -0.1664
  195MPD1    H7 2977   1.294   1.065  17.055 -0.4696 -4.0342  0.4180
  196MPD1     C 2978   1.905   0.885  17.521 -0.2511  0.2991  0.0751
  196MPD1    C1 2979   1.780   0.933  17.547 -0.8534 -0.0699  0.5158
  196MPD1    C2 2980   1.770   0.996  17.666 -0.0035  0.7545 -0.0576
  196MPD1    C3 2981   1.874   1.015   0.050  0.0094 -0.1997  0.2935
  196MPD1    C4 2982   1.994   0.966   0.011 -0.1075 -0.0571  0.0406
  196MPD1    C5 2983   2.009   0.900  17.600  0.9271  0.0566  0.2390
  196MPD1     H 2984   1.673   1.041  17.683 -1.7672 -2.2753 -2.1231
  196MPD1    H1 2985   2.086   0.988   0.062  0.8767 -0.4534 -1.5546
  196MPD1    H2 2986   1.906   0.822  17.433  1.1690  3.5482 -2.2516
  196MPD1    H3 2987   2.108   0.865  17.572  0.5499  1.1570 -2.4702
  196MPD1     N 2988   1.857   1.064   0.181 -0.5349 -0.6032  0.0029
  196MPD1    H5 2989   1.941   1.064   0.238 -1.0389 -3.1986  0.7122
  196MPD1    N1 2990   1.669   0.900  17.474 -0.2180 -0.0488  0.0197
  196MPD1    H6 2991   1.591   0.966  17.476  0.1413  0.4072 -0.7196
  196MPD1    H7 2992   1.702   0.890  17.378  0.0165 -1.3188  0.2401
  197MPD1     C 2993   0.470   3.116  17.269 -0.8256  0.1017 -1.2001
  197MPD1    C1 2994   0.494   3.021  17.168  0.1477 -0.3689  0.2462
  197MPD1    C2 2995   0.581   3.062  17.065 -0.2975  0.4144  0.5569
  197MPD1    C3 2996   0.641   3.184  17.069  0.3791 -0.7061 -0.0546
  197MPD1    C4 2997   0.620   3.271  17.177  0.0641 -0.0446 -0.1124
  197MPD1    C5 2998   0.535   3.236  17.280  0.0545  0.3500  0.5191
  197MPD1     H 2999   0.600   2.995  16.983  1.1766 -1.5626  2.5076
  197MPD1    H1 3000   0.660   3.372  17.175  1.7627 -0.6822  1.3655
  197MPD1    H2 3001   0.392   3.084  17.337 -0.5103 -0.9624 -1.3501
  197MPD1    H3 3002   0.509   3.313  17.352  2.5416  0.4680  1.2951
  197MPD1     N 3003   0.732   3.223  16.970  0.3764  0.1936 -0.3389
  197MPD1    H5 3004   0.768   3.318  16.979 -0.6927  0.4887  0.8600
  197MPD1    N1 3005   0.425   2.899  17.160 -0.2124 -0.5107  0.4155
  197MPD1    H6 3006   0.402   2.858  17.251  1.1081  1.2703  1.5454
  197MPD1    H7 3007   0.485   2.828  17.119  1.4674  0.3896  1.3223
  198MPD1     C 3008   2.830   0.830  14.967 -0.2796 -0.3010  0.0379
  198MPD1    C1 3009   2.961   0.880  14.949 -0.4844  0.6854  0.2961
  198MPD1    C2 3010   2.994   0.995  15.017  0.8169  0.7362 -0.1441
  198MPD1    C3 3011   2.910   1.050  15.109  0.1767 -0.0440  0.3340
  198MPD1    C4 3012   2.782   0.993  15.128 -0.0460 -0.0293 -0.2191
  198MPD1    C5 3013   2.742   0.887  15.051 -0.3177  0.2663 -0.3880
  198MPD1     H 3014   3.094   1.035  15.003  1.1998 -0.4849 -0.9134
  198MPD1    H1 3015   2.717   1.009  15.214  2.2039  2.3005  1.0685
  198MPD1    H2 3016   2.805   0.732  14.928 -0.2024  0.1745 -1.1948
  198MPD1    H3 3017   2.649   0.841  15.079 -0.2969  0.3245 -0.2246
  198MPD1     N 3018   2.962   1.146  15.191 -0.5633  0.3478 -0.1463
  198MPD1    H5 3019   3.054   1.181  15.167  0.2365 -0.0191  2.4081
  198MPD1    N1 3020   3.051   0.793  14.897 -0.0896 -0.2107  0.4769
  198MPD1    H6 3021   3.134   0.841  14.862 -0.2190 -0.7709 -0.6110
  198MPD1    H7 3022   3.020   0.730  14.823 -0.4132  1.4624 -0.8249
  199MPD1     C 3023   4.653   2.833   8.911  0.6366 -0.0291  0.1577
  199MPD1    C1 3024   4.559   2.741   8.942  0.5186  1.0406  0.2219
  199MPD1    C2 3025   4.434   2.784   8.990  0.1090 -0.8685  0.5369
  199MPD1    C3 3026   4.411   2.921   9.000  0.4963 -0.8716 -0.1527
  199MPD1    C4 3027   4.507   3.008   8.974  0.2024  0.2677 -0.1831
  199MPD1    C5 3028   4.633   2.968   8.930 -0.3595 -0.2589 -0.0950
  199MPD1     H 3029   4.356   2.718   9.026 -1.2203  0.3119 -0.1814
  199MPD1    H1 3030   4.488   3.114   8.982 -0.8426  0.1281 -0.7880
  199MPD1    H2 3031   0.025   2.807   8.873 -0.0063  0.5853 -1.8836
  199MPD1    H3 3032   4.699   3.046   8.898 -0.7019  1.0484  2.3927
  199MPD1     N 3033   4.288   2.984   9.033  0.2951  0.9943 -0.2431
  199MPD1    H5 3034   4.288   3.085   9.043 -2.1825  0.8835  0.7497
  199MPD1    N1 3035   4.576   2.604   8.911  0.4521  0.2559  0.1902
  199MPD1    H6 3036   4.667   2.570   8.941 -0.1101  0.3042  1.9519
  199MPD1    H7 3037   4.493   2.559   8.949 -0.5467 -0.7290 -3.1770
  200MPD1     C 3038   4.281   2.800  15.449 -0.3485  0.1870 -0.8888
  200MPD1    C1 3039   4.162   2.734  15.419 -0.9157  0.1143  0.3116
  200MPD1    C2 3040   4.112   2.736  15.289 -0.4578 -0.4763  0.1591
  200MPD1    C3 3041   4.181   2.803  15.192 -0.1291  0.4962 -1.0376
  200MPD1    C4 3042   4.285   2.890  15.233  0.4056 -0.4349 -0.9860
  200MPD1    C5 3043   4.336   2.882  15.357  0.3646  0.5638  0.0317
  200MPD1     H 3044   4.018   2.687  15.268 -0.5423  1.0399 -3.0812
  200MPD1    H1 3045   4.346   2.939  15.159 -0.4481  1.4379 -0.4400
  200MPD1    H2 3046   4.337   2.786  15.541 -1.0693  1.0634 -0.3179
  200MPD1    H3 3047   4.424   2.944  15.373  0.0656  0.6345  1.3820
  200MPD1     N 3048   4.143   2.789  15.060 -0.1776 -0.5185  1.0666
  200MPD1    H5 3049   4.059   2.733  15.046 -1.4776  1.7842 -0.3141
  200MPD1    N1 3050   4.100   2.656  15.521  0.3158  0.6778 -0.0250
  200MPD1    H6 3051   4.002   2.682  15.526  0.3189  0.7098 -0.1133
  200MPD1    H7 3052   4.154   2.679  15.604 -1.7955 -1.3492  1.9074
  201MPD1     C 3053   0.922   1.762  13.338 -0.4395 -0.2813 -0.0022
  201MPD1    C1 3054   0.927   1.666  13.439 -0.9629 -0.1000  0.0344
  201MPD1    C2 3055   0.999   1.548  13.416  0.0338  0.1256 -0.4696
  201MPD1    C3 3056   1.051   1.514  13.293 -0.7623 -0.0889  0.4077
  201MPD1    C4 3057   1.049   1.616  13.198 -0.6901 -0.9143 -0.0765
  201MPD1    C5 3058   0.985   1.736  13.221  0.7219 -0.2221 -0.2033
  201MPD1     H 3059   1.010   1.476  13.496 -1.1227  1.2940  0.7451
  201MPD1    H1 3060   1.091   1.598  13.099 -1.1149 -0.2472 -0.3819
  201MPD1    H2 3061   0.888   1.861  13.364  3.4246  0.6382  1.5891
  201MPD1    H3 3062   1.002   1.812  13.145 -1.2122 -0.7465 -1.1693
  201MPD1     N 3063   1.115   1.390  13.280 -0.0546  0.8808 -0.0514
  201MPD1    H5 3064   1.106   1.331  13.362 -0.0772 -1.6371 -1.8606
  201MPD1    N1 3065   0.873   1.693  13.565  0.0455  0.1652  0.1591
  201MPD1    H6 3066   0.847   1.607  13.613 -0.2408 -0.0392 -0.3562
  201MPD1    H7 3067   0.787   1.747  13.558  1.4640  2.1130 -2.3869
  202MPD1     C 3068   0.445   0.570   8.752  0.3053  0.3431  0.0098
  202MPD1    C1 3069   0.476   0.463   8.831 -0.5260 -0.0609  0.2329
  202MPD1    C2 3070   0.530   0.499   8.951  0.7308 -0.4398 -0.1527
  202MPD1    C3 3071   0.518   0.624   9.007 -0.4028 -0.8518 -0.6062
  202MPD1    C4 3072   0.473   0.728   8.930 -0.2836  0.0268 -1.2319
  202MPD1    C5 3073   0.440   0.698   8.803  0.6418 -0.7357 -0.0945
  202MPD1     H 3074   0.588   0.424   9.003  1.1414  0.8449  1.2386
  202MPD1    H1 3075   0.474   0.831   8.962  1.3676 -0.6420  0.9230
  202MPD1    H2 3076   0.434   0.556   8.645 -0.0059  2.5630 -0.2459
  202MPD1    H3 3077   0.428   0.782   8.735 -1.6042 -0.9496  0.0607
  202MPD1     N 3078   0.551   0.653   9.144 -0.2263  0.3546  0.0062
  202MPD1    H5 3079   0.548   0.752   9.165  0.6060  0.3701  0.0381
  202MPD1    N1 3080   0.521   0.342   8.768  0.3549  0.5483 -0.1805
  202MPD1    H6 3081   0.460   0.314   8.692 -0.1839  1.0336  0.0739
  202MPD1    H7 3082   0.523   0.260   8.827  2.2290  0.9706  0.3459
  203MPD1     C 3083   4.440   1.290  12.074 -0.0713  0.2012  0.0192
  203MPD1    C1 3084   4.542   1.242  11.995 -0.6647  0.1829 -0.0628
  203MPD1    C2 3085   4.671   1.275  12.040  0.0941 -0.2756  0.9255
  203MPD1    C3 3086   4.704   1.320  12.165 -1.1543  0.2780 -0.7557
  203MPD1    C4 3087   4.599   1.350  12.247  0.0400  0.7715 -0.5787
  203MPD1    C5 3088   4.469   1.338  12.199  0.9214  0.0607  0.0408
  203MPD1     H 3089   0.025   1.251  11.971  1.3013 -0.0339  2.2522
  203MPD1    H1 3090   4.606   1.373  12.353 -1.9196 -2.4701  0.2610
  203MPD1    H2 3091   4.337   1.283  12.044 -0.2567  0.0525  0.6816
  203MPD1    H3 3092   4.383   1.369  12.258  1.4207  1.9231 -0.2398
  203MPD1     N 3093   0.108   1.336  12.206 -0.2138 -0.2604  0.5322
  203MPD1    H5 3094   0.179   1.274  12.168 -1.2995 -1.2338  0.0640
  203MPD1    N1 3095   4.523   1.202  11.858  0.8628  0.1500  0.0714
  203MPD1    H6 3096   4.602   1.159  11.811 -0.8445 -2.5011 -0.3589
  203MPD1    H7 3097   4.439   1.144  11.852  0.5377  0.8409 -2.0927
  204MPD1     C 3098   4.487   3.104  17.517 -0.2581  0.6148 -0.2291
  204MPD1    C1 3099   4.505   3.060  17.386 -0.5176 -0.0822 -0.8165
  204MPD1    C2 3100   4.464   2.931  17.346  0.6940 -0.3723  0.0916
  204MPD1    C3 3101   4.405   2.851  17.448  0.4422  0.1361  0.1448
  204MPD1    C4 3102   4.376   2.904  17.576 -0.1565  0.0980 -0.4784
  204MPD1    C5 3103   4.423   3.029  17.610  0.0643  0.5215 -0.1013
  204MPD1     H 3104   4.479   2.899  17.243  0.1268  0.8946 -0.3835
  204MPD1    H1 3105   4.314   2.856  17.650 -0.8526  0.4566 -0.8312
  204MPD1    H2 3106   4.534   3.197  17.547  0.5939 -0.4971  1.8846
  204MPD1    H3 3107   4.412   3.067   0.005  3.0210  0.8633  0.1112
  204MPD1     N 3108   4.386   2.722  17.410 -0.8504  0.4357  0.3368
  204MPD1    H5 3109   4.417   2.694  17.318  0.7794 -0.0016  1.0259
  204MPD1    N1 3110   4.562   3.150  17.299 -0.4310 -0.2230  0.4898
  204MPD1    H6 3111   4.545   3.120  17.204  1.2125 -1.6904  0.6745
  204MPD1    H7 3112   4.537   3.247  17.316  3.5563  1.0821 -1.2338
  205MPD1     C 3113   3.289   1.153  17.469 -0.0812 -0.0271 -0.2389
  205MPD1    C1 3114   3.386   1.205  17.385  0.8389  0.7854 -0.1885
  205MPD1    C2 3115   3.504   1.248  17.439 -0.0351 -0.2425 -0.2083
  205MPD1    C3 3116   3.531   1.252  17.571  0.0899  0.9895  0.5174
  205MPD1    C4 3117   3.442   1.182  17.655 -0.1373  0.1400  0.4593
  205MPD1    C5 3118   3.320   1.140  17.603  0.1974 -0.7554 -0.2262
  205MPD1     H 3119   3.585   1.276  17.373 -1.8853  1.1636 -1.9025
  205MPD1    H1 3120   3.468   1.165   0.053  0.7649  0.0484  0.2187
  205MPD1    H2 3121   3.203   1.095  17.436 -0.5842 -0.4296  1.7762
  205MPD1    H3 3122   3.246   1.090  17.665 -1.8629  0.9904 -1.2685
  205MPD1     N 3123   3.652   1.309  17.630  0.8940  0.0016 -0.5386
  205MPD1    H5 3124   3.676   1.279   0.018  0.0092 -2.1333 -0.9855
  205MPD1    N1 3125   3.373   1.170  17.246 -0.9259 -0.1327  0.3449
  205MPD1    H6 3126   3.405   1.250  17.193  0.4189 -1.6503 -1.1420
  205MPD1    H7 3127   3.275   1.148  17.229 -0.3668 -1.4149 -1.2004
  206MPD1     C 3128   0.165   0.274  16.573  0.0914 -0.4095 -0.4134
  206MPD1    C1 3129   0.232   0.260  16.461 -0.3961  0.4265  0.0829
  206MPD1    C2 3130   0.154   0.233  16.347  0.1361  0.0733  0.3644
  206MPD1    C3 3131   0.019   0.215  16.344  0.2746  0.7134 -0.3910
  206MPD1    C4 3132   4.677   0.259  16.461  0.4637 -0.6307 -0.0413
  206MPD1    C5 3133   0.027   0.283  16.576  0.0034 -0.4125  0.1208
  206MPD1     H 3134   0.209   0.240  16.253 -0.4299 -2.5310 -0.1547
  206MPD1    H1 3135   4.569   0.253  16.469  0.3652 -0.4410 -1.2027
  206MPD1    H2 3136   0.228   0.300  16.658 -0.9285 -1.3727  0.6285
  206MPD1    H3 3137   4.712   0.302  16.674  0.6849  0.0617  0.3162
  206MPD1     N 3138   4.675   0.164  16.234  0.2767 -0.1108  0.0981
  206MPD1    H5 3139   4.576   0.187  16.241  0.5126  0.3973  1.7008
  206MPD1    N1 3140   0.367   0.287  16.446  0.3329 -0.2742  0.1130
  206MPD1    H6 3141   0.419   0.237  16.374 -1.5429 -1.6433 -0.3015
  206MPD1    H7 3142   0.410   0.274  16.537  0.3694 -0.5805  0.0525
  207MPD1     C 3143   1.486   1.619   9.426 -0.0563 -0.0237  0.4929
  207MPD1    C1 3144   1.463   1.591   9.562  0.2178 -0.3706  0.1237
  207MPD1    C2 3145   1.562   1.622   9.658 -0.1658  0.3855 -0.3598
  207MPD1    C3 3146   1.672   1.701   9.628 -0.2859  0.0941  1.4215
  207MPD1    C4 3147   1.694   1.730   9.489  0.9735  0.4600  1.2671
  207MPD1    C5 3148   1.604   1.688   9.400  0.4330  0.0669  0.3772
  207MPD1     H 3149   1.544   1.587   9.759 -4.7255  3.4736 -0.1221
  207MPD1    H1 3150   1.777   1.792   9.456  1.7594 -1.6838 -0.7625
  207MPD1    H2 3151   1.423   1.588   9.344 -0.3040 -0.8334  0.9858
  207MPD1    H3 3152   1.629   1.714   9.298  2.2079  0.1598  0.8426
  207MPD1     N 3153   1.766   1.747   9.729  0.3132 -0.0991 -0.4195
  207MPD1    H5 3154   1.854   1.789   9.700  0.4287  0.5518  0.9238
  207MPD1    N1 3155   1.364   1.502   9.602  0.0899  0.0787 -1.1864
  207MPD1    H6 3156   1.330   1.514   9.698  2.2537  0.9630 -0.5311
  207MPD1    H7 3157   1.278   1.494   9.549 -0.5709 -0.6691 -0.0298
  208MPD1     C 3158   0.579   1.578  17.340 -0.1841  0.1234  0.0273
  208MPD1    C1 3159   0.665   1.557  17.454  0.0308 -0.3357 -0.4394
  208MPD1    C2 3160   0.617   1.469  17.546 -0.3679 -1.2416 -0.7859
  208MPD1    C3 3161   0.493   1.404  17.535 -0.1869  0.4647  0.3433
  208MPD1    C4 3162   0.412   1.437  17.428 -0.8305 -0.0344 -1.0773
  208MPD1    C5 3163   0.458   1.520  17.333  0.4108 -0.5727  0.3424
  208MPD1     H 3164   0.672   1.450  17.637 -0.1245 -0.6040 -0.7970
  208MPD1    H1 3165   0.313   1.396  17.413 -1.9145  1.9387  0.6530
  208MPD1    H2 3166   0.614   1.629  17.251  0.0504  0.5383  0.3536
  208MPD1    H3 3167   0.407   1.535  17.238  0.5911  1.2258  0.5365
  208MPD1     N 3168   0.444   1.313  17.635 -0.3459  0.0777  0.0080
  208MPD1    H5 3169   0.501   1.300   0.012  1.8013  1.3360 -1.2767
  208MPD1    N1 3170   0.802   1.597  17.462  0.5754  0.1314  0.6868
  208MPD1    H6 3171   0.812   1.691  17.424 -1.8084  1.2239  2.8255
  208MPD1    H7 3172   0.850   1.594  17.552  1.5523  1.5325  0.2017
  209MPD1     C 3173   1.896   1.029  11.342 -0.4952 -0.2916 -0.5349
  209MPD1    C1 3174   1.860   1.066  11.213 -0.9598  0.0461  0.9253
  209MPD1    C2 3175   1.884   1.197  11.177 -0.0802  0.4272  0.1131
  209MPD1    C3 3176   1.925   1.292  11.272 -0.5431 -0.0778 -0.8248
  209MPD1    C4 3177   1.944   1.255  11.404 -0.2933  0.4411  0.0753
  209MPD1    C5 3178   1.937   1.123  11.433  0.1501  0.3167 -0.3660
  209MPD1     H 3179   1.857   1.230  11.077 -0.5232 -0.8547 -0.1934
  209MPD1    H1 3180   1.972   1.321  11.485 -1.3677  1.6715 -0.5591
  209MPD1    H2 3181   1.877   0.928  11.374  1.0469 -0.1979  0.6731
  209MPD1    H3 3182   1.967   1.085  11.530 -1.8293  2.6336  1.1355
  209MPD1     N 3183   1.941   1.421  11.223  0.7320  0.2318 -0.3892
  209MPD1    H5 3184   1.922   1.425  11.123 -0.9061 -2.6225 -0.1779
  209MPD1    N1 3185   1.823   0.967  11.128  0.6567  0.0156  0.3762
  209MPD1    H6 3186   1.762   0.999  11.053  0.8995 -0.4945 -0.0379
  209MPD1    H7 3187   1.790   0.884  11.176 -0.3793 -0.6785 -1.5505
  210MPD1     C 3188   2.760   2.080  11.084 -0.3876 -0.1348 -0.3629
  210MPD1    C1 3189   2.684   2.091  11.201  0.7787  0.1859  0.1876
  210MPD1    C2 3190   2.555   2.045  11.193 -0.1082  0.4312 -0.2351
  210MPD1    C3 3191   2.502   1.988  11.079 -0.0744  1.2024  0.3941
  210MPD1    C4 3192   2.577   1.976  10.968 -0.3032 -0.0582 -0.0331
  210MPD1    C5 3193   2.707   2.025  10.968 -0.2367 -0.3610  0.2277
  210MPD1     H 3194   2.502   2.053  11.288  1.9170  1.1539  0.8360
  210MPD1    H1 3195   2.536   1.938  10.875  0.7805 -0.8369 -0.1899
  210MPD1    H2 3196   2.861   2.119  11.078  0.3655 -1.9669  0.4428
  210MPD1    H3 3197   2.765   2.012  10.877 -0.9275 -1.5395 -0.0406
  210MPD1     N 3198   2.370   1.925  11.075 -0.5334 -0.1002  0.5153
  210MPD1    H5 3199   2.345   1.903  10.979  0.2530  0.8679  0.0938
  210MPD1    N1 3200   2.758   2.118  11.318  0.7779 -0.3337  0.1106
  210MPD1    H6 3201   2.692   2.157  11.385  2.0654  0.3702  0.9656
  210MPD1    H7 3202   2.835   2.183  11.304 -0.6934  1.5679  0.7798
  211MPD1     C 3203   0.964   1.819  16.103 -0.3501 -0.9173 -0.2040
  211MPD1    C1 3204   0.870   1.909  16.060  0.2388  0.5512  0.2305
  211MPD1    C2 3205   0.745   1.890  16.109 -0.1182  0.2770 -0.7394
  211MPD1    C3 3206   0.707   1.783  16.191  0.8369 -0.2773  0.2975
  211MPD1    C4 3207   0.808   1.689  16.223  0.7715 -0.2243  0.0756
  211MPD1    C5 3208   0.935   1.711  16.182  0.2059  0.3860  0.3214
  211MPD1     H 3209   0.668   1.965  16.089 -0.1370  0.2593 -0.7331
  211MPD1    H1 3210   0.798   1.602  16.286  2.6430 -0.1083  0.5344
  211MPD1    H2 3211   1.070   1.828  16.084 -0.1784 -0.2591  1.0914
  211MPD1    H3 3212   1.015   1.649  16.219 -0.0026 -0.2976 -0.3500
  211MPD1     N 3213   0.569   1.780  16.225 -0.5495  0.3537 -0.4406
  211MPD1    H5 3214   0.512   1.861  16.203 -0.5170  0.3281 -0.6217
  211MPD1    N1 3215   0.908   2.027  16.003  0.2619 -0.0505  0.1526
  211MPD1    H6 3216   0.834   2.071  15.948  1.2349  0.1826 -0.9638
  211MPD1    H7 3217   0.998   2.031  15.956 -0.7100  0.2188 -1.6757
  212MPD1     C 3218   3.993   0.424  16.248  0.2278 -0.3207  0.1645
  212MPD1    C1 3219   3.878   0.437  16.322  0.3647 -1.2319  0.0091
  212MPD1    C2 3220   3.838   0.346  16.418  0.1075 -0.1983  0.0249
  212MPD1    C3 3221   3.926   0.248  16.452  0.1524  0.8196  0.1019
  212MPD1    C4 3222   4.046   0.234  16.381 -0.2521 -0.1752  0.1550
  212MPD1    C5 3223   4.076   0.323  16.285 -0.1474  0.3035  0.3204
  212MPD1     H 3224   3.744   0.350  16.472  1.8407  0.1261  3.0712
  212MPD1    H1 3225   4.117   0.156  16.406 -1.8846 -1.6461  0.1596
  212MPD1    H2 3226   4.032   0.488  16.170  0.8356  0.9793  1.5266
  212MPD1    H3 3227   4.166   0.308  16.227  0.3591 -1.4221  1.5361
  212MPD1     N 3228   3.897   0.153  16.549 -0.5471 -0.2854 -0.8757
  212MPD1    H5 3229   3.965   0.081  16.572  1.5664  1.7651 -0.7227
  212MPD1    N1 3230   3.802   0.547  16.278 -0.2990 -0.3947  0.6244
  212MPD1    H6 3231   3.859   0.628  16.254 -1.7423  0.4775  0.1078
  212MPD1    H7 3232   3.739   0.574  16.353  0.1481 -0.9961  1.2097
  213MPD1     C 3233   2.400   1.129  15.624  0.0968 -0.5344  0.4263
  213MPD1    C1 3234   2.479   1.109  15.517  0.1010 -0.2458  0.4007
  213MPD1    C2 3235   2.422   1.055  15.404  0.9586  0.0965  0.3479
  213MPD1    C3 3236   2.281   1.051  15.395 -0.7909  0.5026 -0.3930
  213MPD1    C4 3237   2.206   1.095  15.502 -0.4839 -0.1398  0.2811
  213MPD1    C5 3238   2.263   1.128  15.619  0.2640 -0.5329  0.5172
  213MPD1     H 3239   2.487   1.021  15.323  1.6947 -1.0145  1.4063
  213MPD1    H1 3240   2.098   1.090  15.498 -0.3532 -1.7455 -1.7221
  213MPD1    H2 3241   2.442   1.161  15.719  1.2859 -0.5886 -0.0820
  213MPD1    H3 3242   2.213   1.150  15.713 -0.1498 -1.6553  0.5583
  213MPD1     N 3243   2.221   1.012  15.273  0.8135  0.0497  0.5768
  213MPD1    H5 3244   2.278   1.004  15.189 -3.0346 -2.2147 -1.8394
  213MPD1    N1 3245   2.616   1.086  15.538 -0.7083  0.1183  0.6176
  213MPD1    H6 3246   2.650   1.142  15.616  1.6545  0.1403 -0.4135
  213MPD1    H7 3247   2.673   1.109  15.456 -0.5631  2.8306  1.4763
  214MPD1     C 3248   1.453   0.422  15.021 -0.3065  0.4983  0.6283
  214MPD1    C1 3249   1.470   0.503  14.907 -0.2575  0.1240  0.2464
  214MPD1    C2 3250   1.559   0.608  14.911 -0.0457  0.1130 -0.2348
  214MPD1    C3 3251   1.642   0.615  15.018 -0.5609  0.1629 -0.8084
  214MPD1    C4 3252   1.634   0.525  15.121 -0.1598  0.1170  1.0313
  214MPD1    C5 3253   1.543   0.424  15.121 -0.2906 -0.4590  0.4782
  214MPD1     H 3254   1.565   0.682  14.832 -0.1549 -0.3323 -0.6614
  214MPD1    H1 3255   1.707   0.523  15.201 -1.2278 -0.2279  1.9916
  214MPD1    H2 3256   1.384   0.338  15.021  3.2159 -2.3901 -2.0847
  214MPD1    H3 3257   1.532   0.356  15.206 -0.1864 -0.7267  0.2795
  214MPD1     N 3258   1.747   0.709  15.022  0.4034 -0.5485  0.0337
  214MPD1    H5 3259   1.804   0.711  15.106 -0.8043 -0.1996  0.8500
  214MPD1    N1 3260   1.377   0.490  14.798 -0.1961  0.1720  0.2646
  214MPD1    H6 3261   1.326   0.402  14.795  0.6191 -0.4320  3.6027
  214MPD1    H7 3262   1.401   0.529  14.707  2.3197  0.1188  0.9053
  215MPD1     C 3263   1.237   1.540  11.005 -0.0978 -0.6735  0.4762
  215MPD1    C1 3264   1.305   1.603  11.109  0.7454  0.2118 -0.5003
  215MPD1    C2 3265   1.391   1.703  11.064  0.0074 -0.8451 -0.3458
  215MPD1    C3 3266   1.397   1.747  10.937  0.9767 -1.0625 -1.2100
  215MPD1    C4 3267   1.327   1.680  10.838  1.0474  0.2687  0.5406
  215MPD1    C5 3268   1.253   1.571  10.866 -0.8498  0.2104 -0.0625
  215MPD1     H 3269   1.452   1.748  11.142  0.1639 -2.2215  0.3277
  215MPD1    H1 3270   1.348   1.705  10.735  2.1264  1.3443  1.0344
  215MPD1    H2 3271   1.182   1.447  11.017 -0.5401 -0.2605  1.6095
  215MPD1    H3 3272   1.201   1.524  10.783  0.1938 -1.8013  0.4436
  215MPD1     N 3273   1.492   1.851  10.917 -0.2367  0.4729 -0.5373
  215MPD1    H5 3274   1.535   1.870  11.007 -1.7797  2.0007 -0.1246
  215MPD1    N1 3275   1.312   1.541  11.232  0.2344 -0.4502  0.4428
  215MPD1    H6 3276   1.358   1.603  11.299 -0.7737  0.9531 -0.1449
  215MPD1    H7 3277   1.229   1.502  11.278  0.5783 -1.7875 -0.0781
  216MPD1     C 3278   3.882   0.594  17.413 -1.3855  0.1609 -0.4021
  216MPD1    C1 3279   3.901   0.521  17.295  0.1619  0.1264 -0.3278
  216MPD1    C2 3280   3.883   0.387  17.314  0.3013 -0.4985  0.8123
  216MPD1    C3 3281   3.832   0.332  17.434  0.0620  0.3163  0.7323
  216MPD1    C4 3282   3.803   0.412  17.547  0.7394 -0.3272 -0.6078
  216MPD1    C5 3283   3.823   0.546  17.524 -0.0535  0.1434  0.2620
  216MPD1     H 3284   3.893   0.323  17.228  0.3457  0.3408  0.1916
  216MPD1    H1 3285   3.761   0.386  17.644 -1.8712  2.5386 -0.9530
  216MPD1    H2 3286   3.898   0.701  17.413 -1.4263  0.1622  1.2527
  216MPD1    H3 3287   3.789   0.606  17.607 -0.3843  0.1249  0.1382
  216MPD1     N 3288   3.814   0.190  17.437  0.3040 -0.4891 -0.1329
  216MPD1    H5 3289   3.838   0.138  17.353  0.1855  1.6521 -1.4908
  216MPD1    N1 3290   3.960   0.572  17.180 -0.3664  0.2052 -0.3151
  216MPD1    H6 3291   3.946   0.514  17.098  1.7964 -0.2182 -0.3923
  216MPD1    H7 3292   3.957   0.672  17.161 -1.1256 -0.0621 -1.5783
  217MPD1     C 3293   3.290   0.590   9.029 -0.3422 -0.4279  0.0722
  217MPD1    C1 3294   3.337   0.626   9.154 -0.2942 -0.0603  0.7488
  217MPD1    C2 3295   3.468   0.675   9.171  0.1240  0.4209  0.5613
  217MPD1    C3 3296   3.558   0.657   9.068 -0.6462  0.5283 -0.4449
  217MPD1    C4 3297   3.517   0.587   8.954 -0.2133 -0.4071  0.0617
  217MPD1    C5 3298   3.388   0.564   8.936  0.5160 -1.0244 -0.0133
  217MPD1     H 3299   3.496   0.712   9.269  2.4118 -2.5881  1.0296
  217MPD1    H1 3300   3.592   0.561   8.880 -2.8156 -1.8244 -2.0919
  217MPD1    H2 3301   3.190   0.567   8.996 -2.0490  1.1660  4.0919
  217MPD1    H3 3302   3.358   0.517   8.843 -1.0132 -0.6306  0.2780
  217MPD1     N 3303   3.690   0.709   9.076  0.3295  0.2458  0.1884
  217MPD1    H5 3304   3.747   0.685   8.996 -0.1157  0.9505 -0.3450
  217MPD1    N1 3305   3.241   0.632   9.256 -0.0430 -0.4862 -0.0817
  217MPD1    H6 3306   3.267   0.641   9.354  1.8854 -0.9131 -0.5492
  217MPD1    H7 3307   3.186   0.547   9.249  0.8241 -1.1209  0.8591
  218MPD1     C 3308   1.386   2.296  12.433  0.6960  0.1901  0.4170
  218MPD1    C1 3309   1.509   2.341  12.391  0.3821 -0.3583 -0.2196
  218MPD1    C2 3310   1.614   2.245  12.394  0.5329 -0.1422 -0.1857
  218MPD1    C3 3311   1.604   2.120  12.458 -0.1024  0.6172  0.0624
  218MPD1    C4 3312   1.475   2.089  12.510  0.0922  0.3010  0.3288
  218MPD1    C5 3313   1.377   2.178  12.497  0.6428  0.3048  0.0072
  218MPD1     H 3314   1.706   2.278  12.349  2.2528 -2.6761  1.4569
  218MPD1    H1 3315   1.453   2.001  12.569  0.9894 -0.3659 -0.3271
  218MPD1    H2 3316   1.299   2.359  12.424  0.1192 -0.8111 -0.9719
  218MPD1    H3 3317   1.285   2.147  12.544 -0.3409  2.8760 -0.1749
  218MPD1     N 3318   1.713   2.022  12.473 -0.4447 -0.4797 -0.4987
  218MPD1    H5 3319   1.803   2.044  12.431  0.1645  0.5860  1.3710
  218MPD1    N1 3320   1.528   2.456  12.313  0.1171 -0.2895  0.4454
  218MPD1    H6 3321   1.621   2.496  12.315  0.7554 -1.7829  0.4990
  218MPD1    H7 3322   1.466   2.532  12.340  0.4832  1.0431 -2.4398
  219MPD1     C 3323   2.395   2.138  12.018  0.5805  0.4974  0.7410
  219MPD1    C1 3324   2.418   2.008  12.051 -0.3269 -0.2064  0.2831
  219MPD1    C2 3325   2.352   1.953  12.165  0.1055  0.4501 -0.0782
  219MPD1    C3 3326   2.243   2.024  12.223 -0.0822 -1.0906  0.6468
  219MPD1    C4 3327   2.215   2.151  12.171 -0.4581 -0.6135 -0.3487
  219MPD1    C5 3328   2.284   2.203  12.066 -0.1913 -0.3853  0.6076
  219MPD1     H 3329   2.378   1.856  12.205 -3.0336 -1.1297 -1.8147
  219MPD1    H1 3330   2.135   2.213  12.210  0.1294 -1.0763  1.6043
  219MPD1    H2 3331   2.458   2.187  11.944 -1.1568 -0.7772 -1.5704
  219MPD1    H3 3332   2.268   2.303  12.027  2.6660 -0.0366  0.3388
  219MPD1     N 3333   2.151   1.976  12.320  0.4289 -0.1777 -0.0200
  219MPD1    H5 3334   2.081   2.041  12.353 -0.3417 -0.7528 -0.5413
  219MPD1    N1 3335   2.539   1.958  11.995  0.1592  0.1930 -0.2578
  219MPD1    H6 3336   2.567   2.010  11.911  0.1178 -0.2176 -0.5255
  219MPD1    H7 3337   2.615   1.969  12.061 -0.3555 -1.3173  0.5872
  220MPD1     C 3338   1.405   2.451   9.079  0.0661 -0.1490 -0.5041
  220MPD1    C1 3339   1.532   2.446   9.141 -0.5240 -0.6688  0.2359
  220MPD1    C2 3340   1.555   2.355   9.236  0.1874 -0.2858  0.3387
  220MPD1    C3 3341   1.450   2.282   9.289 -0.2180  0.3256 -0.2067
  220MPD1    C4 3342   1.324   2.296   9.233  0.2044 -0.1059  0.6632
  220MPD1    C5 3343   1.304   2.373   9.122  0.5377 -0.3487 -0.1818
  220MPD1     H 3344   1.649   2.342   9.289  0.0308 -1.0216  0.4349
  220MPD1    H1 3345   1.241   2.244   9.279  0.4184 -0.4908  0.6102
  220MPD1    H2 3346   1.380   2.520   8.999 -1.2865  0.2822  0.2888
  220MPD1    H3 3347   1.206   2.371   9.077  0.8692 -0.4605 -0.8854
  220MPD1     N 3348   1.482   2.190   9.393  0.1954  0.6190 -0.6727
  220MPD1    H5 3349   1.576   2.196   9.432  0.4441  0.7797 -1.2803
  220MPD1    N1 3350   1.634   2.527   9.087  0.1942 -0.5448 -1.0911
  220MPD1    H6 3351   1.606   2.616   9.046 -0.0289 -0.4948 -0.8261
  220MPD1    H7 3352   1.695   2.557   9.164 -0.6432  0.4171 -0.8061
  221MPD1     C 3353   3.613   0.849  16.103 -0.5313 -0.1041  0.1253
  221MPD1    C1 3354   3.645   0.977  16.140 -0.6474 -0.7788  0.1133
  221MPD1    C2 3355   3.771   1.020  16.122 -0.4796  0.5085 -0.9053
  221MPD1    C3 3356   3.874   0.931  16.085  0.3131  0.2233 -0.3851
  221MPD1    C4 3357   3.841   0.803  16.046  0.4115  0.5111  0.4241
  221MPD1    C5 3358   3.708   0.767  16.053 -0.2309 -0.0577 -0.7281
  221MPD1     H 3359   3.793   1.125  16.140  1.6562 -0.2391  0.8165
  221MPD1    H1 3360   3.908   0.726  16.011 -0.9720 -1.6131  2.5098
  221MPD1    H2 3361   3.512   0.810  16.094 -0.9960  0.9831  0.6774
  221MPD1    H3 3362   3.685   0.667  16.019 -2.2766  0.0032  0.4806
  221MPD1     N 3363   4.008   0.964  16.094 -0.1098 -0.5928 -0.6384
  221MPD1    H5 3364   4.068   0.885  16.073  2.4771  1.2607 -0.1954
  221MPD1    N1 3365   3.535   1.068  16.163  0.0791  0.2400 -0.5722
  221MPD1    H6 3366   3.566   1.154  16.209  0.7387  0.4068 -1.3204
  221MPD1    H7 3367   3.455   1.032  16.214  1.0165 -0.3020  0.5212
  222MPD1     C 3368   0.144   0.932  17.480  0.0008 -0.0639 -0.1474
  222MPD1    C1 3369   0.183   0.807  17.524  0.1810  0.0820 -0.2574
  222MPD1    C2 3370   0.087   0.721  17.573 -0.6931 -0.3324 -0.3520
  222MPD1    C3 3371   4.683   0.753  17.570 -0.1261 -0.0704 -0.0911
  222MPD1    C4 3372   4.646   0.880  17.531  1.2183  0.3757  0.2455
  222MPD1    C5 3373   0.011   0.972  17.492 -0.1316 -0.0391  0.0314
  222MPD1     H 3374   0.122   0.621  17.596 -1.2212 -0.7466 -1.3347
  222MPD1    H1 3375   4.541   0.907  17.536  0.5617 -1.5879 -3.0188
  222MPD1    H2 3376   0.216   1.003  17.439 -0.4280 -0.0985 -0.9388
  222MPD1    H3 3377   4.709   1.072  17.461  0.7057  0.1795 -0.0242
  222MPD1     N 3378   4.574   0.666  17.594  0.6576 -0.3970  0.3332
  222MPD1    H5 3379   4.481   0.706  17.583  1.1173  1.5466  3.3844
  222MPD1    N1 3380   0.314   0.760  17.505  0.1077 -0.5925  0.6659
  222MPD1    H6 3381   0.351   0.691  17.570 -1.4745 -1.4881  0.6162
  222MPD1    H7 3382   0.380   0.821  17.458 -1.7042  0.9769  0.1572
  223MPD1     C 3383   4.173   4.362  17.537 -0.6781 -0.4726  0.5718
  223MPD1    C1 3384   4.088   4.447  17.611 -0.8853  0.7998 -0.4457
  223MPD1    C2 3385   4.101   4.586  17.599 -0.8226 -0.3639  0.4669
  223MPD1    C3 3386   4.210   4.639  17.538  0.9062 -0.0881  0.3972
  223MPD1    C4 3387   4.301   4.556  17.486 -0.0252  0.4521 -0.1257
  223MPD1    C5 3388   4.280   4.421  17.476  0.6467 -0.2285  0.3103
  223MPD1     H 3389   4.030   4.659  17.636  0.0472 -0.6472  2.6986
  223MPD1    H1 3390   4.400   4.590  17.456 -0.0968 -1.4931 -2.5806
  223MPD1    H2 3391   4.164   4.255  17.523 -0.1452 -0.5084  0.5143
  223MPD1    H3 3392   4.350   4.357  17.423 -0.5862 -0.3374 -1.1795
  223MPD1     N 3393   4.232   0.059  17.542 -0.1217 -0.5785 -0.5806
  223MPD1    H5 3394   4.160   0.108  17.594  1.3288  1.0856 -0.1554
  223MPD1    N1 3395   3.969   4.392  17.667 -0.4024  0.3136  0.6888
  223MPD1    H6 3396   3.948   4.432   0.052  0.1720 -0.8319  1.3170
  223MPD1    H7 3397   4.003   4.301  17.696 -1.1551  0.0983  0.8726
  224MPD1     C 3398   3.629   0.998   8.504 -0.0238  0.9975 -0.1216
  224MPD1    C1 3399   3.696   0.889   8.555  0.3080  0.1294 -0.2375
  224MPD1    C2 3400   3.797   0.901   8.649 -0.0360  0.0776  0.1919
  224MPD1    C3 3401   3.835   1.026   8.683  0.1255 -0.1478 -0.4289
  224MPD1    C4 3402   3.769   1.133   8.631 -0.6836  0.2532  0.1383
  224MPD1    C5 3403   3.667   1.122   8.545 -0.0826  0.5243  0.3544
  224MPD1     H 3404   3.846   0.813   8.692 -1.9984 -0.3147  1.6185
  224MPD1    H1 3405   3.803   1.231   8.661  1.2838  0.1544 -1.7900
  224MPD1    H2 3406   3.560   0.982   8.422 -0.8340  3.1521  0.1523
  224MPD1    H3 3407   3.629   1.218   8.511  1.1669  0.5047 -1.1220
  224MPD1     N 3408   3.949   1.047   8.761  0.0251 -0.5589  0.1862
  224MPD1    H5 3409   3.985   1.142   8.768  1.3611 -1.0394 -0.0499
  224MPD1    N1 3410   3.654   0.756   8.515  0.8017  0.1440 -0.3360
  224MPD1    H6 3411   3.640   0.755   8.414  0.5004  1.3386 -0.3136
  224MPD1    H7 3412   3.720   0.685   8.545 -0.6164 -0.6229  0.9597
  225MPD1     C 3413   2.142   2.714  12.224  0.7815  0.4643 -0.1158
  225MPD1    C1 3414   2.128   2.665  12.094  0.2636  0.3916 -0.2302
  225MPD1    C2 3415   2.021   2.712  12.019 -0.5729 -0.3301 -0.2594
  225MPD1    C3 3416   1.942   2.815  12.061  0.6804 -0.2853  0.2874
  225MPD1    C4 3417   1.971   2.878  12.184 -0.0537 -0.6336  0.2741
  225MPD1    C5 3418   2.074   2.826  12.264  0.7002 -0.0011 -0.1901
  225MPD1     H 3419   2.000   2.661  11.926 -0.8193 -0.0012 -0.3883
  225MPD1    H1 3420   1.915   2.967  12.210 -0.9014 -0.8302 -0.8900
  225MPD1    H2 3421   2.226   2.679  12.284  0.0716  0.7219  1.0329
  225MPD1    H3 3422   2.091   2.872  12.361  0.2385 -1.3799  0.5382
  225MPD1     N 3423   1.817   2.864  12.013  0.3151 -0.0911 -0.3329
  225MPD1    H5 3424   1.764   2.926  12.073  2.1103  1.8749 -0.7648
  225MPD1    N1 3425   2.178   2.537  12.067 -0.4900  0.3421 -0.3152
  225MPD1    H6 3426   2.188   2.531  11.966  0.7135 -0.1412 -0.1742
  225MPD1    H7 3427   2.267   2.521  12.114 -0.4329 -1.3726 -0.9747
  226MPD1     C 3428   4.327   3.324   9.336  0.3310  0.5420  0.1638
  226MPD1    C1 3429   4.441   3.295   9.274 -0.7145 -0.0010 -0.2019
  226MPD1    C2 3430   4.481   3.163   9.284 -0.5018  0.2102  0.3210
  226MPD1    C3 3431   4.417   3.062   9.347  0.0345  0.1700 -0.2450
  226MPD1    C4 3432   4.308   3.099   9.424 -1.0574 -0.2027 -0.5707
  226MPD1    C5 3433   4.263   3.225   9.407 -0.2544  0.4185 -0.0099
  226MPD1     H 3434   4.573   3.133   9.236 -0.1110  2.7310 -0.4634
  226MPD1    H1 3435   4.252   3.028   9.484 -0.8792  0.7917  0.7648
  226MPD1    H2 3436   4.287   3.425   9.335  1.0173  0.8135 -0.3247
  226MPD1    H3 3437   4.169   3.247   9.457  0.2597 -0.8854  1.5372
  226MPD1     N 3438   4.461   2.926   9.340 -0.4531  0.1065 -0.4634
  226MPD1    H5 3439   4.556   2.910   9.309 -0.1951  0.5218  0.1111
  226MPD1    N1 3440   4.507   3.392   9.200 -0.2082  0.3230  0.3397
  226MPD1    H6 3441   4.495   3.487   9.234 -2.0496  0.4844 -0.8162
  226MPD1    H7 3442   4.607   3.373   9.205  0.0184  0.9817 -1.3559
  227MPD1     C 3443   0.453   2.561   9.581  0.0068  0.1490 -0.1142
  227MPD1    C1 3444   0.361   2.651   9.626  0.3971  0.9979  0.7175
  227MPD1    C2 3445   0.242   2.658   9.559 -0.3299  0.1896  0.0680
  227MPD1    C3 3446   0.201   2.568   9.457 -0.2665 -0.2769  0.1787
  227MPD1    C4 3447   0.299   2.479   9.411 -0.5478  0.2801 -0.1095
  227MPD1    C5 3448   0.421   2.479   9.473  0.3127 -0.0551  0.2423
  227MPD1     H 3449   0.165   2.716   9.610 -0.0027  1.0019 -0.3491
  227MPD1    H1 3450   0.280   2.415   9.326 -0.1512  1.2404 -0.9120
  227MPD1    H2 3451   0.550   2.563   9.630 -0.4096 -1.2943  0.7755
  227MPD1    H3 3452   0.502   2.415   9.441 -0.1731 -0.5939  0.0915
  227MPD1     N 3453   0.069   2.584   9.407  0.1024 -0.3695 -0.2914
  227MPD1    H5 3454   0.013   2.648   9.463  1.2050  0.5795 -0.3039
  227MPD1    N1 3455   0.397   2.740   9.722 -0.3940  0.4787  0.5765
  227MPD1    H6 3456   0.320   2.787   9.770 -0.7704  1.0754 -0.6204
  227MPD1    H7 3457   0.471   2.707   9.785 -2.3076 -1.3280  1.8922
  228MPD1     C 3458   3.090   0.597  12.138  0.6031  0.1600  0.1268
  228MPD1    C1 3459   2.964   0.656  12.148  0.1209  0.6418  0.2434
  228MPD1    C2 3460   2.899   0.660  12.271  0.5200  0.0376 -0.2030
  228MPD1    C3 3461   2.955   0.596  12.382  0.2495 -0.2915  1.2362
  228MPD1    C4 3462   3.081   0.536  12.376  0.3939  0.5416 -0.4239
  228MPD1    C5 3463   3.152   0.540  12.251  0.0734 -0.0628  0.4308
  228MPD1     H 3464   2.813   0.726  12.274  0.8009  0.4054 -0.3313
  228MPD1    H1 3465   3.119   0.494  12.468 -1.8050 -0.5444 -0.0046
  228MPD1    H2 3466   3.137   0.569  12.045 -0.4043 -0.1407 -0.2810
  228MPD1    H3 3467   3.253   0.500  12.245  0.9715  2.0677  1.4638
  228MPD1     N 3468   2.887   0.626  12.500 -0.2812 -0.3283 -0.2244
  228MPD1    H5 3469   2.801   0.680  12.499  0.3031  0.5544 -2.6727
  228MPD1    N1 3470   2.902   0.712  12.034  0.0846 -0.2966 -0.2509
  228MPD1    H6 3471   2.923   0.666  11.945 -1.4033  0.7193 -1.1158
  228MPD1    H7 3472   2.802   0.725  12.045 -0.0509  0.9277 -2.9923
  229MPD1     C 3473   2.429   3.972  15.218  0.0612 -0.0898 -0.2398
  229MPD1    C1 3474   2.536   4.054  15.235 -0.4273  0.2795 -0.2217
  229MPD1    C2 3475   2.660   3.999  15.252 -0.2587 -0.7512  0.2665
  229MPD1    C3 3476   2.681   3.858  15.254  0.4805  0.5962  0.0510
  229MPD1    C4 3477   2.578   3.781  15.225 -0.0162 -0.6372 -0.1567
  229MPD1    C5 3478   2.457   3.837  15.199 -0.0918  0.1754  0.6280
  229MPD1     H 3479   2.749   4.060  15.264 -1.6574  0.8321  2.6067
  229MPD1    H1 3480   2.591   3.674  15.236 -0.6613 -0.6313  0.7017
  229MPD1    H2 3481   2.326   4.004  15.211  0.3937  0.9827 -0.1568
  229MPD1    H3 3482   2.365   3.783  15.179 -0.6952  2.0252 -1.5008
  229MPD1     N 3483   2.802   3.787  15.278  0.3316  0.0061  0.0512
  229MPD1    H5 3484   2.800   3.686  15.265  1.3743 -0.0759  0.4992
  229MPD1    N1 3485   2.509   4.187  15.267 -0.1206  0.0882 -0.2668
  229MPD1    H6 3486   2.422   4.215  15.222 -0.4903 -2.3650 -1.1032
  229MPD1    H7 3487   2.577   4.258  15.242 -1.8445  1.4522 -1.0095
  230MPD1     C 3488   3.769   3.599  15.766 -0.7265 -0.0804 -0.0986
  230MPD1    C1 3489   3.780   3.599  15.626  0.7688 -0.5767 -0.1158
  230MPD1    C2 3490   3.665   3.624  15.550  0.2521  0.2452  0.0113
  230MPD1    C3 3491   3.547   3.666  15.615  0.1927  0.2539 -0.6812
  230MPD1    C4 3492   3.547   3.680  15.757 -0.8847  0.3897  0.4608
  230MPD1    C5 3493   3.660   3.648  15.827  0.4543  0.1058  0.3532
  230MPD1     H 3494   3.667   3.632  15.442  0.2211 -0.6159 -0.0579
  230MPD1    H1 3495   3.456   3.709  15.808 -1.6975 -4.4316  1.6966
  230MPD1    H2 3496   3.859   3.583  15.823 -1.0690 -3.5303 -0.5616
  230MPD1    H3 3497   3.666   3.651  15.936  0.4372  1.0236  0.3236
  230MPD1     N 3498   3.439   3.679  15.523  0.1957 -0.4161 -0.4615
  230MPD1    H5 3499   3.462   3.654  15.427  2.1887 -0.8196  0.1322
  230MPD1    N1 3500   3.899   3.554  15.559  0.3166 -0.4356  0.1605
  230MPD1    H6 3501   3.983   3.566  15.615  0.7749  1.9406 -1.0481
  230MPD1    H7 3502   3.912   3.606  15.473 -2.0529 -0.1757 -0.0512
  231MPD1     C 3503   0.816   0.782  15.418  0.7371 -0.7990  0.1683
  231MPD1    C1 3504   0.831   0.730  15.291  0.2596  0.1639 -1.1271
  231MPD1    C2 3505   0.950   0.761  15.218  0.7451 -0.4568  0.2134
  231MPD1    C3 3506   1.036   0.863  15.262  0.2676 -0.1483 -0.2747
  231MPD1    C4 3507   1.007   0.924  15.381  0.1704  0.2821  0.3582
  231MPD1    C5 3508   0.895   0.885  15.461  0.1665 -0.3950  0.6042
  231MPD1     H 3509   0.964   0.721  15.118  1.4359  2.1949 -0.7559
  231MPD1    H1 3510   1.060   1.013  15.416 -0.6514  1.2276 -0.8123
  231MPD1    H2 3511   0.736   0.752  15.485  0.3334  1.3448  0.6483
  231MPD1    H3 3512   0.878   0.933  15.557  2.1088 -1.1744  1.3372
  231MPD1     N 3513   1.141   0.903  15.185  0.2091 -0.2649  0.6318
  231MPD1    H5 3514   1.144   0.863  15.091 -0.5860 -0.4645  0.6906
  231MPD1    N1 3515   0.758   0.613  15.259 -0.0939  0.2355  0.2872
  231MPD1    H6 3516   0.757   0.600  15.158 -0.4285 -2.5773  0.6493
  231MPD1    H7 3517   0.660   0.619  15.286 -0.4220 -0.8185 -0.6841
  232MPD1     C 3518   4.094   3.906   0.471 -0.1325  0.1313  0.0848
  232MPD1    C1 3519   3.975   3.972   0.483  0.1285  0.3974 -0.2268
  232MPD1    C2 3520   3.868   3.898   0.536  0.3575  0.4402  0.0842
  232MPD1    C3 3521   3.872   3.760   0.552 -0.1146  0.4406  0.2568
  232MPD1    C4 3522   3.988   3.701   0.523  0.6020  0.5505  0.0954
  232MPD1    C5 3523   4.100   3.773   0.492  0.4094  0.0921 -0.1954
  232MPD1     H 3524   3.770   3.941   0.555  0.8041  0.5291  2.1410
  232MPD1    H1 3525   3.999   3.593   0.522  1.6386  0.6716 -1.4531
  232MPD1    H2 3526   4.183   3.962   0.445  0.4772 -0.9797 -0.2602
  232MPD1    H3 3527   4.195   3.725   0.471  0.5723  1.0469 -1.6237
  232MPD1     N 3528   3.763   3.691   0.603  0.7162 -0.2010 -0.2264
  232MPD1    H5 3529   3.682   3.752   0.613  0.5575 -0.7661  2.0106
  232MPD1    N1 3530   3.980   4.112   0.477  0.0611  0.0252  0.3463
  232MPD1    H6 3531   3.893   4.156   0.447 -0.8905 -1.3037  1.1369
  232MPD1    H7 3532   4.047   4.138   0.405  0.1063 -0.2285  0.2959
  233MPD1     C 3533   1.215   2.245   2.175 -0.3814 -0.2323  0.0866
  233MPD1    C1 3534   1.249   2.135   2.251  0.4252  0.4897 -0.2834
  233MPD1    C2 3535   1.224   2.012   2.202  0.2715  0.5961 -0.1068
  233MPD1    C3 3536   1.173   1.999   2.072 -0.6805 -0.0017 -0.2517
  233MPD1    C4 3537   1.174   2.112   1.991  0.5846  0.3551  0.7662
  233MPD1    C5 3538   1.190   2.234   2.042 -0.0305  0.0451  0.7042
  233MPD1     H 3539   1.242   1.927   2.267  2.1900  1.3166  0.3211
  233MPD1    H1 3540   1.136   2.100   1.890  0.9131  1.3977  0.5234
  233MPD1    H2 3541   1.211   2.337   2.232  1.4501 -0.9509  1.3742
  233MPD1    H3 3542   1.167   2.325   1.989  0.4234 -0.2831 -0.0625
  233MPD1     N 3543   1.118   1.879   2.019  0.9657  0.4612 -0.2430
  233MPD1    H5 3544   1.060   1.876   1.936 -1.4778 -0.6796  1.5026
  233MPD1    N1 3545   1.275   2.153   2.389  0.0282  0.0275  0.4395
  233MPD1    H6 3546   1.325   2.241   2.404  0.6310 -0.4053  0.9343
  233MPD1    H7 3547   1.329   2.073   2.420 -0.7661 -1.3396 -1.7598
  234MPD1     C 3548   0.350   4.382   9.363 -0.6421  0.7795 -0.0070
  234MPD1    C1 3549   0.412   4.504   9.387  0.3140 -0.4819  0.6089
  234MPD1    C2 3550   0.360   4.619   9.329  0.4173  0.3720 -0.6341
  234MPD1    C3 3551   0.275   4.613   9.224  0.1422 -0.2804 -0.4043
  234MPD1    C4 3552   0.227   4.483   9.185 -0.4316 -0.0057  0.0217
  234MPD1    C5 3553   0.266   4.378   9.256  0.0716 -0.3653 -0.0644
  234MPD1     H 3554   0.400   4.714   9.360  2.2180 -1.2560  2.0244
  234MPD1    H1 3555   0.161   4.461   9.102  0.1211  0.2154 -0.4827
  234MPD1    H2 3556   0.372   4.295   9.423  1.2135  1.2382 -0.0313
  234MPD1    H3 3557   0.224   4.281   9.234  1.7287 -0.9902 -0.5415
  234MPD1     N 3558   0.243   0.008   9.160  0.1860  0.4693  0.2483
  234MPD1    H5 3559   0.277   0.096   9.197  0.3131 -0.1843  1.7031
  234MPD1    N1 3560   0.484   4.516   9.505 -0.3150 -0.3647  1.0485
  234MPD1    H6 3561   0.552   4.440   9.508  4.0782  3.5834  0.8379
  234MPD1    H7 3562   0.538   4.601   9.496  1.4911 -1.5549  0.6583
  235MPD1     C 3563   2.111   2.354   9.664  0.6481  0.1358 -0.3839
  235MPD1    C1 3564   2.055   2.469   9.691  0.1221  0.1329  0.3709
  235MPD1    C2 3565   2.138   2.579   9.708 -0.5246  0.3942 -0.8826
  235MPD1    C3 3566   2.276   2.568   9.686 -0.6070  0.1957 -0.1827
  235MPD1    C4 3567   2.332   2.444   9.652  1.0481  0.4455  0.7652
  235MPD1    C5 3568   2.246   2.339   9.651  0.0764 -1.1503 -0.3343
  235MPD1     H 3569   2.100   2.673   9.746  0.0159 -0.4413  1.7224
  235MPD1    H1 3570   2.438   2.424   9.651  0.8208 -0.7820  1.2740
  235MPD1    H2 3571   2.059   2.261   9.648  0.1829 -0.0146  1.9169
  235MPD1    H3 3572   2.283   2.239   9.632 -0.5280 -2.0075  2.9778
  235MPD1     N 3573   2.352   2.679   9.706  0.0483  0.2293  0.1279
  235MPD1    H5 3574   2.297   2.760   9.733  1.8144  2.0033 -1.5219
  235MPD1    N1 3575   1.923   2.474   9.741 -0.1312 -0.4055 -0.6172
  235MPD1    H6 3576   1.920   2.501   9.839 -1.4235 -1.7536 -0.2810
  235MPD1    H7 3577   1.887   2.379   9.748  0.9776 -0.8163 -0.4174
  236MPD1     C 3578   2.545   4.066  10.672  0.3252 -0.1603  1.0005
  236MPD1    C1 3579   2.651   3.978  10.668 -0.1707 -0.4855 -1.1639
  236MPD1    C2 3580   2.634   3.852  10.613  0.1594 -0.1252  0.3595
  236MPD1    C3 3581   2.510   3.797  10.602 -0.6103  0.1450 -0.4683
  236MPD1    C4 3582   2.403   3.875  10.635 -0.3593 -0.6188  0.1742
  236MPD1    C5 3583   2.421   4.012  10.654 -0.0004  0.2997  0.1055
  236MPD1     H 3584   2.726   3.802  10.584 -0.0955 -0.4377  0.0757
  236MPD1    H1 3585   2.303   3.840  10.614 -0.5211 -0.1155  0.0921
  236MPD1    H2 3586   2.556   4.169  10.703  0.6367 -0.5602  2.1983
  236MPD1    H3 3587   2.338   4.080  10.667 -1.7200 -1.7771  0.0232
  236MPD1     N 3588   2.495   3.662  10.560  0.2084 -0.1501  0.3201
  236MPD1    H5 3589   2.397   3.635  10.559 -0.2148  1.3526  0.9544
  236MPD1    N1 3590   2.776   4.038  10.691 -0.2054  0.0583  0.5480
  236MPD1    H6 3591   2.780   4.110  10.762 -0.6992 -1.5098  2.1677
  236MPD1    H7 3592   2.849   3.977  10.727 -0.3036  0.0059  0.6584
  237MPD1     C 3593   1.964   3.185  15.204  0.1894  0.0857 -0.9566
  237MPD1    C1 3594   1.992   3.090  15.299  0.3190  0.1474 -0.5329
  237MPD1    C2 3595   1.937   2.965  15.294 -0.5074 -0.1751 -0.3790
  237MPD1    C3 3596   1.840   2.927  15.204  0.4371 -0.0361  0.4662
  237MPD1    C4 3597   1.804   3.025  15.109  1.1989 -0.1721 -0.0382
  237MPD1    C5 3598   1.872   3.150  15.105 -0.0616  0.1788  0.0591
  237MPD1     H 3599   1.975   2.892  15.364 -0.9862  1.0046  1.1025
  237MPD1    H1 3600   1.733   2.991  15.036 -0.5310 -0.7742  1.9233
  237MPD1    H2 3601   2.006   3.285  15.212 -0.3239  0.2111  0.3174
  237MPD1    H3 3602   1.839   3.228  15.037  0.2197 -0.5312 -0.8910
  237MPD1     N 3603   1.778   2.803  15.197 -0.1537  0.3651 -0.2651
  237MPD1    H5 3604   1.716   2.787  15.118 -1.6488  3.6115  0.2493
  237MPD1    N1 3605   2.096   3.108  15.395  0.0647  0.2544 -0.1783
  237MPD1    H6 3606   2.091   3.203  15.432 -3.7980 -1.0596  2.6980
  237MPD1    H7 3607   2.084   3.050  15.478  2.2970  0.1660  0.0906
  238MPD1     C 3608   3.672   1.126  14.512  0.4089 -0.2426 -0.2584
  238MPD1    C1 3609   3.723   0.999  14.494 -0.3011 -0.3629  0.2465
  238MPD1    C2 3610   3.635   0.893  14.492 -1.2047 -0.8477 -1.0602
  238MPD1    C3 3611   3.503   0.908  14.510  0.1394  1.1027 -0.0743
  238MPD1    C4 3612   3.455   1.034  14.543 -0.1033  0.3532  0.1014
  238MPD1    C5 3613   3.540   1.136  14.539  0.0828 -0.6754  0.4117
  238MPD1     H 3614   3.685   0.797  14.494  0.1565 -0.1083  0.2060
  238MPD1    H1 3615   3.353   1.056  14.573  0.3000  2.8208 -0.4112
  238MPD1    H2 3616   3.734   1.215  14.517  1.8887 -1.3151  0.7949
  238MPD1    H3 3617   3.487   1.231  14.542  1.9371  0.3227  1.5591
  238MPD1     N 3618   3.411   0.800  14.499 -0.2998  0.2303  0.1542
  238MPD1    H5 3619   3.319   0.822  14.536  0.1430 -1.9224  2.5025
  238MPD1    N1 3620   3.862   0.978  14.500 -0.8279  0.1575 -0.1272
  238MPD1    H6 3621   3.922   1.049  14.459 -3.2110  2.5670  0.5596
  238MPD1    H7 3622   3.892   0.898  14.446  2.0910  1.3628 -0.2871
  239MPD1     C 3623   3.792   1.366  14.722 -0.3351  0.1706 -0.1554
  239MPD1    C1 3624   3.916   1.423  14.684 -0.0831  0.5169 -0.9574
  239MPD1    C2 3625   3.909   1.531  14.590 -0.2249  0.5931 -0.3084
  239MPD1    C3 3626   3.789   1.582  14.564 -0.1945 -0.2416  0.7226
  239MPD1    C4 3627   3.668   1.540  14.619  0.5379 -0.3420 -0.7834
  239MPD1    C5 3628   3.675   1.425  14.692  0.1846  0.5977 -0.8356
  239MPD1     H 3629   4.003   1.566  14.549  1.7814 -3.0917  1.1739
  239MPD1    H1 3630   3.573   1.590  14.605  0.3281 -1.5572 -3.7009
  239MPD1    H2 3631   3.789   1.282  14.791  0.5377  0.5278  0.3218
  239MPD1    H3 3632   3.591   1.394  14.753  2.2521  0.5824  2.0255
  239MPD1     N 3633   3.771   1.688  14.471 -0.1829 -0.7971  0.2346
  239MPD1    H5 3634   3.674   1.715  14.456  0.0078  0.2567  0.9378
  239MPD1    N1 3635   4.031   1.353  14.707 -0.1253 -0.3614  0.0991
  239MPD1    H6 3636   4.119   1.405  14.710 -0.1615 -0.3177  0.4599
  239MPD1    H7 3637   4.021   1.291  14.787  1.1117 -1.0952 -0.3237
  240MPD1     C 3638   3.129   0.835  13.395  0.1866  0.0499 -0.4490
  240MPD1    C1 3639   3.014   0.790  13.453 -0.3273 -0.1062 -0.3340
  240MPD1    C2 3640   2.984   0.823  13.584  0.0628  0.7097  0.0583
  240MPD1    C3 3641   3.072   0.909  13.654 -0.3450  0.2014 -0.1037
  240MPD1    C4 3642   3.184   0.962  13.592  0.1021 -0.3194  0.1249
  240MPD1    C5 3643   3.205   0.929  13.459  0.3980 -0.0065 -0.1484
  240MPD1     H 3644   2.896   0.788  13.637  0.6043 -2.2358 -0.9452
  240MPD1    H1 3645   3.252   1.034  13.637  0.6023 -0.4263 -0.4514
  240MPD1    H2 3646   3.154   0.804  13.295  0.4274  3.1865 -1.3544
  240MPD1    H3 3647   3.299   0.961  13.416 -0.9366  0.0797 -3.0189
  240MPD1     N 3648   3.062   0.946  13.788 -0.0150  0.2195  0.3899
  240MPD1    H5 3649   3.129   1.010  13.829 -0.3514  1.5118 -1.0561
  240MPD1    N1 3650   2.946   0.691  13.386  0.2596 -0.2478 -0.2053
  240MPD1    H6 3651   2.845   0.683  13.396  0.4033  1.4373  2.4390
  240MPD1    H7 3652   2.968   0.708  13.288 -0.4607  0.3331 -0.2680
  241MPD1     C 3653   3.127   1.748  14.328 -0.8780 -0.0558  0.3507
  241MPD1    C1 3654   3.210   1.680  14.242 -0.7170  0.5694  0.3763
  241MPD1    C2 3655   3.180   1.549  14.208 -0.0772 -0.3934 -0.0194
  241MPD1    C3 3656   3.054   1.501  14.233  0.4136  0.4397  0.0351
  241MPD1    C4 3657   2.963   1.576  14.308 -0.2128  0.2305  0.1587
  241MPD1    C5 3658   2.999   1.699  14.359 -0.4894  0.6025  0.4789
  241MPD1     H 3659   3.252   1.485  14.158  1.1180  1.5427 -0.7455
  241MPD1    H1 3660   2.877   1.527  14.352  0.2824 -0.0818  0.7857
  241MPD1    H2 3661   3.149   1.851  14.355 -1.5639  0.6336 -1.7303
  241MPD1    H3 3662   2.928   1.753  14.420  0.3890  0.5135  1.5866
  241MPD1     N 3663   3.005   1.374  14.188 -0.8396  0.4906  0.6959
  241MPD1    H5 3664   2.910   1.341  14.205  0.2472 -1.6208  2.6723
  241MPD1    N1 3665   3.324   1.744  14.201  0.7328  0.7201  0.7715
  241MPD1    H6 3666   3.313   1.845  14.191  0.3606  0.4846 -1.3497
  241MPD1    H7 3667   3.363   1.711  14.113 -0.3458  0.8308  0.2478
  242MPD1     C 3668   2.358   0.415  15.480  0.3170  0.6484  0.6738
  242MPD1    C1 3669   2.309   0.442  15.349  0.4854 -0.0062  0.6625
  242MPD1    C2 3670   2.321   0.337  15.255 -0.3660  0.8326  0.1917
  242MPD1    C3 3671   2.354   0.211  15.291  0.0040 -0.5596 -0.7496
  242MPD1    C4 3672   2.402   0.191  15.416 -0.2819 -0.3224 -0.2664
  242MPD1    C5 3673   2.412   0.297  15.504  0.0305 -0.8061 -0.3689
  242MPD1     H 3674   2.294   0.364  15.153 -1.7944 -1.2406  0.0214
  242MPD1    H1 3675   2.448   0.098  15.447  1.3666  0.5166 -0.1815
  242MPD1    H2 3676   2.359   0.484  15.564  2.4992 -0.3735  1.4863
  242MPD1    H3 3677   2.445   0.275  15.605 -2.9213  0.3846  0.8456
  242MPD1     N 3678   2.369   0.104  15.197 -0.5397 -0.0006  0.1928
  242MPD1    H5 3679   2.400   0.012  15.223  0.1869  0.3647  0.5928
  242MPD1    N1 3680   2.274   0.572  15.312  0.0562  0.0339 -0.3822
  242MPD1    H6 3681   2.221   0.583  15.226  0.2143 -1.2275 -0.6501
  242MPD1    H7 3682   2.217   0.615  15.384  1.3553  0.6477  0.2738
  243MPD1     C 3683   3.353   3.269   0.259 -0.6573 -0.2878 -0.9577
  243MPD1    C1 3684   3.383   3.144   0.217  0.0497  0.5211 -0.6392
  243MPD1    C2 3685   3.503   3.135   0.148 -0.2009 -0.0075 -0.1958
  243MPD1    C3 3686   3.577   3.247   0.115 -0.7813 -0.5194  0.3236
  243MPD1    C4 3687   3.530   3.375   0.149  0.0426 -0.1316  0.2890
  243MPD1    C5 3688   3.414   3.387   0.221 -0.2462 -0.0595  0.5983
  243MPD1     H 3689   3.528   3.039   0.103 -0.8643 -0.8799  1.3153
  243MPD1    H1 3690   3.580   3.466   0.117 -0.5887 -0.1349 -0.6919
  243MPD1    H2 3691   3.263   3.274   0.319 -0.7955 -0.7940 -1.1171
  243MPD1    H3 3692   3.372   3.481   0.255 -1.9522 -0.7242  0.3231
  243MPD1     N 3693   3.701   3.231   0.045 -0.1903 -0.0894 -0.2037
  243MPD1    H5 3694   3.720   3.135   0.018  2.6069  0.3258  0.3152
  243MPD1    N1 3695   3.309   3.032   0.270  0.0237 -0.6628 -0.1792
  243MPD1    H6 3696   3.214   3.064   0.286  0.6310  1.0321  0.0196
  243MPD1    H7 3697   3.319   2.959   0.200 -0.6058  0.9844 -1.9689
  244MPD1     C 3698   3.952   2.460  17.563  0.3522 -0.2880  0.0439
  244MPD1    C1 3699   3.921   2.528  17.677  0.5848 -0.5167  0.3033
  244MPD1    C2 3700   3.940   2.664  17.672  0.1471 -0.0868 -0.4093
  244MPD1    C3 3701   3.950   2.732  17.550  0.1594 -0.0595 -0.4141
  244MPD1    C4 3702   3.962   2.664  17.432 -0.3530  0.2305 -0.4891
  244MPD1    C5 3703   3.968   2.526  17.444  0.9445 -0.1062  0.2178
  244MPD1     H 3704   3.944   2.729   0.053 -0.0756 -1.5372  0.6867
  244MPD1    H1 3705   3.968   2.721  17.340  0.2836  1.9494  0.6083
  244MPD1    H2 3706   3.926   2.354  17.558  2.8840 -0.9968  2.2162
  244MPD1    H3 3707   3.999   2.465  17.360  1.5201 -2.8701  2.4639
  244MPD1     N 3708   3.937   2.875  17.557 -0.3303  0.8589 -0.0019
  244MPD1    H5 3709   3.917   2.918  17.647 -0.8459  1.1025 -0.2297
  244MPD1    N1 3710   3.918   2.469   0.096  0.7861 -0.0888  0.0457
  244MPD1    H6 3711   3.859   2.523   0.159 -0.1957 -1.5760  0.3910
  244MPD1    H7 3712   3.888   2.372   0.096 -0.1496  0.2079 -0.8884
  245MPD1     C 3713   1.218   3.314  13.008  0.8329 -0.5606  0.1376
  245MPD1    C1 3714   1.135   3.421  13.010 -0.3599 -0.5397  0.3496
  245MPD1    C2 3715   1.182   3.547  13.034  0.4658 -0.3077  0.3800
  245MPD1    C3 3716   1.319   3.573  13.060  0.5156 -0.6540  0.0401
  245MPD1    C4 3717   1.403   3.458  13.065 -0.1111  0.6719 -0.0841
  245MPD1    C5 3718   1.353   3.336  13.038 -0.3142 -0.1339  0.2491
  245MPD1     H 3719   1.102   3.619  13.040 -0.3991 -1.1782 -0.7700
  245MPD1    H1 3720   1.510   3.458  13.084  0.0479 -1.9323 -0.9985
  245MPD1    H2 3721   1.182   3.215  12.984 -0.8828  0.3282 -0.9683
  245MPD1    H3 3722   1.420   3.251  13.033  0.2326  0.3925 -1.2567
  245MPD1     N 3723   1.362   3.699  13.091  0.7048 -0.0105 -0.0483
  245MPD1    H5 3724   1.291   3.772  13.091 -2.1615 -2.7715  1.9268
  245MPD1    N1 3725   1.002   3.403  12.982 -0.3886  0.0575 -0.5193
  245MPD1    H6 3726   0.951   3.450  13.056 -0.0088 -1.7251  0.8604
  245MPD1    H7 3727   0.971   3.307  12.997 -0.9776  0.8297  3.0852
  246MPD1     C 3728   3.016   2.952   9.225 -0.4600  0.5082 -0.4746
  246MPD1    C1 3729   2.967   2.835   9.279  0.5781  1.0676 -0.1491
  246MPD1    C2 3730   2.837   2.833   9.320 -0.1802  0.0392  0.0123
  246MPD1    C3 3731   2.749   2.926   9.280 -0.1441 -0.3618 -0.2025
  246MPD1    C4 3732   2.793   3.039   9.221  0.3833 -0.4299  0.0345
  246MPD1    C5 3733   2.930   3.056   9.214 -0.5877 -0.0121  0.3117
  246MPD1     H 3734   2.801   2.747   9.375  2.5197  0.3749  2.3146
  246MPD1    H1 3735   2.725   3.121   9.197 -0.1104 -0.8793 -0.0943
  246MPD1    H2 3736   3.116   2.970   9.188 -0.8022  1.5234 -0.9080
  246MPD1    H3 3737   2.970   3.143   9.164 -0.5934 -0.0304  0.2751
  246MPD1     N 3738   2.618   2.907   9.324  0.1676 -0.6656  0.2055
  246MPD1    H5 3739   2.584   2.818   9.361  0.3422 -1.3665 -1.2986
  246MPD1    N1 3740   3.055   2.736   9.308 -0.2600 -0.7197  0.2547
  246MPD1    H6 3741   3.117   2.712   9.231  0.2642  1.0297  0.1354
  246MPD1    H7 3742   3.010   2.645   9.320 -2.5252  0.2691 -0.6516
  247MPD1     C 3743   0.047   4.623  16.613  0.4012 -0.1193  0.3253
  247MPD1    C1 3744   0.080   4.548  16.507  0.1161  0.1837 -0.5285
  247MPD1    C2 3745   0.144   4.422  16.522  0.4141  0.1327  0.1014
  247MPD1    C3 3746   0.178   4.373  16.645 -0.3858  0.6532 -0.4344
  247MPD1    C4 3747   0.146   4.455  16.754 -1.4105 -0.4870  0.1761
  247MPD1    C5 3748   0.080   4.572  16.740  0.6737  0.4408  0.1176
  247MPD1     H 3749   0.170   4.361  16.435 -2.3304  0.9183 -1.2470
  247MPD1    H1 3750   0.165   4.430  16.857  1.9777  1.1176 -0.0478
  247MPD1    H2 3751   0.001   4.721  16.606  2.4013  0.9175  1.5288
  247MPD1    H3 3752   0.041   4.629  16.823 -1.8192  0.2255 -0.8861
  247MPD1     N 3753   0.234   4.247  16.666  0.2515 -0.1670  0.8823
  247MPD1    H5 3754   0.237   4.218  16.764  1.3382 -1.9671  0.3239
  247MPD1    N1 3755   0.050   4.593  16.381  0.0365  0.5641 -0.1535
  247MPD1    H6 3756   0.130   4.560  16.328  0.9285 -1.2544  2.2900
  247MPD1    H7 3757   0.055   4.694  16.377  1.0774  0.5404  0.4901
  248MPD1     C 3758   2.014   3.115  17.411 -0.0126  0.4966  0.0066
  248MPD1    C1 3759   1.981   3.243  17.374  0.4305  0.6116  0.2339
  248MPD1    C2 3760   1.849   3.284  17.409  0.2691 -0.5007 -0.1525
  248MPD1    C3 3761   1.758   3.215  17.487  0.1099  0.5866  0.6241
  248MPD1    C4 3762   1.803   3.090  17.539 -0.7120  0.1241  0.3103
  248MPD1    C5 3763   1.926   3.045  17.497 -0.8031 -0.5413  1.0504
  248MPD1     H 3764   1.822   3.382  17.372 -1.6709 -0.6152  0.9525
  248MPD1    H1 3765   1.739   3.031  17.604  0.8396 -0.1391  1.5873
  248MPD1    H2 3766   2.101   3.059  17.376  0.0277  0.4850  0.1233
  248MPD1    H3 3767   1.944   2.942  17.527 -0.9643 -0.5336  1.1700
  248MPD1     N 3768   1.641   3.272  17.537  0.0686  0.0787  0.3767
  248MPD1    H5 3769   1.624   3.371  17.522 -0.1928 -0.1018 -0.5226
  248MPD1    N1 3770   2.049   3.312  17.271  0.2823 -0.5462  0.3096
  248MPD1    H6 3771   2.030   3.412  17.273 -1.8677 -0.9757  0.9270
  248MPD1    H7 3772   2.149   3.309  17.289  0.0741 -0.3841  1.4833
  249MPD1     C 3773   2.373   1.433  11.013 -0.4206 -0.6353  0.0168
  249MPD1    C1 3774   2.359   1.526  10.918  0.1640 -0.0813 -0.3308
  249MPD1    C2 3775   2.259   1.509  10.819 -0.5571 -0.1064 -0.4653
  249MPD1    C3 3776   2.162   1.412  10.827  0.3390  0.3259 -0.4056
  249MPD1    C4 3777   2.170   1.333  10.936 -0.2088  0.5252  0.0557
  249MPD1    C5 3778   2.269   1.344  11.028 -0.3192  0.3552 -0.0545
  249MPD1     H 3779   2.249   1.586  10.744 -0.1784 -0.5294 -0.9486
  249MPD1    H1 3780   2.090   1.267  10.965  0.8048 -0.7515 -0.0416
  249MPD1    H2 3781   2.456   1.432  11.083  0.6447  2.1568 -1.2026
  249MPD1    H3 3782   2.267   1.285  11.119 -0.1899  0.0532 -0.2478
  249MPD1     N 3783   2.060   1.407  10.728  0.1673 -0.2058 -0.7832
  249MPD1    H5 3784   2.065   1.463  10.643  1.3376  1.2867  0.2702
  249MPD1    N1 3785   2.462   1.618  10.898 -0.1093  0.3598  0.8597
  249MPD1    H6 3786   2.419   1.700  10.858 -3.1694 -1.7191 -0.0700
  249MPD1    H7 3787   2.519   1.630  10.982 -0.3665  0.0395  1.0831
  250MPD2     C 3788   4.519   2.315  12.137  0.9116  0.3897  0.3835
  250MPD2    C1 3789   4.493   2.423  12.213  0.8428  0.3681  0.2230
  250MPD2    C2 3790   4.423   2.401  12.332 -0.3494 -0.5160  0.7487
  250MPD2    C3 3791   4.416   2.270  12.388 -1.0331  0.1958 -0.1232
  250MPD2    C4 3792   4.474   2.164  12.314  0.2364  0.2238  0.2214
  250MPD2    C5 3793   4.522   2.187  12.190  0.3646  0.2353  0.2877
  250MPD2     H 3794   4.390   2.486  12.390 -0.0629 -0.8495  1.4014
  250MPD2    H1 3795   4.471   2.061  12.346  0.6446  0.0001 -0.4638
  250MPD2    H2 3796   4.556   2.330  12.036 -1.5561  0.8676 -0.4402
  250MPD2    H3 3797   4.551   2.110  12.119  0.4730  0.2190  0.3507
  250MPD2     N 3798   4.347   2.230  12.506 -0.6102  0.1598 -0.4680
  250MPD2    H5 3799   4.349   2.130  12.522 -1.1814  0.3297  0.5850
  250MPD2    N1 3800   4.497   2.547  12.151  0.6044  0.3526  0.3465
  250MPD2    H7 3801   4.561   2.556  12.073 -1.9318 -2.0134 -1.9899
  251TMC3    C1 3802   4.489   2.776  12.131 -0.0236  1.1903  0.4904
  251TMC3    C2 3803   4.406   2.885  12.133  0.5334  0.6061  0.0183
  251TMC3    C3 3804   4.457   3.008  12.137  0.0095 -0.1174 -0.2314
  251TMC3    C4 3805   4.624   2.786  12.142  0.2109  0.1474 -0.3457
  251TMC3    C5 3806   4.675   2.912  12.146  0.4014 -0.3680 -0.5279
  251TMC3    C6 3807   4.594   3.020  12.146 -0.4885  0.1289  0.3765
  251TMC3     C 3808   4.432   2.660  12.193  0.6975  0.0013  0.7733
  251TMC3     O 3809   4.355   2.675  12.287  0.5300 -0.4495 -0.2342
  251TMC3     H 3810   4.308   2.874  12.177  0.4459  1.8071  0.1209
  251TMC3    H1 3811   4.691   2.701  12.149  1.5156  1.0711 -1.7361
  251TMC3    H2 3812   4.640   3.118  12.149  2.9152 -1.4160 -0.7725
  251TMC3    C7 3813   0.088   2.921  12.190  0.8369  0.0562 -0.5437
  251TMC3    C8 3814   4.385   3.117  12.206  0.1379 -0.4919  0.0504
  251TMC3    O1 3815   0.140   2.823  12.242  0.2338  0.1554  0.3907
  251TMC3    O2 3816   4.455   3.178  12.286 -0.4491  0.0859 -0.1371
  252TMC3    C1 3817   3.848   4.213   8.928 -0.1408  0.8168  0.0760
  252TMC3    C2 3818   3.981   4.214   8.896  0.3443  0.2673 -0.2462
  252TMC3    C3 3819   4.070   4.144   8.977 -0.6328  0.0478 -0.4927
  252TMC3    C4 3820   3.799   4.139   9.035 -0.2494  0.5089  0.6017
  252TMC3    C5 3821   3.896   4.069   9.103  0.1715  0.0391  0.3058
  252TMC3    C6 3822   4.028   4.062   9.077  0.1674  0.1087 -0.7554
  252TMC3     C 3823   3.765   4.297   8.845  0.5233 -0.6450 -0.2176
  252TMC3     O 3824   3.798   4.321   8.731  0.6626  0.0778 -0.2197
  252TMC3     H 3825   4.028   4.271   8.817  0.6349 -0.2297 -0.4360
  252TMC3    H1 3826   3.693   4.145   9.061 -0.7147 -0.4050 -1.1143
  252TMC3    H2 3827   4.092   3.999   9.137  0.2779  1.3654  0.4643
  252TMC3    C7 3828   3.851   3.993   9.217 -0.1135 -0.3412 -0.4033
  252TMC3    C8 3829   4.207   4.192   8.971 -0.7083 -0.2444 -0.3199
  252TMC3    O1 3830   3.760   4.039   9.280 -0.5164 -0.5607 -0.3817
  252TMC3    O2 3831   4.219   4.305   8.927 -0.1340 -0.3636 -0.4572
  253MPD2     C 3832   1.137   2.368  15.131 -0.2544  0.5166  0.0545
  253MPD2    C1 3833   1.016   2.325  15.172  0.0317  0.2073 -0.0257
  253MPD2    C2 3834   0.977   2.341  15.302 -0.3958  0.5024 -0.1740
  253MPD2    C3 3835   1.054   2.407  15.395 -0.1558  0.4310 -0.4501
  253MPD2    C4 3836   1.181   2.444  15.349  0.2894 -0.3499 -0.5410
  253MPD2    C5 3837   1.219   2.430  15.221  0.3321 -0.5397 -0.8001
  253MPD2     H 3838   0.883   2.297  15.335 -1.2353  1.8602 -0.7363
  253MPD2    H1 3839   1.251   2.482  15.421  1.8835 -2.8975 -0.7545
  253MPD2    H2 3840   1.173   2.373  15.028  2.4734 -2.4180  0.8866
  253MPD2    H3 3841   1.316   2.473  15.197  0.8183 -0.5566  1.0978
  253MPD2     N 3842   1.020   2.434  15.533  1.0724 -0.3605  0.4860
  253MPD2    H5 3843   1.097   2.456  15.596  0.4782  0.2460  0.9895
  253MPD2    N1 3844   0.914   2.279  15.078 -0.3504 -0.6916 -0.0578
  253MPD2    H7 3845   0.823   2.261  15.121 -0.0813 -3.6188 -0.7332
  254TMC3    C1 3846   0.878   2.476  15.716 -0.0231  0.5385  0.2262
  254TMC3    C2 3847   0.761   2.539  15.759 -0.3099 -0.6618 -0.0750
  254TMC3    C3 3848   0.746   2.563  15.896  0.5423  0.5032  0.1896
  254TMC3    C4 3849   0.977   2.446  15.805  0.1424 -0.3943  0.0622
  254TMC3    C5 3850   0.963   2.484  15.938 -0.1006 -0.1478  1.1444
  254TMC3    C6 3851   0.853   2.549  15.983  0.2122  0.3289  0.3399
  254TMC3     C 3852   0.887   2.428  15.578  0.0602 -0.0549  0.2126
  254TMC3     O 3853   0.781   2.419  15.515 -0.2901 -0.1270 -0.0949
  254TMC3     H 3854   0.678   2.544  15.689  1.4178  2.1761 -1.9365
  254TMC3    H1 3855   1.067   2.394  15.773 -0.1406 -0.6570 -0.3032
  254TMC3    H2 3856   0.851   2.583  16.085 -2.6468 -0.4386  0.5351
  254TMC3    C7 3857   1.064   2.449  16.035 -0.4907  0.2097  0.7848
  254TMC3    C8 3858   0.605   2.575  15.952  0.0001  0.6081  0.1387
  254TMC3    O1 3859   1.039   2.449  16.156  0.0575 -0.0904  0.2130
  254TMC3    O2 3860   0.600   2.528  16.064 -0.0040  0.5244  0.1273
  255MPD2     C 3861   3.462   4.119  10.574  0.1402  0.0124 -0.0185
  255MPD2    C1 3862   3.583   4.154  10.612  0.2551  0.2419  0.5694
  255MPD2    C2 3863   3.691   4.066  10.588  0.1978 -0.4462  0.0999
  255MPD2    C3 3864   3.670   3.942  10.528 -0.2671  0.5141  0.0678
  255MPD2    C4 3865   3.538   3.910  10.498  0.9003  0.0393 -0.5508
  255MPD2    C5 3866   3.434   3.992  10.534  0.0343 -0.9680 -0.2195
  255MPD2     H 3867   3.794   4.099  10.595  0.1656 -0.8180  2.1221
  255MPD2    H1 3868   3.520   3.818  10.443  1.3911  0.6630 -1.7424
  255MPD2    H2 3869   3.373   4.178  10.587 -1.0581 -1.9409  0.6829
  255MPD2    H3 3870   3.335   3.952  10.520 -0.1959 -0.3632 -0.2997
  255MPD2     N 3871   3.782   3.856  10.505 -0.7777  0.2518  0.4469
  255MPD2    H5 3872   3.867   3.880  10.556  1.3617 -0.2197 -2.9232
  255MPD2    N1 3873   3.603   4.284  10.659  0.0938 -0.0498  1.0450
  255MPD2    H7 3874   3.514   4.331  10.654 -0.5451 -1.1091  2.4798
  256TMC3    C1 3875   3.699   4.486  10.720 -0.1525  0.1719  0.4507
  256TMC3    C2 3876   3.812   4.551  10.683 -0.2171 -0.7571  1.0691
  256TMC3    C3 3877   3.804   4.686  10.653 -0.3960 -0.7154 -0.3261
  256TMC3    C4 3878   3.579   4.543  10.746 -0.4332 -0.5103 -0.4826
  256TMC3    C5 3879   3.573   4.681  10.729  0.5235 -0.5951 -0.6494
  256TMC3    C6 3880   3.685   0.022  10.685  0.3316  0.3044 -0.1070
  256TMC3     C 3881   3.720   4.342  10.708  0.0343  0.3178  0.1749
  256TMC3     O 3882   3.828   4.291  10.721 -0.4654  0.1694 -0.3240
  256TMC3     H 3883   3.898   4.494  10.650  1.5104  0.7755  2.9717
  256TMC3    H1 3884   3.494   4.488  10.785  0.9871 -2.0072  0.5399
  256TMC3    H2 3885   3.679   0.128  10.665 -0.6393 -0.1560 -2.3660
  256TMC3    C7 3886   3.442   0.017  10.675 -0.0774  0.3340  0.2427
  256TMC3    C8 3887   3.869   0.005  10.535 -0.7930  0.5932 -1.2431
  256TMC3    O1 3888   3.460   0.088  10.578  0.0178  0.4511  0.5256
  256TMC3    O2 3889   3.908   4.640  10.458 -0.3241  0.1112 -0.2394
  257MPD2     C 3890   3.206   2.506  13.421 -0.4837  0.4004  0.1216
  257MPD2    C1 3891   3.168   2.407  13.336  0.4328  0.2100 -0.3829
  257MPD2    C2 3892   3.199   2.277  13.363  0.0547  0.5880 -0.1796
  257MPD2    C3 3893   3.248   2.238  13.482  0.3424 -0.5067  0.1132
  257MPD2    C4 3894   3.280   2.337  13.572  0.3915  0.2850 -0.8237
  257MPD2    C5 3895   3.245   2.468  13.549  0.2215  0.0288  0.4102
  257MPD2     H 3896   3.172   2.200  13.291 -2.2639 -0.2004  1.5295
  257MPD2    H1 3897   3.314   2.321  13.674  0.2429 -0.5297 -0.8981
  257MPD2    H2 3898   3.192   2.611  13.398  0.4402  0.1725 -1.4338
  257MPD2    H3 3899   3.263   2.551  13.617 -2.5796  0.8762  0.1062
  257MPD2     N 3900   3.261   2.099  13.509 -0.0731 -0.0784  0.3363
  257MPD2    H5 3901   3.229   2.041  13.432  1.3645  0.8787 -0.9812
  257MPD2    N1 3902   3.102   2.446  13.213 -0.6778 -0.2650 -0.7042
  257MPD2    H7 3903   3.093   2.547  13.200  2.3357  0.1147  0.1375
  258TMC3    C1 3904   3.302   1.889  13.602 -0.3653  0.3263  0.1321
  258TMC3    C2 3905   3.245   1.837  13.488 -0.4032 -0.7184 -0.2431
  258TMC3    C3 3906   3.234   1.702  13.483 -0.5405  0.0839  0.1743
  258TMC3    C4 3907   3.357   1.815  13.703  0.4341  0.1132  0.1067
  258TMC3    C5 3908   3.344   1.682  13.692 -0.3540 -0.2173 -0.0178
  258TMC3    C6 3909   3.273   1.623  13.590 -0.1699  0.1978  0.5090
  258TMC3     C 3910   3.302   2.035  13.623 -0.1401  0.3422  0.0869
  258TMC3     O 3911   3.354   2.083  13.722  0.3618 -0.0043 -0.1238
  258TMC3     H 3912   3.219   1.894  13.399  1.8350 -0.8866 -1.0102
  258TMC3    H1 3913   3.405   1.865  13.787  0.4988  2.5832 -1.4053
  258TMC3    H2 3914   3.273   1.514  13.587  1.2873  0.1746  1.9864
  258TMC3    C7 3915   3.382   1.600  13.804 -1.3666 -0.0233  0.4177
  258TMC3    C8 3916   3.158   1.638  13.377 -0.0273 -0.6582  0.2839
  258TMC3    O1 3917   3.322   1.505  13.848  0.1411 -0.0445  0.5788
  258TMC3    O2 3918   3.118   1.717  13.291 -0.1054  0.0005 -0.1944
  259MPD2     C 3919   1.725   3.990   0.615  0.3845  0.5305 -0.4728
  259MPD2    C1 3920   1.802   4.022   0.722 -0.1275  0.1625 -0.2796
  259MPD2    C2 3921   1.935   3.981   0.730 -0.2059  0.1005 -0.0116
  259MPD2    C3 3922   1.986   3.901   0.620 -0.0376 -0.2296  0.5241
  259MPD2    C4 3923   1.897   3.858   0.522 -0.4337  0.1098  0.1396
  259MPD2    C5 3924   1.773   3.909   0.520  0.8558 -0.6175  0.1782
  259MPD2     H 3925   1.999   4.018   0.809  0.6781 -0.4306 -0.4787
  259MPD2    H1 3926   1.928   3.799   0.437 -1.0789  1.1125 -0.7972
  259MPD2    H2 3927   1.626   4.030   0.599  0.2483  0.6042  0.5671
  259MPD2    H3 3928   1.716   3.885   0.431  0.5919  1.0559 -0.1070
  259MPD2     N 3929   2.121   3.869   0.609 -0.0621 -0.1717 -0.4386
  259MPD2    H5 3930   2.177   3.907   0.685 -1.8111  0.9292  0.2963
  259MPD2    N1 3931   1.736   4.105   0.814  0.6772 -0.5031  0.6242
  259MPD2    H7 3932   1.635   4.113   0.801  0.5844 -0.9133  1.0843
  260TMC3    C1 3933   2.317   3.741   0.554 -0.4093 -0.0934  0.0149
  260TMC3    C2 3934   2.405   3.838   0.583 -1.0271 -0.1215 -0.4470
  260TMC3    C3 3935   2.537   3.786   0.565  0.5162 -0.2261 -1.1404
  260TMC3    C4 3936   2.342   3.615   0.508  0.0606 -0.3422  0.2179
  260TMC3    C5 3937   2.472   3.572   0.488 -0.6423 -0.2373 -1.0652
  260TMC3    C6 3938   2.571   3.657   0.524  0.1543  0.2267  0.0723
  260TMC3     C 3939   2.186   3.791   0.513  0.3238 -0.2101 -0.1181
  260TMC3     O 3940   2.146   3.746   0.405  0.5478  0.3840  0.0259
  260TMC3     H 3941   2.373   3.941   0.597  0.9254  0.5934 -1.1175
  260TMC3    H1 3942   2.253   3.559   0.484  1.0366 -1.8839  0.2200
  260TMC3    H2 3943   2.674   3.629   0.504  0.3332 -0.4765  1.9737
  260TMC3    C7 3944   2.499   3.429   0.457  0.2760  0.2940 -0.4227
  260TMC3    C8 3945   2.643   3.879   0.605 -0.2284 -0.6318 -0.1563
  260TMC3    O1 3946   2.609   3.398   0.410 -0.3803  0.1080 -0.0839
  260TMC3    O2 3947   2.617   3.983   0.669  0.1778 -0.0789  0.2003
  261MPD2     C 3948   3.702   2.631  12.838 -0.0079  0.2579 -0.0265
  261MPD2    C1 3949   3.736   2.534  12.746 -0.2907  0.7312  0.6340
  261MPD2    C2 3950   3.673   2.532  12.621  0.3333  0.4796  0.8858
  261MPD2    C3 3951   3.603   2.635  12.585 -0.6343 -0.4473  0.0139
  261MPD2    C4 3952   3.577   2.744  12.669 -0.2012  0.4149  0.2008
  261MPD2    C5 3953   3.617   2.735  12.798 -0.0282 -0.4077  0.3034
  261MPD2     H 3954   3.696   2.449  12.556 -0.2932  2.8677 -2.3965
  261MPD2    H1 3955   3.523   2.832  12.635  1.0165  0.7777 -0.8229
  261MPD2    H2 3956   3.730   2.610  12.941  2.5967  0.3533 -0.7068
  261MPD2    H3 3957   3.584   2.804  12.875 -0.3597 -2.8780  2.3874
  261MPD2     N 3958   3.558   2.638  12.451 -0.1489 -0.4528 -0.6095
  261MPD2    H5 3959   3.582   2.559  12.391 -0.0427 -1.4716  0.7743
  261MPD2    N1 3960   3.838   2.436  12.769  0.1667  0.9600  0.2311
  261MPD2    H7 3961   3.863   2.373  12.693  1.7122  2.2358 -0.3327
  262TMC3    C1 3962   3.434   2.674  12.258  0.4281 -0.0667 -0.4927
  262TMC3    C2 3963   3.404   2.771  12.169 -0.5806 -0.4492 -0.3199
  262TMC3    C3 3964   3.415   2.744  12.036 -0.0327  0.1614 -0.5432
  262TMC3    C4 3965   3.458   2.548  12.223 -0.5335 -0.5195  0.2360
  262TMC3    C5 3966   3.477   2.526  12.090 -0.2924  0.0083  0.1998
  262TMC3    C6 3967   3.459   2.626  11.994  0.3190  0.4593 -0.5958
  262TMC3     C 3968   3.468   2.722  12.392 -0.6842  0.3794  0.7241
  262TMC3     O 3969   3.421   2.826  12.430  0.0336  0.1130 -0.2922
  262TMC3     H 3970   3.387   2.874  12.200  3.2132  0.1122 -0.1229
  262TMC3    H1 3971   3.467   2.476  12.303  0.0332 -1.1479 -0.3891
  262TMC3    H2 3972   3.477   2.590  11.893  0.6941  1.6835 -0.9607
  262TMC3    C7 3973   3.467   2.386  12.053 -0.1089 -0.1380 -0.5622
  262TMC3    C8 3974   3.389   2.847  11.943 -0.2287  0.9762 -0.1012
  262TMC3    O1 3975   3.443   2.304  12.140  0.2530  0.1581  0.1933
  262TMC3    O2 3976   3.418   2.811  11.830 -0.1959 -0.0180 -0.4909
  263MPD2     C 3977   0.372   0.864  11.137  0.3694  0.2935  0.0163
  263MPD2    C1 3978   0.420   0.990  11.141 -0.0167 -0.2877  0.1891
  263MPD2    C2 3979   0.369   1.089  11.061 -1.0803  0.4159 -0.3473
  263MPD2    C3 3980   0.274   1.059  10.958 -0.8425 -1.2298  0.0138
  263MPD2    C4 3981   0.228   0.926  10.963  0.2710 -0.0905 -0.3427
  263MPD2    C5 3982   0.272   0.834  11.053  0.0869 -0.1137  0.1244
  263MPD2     H 3983   0.409   1.189  11.072  0.6157 -0.1794 -1.0908
  263MPD2    H1 3984   0.165   0.887  10.883  0.6802  1.5628 -1.4822
  263MPD2    H2 3985   0.412   0.789  11.204 -2.8765 -0.5750  0.9702
  263MPD2    H3 3986   0.246   0.729  11.042 -2.5174  0.6829 -1.2911
  263MPD2     N 3987   0.226   1.159  10.869 -0.0016  0.2729 -0.5701
  263MPD2    H5 3988   0.262   1.254  10.876  0.8524 -0.0057 -1.0590
  263MPD2    N1 3989   0.531   1.005  11.233  0.0992 -0.1166  0.3781
  263MPD2    H7 3990   0.553   0.919  11.283 -0.6843 -1.4202 -1.5178
  264TMC3    C1 3991   0.100   1.245  10.673  0.0891  0.0665 -0.3111
  264TMC3    C2 3992   0.094   1.370  10.722  0.6028  0.5089 -0.9223
  264TMC3    C3 3993   0.047   1.463  10.637 -0.0103  0.1580  0.3775
  264TMC3    C4 3994   0.076   1.212  10.541  0.3815 -0.0036  0.4499
  264TMC3    C5 3995   0.043   1.310  10.452  0.0113  0.8808  0.2202
  264TMC3    C6 3996   0.021   1.441  10.508  0.2631  0.1128 -0.1191
  264TMC3     C 3997   0.134   1.132  10.764 -0.1025  0.4295  0.9803
  264TMC3     O 3998   0.083   1.023  10.734  0.5235  0.2347 -0.8008
  264TMC3     H 3999   0.108   1.389  10.828  2.9649 -0.9119 -0.9737
  264TMC3    H1 4000   0.093   1.113  10.501  0.8762  0.5708 -0.7732
  264TMC3    H2 4001   4.721   1.524  10.443 -2.6368  0.3825  1.3914
  264TMC3    C7 4002   0.106   1.296  10.318 -0.2058  0.2410 -1.1497
  264TMC3    C8 4003   0.079   1.601  10.666  0.8154  0.8571 -0.1183
  264TMC3    O1 4004   0.208   1.226  10.321 -0.1538  0.0134 -0.2593
  264TMC3    O2 4005   0.142   1.670  10.587  0.2564  0.3708 -0.0988
  265MPD2     C 4006   2.442   2.280  15.268  0.2668 -0.4453 -0.6771
  265MPD2    C1 4007   2.442   2.144  15.297  0.3516  0.8323 -0.1741
  265MPD2    C2 4008   2.526   2.062  15.220 -0.0448 -0.2846 -0.6859
  265MPD2    C3 4009   2.597   2.109  15.109 -0.4414 -0.4379  0.4023
  265MPD2    C4 4010   2.586   2.243  15.080  0.4761  0.6031  0.3194
  265MPD2    C5 4011   2.516   2.327  15.165  0.3513 -0.1029 -0.6829
  265MPD2     H 4012   2.532   1.962  15.260  0.0474  0.2499  0.6525
  265MPD2    H1 4013   2.629   2.288  14.991  0.1348  2.0368  0.8646
  265MPD2    H2 4014   2.383   2.343  15.334 -0.5754  0.1453 -1.9974
  265MPD2    H3 4015   2.498   2.430  15.138  0.5886  0.0865 -0.1240
  265MPD2     N 4016   2.673   2.030  15.023 -0.5324 -0.3396  1.0869
  265MPD2    H5 4017   2.725   2.076  14.949  0.6530 -0.9074  1.5628
  265MPD2    N1 4018   2.367   2.099  15.404 -0.2083 -0.4425  0.1357
  265MPD2    H7 4019   2.315   2.171  15.454  3.9205  3.1854 -0.7679
  266TMC3    C1 4020   2.281   1.958  15.579  0.2376 -0.8487  0.8063
  266TMC3    C2 4021   2.334   1.909  15.701  0.1091 -0.6268 -0.5902
  266TMC3    C3 4022   2.278   1.943  15.822 -0.1578  0.3190 -0.0160
  266TMC3    C4 4023   2.172   2.042  15.589 -0.5557  0.4664 -0.1035
  266TMC3    C5 4024   2.120   2.079  15.711  0.8704 -0.3341 -0.3289
  266TMC3    C6 4025   2.167   2.026  15.829 -0.1554 -0.7616 -0.2321
  266TMC3     C 4026   2.373   1.978  15.473  0.0579 -0.4460 -0.1212
  266TMC3     O 4027   2.464   1.901  15.464  0.0056  0.0509 -0.2348
  266TMC3     H 4028   2.425   1.849  15.697  1.3555  1.2571 -0.6330
  266TMC3    H1 4029   2.122   2.089  15.504 -1.1966  2.1042  1.1618
  266TMC3    H2 4030   2.144   2.064  15.928  1.0000 -2.4373  0.6870
  266TMC3    C7 4031   2.001   2.166  15.711 -0.3440 -0.1106 -0.3874
  266TMC3    C8 4032   2.347   1.892  15.940  0.3884 -0.4527 -0.7202
  266TMC3    O1 4033   1.945   2.202  15.609 -0.4630  0.7616 -0.0364
  266TMC3    O2 4034   2.419   1.795  15.919 -0.4754  0.5569 -0.2277
  267MPD2     C 4035   3.600   4.027   0.207 -0.0453 -0.0058 -0.1859
  267MPD2    C1 4036   3.701   4.042   0.119 -0.1384  0.3542 -1.1828
  267MPD2    C2 4037   3.711   4.147   0.031 -0.6465 -0.0439  0.6403
  267MPD2    C3 4038   3.614   4.239   0.032  0.2957 -1.3123 -0.2996
  267MPD2    C4 4039   3.507   4.222   0.114  0.4008  0.1001  0.7097
  267MPD2    C5 4040   3.505   4.120   0.206 -0.5584  0.0472 -0.0048
  267MPD2     H 4041   3.778   4.151  17.652  0.9934 -0.0186  1.9134
  267MPD2    H1 4042   3.422   4.289   0.114  1.6228  1.6584  1.0197
  267MPD2    H2 4043   3.594   3.948   0.281  0.4169  0.2447  0.1126
  267MPD2    H3 4044   3.429   4.116   0.284  0.1325 -1.2963  0.5993
  267MPD2     N 4045   3.625   4.347  17.647  0.6530 -0.7385 -0.0890
  267MPD2    H5 4046   3.710   4.353  17.591 -0.7047  0.7026 -1.9771
  267MPD2    N1 4047   3.795   3.935   0.119 -0.0568 -0.0767 -0.2050
  267MPD2    H7 4048   3.769   3.856   0.177 -1.0860  0.5036  0.1242
  268TMC3    C1 4049   3.996   3.816   0.042 -0.8975  0.1580  0.2817
  268TMC3    C2 4050   4.115   3.837  17.680 -0.2661  0.0379  0.5986
  268TMC3    C3 4051   4.211   3.738  17.689 -0.2944 -0.3809  0.8354
  268TMC3    C4 4052   3.981   3.717   0.133 -0.0168  0.3126  0.7734
  268TMC3    C5 4053   4.089   3.632   0.150  0.4221  0.0352 -0.3057
  268TMC3    C6 4054   4.204   3.639   0.078 -0.4232  0.5683 -0.5246
  268TMC3     C 4055   3.916   3.940   0.050  0.4584 -0.0842 -0.2469
  268TMC3     O 4056   3.955   4.028  17.680 -0.1318  0.6218 -0.3962
  268TMC3     H 4057   4.128   3.921  17.612  0.0338 -0.3416  0.1833
  268TMC3    H1 4058   3.884   3.710   0.181 -1.5452 -0.7760 -2.4321
  268TMC3    H2 4059   4.296   3.587   0.099 -1.2620 -0.6622  0.0847
  268TMC3    C7 4060   4.084   3.520   0.243  0.3722 -0.1464 -0.4542
  268TMC3    C8 4061   4.343   3.794  17.657 -0.1467 -0.6715 -0.3093
  268TMC3    O1 4062   4.192   3.491   0.282 -0.1064 -0.1172  0.2360
  268TMC3    O2 4063   4.433   3.785   0.034  0.8896 -0.2098  0.4032
  269MPD2     C 4064   0.226   2.542  15.458  0.7397  0.3335  0.4034
  269MPD2    C1 4065   0.128   2.599  15.535  0.8674  0.2412 -0.0639
  269MPD2    C2 4066   0.122   2.737  15.529 -0.0691 -0.0920  0.4545
  269MPD2    C3 4067   0.214   2.809  15.461  0.2937  0.0318  0.0419
  269MPD2    C4 4068   0.302   2.748  15.376 -0.5320  0.2707  0.8900
  269MPD2    C5 4069   0.304   2.611  15.374  0.2138  0.0947 -0.3433
  269MPD2     H 4070   0.049   2.795  15.585 -1.4329  0.8106 -2.2509
  269MPD2    H1 4071   0.365   2.800  15.305 -0.4148 -1.2435 -0.1165
  269MPD2    H2 4072   0.227   2.436  15.435 -2.2754  0.2458  0.5815
  269MPD2    H3 4073   0.364   2.563  15.299  1.8396  2.0763 -0.3201
  269MPD2     N 4074   0.206   2.953  15.467  0.2576 -0.6457  0.0589
  269MPD2    H5 4075   0.141   2.987  15.537 -0.0509  1.0189 -1.0313
  269MPD2    N1 4076   0.034   2.514  15.601  0.3108  0.5475  0.4149
  269MPD2    H7 4077   0.054   2.415  15.603 -0.3169  0.4241  0.6098
  270TMC3    C1 4078   4.594   2.437  15.734 -0.0186 -0.3174 -0.2581
  270TMC3    C2 4079   4.469   2.402  15.690  0.4734 -0.0199 -0.5382
  270TMC3    C3 4080   4.437   2.270  15.685 -1.0802 -0.0495  0.1913
  270TMC3    C4 4081   4.679   2.339  15.782  0.2175  0.4701  0.3166
  270TMC3    C5 4082   4.648   2.207  15.759 -0.4607 -0.3945 -1.2076
  270TMC3    C6 4083   4.524   2.171  15.725 -0.5376 -0.1036 -0.3913
  270TMC3     C 4084   4.652   2.546  15.667  0.4317 -0.1502 -0.2637
  270TMC3     O 4085   4.586   2.647  15.666 -0.4777 -0.1729 -0.2658
  270TMC3     H 4086   4.399   2.469  15.643 -0.0191  0.3917  0.7633
  270TMC3    H1 4087   0.055   2.366  15.807 -0.3874  2.0681  1.0802
  270TMC3    H2 4088   4.497   2.070  15.696 -2.1246 -0.1916  1.3796
  270TMC3    C7 4089   0.024   2.141  15.695  0.0490 -0.1524  0.7745
  270TMC3    C8 4090   4.333   2.226  15.595 -0.0471 -0.2939 -0.1009
  270TMC3    O1 4091   0.114   2.210  15.652  0.1755  0.8310 -0.0131
  270TMC3    O2 4092   4.219   2.251  15.630 -0.4599  0.4054  0.2123
  271MPD2     C 4093   3.758   2.416  13.876  0.2811  0.1253  0.3008
  271MPD2    C1 4094   3.702   2.375  13.991  0.6240 -0.0504  0.5753
  271MPD2    C2 4095   3.564   2.378  14.006 -0.2896 -0.8539 -0.1239
  271MPD2    C3 4096   3.476   2.424  13.909  0.1455 -0.2510  0.3924
  271MPD2    C4 4097   3.538   2.490  13.808 -0.5277  0.2599  0.4574
  271MPD2    C5 4098   3.678   2.487  13.795  0.3791  0.3711 -0.4873
  271MPD2     H 4099   3.526   2.358  14.105  0.6909  0.8056  0.5885
  271MPD2    H1 4100   3.484   2.536  13.727 -2.0228 -0.3608  1.1005
  271MPD2    H2 4101   3.864   2.430  13.859  0.3899 -4.7881 -3.0693
  271MPD2    H3 4102   3.723   2.512  13.699 -2.6392  1.4423 -1.6212
  271MPD2     N 4103   3.338   2.409  13.920  0.6259 -0.0740 -0.1007
  271MPD2    H5 4104   3.274   2.468  13.869 -0.8025 -0.6684  1.0187
  271MPD2    N1 4105   3.777   2.331  14.101  0.2012 -0.2982 -0.5233
  271MPD2    H7 4106   3.716   2.296  14.174 -1.4132 -0.9123 -2.1452
  272TMC3    C1 4107   3.967   2.248  14.222 -1.1609 -0.3447 -0.4042
  272TMC3    C2 4108   4.084   2.189  14.205  0.0775 -0.1073 -0.6105
  272TMC3    C3 4109   4.134   2.120  14.312 -0.0738 -0.0900 -0.0156
  272TMC3    C4 4110   3.910   2.261  14.345  1.1171 -0.5705 -0.2617
  272TMC3    C5 4111   3.969   2.197  14.454 -0.0916  0.4342 -0.9255
  272TMC3    C6 4112   4.083   2.121  14.440 -0.1729  0.7373  1.0560
  272TMC3     C 4113   3.913   2.325  14.104 -0.1151  0.3128 -0.0858
  272TMC3     O 4114   3.994   2.362  14.019  0.1124  0.2819 -0.2706
  272TMC3     H 4115   4.127   2.179  14.107  0.3641 -0.0650 -0.4890
  272TMC3    H1 4116   3.837   2.338  14.365 -0.5383 -2.4131  0.7309
  272TMC3    H2 4117   4.135   2.081  14.526 -0.4942 -0.1950  0.8080
  272TMC3    C7 4118   3.911   2.227  14.576 -0.5522 -0.0982  0.9575
  272TMC3    C8 4119   4.264   2.072  14.286  0.2369  0.5273  0.4081
  272TMC3    O1 4120   3.789   2.236  14.583  0.3269  0.1671 -0.7569
  272TMC3    O2 4121   4.321   2.088  14.175  0.1645 -0.2573  0.3491
  273MPD2     C 4122   0.739   4.640  12.076  0.3902  0.5145 -0.0575
  273MPD2    C1 4123   0.871   4.643  12.055  0.0885 -0.3056 -0.7968
  273MPD2    C2 4124   0.916   4.659  11.925 -0.5101  1.0764  0.8821
  273MPD2    C3 4125   0.835   4.682  11.819  0.1204 -0.7047  0.8037
  273MPD2    C4 4126   0.698   4.670  11.845  0.6963  0.3873 -0.7330
  273MPD2    C5 4127   0.658   4.644  11.968 -0.5022 -0.3822  0.4780
  273MPD2     H 4128   1.022   4.673  11.910 -0.5453 -1.4488 -1.5373
  273MPD2    H1 4129   0.620   4.697  11.775 -0.1796 -0.3691 -0.0539
  273MPD2    H2 4130   0.689   4.630  12.171 -1.8058 -1.9244 -1.4629
  273MPD2    H3 4131   0.551   4.636  11.984 -0.1434 -1.3318  2.3935
  273MPD2     N 4132   0.877   4.720  11.687  0.2578  0.0474  0.8274
  273MPD2    H5 4133   0.809   0.013  11.614  1.6955  0.1751 -0.4938
  273MPD2    N1 4134   0.956   4.639  12.168 -0.5584 -0.7861 -0.4357
  273MPD2    H7 4135   0.905   4.657  12.254 -0.8070  0.5186 -0.8563
  274TMC3    C1 4136   1.018   0.058  11.516  0.0345  0.0465  0.6090
  274TMC3    C2 4137   0.939   4.720  11.423 -0.4610 -0.0016 -0.3637
  274TMC3    C3 4138   0.924   0.050  11.300 -0.6793  0.0090 -0.2968
  274TMC3    C4 4139   1.074   0.179  11.494  0.0916 -0.0124  0.6012
  274TMC3    C5 4140   1.058   0.235  11.367  0.3461  0.7042  0.3740
  274TMC3    C6 4141   0.968   0.180  11.280  0.3305  0.0729  0.5290
  274TMC3     C 4142   1.005   0.029  11.655  0.4142  0.2459  0.2163
  274TMC3     O 4143   1.102   0.050  11.725 -0.6076  0.2868  0.0101
  274TMC3     H 4144   0.899   4.622  11.445 -3.3142  1.5610  1.4777
  274TMC3    H1 4145   1.119   0.231  11.578 -0.1770  1.9331 -0.4582
  274TMC3    H2 4146   0.967   0.228  11.183 -0.0070  0.0869  0.5404
  274TMC3    C7 4147   1.104   0.372  11.338 -0.7326  0.0495  0.1227
  274TMC3    C8 4148   0.799   0.016  11.242 -0.3145 -0.6091  0.0201
  274TMC3    O1 4149   1.042   0.443  11.259 -0.1707  0.3083  0.3428
  274TMC3    O2 4150   0.739   4.651  11.299  0.3611  0.1828 -0.4004
  275MPD2     C 4151   0.511   3.605  14.426  0.7352 -0.1714 -0.1794
  275MPD2    C1 4152   0.527   3.473  14.423 -0.4892  0.4005  0.0290
  275MPD2    C2 4153   0.421   3.392  14.382  0.2841  0.2770 -0.0421
  275MPD2    C3 4154   0.298   3.439  14.350  0.2010 -0.2604 -1.1743
  275MPD2    C4 4155   0.283   3.578  14.354  0.0116 -0.3813 -0.1707
  275MPD2    C5 4156   0.386   3.660  14.398  0.0770  0.0528 -0.1280
  275MPD2     H 4157   0.442   3.286  14.393  2.7740  0.7932  0.2772
  275MPD2    H1 4158   0.187   3.623  14.330  0.7496  2.6226  2.4894
  275MPD2    H2 4159   0.592   3.669  14.457  0.8574  0.1781 -1.2218
  275MPD2    H3 4160   0.368   3.767  14.391  2.1335  0.4790  1.1642
  275MPD2     N 4161   0.177   3.362  14.319  0.5038 -0.0782 -0.1424
  275MPD2    H5 4162   0.090   3.411  14.301  0.1107 -0.1722  1.4620
  275MPD2    N1 4163   0.640   3.408  14.480  0.1333 -0.0713 -0.0389
  275MPD2    H7 4164   0.630   3.307  14.480 -1.1834  0.0783 -1.5832
  276TMC3    C1 4165   0.833   3.359  14.588 -1.1100  0.2100 -0.0796
  276TMC3    C2 4166   0.815   3.236  14.540 -0.6071 -0.6777 -0.3319
  276TMC3    C3 4167   0.805   3.124  14.620 -0.3909  0.3243  0.2386
  276TMC3    C4 4168   0.854   3.368  14.719 -0.1717 -0.6583 -0.4010
  276TMC3    C5 4169   0.848   3.259  14.804  0.2299  0.6776 -0.6983
  276TMC3    C6 4170   0.829   3.131  14.755  0.1064 -0.4605  0.1968
  276TMC3     C 4171   0.755   3.458  14.530  0.2276 -0.2713 -0.3103
  276TMC3     O 4172   0.771   3.577  14.558  0.2042 -0.1108  0.6399
  276TMC3     H 4173   0.795   3.229  14.434 -2.8716 -0.9920  0.1132
  276TMC3    H1 4174   0.885   3.462  14.765  0.2601 -1.5650  1.1478
  276TMC3    H2 4175   0.806   3.042  14.813 -0.6081  0.4455  1.2717
  276TMC3    C7 4176   0.866   3.288  14.947  0.6283  0.1182  0.8170
  276TMC3    C8 4177   0.681   3.058  14.584  0.5964 -0.6312 -0.2756
  276TMC3    O1 4178   0.856   3.403  14.978  0.0044 -0.2015 -0.4531
  276TMC3    O2 4179   0.600   3.125  14.524  0.3945  0.0005 -0.1676
  277MPD2     C 4180   2.397   2.200  13.033  0.4941 -0.1082 -0.0552
  277MPD2    C1 4181   2.261   2.224  13.029  0.2629 -0.2966  0.9941
  277MPD2    C2 4182   2.188   2.163  13.136 -0.3222  0.4843 -0.2672
  277MPD2    C3 4183   2.235   2.060  13.211  0.0689  0.1009 -0.2040
  277MPD2    C4 4184   2.369   2.027  13.193 -0.4526 -0.6974 -0.2475
  277MPD2    C5 4185   2.442   2.095  13.112  0.2001 -0.5154  0.0150
  277MPD2     H 4186   2.089   2.200  13.158 -0.6015  0.6809 -1.9182
  277MPD2    H1 4187   2.426   1.954  13.249  1.0576  0.1086 -0.7270
  277MPD2    H2 4188   2.468   2.257  12.973  3.2642  0.0724  3.4018
  277MPD2    H3 4189   2.547   2.068  13.103  0.8346  1.6105  0.9478
  277MPD2     N 4190   2.152   2.014  13.318 -0.0803 -0.3478 -0.3432
  277MPD2    H5 4191   2.063   2.061  13.331  0.3287  0.7859 -1.5942
  277MPD2    N1 4192   2.218   2.323  12.943 -0.2831  0.5495 -0.2308
  277MPD2    H7 4193   2.289   2.386  12.908  0.4225  0.2224  0.6333
  278TMC3    C1 4194   2.081   1.866  13.500 -0.1841 -0.0583  0.0939
  278TMC3    C2 4195   2.066   1.733  13.516 -0.8132  0.9062 -0.1090
  278TMC3    C3 4196   1.961   1.684  13.583 -0.1946  0.6334  0.0614
  278TMC3    C4 4197   1.969   1.947  13.520 -0.6929  0.0054 -0.3672
  278TMC3    C5 4198   1.856   1.888  13.570  0.1172  0.2095  0.2070
  278TMC3    C6 4199   1.853   1.757  13.601 -0.3070 -0.2303  0.0053
  278TMC3     C 4200   2.179   1.904  13.396 -0.1894  0.0636 -0.3899
  278TMC3     O 4201   2.270   1.826  13.387 -0.2518  0.1874 -0.6112
  278TMC3     H 4202   2.151   1.670  13.493 -1.5741  0.1907 -0.9533
  278TMC3    H1 4203   1.955   2.048  13.482  1.5360  0.1375 -0.8590
  278TMC3    H2 4204   1.766   1.708  13.643 -1.1706  0.9597 -0.4154
  278TMC3    C7 4205   1.784   1.976  13.659  0.4032  0.1468 -0.7478
  278TMC3    C8 4206   1.949   1.542  13.580  0.5157 -0.3759 -0.3595
  278TMC3    O1 4207   1.825   2.091  13.672  0.0953 -0.3409 -0.3649
  278TMC3    O2 4208   2.048   1.470  13.571 -0.1302  0.4895  0.3409
  279MPD2     C 4209   1.651   2.735  17.687  0.3238 -0.0185  0.2464
  279MPD2    C1 4210   1.604   2.607  17.670 -0.0986 -0.0243 -0.2942
  279MPD2    C2 4211   1.691   2.504  17.650 -0.0518  0.0332 -0.0922
  279MPD2    C3 4212   1.831   2.528  17.648 -0.5030 -0.5990  0.6242
  279MPD2    C4 4213   1.876   2.652  17.678 -0.3568 -0.1336 -0.1747
  279MPD2    C5 4214   1.787   2.757  17.694 -0.0682  0.2433  0.7794
  279MPD2     H 4215   1.662   2.404  17.619 -0.1710 -0.3860  1.3577
  279MPD2    H1 4216   1.981   2.677  17.688 -0.1966 -0.2068 -1.6891
  279MPD2    H2 4217   1.587   2.820   0.000 -0.1297 -0.9851  3.1601
  279MPD2    H3 4218   1.819   2.861  17.706  1.2673 -0.2606  1.6457
  279MPD2     N 4219   1.927   2.425  17.627  0.5351 -0.0060  0.4062
  279MPD2    H5 4220   2.019   2.445  17.590  1.5629 -2.4453  1.6697
  279MPD2    N1 4221   1.468   2.582  17.670 -0.4739 -0.0637 -0.2201
  279MPD2    H7 4222   1.395   2.653  17.659  0.3707  0.9578  0.7986
  280TMC3    C1 4223   1.274   2.457  17.643 -0.3508 -0.5323 -0.1660
  280TMC3    C2 4224   1.202   2.350  17.690 -0.0757 -0.1227  0.6704
  280TMC3    C3 4225   1.080   2.326  17.631 -0.0873 -0.0121  0.5210
  280TMC3    C4 4226   1.213   2.546  17.551 -0.5165 -0.0750  0.1001
  280TMC3    C5 4227   1.089   2.515  17.498 -0.1459 -0.2824  0.1217
  280TMC3    C6 4228   1.020   2.406  17.536 -0.8710 -0.2505  0.2951
  280TMC3     C 4229   1.413   2.458  17.677  0.8395  0.5701  0.0292
  280TMC3     O 4230   1.455   2.358   0.027  0.4050  0.0808 -0.5259
  280TMC3     H 4231   1.252   2.288   0.057  0.6354  0.2329  0.4915
  280TMC3    H1 4232   1.266   2.628  17.504 -2.0874 -0.2888 -2.0629
  280TMC3    H2 4233   0.924   2.374  17.496 -0.3398  0.9516 -1.9591
  280TMC3    C7 4234   1.047   2.595  17.381 -0.1429 -0.1999  0.0138
  280TMC3    C8 4235   1.022   2.196  17.658  0.8406  0.0626 -0.2205
  280TMC3    O1 4236   1.123   2.687  17.348 -0.4676  0.1419  0.3276
  280TMC3    O2 4237   0.927   2.162  17.582  0.3766 -0.0399 -0.1026
  281TMC3    C1 4238   0.564   2.929  12.787 -0.3314  0.4256 -0.2440
  281TMC3    C2 4239   0.574   2.968  12.655 -0.7263  0.6290  0.0512
  281TMC3    C3 4240   0.612   2.875  12.560 -0.0880 -0.1001 -0.0216
  281TMC3    C4 4241   0.608   2.806  12.827  0.0267 -0.1813 -0.4031
  281TMC3    C5 4242   0.639   2.722  12.724  0.2329  0.0104  0.6794
  281TMC3    C6 4243   0.648   2.752  12.593 -0.0078 -0.5458  0.2231
  281TMC3     C 4244   0.545   3.025  12.891  0.2908 -0.8365  0.7129
  281TMC3     O 4245   0.645   3.037  12.960 -0.2456 -0.4743 -0.0640
  281TMC3     H 4246   0.518   3.057  12.627  3.0408  2.1250 -2.6292
  281TMC3    H1 4247   0.621   2.787  12.933  1.1273 -0.1456 -0.5294
  281TMC3    H2 4248   0.665   2.677  12.517 -2.6634 -1.5312  0.5957
  281TMC3    C7 4249   0.671   2.582  12.760  0.3886  0.0577 -0.1971
  281TMC3    C8 4250   0.549   2.891  12.428 -0.4181 -0.5071 -0.0853
  281TMC3    O1 4251   0.759   2.522  12.703 -0.2136 -0.0305 -0.1963
  281TMC3    O2 4252   0.500   2.796  12.368 -0.0579  0.2016 -0.1416
  282MPD2     C 4253   2.288   4.185  14.927  0.6868 -0.8621 -0.2940
  282MPD2    C1 4254   2.159   4.169  14.971 -0.1832 -0.1110  0.0352
  282MPD2    C2 4255   2.067   4.099  14.897 -0.0511  0.9128  0.2081
  282MPD2    C3 4256   2.097   4.038  14.773  0.2363 -0.1559 -0.4525
  282MPD2    C4 4257   2.230   4.051  14.735  0.1766 -0.2128  0.5003
  282MPD2    C5 4258   2.328   4.120  14.809  0.2035  0.0848 -0.2425
  282MPD2     H 4259   1.964   4.101  14.931 -0.6601  0.7943 -1.6206
  282MPD2    H1 4260   2.268   3.988  14.656  2.1183  0.1729  1.1186
  282MPD2    H2 4261   2.364   4.235  14.986  1.1547 -2.8281  0.7750
  282MPD2    H3 4262   2.434   4.109  14.790  0.5726  0.7020  1.4756
  282MPD2     N 4263   1.991   3.988  14.688 -0.2033 -0.1439 -0.5594
  282MPD2    H5 4264   1.896   3.999  14.721 -0.5044 -2.3999 -0.6418
  282MPD2    N1 4265   2.116   4.213  15.100  0.3627  0.1612 -0.0935
  282MPD2    H7 4266   2.021   4.185  15.123  0.4073  0.2158  0.1602
  283TMC3    C1 4267   2.100   4.341  15.292 -0.1704 -0.3899 -0.0373
  283TMC3    C2 4268   2.123   4.462  15.351  0.5704 -0.2697 -0.0527
  283TMC3    C3 4269   2.049   4.500  15.451  0.0698  1.0296  0.5906
  283TMC3    C4 4270   2.006   4.254  15.349 -0.7127 -0.1527  0.7098
  283TMC3    C5 4271   1.926   4.298  15.455 -0.0300 -0.0777 -0.2496
  283TMC3    C6 4272   1.957   4.417  15.512  0.0496  0.2272 -0.3086
  283TMC3     C 4273   2.177   4.306  15.183 -0.0745 -0.4014 -0.3114
  283TMC3     O 4274   2.291   4.347  15.173 -0.3929 -0.2159 -0.3439
  283TMC3     H 4275   2.189   4.530  15.300  1.9547  0.8562  3.2238
  283TMC3    H1 4276   1.992   4.152  15.317  1.2460 -0.1711 -0.0768
  283TMC3    H2 4277   1.903   4.453  15.599  0.9044 -0.4934  0.5235
  283TMC3    C7 4278   1.797   4.238  15.487 -1.1378  0.0119 -0.0987
  283TMC3    C8 4279   2.040   4.643  15.481 -0.6469 -0.1516 -0.8532
  283TMC3    O1 4280   1.754   4.249  15.606 -0.2027 -0.1361 -0.0808
  283TMC3    O2 4281   2.000   4.662  15.594  0.7043  0.0081 -0.0067
  284MPD2     C 4282   0.417   2.487  11.674 -0.3880  0.3290  0.3301
  284MPD2    C1 4283   0.360   2.520  11.552 -0.2673  0.4220 -0.6761
  284MPD2    C2 4284   0.261   2.442  11.502  0.9816  0.5043 -0.1269
  284MPD2    C3 4285   0.218   2.330  11.574  0.3260  0.1651  0.7909
  284MPD2    C4 4286   0.288   2.289  11.689  0.0883  0.5367 -0.3016
  284MPD2    C5 4287   0.384   2.375  11.741  0.0956  0.7254 -0.2071
  284MPD2     H 4288   0.215   2.457  11.405 -1.2115  1.4282  1.0566
  284MPD2    H1 4289   0.262   2.195  11.737  0.0402  0.4725 -0.4525
  284MPD2    H2 4290   0.494   2.550  11.717 -1.6238  2.5464 -0.6842
  284MPD2    H3 4291   0.426   2.340  11.835  0.4302  1.8155  0.0596
  284MPD2     N 4292   0.121   2.233  11.534 -0.8367  0.3964 -1.0982
  284MPD2    H5 4293   0.114   2.156  11.601  0.5107 -0.4874 -1.9663
  284MPD2    N1 4294   0.401   2.635  11.485  0.4722 -0.2080  0.7298
  284MPD2    H7 4295   0.349   2.651  11.399  1.4688  0.2143  0.2082
  285TMC3    C1 4296   0.535   2.808  11.406  0.2489 -0.1734 -0.9981
  285TMC3    C2 4297   0.525   2.763  11.275  0.3660  0.0704 -0.2902
  285TMC3    C3 4298   0.567   2.853  11.172 -0.3266 -0.6567 -0.1925
  285TMC3    C4 4299   0.609   2.927  11.436 -0.6179  0.2140 -0.4113
  285TMC3    C5 4300   0.635   3.009  11.334  0.1347 -0.3392 -0.1219
  285TMC3    C6 4301   0.611   2.986  11.200 -0.0216 -0.6825  0.5359
  285TMC3     C 4302   0.500   2.723  11.513 -0.6634  0.0562  0.3968
  285TMC3     O 4303   0.552   2.759  11.619 -0.1696  0.2985 -0.6437
  285TMC3     H 4304   0.468   2.674  11.251  1.9403 -0.4491 -2.1202
  285TMC3    H1 4305   0.632   2.955  11.538  0.8228 -0.6457 -0.4955
  285TMC3    H2 4306   0.636   3.059  11.124 -0.2844 -0.1797  0.9372
  285TMC3    C7 4307   0.726   3.115  11.362 -0.1782  0.4657  0.3310
  285TMC3    C8 4308   0.524   2.815  11.042  0.5527  0.8797 -0.0648
  285TMC3    O1 4309   0.717   3.218  11.297 -0.3488  0.0220 -0.1547
  285TMC3    O2 4310   0.417   2.753  11.032  0.4997 -0.3950 -0.1718
  286MPD2     C 4311   0.420   2.349   1.792  0.8739 -0.8510  0.9201
  286MPD2    C1 4312   0.421   2.343   1.658 -0.2014  0.8248  0.3485
  286MPD2    C2 4313   0.485   2.239   1.588  0.6319 -0.2926 -0.2221
  286MPD2    C3 4314   0.576   2.162   1.650 -0.5399 -0.1719  0.1234
  286MPD2    C4 4315   0.586   2.172   1.784  0.3714 -0.4207  0.1253
  286MPD2    C5 4316   0.512   2.269   1.850 -0.0482  0.4904 -0.4048
  286MPD2     H 4317   0.477   2.236   1.480 -0.5300  1.3042 -0.1811
  286MPD2    H1 4318   0.652   2.106   1.839 -0.9900 -0.5334  1.6055
  286MPD2    H2 4319   0.372   2.432   1.842  0.2333 -0.1374 -0.8674
  286MPD2    H3 4320   0.527   2.291   1.955  0.3703  0.1153 -0.3827
  286MPD2     N 4321   0.663   2.078   1.585  0.9917 -0.2546  0.1205
  286MPD2    H5 4322   0.737   2.036   1.640  0.0930 -3.1645 -0.9438
  286MPD2    N1 4323   0.347   2.437   1.578  0.1117  0.1933 -0.0615
  286MPD2    H7 4324   0.354   2.426   1.477  1.0236  0.1050  0.0065
  287TMC3    C1 4325   0.780   1.962   1.429 -0.8382 -0.5564  0.4387
  287TMC3    C2 4326   0.763   1.893   1.306  0.3179  0.5140 -0.5615
  287TMC3    C3 4327   0.849   1.786   1.280 -0.2229 -0.6293 -0.3469
  287TMC3    C4 4328   0.880   1.934   1.509 -0.1263  0.4193  0.0776
  287TMC3    C5 4329   0.967   1.834   1.469  0.3452 -0.1317 -0.6895
  287TMC3    C6 4330   0.951   1.754   1.364  0.2052  0.6907  0.5464
  287TMC3     C 4331   0.671   2.056   1.452  0.6031 -0.2361  0.9787
  287TMC3     O 4332   0.596   2.075   1.357 -0.1601 -0.2277  0.0726
  287TMC3     H 4333   0.665   1.888   1.260 -1.1871 -0.8510  2.7252
  287TMC3    H1 4334   0.900   2.008   1.586  2.3435  0.6392 -0.7615
  287TMC3    H2 4335   1.012   1.669   1.335  0.7677  1.2122  0.1928
  287TMC3    C7 4336   1.066   1.798   1.570 -0.1492  0.4328 -0.5920
  287TMC3    C8 4337   0.823   1.711   1.156  0.3071  0.2747  0.1669
  287TMC3    O1 4338   1.064   1.876   1.665 -0.3422 -0.3395 -0.2621
  287TMC3    O2 4339   0.861   1.592   1.148  0.1786 -0.1408 -0.0453
  288TMC3    C1 4340   2.317   1.617  14.476 -0.1960 -0.1929 -1.1674
  288TMC3    C2 4341   2.249   1.571  14.590  0.0707 -0.0039  0.0973
  288TMC3    C3 4342   2.268   1.649  14.706  0.1579  0.0940  0.3112
  288TMC3    C4 4343   2.376   1.739  14.475  0.0624 -0.0722  0.5164
  288TMC3    C5 4344   2.406   1.796  14.597 -0.2213 -0.4776  0.3054
  288TMC3    C6 4345   2.350   1.756  14.712 -0.0333  0.4875 -0.0920
  288TMC3     C 4346   2.271   1.565  14.352  0.1308  0.2151 -0.6353
  288TMC3     O 4347   2.181   1.484  14.338  0.2412  0.3059  0.2979
  288TMC3     H 4348   2.193   1.479  14.582  0.1408  0.0062 -0.5308
  288TMC3    H1 4349   2.394   1.784  14.378 -0.4591 -0.9360  0.0239
  288TMC3    H2 4350   2.361   1.820  14.799  2.2756 -1.6474  1.1733
  288TMC3    C7 4351   2.494   1.908  14.599 -0.0578  0.0001  0.7778
  288TMC3    C8 4352   2.228   1.591  14.836  1.3872 -0.9260  0.2284
  288TMC3    O1 4353   2.500   1.981  14.698  0.4141  0.4873 -0.5473
  288TMC3    O2 4354   2.300   1.615  14.926 -0.1637 -0.3072  0.4908
  289MPD2     C 4355   2.537   0.688  14.371 -0.4182 -0.4420 -0.0619
  289MPD2    C1 4356   2.557   0.818  14.328 -0.6890  0.7634 -0.0771
  289MPD2    C2 4357   2.444   0.903  14.328 -0.6491  0.1751 -0.0897
  289MPD2    C3 4358   2.321   0.854  14.362  0.1685 -0.3289 -0.3831
  289MPD2    C4 4359   2.310   0.720  14.396  0.7667 -0.0241  0.3630
  289MPD2    C5 4360   2.413   0.638  14.397 -0.3553  0.1247  0.0162
  289MPD2     H 4361   2.446   1.005  14.290 -1.1341  0.4109  0.5077
  289MPD2    H1 4362   2.213   0.684  14.430  0.7550 -0.9633 -0.6256
  289MPD2    H2 4363   2.619   0.619  14.363 -0.2901 -0.2651 -0.2873
  289MPD2    H3 4364   2.410   0.533  14.424  0.6051  0.7796  2.6888
  289MPD2     N 4365   2.197   0.924  14.357  0.0428 -0.7868 -0.5198
  289MPD2    H5 4366   2.125   0.862  14.392  0.5573 -1.1988 -0.1802
  289MPD2    N1 4367   2.685   0.860  14.276  0.4226 -0.5054  0.1643
  289MPD2    H7 4368   2.754   0.787  14.262 -1.5023 -2.1349 -0.9192
  290TMC3    C1 4369   2.031   1.076  14.290  0.0976 -0.2774 -0.0601
  290TMC3    C2 4370   2.002   1.205  14.261  0.1166  0.3348  0.1765
  290TMC3    C3 4371   1.871   1.219  14.214 -0.6216  0.2079  0.0811
  290TMC3    C4 4372   1.942   0.970  14.273 -0.5405 -0.4141 -0.2927
  290TMC3    C5 4373   1.812   0.994  14.242  0.2332 -0.0132  0.6000
  290TMC3    C6 4374   1.779   1.123  14.208  0.6788 -0.3593  0.1374
  290TMC3     C 4375   2.170   1.052  14.314  0.4130  0.1043  0.3299
  290TMC3     O 4376   2.246   1.129  14.263  0.4222 -0.6883 -0.1185
  290TMC3     H 4377   2.082   1.278  14.269  0.9372 -0.7713  1.8821
  290TMC3    H1 4378   1.959   0.869  14.309 -0.9735 -0.8031 -1.1755
  290TMC3    H2 4379   1.683   1.142  14.162  1.8314  1.0740 -1.6761
  290TMC3    C7 4380   1.706   0.889  14.222  0.0056  0.7117 -0.1554
  290TMC3    C8 4381   1.833   1.343  14.155  0.8977  0.4221 -0.0975
  290TMC3    O1 4382   1.592   0.934  14.237  0.5668  0.1478 -0.2145
  290TMC3    O2 4383   1.735   1.340  14.079 -0.2215  0.0747  0.0282
  291MPD2     C 4384   1.401   0.375   0.271  0.7857 -0.0215 -0.4198
  291MPD2    C1 4385   1.396   0.255   0.211 -0.1465  0.4802  0.1727
  291MPD2    C2 4386   1.418   0.240   0.079  0.6640  0.0984  0.0793
  291MPD2    C3 4387   1.440   0.360   0.006 -0.5914  0.7023 -0.0278
  291MPD2    C4 4388   1.446   0.486   0.071 -0.0308 -0.1866  0.5946
  291MPD2    C5 4389   1.426   0.491   0.203  1.2972  0.3280 -0.3327
  291MPD2     H 4390   1.414   0.145   0.028  0.8963 -0.6422  1.4365
  291MPD2    H1 4391   1.469   0.578   0.018  0.4801 -0.2730  0.6684
  291MPD2    H2 4392   1.381   0.382   0.378  0.0928 -1.0497 -0.4826
  291MPD2    H3 4393   1.433   0.589   0.248 -1.2290  0.0295  0.6618
  291MPD2     N 4394   1.450   0.372  17.570 -0.3958  0.6829 -0.0650
  291MPD2    H5 4395   1.443   0.463  17.525  0.1520  0.9742  0.4409
  291MPD2    N1 4396   1.359   0.135   0.274  0.3465 -0.7533 -0.2575
  291MPD2    H7 4397   1.353   0.049   0.221 -1.7014 -0.5482 -0.3817
  292TMC3    C1 4398   1.237   0.006   0.406 -0.1428 -0.3551  0.1469
  292TMC3    C2 4399   1.123   0.027   0.475  0.0812 -0.3742 -0.5494
  292TMC3    C3 4400   1.017   4.670   0.451 -0.0943 -0.3646 -0.5417
  292TMC3    C4 4401   1.237   4.636   0.303 -0.6498 -0.8137  0.6181
  292TMC3    C5 4402   1.129   4.560   0.282 -1.0911  1.1851  0.9759
  292TMC3    C6 4403   1.012   4.584   0.351 -0.3596 -0.9385 -0.7488
  292TMC3     C 4404   1.315   0.124   0.400  0.4218  0.0307  0.4779
  292TMC3     O 4405   1.284   0.217   0.472  0.1022 -0.4846 -0.0284
  292TMC3     H 4406   1.123   0.090   0.563 -0.4593 -1.8306  0.5054
  292TMC3    H1 4407   1.335   4.596   0.276 -0.4345  0.9176 -1.1787
  292TMC3    H2 4408   0.925   4.520   0.337 -1.9962  1.1546 -0.1930
  292TMC3    C7 4409   1.133   4.455   0.187  0.4955 -1.2137  0.1637
  292TMC3    C8 4410   0.905   4.681   0.545  0.4748  0.1624 -0.4062
  292TMC3    O1 4411   1.244   4.411   0.164 -0.3313  0.0475  0.5953
  292TMC3    O2 4412   0.923   0.041   0.626 -0.3891  0.3247 -0.0125
  293MPD2     C 4413   3.209   2.532  12.563  0.2676  0.7012  0.8700
  293MPD2    C1 4414   3.220   2.403  12.606 -0.9744 -0.3877 -0.7149
  293MPD2    C2 4415   3.270   2.377  12.738 -0.2068  0.3629  0.5553
  293MPD2    C3 4416   3.303   2.477  12.825  0.2920 -0.5624  0.0068
  293MPD2    C4 4417   3.296   2.605  12.772 -0.0870  0.1916  0.0936
  293MPD2    C5 4418   3.258   2.635  12.640 -0.5630  0.8191 -0.6660
  293MPD2     H 4419   3.285   2.277  12.777 -1.4029 -0.0580 -0.0518
  293MPD2    H1 4420   3.320   2.694  12.829  1.9320 -1.0697  1.2148
  293MPD2    H2 4421   3.152   2.557  12.473 -0.2967 -0.8756  0.7887
  293MPD2    H3 4422   3.266   2.737  12.604  1.6365  0.3454 -1.4925
  293MPD2     N 4423   3.373   2.449  12.945  0.2042  0.7013 -0.2099
  293MPD2    H5 4424   3.395   2.352  12.969 -1.8981 -0.1730 -1.8687
  293MPD2    N1 4425   3.147   2.310  12.529  0.6049  0.2377 -0.8963
  293MPD2    H7 4426   3.114   2.336  12.437 -2.3398 -0.9700 -0.1616
  294TMC3    C1 4427   2.984   2.149  12.490 -0.3314  0.8589  0.3018
  294TMC3    C2 4428   2.865   2.112  12.549 -0.5199 -0.3567 -0.2285
  294TMC3    C3 4429   2.755   2.111  12.469  0.2419 -0.4201  0.6416
  294TMC3    C4 4430   3.000   2.188  12.358  0.1792 -0.0680  0.2239
  294TMC3    C5 4431   2.887   2.165  12.283 -0.2760  0.7706 -0.5528
  294TMC3    C6 4432   2.765   2.129  12.336 -0.4106  0.4672  0.2307
  294TMC3     C 4433   3.083   2.200  12.582 -0.0867  0.0722  0.0494
  294TMC3     O 4434   3.090   2.158  12.695  0.5706 -0.1640  0.3752
  294TMC3     H 4435   2.851   2.089  12.654 -0.3229  1.7148  0.2580
  294TMC3    H1 4436   3.097   2.204  12.311 -1.3955  1.4919 -2.5194
  294TMC3    H2 4437   2.681   2.117  12.269  1.5715  0.5730 -2.2817
  294TMC3    C7 4438   2.902   2.108  12.149  0.8234 -0.0483  0.1712
  294TMC3    C8 4439   2.679   1.995  12.507 -0.4852 -0.3881 -0.1120
  294TMC3    O1 4440   2.820   2.022  12.130  0.1360  0.1864  0.1335
  294TMC3    O2 4441   2.672   1.963  12.623 -0.4040  0.7974 -0.2371
  295MPD2     C 4442   3.714   1.244   1.026 -0.5321 -0.2579  0.7382
  295MPD2    C1 4443   3.614   1.262   0.929 -0.6747  0.0108  0.1714
  295MPD2    C2 4444   3.494   1.333   0.967 -0.2189  0.9826 -0.1175
  295MPD2    C3 4445   3.483   1.396   1.085  0.9634  0.0072 -0.7047
  295MPD2    C4 4446   3.581   1.377   1.179  0.5879  0.2754 -0.9174
  295MPD2    C5 4447   3.691   1.304   1.149 -0.1341 -0.1510  0.4511
  295MPD2     H 4448   3.408   1.328   0.902  0.0029  1.0556 -0.4150
  295MPD2    H1 4449   3.576   1.419   1.279  3.7671 -2.4223  0.3739
  295MPD2    H2 4450   3.809   1.197   1.003 -0.5809  0.0257 -0.0574
  295MPD2    H3 4451   3.775   1.304   1.218  1.4348  0.8841 -1.4590
  295MPD2     N 4452   3.363   1.462   1.129  0.3091  0.6879 -0.0146
  295MPD2    H5 4453   3.370   1.511   1.218  0.0045 -0.5446  0.6877
  295MPD2    N1 4454   3.626   1.205   0.803 -0.3687 -0.0400 -0.1240
  295MPD2    H7 4455   3.555   1.243   0.740  1.0092  0.9382 -1.0941
  296TMC3    C1 4456   3.131   1.518   1.158 -0.7465 -0.0931  0.3027
  296TMC3    C2 4457   3.054   1.613   1.098  0.0094  0.3699  0.0654
  296TMC3    C3 4458   2.970   1.694   1.176  0.7276  0.3049 -0.5126
  296TMC3    C4 4459   3.123   1.494   1.293  0.5382  0.0668 -0.1801
  296TMC3    C5 4460   3.033   1.571   1.366 -0.5059  0.1283 -0.4295
  296TMC3    C6 4461   2.957   1.669   1.308 -0.2984  0.0220 -0.0350
  296TMC3     C 4462   3.236   1.459   1.076 -0.4035 -0.6828 -0.1310
  296TMC3     O 4463   3.193   1.410   0.971 -0.2094 -0.4981 -0.3644
  296TMC3     H 4464   3.058   1.620   0.990 -0.4289 -1.6118 -0.0811
  296TMC3    H1 4465   3.193   1.419   1.328  0.8136  1.2216  1.7263
  296TMC3    H2 4466   2.890   1.728   1.370 -3.2990 -1.4192 -1.8749
  296TMC3    C7 4467   3.008   1.528   1.503 -0.6361  0.7607 -0.4394
  296TMC3    C8 4468   2.889   1.791   1.111 -0.0189  0.5796 -0.1811
  296TMC3    O1 4469   2.965   1.605   1.589  0.3042  0.2636  0.5936
  296TMC3    O2 4470   2.867   1.775   0.989 -0.6268 -0.6410 -0.6736
  297MPD2     C 4471   1.350   2.697  16.233  0.7755  0.1187  0.7777
  297MPD2    C1 4472   1.360   2.817  16.159 -0.6127  0.3506  0.0903
  297MPD2    C2 4473   1.484   2.888  16.160 -0.0531  0.0218 -0.0470
  297MPD2    C3 4474   1.597   2.823  16.208  0.0939  0.4739  0.5068
  297MPD2    C4 4475   1.590   2.697  16.264  0.4807  0.6382 -0.2257
  297MPD2    C5 4476   1.463   2.636  16.284  0.4897  0.4347  0.0174
  297MPD2     H 4477   1.498   2.982  16.107  0.0192 -0.7994 -1.4797
  297MPD2    H1 4478   1.673   2.642  16.309 -0.0980  0.8710  1.1443
  297MPD2    H2 4479   1.263   2.635  16.250  0.0965  0.3699 -1.7785
  297MPD2    H3 4480   1.456   2.543  16.339  1.3549  0.0805 -0.4654
  297MPD2     N 4481   1.713   2.901  16.209 -0.0702  0.0919 -0.5790
  297MPD2    H5 4482   1.707   3.001  16.191  2.3874  0.3764  0.2426
  297MPD2    N1 4483   1.249   2.876  16.096 -0.4564 -0.2002  0.1790
  297MPD2    H7 4484   1.265   2.949  16.028 -1.4806 -1.6346 -1.6065
  298TMC3    C1 4485   1.034   2.881  16.004  0.9642  0.5029 -0.1585
  298TMC3    C2 4486   1.084   2.835  15.888 -0.0719 -0.6703 -0.2579
  298TMC3    C3 4487   1.002   2.836  15.781  0.0559  0.6595  0.4835
  298TMC3    C4 4488   0.905   2.916  16.025  0.2811 -0.1091  0.0893
  298TMC3    C5 4489   0.825   2.928  15.909  0.2110  0.7567 -0.4999
  298TMC3    C6 4490   0.877   2.884  15.786 -0.3608 -0.7491 -0.1211
  298TMC3     C 4491   1.117   2.842  16.120  0.0166 -0.1580  0.2172
  298TMC3     O 4492   1.071   2.808  16.228  0.5978  0.0057  0.3428
  298TMC3     H 4493   1.181   2.786  15.884  0.4165  0.3674 -1.2688
  298TMC3    H1 4494   0.866   2.942  16.123 -1.9258  0.2707 -0.8726
  298TMC3    H2 4495   0.809   2.861  15.705  0.0389 -0.6510 -0.4870
  298TMC3    C7 4496   0.708   3.008  15.922 -0.2465  0.2612  0.6618
  298TMC3    C8 4497   1.060   2.835  15.650 -0.2670 -0.1538 -0.0233
  298TMC3    O1 4498   0.671   3.031  16.035 -0.0636 -0.4564 -0.0240
  298TMC3    O2 4499   0.992   2.817  15.548  0.0285 -0.6104 -0.0009
  299MPD2     C 4500   1.350   2.140  10.202 -0.4648  0.8880  0.2614
  299MPD2    C1 4501   1.389   2.243  10.122  1.0916  0.3627 -0.4155
  299MPD2    C2 4502   1.362   2.247   9.991 -0.1619  0.4357 -0.6675
  299MPD2    C3 4503   1.258   2.168   9.944 -1.0939 -0.0407  0.1853
  299MPD2    C4 4504   1.204   2.072  10.028 -0.0394 -0.1650  0.5401
  299MPD2    C5 4505   1.257   2.057  10.153 -0.5088  0.3918 -0.4044
  299MPD2     H 4506   1.403   2.322   9.924  3.2356 -1.4646 -0.7110
  299MPD2    H1 4507   1.125   2.005   9.996  0.3023  0.0926 -0.8417
  299MPD2    H2 4508   1.371   2.126  10.307  1.6027 -3.6988 -0.7579
  299MPD2    H3 4509   1.211   1.979  10.212  2.8542 -3.4191 -2.8503
  299MPD2     N 4510   1.193   2.185   9.822 -0.2527 -0.4280  0.9036
  299MPD2    H5 4511   1.105   2.136   9.811 -0.7708  0.1436  2.4116
  299MPD2    N1 4512   1.482   2.336  10.177 -0.5438  0.2438 -0.2737
  299MPD2    H7 4513   1.501   2.322  10.276 -2.0033 -2.7817 -0.4284
  300TMC3    C1 4514   1.105   2.339   9.660 -0.7112  0.2212 -0.2342
  300TMC3    C2 4515   1.142   2.417   9.562 -0.1224  0.4857  0.6990
  300TMC3    C3 4516   1.042   2.471   9.482  0.0488 -1.3232  0.6749
  300TMC3    C4 4517   0.981   2.301   9.685  0.4878  0.3424 -0.1862
  300TMC3    C5 4518   0.880   2.350   9.605 -0.8834 -0.2331  0.3647
  300TMC3    C6 4519   0.913   2.426   9.493  0.2014  0.5258 -0.2205
  300TMC3     C 4520   1.220   2.290   9.740 -0.1919  0.7277 -0.0701
  300TMC3     O 4521   1.327   2.347   9.722 -0.3155 -0.2142  0.2813
  300TMC3     H 4522   1.245   2.442   9.539  0.0760 -1.0252 -0.0217
  300TMC3    H1 4523   0.951   2.248   9.775  0.6035 -0.9011 -0.8904
  300TMC3    H2 4524   0.833   2.460   9.428  1.0126  2.6560 -0.0756
  300TMC3    C7 4525   0.748   2.301   9.619 -0.2194 -1.0881  0.4028
  300TMC3    C8 4526   1.067   2.607   9.467 -0.2439  0.2034  0.0253
  300TMC3    O1 4527   0.679   2.276   9.522 -0.2036  0.0613 -0.0611
  300TMC3    O2 4528   1.008   2.683   9.545 -0.8376  0.0286 -0.2308
  301MPD2     C 4529   3.135   4.124   1.592 -0.4921  0.3601  0.3658
  301MPD2    C1 4530   3.067   4.179   1.484  1.2661 -0.5674  0.2727
  301MPD2    C2 4531   3.053   4.099   1.371  0.3615 -0.1700 -0.6866
  301MPD2    C3 4532   3.108   3.967   1.364  0.2203 -0.3885 -1.1181
  301MPD2    C4 4533   3.184   3.926   1.471  0.2349  0.4498  0.7562
  301MPD2    C5 4534   3.192   4.000   1.583  0.3448 -0.3211 -0.6549
  301MPD2     H 4535   2.982   4.144   1.303  1.6441 -0.5235 -2.2604
  301MPD2    H1 4536   3.228   3.827   1.476 -0.0071  0.2686 -0.6667
  301MPD2    H2 4537   3.139   4.165   1.692  1.0612 -0.7353  0.7524
  301MPD2    H3 4538   3.247   3.961   1.668  1.0001  1.1135 -0.4129
  301MPD2     N 4539   3.091   3.875   1.255  0.2514 -0.0820 -0.6186
  301MPD2    H5 4540   3.138   3.786   1.266  3.2972  1.5538 -0.1065
  301MPD2    N1 4541   2.994   4.302   1.497  0.2164 -0.4000  0.0328
  301MPD2    H7 4542   2.937   4.338   1.422  0.1812  0.6152  0.5450
  302TMC3    C1 4543   3.014   3.792   1.050  0.0784  0.0574 -1.1535
  302TMC3    C2 4544   3.103   3.691   1.060  0.8651  0.2273  0.8489
  302TMC3    C3 4545   3.073   3.574   0.994 -0.9008  0.0279 -0.1126
  302TMC3    C4 4546   2.902   3.779   0.970  0.1599  0.3892 -0.2865
  302TMC3    C5 4547   2.877   3.658   0.907  0.2732 -0.1957 -0.2541
  302TMC3    C6 4548   2.961   3.553   0.921  0.0338 -0.9411  1.0512
  302TMC3     C 4549   3.014   3.902   1.151 -0.1822 -0.5204  0.6086
  302TMC3     O 4550   2.950   4.003   1.122  0.1365  0.6430 -0.0605
  302TMC3     H 4551   3.199   3.704   1.108  0.7644  0.5578  0.9665
  302TMC3    H1 4552   2.835   3.861   0.946  1.7366  0.7949 -3.2200
  302TMC3    H2 4553   2.937   3.460   0.872  0.4639 -0.3289 -0.3126
  302TMC3    C7 4554   2.741   3.636   0.853 -0.0697 -0.2262  1.0050
  302TMC3    C8 4555   3.155   3.453   1.019  0.2233  0.1697 -0.0620
  302TMC3    O1 4556   2.727   3.550   0.766  0.0934  0.3984 -0.1027
  302TMC3    O2 4557   3.102   3.349   0.993 -0.2929 -0.3112 -0.0589
  303MPD2     C 4558   3.853   1.994   9.678 -0.1084 -0.0542 -0.4353
  303MPD2    C1 4559   3.776   1.910   9.599 -0.1514 -0.3558  0.6037
  303MPD2    C2 4560   3.670   1.961   9.524  0.3256  0.0815 -0.2410
  303MPD2    C3 4561   3.631   2.088   9.529  0.2216 -0.7139 -0.2991
  303MPD2    C4 4562   3.714   2.174   9.596  0.3536 -0.1390  0.1560
  303MPD2    C5 4563   3.819   2.126   9.675  0.4790 -0.3297 -0.3377
  303MPD2     H 4564   3.616   1.886   9.468 -0.4474  0.0861  0.5047
  303MPD2    H1 4565   3.697   2.281   9.598  0.7918 -0.0502 -0.7115
  303MPD2    H2 4566   3.942   1.961   9.730 -2.2025  0.3467  3.3884
  303MPD2    H3 4567   3.880   2.193   9.734  1.6488 -1.1540 -0.6134
  303MPD2     N 4568   3.512   2.138   9.473 -0.4037 -0.0898 -1.0252
  303MPD2    H5 4569   3.512   2.239   9.468 -0.5297  0.0138  1.4034
  303MPD2    N1 4570   3.818   1.773   9.601 -0.3805 -0.6416  0.1305
  303MPD2    H7 4571   3.891   1.756   9.669 -1.0757  1.0258  1.2913
  304TMC3    C1 4572   3.833   1.553   9.564 -0.6781 -0.6587 -0.2532
  304TMC3    C2 4573   3.803   1.513   9.692 -0.0931 -0.0629 -0.5506
  304TMC3    C3 4574   3.774   1.380   9.719 -0.2421  0.1711  1.2785
  304TMC3    C4 4575   3.849   1.472   9.456 -0.8257  0.2422  0.2434
  304TMC3    C5 4576   3.829   1.341   9.489 -0.3001  0.2730  0.7560
  304TMC3    C6 4577   3.807   1.298   9.616  0.1665  1.0441  1.0597
  304TMC3     C 4578   3.779   1.676   9.516 -0.5596  0.0154  0.4903
  304TMC3     O 4579   3.701   1.667   9.420 -0.3320 -0.3448 -0.2190
  304TMC3     H 4580   3.766   1.590   9.758 -0.8765 -2.1016  1.3753
  304TMC3    H1 4581   3.877   1.506   9.357 -1.3363  2.4102  0.8561
  304TMC3    H2 4582   3.788   1.193   9.634 -0.7352  1.4570  2.4983
  304TMC3    C7 4583   3.760   1.260   9.387 -0.0588  0.1716 -0.2850
  304TMC3    C8 4584   3.641   1.365   9.766  0.3176  0.3456 -0.3371
  304TMC3    O1 4585   3.679   1.178   9.434  0.4561 -0.0658 -0.3210
  304TMC3    O2 4586   3.592   1.449   9.837 -0.0635 -0.2576 -1.1925
  305MPD2     C 4587   1.921   4.215  13.624  0.5578 -0.5227  0.1361
  305MPD2    C1 4588   1.939   4.083  13.649  0.6126  0.4337 -0.0619
  305MPD2    C2 4589   1.914   3.991  13.549 -0.3095  0.9156  0.5192
  305MPD2    C3 4590   1.902   4.025  13.413 -0.1738  0.6806 -0.0857
  305MPD2    C4 4591   1.892   4.162  13.389  0.0613 -0.2547 -0.7366
  305MPD2    C5 4592   1.889   4.253  13.494  0.0781 -0.6741  0.2425
  305MPD2     H 4593   1.914   3.886  13.575 -1.0340  0.2597 -2.1020
  305MPD2    H1 4594   1.882   4.204  13.290 -0.6611 -1.8557 -1.3419
  305MPD2    H2 4595   1.936   4.289  13.702 -0.2191 -0.0825 -0.1240
  305MPD2    H3 4596   1.876   4.355  13.458 -0.1383 -1.7062 -2.6223
  305MPD2     N 4597   1.911   3.932  13.301  0.0659  0.6715 -0.2593
  305MPD2    H5 4598   1.885   3.974  13.213 -0.4912 -0.3356 -0.5736
  305MPD2    N1 4599   1.965   4.050  13.784  0.6747 -0.5025 -0.4995
  305MPD2    H7 4600   1.971   4.140  13.831 -0.7113 -0.9869  0.5772
  306TMC3    C1 4601   2.002   3.940  13.991  0.0198 -0.1417  1.0498
  306TMC3    C2 4602   2.083   3.850  14.051  0.9848 -0.1216 -0.1482
  306TMC3    C3 4603   2.135   3.888  14.174  0.1051 -0.6483  0.3045
  306TMC3    C4 4604   1.974   4.058  14.045  0.2514 -0.2180 -0.3739
  306TMC3    C5 4605   2.016   4.082  14.177  0.6475  0.0851 -0.1046
  306TMC3    C6 4606   2.111   4.002  14.240 -0.2497  0.1351  0.9768
  306TMC3     C 4607   1.992   3.929  13.841 -0.7981  0.1048 -0.2947
  306TMC3     O 4608   1.994   3.823  13.784 -0.0466  0.2045  0.5379
  306TMC3     H 4609   2.118   3.761  14.000 -0.4472 -0.7776  0.0078
  306TMC3    H1 4610   1.913   4.137  14.002  0.2865  0.3730  0.6546
  306TMC3    H2 4611   2.140   4.024  14.343 -0.7420  0.3770  1.0632
  306TMC3    C7 4612   1.950   4.190  14.246  0.1985  0.3693  0.2000
  306TMC3    C8 4613   2.215   3.798  14.248  0.3720 -0.5455  0.0101
  306TMC3    O1 4614   1.840   4.222  14.199 -0.1002 -0.5474 -0.4708
  306TMC3    O2 4615   2.319   3.839  14.302  0.6474  0.1272 -0.2923
  307MPD2     C 4616   4.404   2.304   1.125 -0.0784  0.3679  0.1965
  307MPD2    C1 4617   4.329   2.349   1.018  0.3579  0.2355 -0.2608
  307MPD2    C2 4618   4.194   2.311   1.019  0.2499  0.4975  0.5756
  307MPD2    C3 4619   4.135   2.237   1.118  0.4759  0.0764  0.8049
  307MPD2    C4 4620   4.212   2.185   1.221  0.0712 -0.1063 -0.2847
  307MPD2    C5 4621   4.348   2.225   1.225 -0.4237 -0.2565 -0.0459
  307MPD2     H 4622   4.128   2.330   0.935  0.5968 -2.6203 -0.4244
  307MPD2    H1 4623   4.160   2.129   1.297 -2.9540  0.1015 -2.1747
  307MPD2    H2 4624   4.509   2.330   1.127  0.5845 -2.3232  0.0491
  307MPD2    H3 4625   4.410   2.188   1.306 -0.2364  0.7659  0.2812
  307MPD2     N 4626   3.991   2.228   1.112 -0.4181  0.3571  0.0308
  307MPD2    H5 4627   3.951   2.271   1.029 -0.8640  3.5100  1.9087
  307MPD2    N1 4628   4.380   2.426   0.910  0.5794  0.2926 -0.1146
  307MPD2    H7 4629   4.315   2.447   0.835  2.1816 -1.2143 -1.9069
  308TMC3    C1 4630   3.583   2.046   1.095  0.4474 -0.2788 -0.6040
  308TMC3    C2 4631   3.520   2.165   1.053 -0.4818 -0.0972 -0.2184
  308TMC3    C3 4632   3.593   2.277   1.073  0.1718 -0.9047 -0.2547
  308TMC3    C4 4633   3.707   2.037   1.141 -0.4966 -0.6052  0.7742
  308TMC3    C5 4634   3.773   2.152   1.157  0.2678 -0.5861  0.0800
  308TMC3    C6 4635   3.724   2.274   1.130 -0.8066  0.0209  0.4141
  308TMC3     C 4636   3.525   1.925   1.044 -0.9395 -0.4257 -0.0228
  308TMC3     O 4637   3.547   1.820   1.107 -0.0233  0.0665 -0.4899
  308TMC3     H 4638   3.417   2.173   1.018  0.3924  1.5310 -2.4365
  308TMC3    H1 4639   3.749   1.940   1.166  0.8441 -0.7398 -1.9892
  308TMC3    H2 4640   3.779   2.366   1.147 -2.7372  0.7661  2.7306
  308TMC3    C7 4641   3.915   2.147   1.196  0.4011 -0.3687  0.1498
  308TMC3    C8 4642   3.560   2.386   0.978  0.5247 -0.0629  0.2931
  308TMC3    O1 4643   3.945   2.070   1.285 -0.0959  0.2728 -0.2070
  308TMC3    O2 4644   3.524   2.349   0.866 -0.6022  0.3462 -0.1390
  309MPD2     C 4645   3.870   2.167  17.223  0.5238  0.5189  0.6484
  309MPD2    C1 4646   3.840   2.260  17.132 -0.1588  0.1162  0.1439
  309MPD2    C2 4647   3.750   2.358  17.171 -0.0106 -0.3839 -0.1815
  309MPD2    C3 4648   3.688   2.366  17.297 -0.1025  0.3601  0.6450
  309MPD2    C4 4649   3.719   2.262  17.379  0.0613  0.0038  0.1757
  309MPD2    C5 4650   3.811   2.167  17.349 -0.1717  0.3664 -0.0355
  309MPD2     H 4651   3.734   2.425  17.088  1.9644 -0.7634 -0.8692
  309MPD2    H1 4652   3.667   2.259  17.474 -1.2603 -0.5075 -0.5748
  309MPD2    H2 4653   3.942   2.089  17.200  0.2330  0.8674 -1.4456
  309MPD2    H3 4654   3.832   2.089  17.422  0.8327 -0.7432 -1.5156
  309MPD2     N 4655   3.615   2.475  17.344  0.5576 -0.0232  0.0193
  309MPD2    H5 4656   3.583   2.471  17.441 -1.0415 -0.0403 -0.5128
  309MPD2    N1 4657   3.906   2.276  17.007 -0.5407 -0.5446  0.0669
  309MPD2    H7 4658   3.857   2.346  16.953  0.4238  0.1487  0.0950
  310TMC3    C1 4659   4.052   2.238  16.815 -0.2405  0.0039  0.4020
  310TMC3    C2 4660   3.992   2.339  16.746 -0.0774 -0.3503 -0.2152
  310TMC3    C3 4661   4.017   2.358  16.612  0.1159 -0.1592  0.4547
  310TMC3    C4 4662   4.138   2.144  16.746 -0.3137  0.0921  0.3143
  310TMC3    C5 4663   4.154   2.166  16.611 -0.2515 -0.3168 -0.1112
  310TMC3    C6 4664   4.097   2.270  16.543 -0.1509  0.2878  0.0704
  310TMC3     C 4665   4.008   2.197  16.951 -0.1208  0.1088  0.8207
  310TMC3     O 4666   4.075   2.119  17.014  0.3809  0.6883  0.5803
  310TMC3     H 4667   3.933   2.416  16.796  0.0608 -0.2094 -0.2714
  310TMC3    H1 4668   4.194   2.068  16.799 -1.7363 -1.4911 -0.4761
  310TMC3    H2 4669   4.081   2.271  16.436  1.5661  1.4911 -0.1721
  310TMC3    C7 4670   4.254   2.084  16.549 -0.3617  0.9200 -0.4070
  310TMC3    C8 4671   3.954   2.468  16.540 -0.7043 -0.5391 -0.5054
  310TMC3    O1 4672   4.315   1.989  16.606 -0.1613  0.3297  0.6216
  310TMC3    O2 4673   4.007   2.498  16.435  0.2605 -0.5374  0.7173
  311MPD2     C 4674   1.267   3.145  12.576  0.2998  0.0010  0.0571
  311MPD2    C1 4675   1.253   3.269  12.628 -0.5362 -0.1109  1.1723
  311MPD2    C2 4676   1.133   3.306  12.674  0.0384  0.5316  0.4514
  311MPD2    C3 4677   1.019   3.234  12.656  0.2174 -0.7325  0.7572
  311MPD2    C4 4678   1.031   3.111  12.593 -0.2569  0.4047 -0.1956
  311MPD2    C5 4679   1.155   3.066  12.562 -0.3694 -0.7476  0.5491
  311MPD2     H 4680   1.123   3.394  12.736 -0.5188  0.0625  1.0344
  311MPD2    H1 4681   0.950   3.040  12.587  1.5385 -1.8238  1.6971
  311MPD2    H2 4682   1.362   3.098  12.553 -0.3473 -2.2745  1.9254
  311MPD2    H3 4683   1.167   2.965  12.523  1.3952  0.8263 -2.9787
  311MPD2     N 4684   0.894   3.272  12.713  0.5267 -0.1908  0.0478
  311MPD2    H5 4685   0.901   3.344  12.784  0.3395 -0.6011  0.4871
  311MPD2    N1 4686   1.356   3.344  12.677  0.1508 -0.6143 -0.3069
  311MPD2    H7 4687   1.329   3.438  12.704  2.5146 -0.3629  1.1552
  312TMC3    C1 4688   0.673   3.333  12.724 -0.1705 -0.4440  0.2999
  312TMC3    C2 4689   0.576   3.367  12.642 -0.3448  0.1826 -0.1886
  312TMC3    C3 4690   0.506   3.482  12.662  0.7824  0.3073  0.0343
  312TMC3    C4 4691   0.683   3.388  12.849 -0.0255  0.0873  0.4111
  312TMC3    C5 4692   0.617   3.509  12.864 -0.0616  0.3689  0.4004
  312TMC3    C6 4693   0.526   3.558  12.769 -0.0719  0.3886  0.2449
  312TMC3     C 4694   0.771   3.243  12.664  0.1469 -0.0827  0.0615
  312TMC3     O 4695   0.739   3.175  12.566 -0.5641  0.1847  0.3653
  312TMC3     H 4696   0.561   3.309  12.551  1.9017 -0.0842 -0.3818
  312TMC3    H1 4697   0.758   3.347  12.916 -0.3745 -1.2473 -0.0009
  312TMC3    H2 4698   0.479   3.652  12.795  0.9409  0.6728  1.0409
  312TMC3    C7 4699   0.648   3.586  12.981 -0.4332 -0.8375  0.4173
  312TMC3    C8 4700   0.384   3.503  12.580  0.1579 -0.4629  0.1698
  312TMC3    O1 4701   0.614   3.705  12.967 -0.5690 -0.2165  0.0028
  312TMC3    O2 4702   0.333   3.402  12.532 -0.0324  0.0060  0.2376
  313MPD2     C 4703   0.025   2.419  10.369  0.4364  0.3785  0.1784
  313MPD2    C1 4704   0.057   2.494  10.260 -0.4774 -0.0703  0.1520
  313MPD2    C2 4705   0.062   2.442  10.135 -0.5766 -0.1336 -0.4723
  313MPD2    C3 4706   0.024   2.312  10.117  0.2734 -0.1053  0.0721
  313MPD2    C4 4707   4.709   2.233  10.227 -0.4733  0.0941  0.6384
  313MPD2    C5 4708   4.705   2.291  10.351 -0.7630  0.0852  0.4082
  313MPD2     H 4709   0.094   2.506  10.054 -0.2501 -0.9823 -1.0142
  313MPD2    H1 4710   4.663   2.136  10.215 -1.6043  0.9863 -2.1886
  313MPD2    H2 4711   0.025   2.467  10.466 -1.5203  1.0121 -0.1477
  313MPD2    H3 4712   4.685   2.234  10.441  1.6185 -0.5897  0.5229
  313MPD2     N 4713   0.011   2.268   9.981 -0.1145 -0.0217  0.0954
  313MPD2    H5 4714   0.037   2.332   9.907  0.1065 -0.3331 -0.0963
  313MPD2    N1 4715   0.078   2.633  10.261 -0.4437 -0.2263  0.6598
  313MPD2    H7 4716   0.101   2.678  10.173 -1.1444 -1.0875  0.0299
  314TMC3    C1 4717   0.102   2.856  10.332  0.2923  0.0715  0.3516
  314TMC3    C2 4718   0.152   2.941  10.428 -0.0545  0.4653 -0.1685
  314TMC3    C3 4719   0.164   3.072  10.398  0.3041  0.0469 -0.2317
  314TMC3    C4 4720   0.041   2.906  10.220 -0.1732 -0.5905  0.5442
  314TMC3    C5 4721   0.048   3.040  10.197  0.1555  0.6020 -0.6758
  314TMC3    C6 4722   0.120   3.127  10.279 -0.0077 -0.1721 -0.0733
  314TMC3     C 4723   0.091   2.717  10.368  0.1518 -0.1195 -0.4185
  314TMC3     O 4724   0.111   2.687  10.482 -0.1660  0.7329  0.3825
  314TMC3     H 4725   0.210   2.895  10.507 -1.0623  1.5918  1.2319
  314TMC3    H1 4726   4.724   2.844  10.143 -0.7334 -1.4550  1.5618
  314TMC3    H2 4727   0.137   3.232  10.257 -0.8668 -0.3039 -1.3611
  314TMC3    C7 4728   4.686   3.079  10.084  0.4241 -0.3935 -0.0726
  314TMC3    C8 4729   0.242   3.157  10.484 -0.2282 -0.4685 -0.1792
  314TMC3    O1 4730   4.600   2.997  10.050  0.1667 -0.2996  0.1835
  314TMC3    O2 4731   0.293   3.258  10.439  0.1544 -0.3601 -0.3596
  315MPD2     C 4732   0.085   2.058  17.563  0.3477 -0.3460 -0.1567
  315MPD2    C1 4733   0.200   2.132  17.560  0.0179  0.1701 -0.7241
  315MPD2    C2 4734   0.226   2.205  17.444 -0.6161  0.5816 -0.5467
  315MPD2    C3 4735   0.137   2.210  17.337 -0.3246  0.1111 -0.8418
  315MPD2    C4 4736   0.029   2.127  17.341 -0.4954  0.5684  0.6152
  315MPD2    C5 4737   4.722   2.059  17.457  0.2517  0.0737  0.4258
  315MPD2     H 4738   0.303   2.281  17.439  1.0769 -1.0168  1.5069
  315MPD2    H1 4739   4.684   2.113  17.260  1.4159  0.3424 -1.0168
  315MPD2    H2 4740   0.056   2.007  17.654 -0.6055  0.7738  0.1616
  315MPD2    H3 4741   4.625   2.011  17.464 -0.5374  1.5480 -0.5235
  315MPD2     N 4742   0.166   2.291  17.227 -0.1021  0.1365 -0.0729
  315MPD2    H5 4743   0.257   2.337  17.231 -0.1969  0.2484  0.6150
  315MPD2    N1 4744   0.276   2.147  17.677 -0.3611 -0.4152 -0.0427
  315MPD2    H7 4745   0.245   2.096   0.053 -1.7684  1.3824  0.5554
  316TMC3    C1 4746   0.140   2.412  17.019  0.4361  0.8298  1.1459
  316TMC3    C2 4747   0.268   2.464  17.030 -0.0766 -0.1761  0.7594
  316TMC3    C3 4748   0.299   2.581  16.962  0.5395 -0.0506 -0.0265
  316TMC3    C4 4749   0.046   2.479  16.938 -0.3649 -0.2517  0.5071
  316TMC3    C5 4750   0.086   2.587  16.869 -0.1236 -0.1577  0.1119
  316TMC3    C6 4751   0.209   2.647  16.884  0.1389 -0.1114  0.7137
  316TMC3     C 4752   0.091   2.309  17.111  0.0376 -0.6568  0.7944
  316TMC3     O 4753   4.701   2.272  17.092 -1.1448 -0.3192  0.1296
  316TMC3     H 4754   0.342   2.417  17.094  1.5278  1.8772  0.4112
  316TMC3    H1 4755   4.671   2.441  16.940 -0.5979  0.3154 -1.0240
  316TMC3    H2 4756   0.248   2.738  16.840 -2.7981  0.6342 -0.3027
  316TMC3    C7 4757   4.709   2.675  16.807  0.2936  0.4219  0.0212
  316TMC3    C8 4758   0.438   2.626  16.951  0.1295  0.2706  0.3339
  316TMC3    O1 4759   4.592   2.640  16.836  0.5682 -0.0680  0.0222
  316TMC3    O2 4760   0.464   2.686  16.847 -0.3082 -0.8502 -0.0812
  317MPD2     C 4761   1.971   1.071  13.394 -0.3979 -0.2946 -0.4320
  317MPD2    C1 4762   1.987   0.995  13.279 -0.1350 -0.1526  0.0800
  317MPD2    C2 4763   2.062   0.881  13.268 -0.0420 -0.0265 -0.1476
  317MPD2    C3 4764   2.136   0.838  13.379 -0.2424 -0.5093  0.5836
  317MPD2    C4 4765   2.117   0.903  13.501 -0.6002 -0.3958 -0.1522
  317MPD2    C5 4766   2.032   1.014  13.508  0.2207  0.3010 -0.6745
  317MPD2     H 4767   2.072   0.823  13.177 -2.1886 -0.0731 -0.3464
  317MPD2    H1 4768   2.173   0.876  13.590  2.1607  1.1551 -1.3928
  317MPD2    H2 4769   1.913   1.162  13.405  0.0987  0.0593 -0.7378
  317MPD2    H3 4770   2.033   1.072  13.600  0.0254  0.0186 -0.4952
  317MPD2     N 4771   2.223   0.725  13.366  0.0739  0.7018  0.0519
  317MPD2    H5 4772   2.249   0.694  13.273 -1.0367 -0.5768  0.1684
  317MPD2    N1 4773   1.936   1.027  13.149 -0.7092 -0.1726 -0.2156
  317MPD2    H7 4774   1.958   0.968  13.070 -1.6523  0.2536 -0.8014
  318TMC3    C1 4775   2.352   0.529  13.431 -0.4282 -0.4621  0.9141
  318TMC3    C2 4776   2.293   0.448  13.344 -0.7986 -0.0937 -0.1420
  318TMC3    C3 4777   2.364   0.332  13.319  0.1257  0.3492  0.5160
  318TMC3    C4 4778   2.463   0.505  13.501 -0.4812  0.0311 -0.0265
  318TMC3    C5 4779   2.536   0.391  13.466 -0.5736  0.2432  0.0456
  318TMC3    C6 4780   2.480   0.302  13.386  0.2382 -0.2458 -0.9836
  318TMC3     C 4781   2.276   0.654  13.471  0.4487 -0.6195 -0.3519
  318TMC3     O 4782   2.262   0.666  13.594 -0.0211 -0.0527  0.1464
  318TMC3     H 4783   2.202   0.473  13.290 -1.9618 -1.0151  1.4105
  318TMC3    H1 4784   2.504   0.582  13.564  0.0278 -0.1611 -0.1157
  318TMC3    H2 4785   2.534   0.211  13.364  2.6510  0.7733  0.7215
  318TMC3    C7 4786   2.667   0.350  13.521 -0.2323  0.0076  0.6426
  318TMC3    C8 4787   2.305   0.222  13.254 -0.1405  0.1812 -0.0454
  318TMC3    O1 4788   2.689   0.228  13.541 -1.0080  0.3039 -0.2427
  318TMC3    O2 4789   2.375   0.125  13.241 -0.3861  0.1299 -1.0123
  319MPD2     C 4790   3.865   1.946  16.156  0.4591 -0.4169 -0.8075
  319MPD2    C1 4791   3.774   1.867  16.224  0.2561 -0.0036  0.9983
  319MPD2    C2 4792   3.648   1.843  16.171 -0.1780 -0.2989  0.1738
  319MPD2    C3 4793   3.607   1.892  16.049  0.5782 -0.2566 -0.6683
  319MPD2    C4 4794   3.698   1.973  15.982 -0.2288 -0.1400 -0.1201
  319MPD2    C5 4795   3.827   2.004  16.031 -0.8255  0.0266 -0.5012
  319MPD2     H 4796   3.583   1.771  16.220  0.0766 -0.2380  0.5936
  319MPD2    H1 4797   3.659   2.025  15.895 -0.1595  1.1205  0.6006
  319MPD2    H2 4798   3.956   1.973  16.208  0.0024 -2.5288  1.1220
  319MPD2    H3 4799   3.896   2.075  15.987  0.6426  0.2258  2.1218
  319MPD2     N 4800   3.481   1.867  15.985  0.0623  0.1578 -0.2505
  319MPD2    H5 4801   3.472   1.906  15.891 -1.1713 -1.8014 -0.9583
  319MPD2    N1 4802   3.805   1.803  16.354 -0.1427 -0.4791 -0.8803
  319MPD2    H7 4803   3.725   1.751  16.391 -0.7184 -0.4817 -2.1360
  320TMC3    C1 4804   3.267   1.779  15.957 -0.8648  0.1280 -0.0313
  320TMC3    C2 4805   3.253   1.861  15.845  1.0849 -0.1714  0.8939
  320TMC3    C3 4806   3.139   1.856  15.774 -0.4523 -0.6963  0.1906
  320TMC3    C4 4807   3.170   1.691  15.989 -0.3427  0.0940  0.3722
  320TMC3    C5 4808   3.054   1.689  15.919 -0.3808 -0.3971 -0.5758
  320TMC3    C6 4809   3.038   1.769  15.811 -0.3642  0.5596  0.7903
  320TMC3     C 4810   3.377   1.788  16.039  0.3892  1.0035 -0.1689
  320TMC3     O 4811   3.382   1.709  16.134  0.4348  0.1752 -0.5077
  320TMC3     H 4812   3.321   1.942  15.824  1.7021 -1.1507 -0.9185
  320TMC3    H1 4813   3.180   1.631  16.079  2.3438  0.2696  0.1906
  320TMC3    H2 4814   2.941   1.783  15.766  0.9691  1.5626 -1.7586
  320TMC3    C7 4815   2.953   1.602  15.957  0.1505  0.1762  0.7825
  320TMC3    C8 4816   3.100   1.991  15.731 -0.4246 -0.5087 -0.2268
  320TMC3    O1 4817   2.864   1.569  15.876 -0.4026 -0.0896 -0.7155
  320TMC3    O2 4818   3.169   2.084  15.771  0.5414  0.1171 -0.1547
  321TMC3    C1 4819   3.912   1.750  16.554 -0.5044  0.2493 -0.4476
  321TMC3    C2 4820   3.838   1.628  16.562  0.1828  0.2108 -0.2698
  321TMC3    C3 4821   3.861   1.546  16.663 -0.1251  1.1171 -0.2056
  321TMC3    C4 4822   4.015   1.773  16.644 -0.5455 -0.4446 -0.3394
  321TMC3    C5 4823   4.030   1.690  16.754  0.1723 -0.0927  0.0225
  321TMC3    C6 4824   3.952   1.576  16.766  0.3575  0.1263  0.6533
  321TMC3     C 4825   3.916   1.815  16.427 -0.1419 -0.4606 -0.1797
  321TMC3     O 4826   4.016   1.888  16.411 -0.0515 -0.3749  0.3812
  321TMC3     H 4827   3.755   1.603  16.498  1.2912 -1.9130 -0.8669
  321TMC3    H1 4828   4.073   1.864  16.639 -0.4652 -0.4916 -0.2638
  321TMC3    H2 4829   3.986   1.507  16.842 -0.5744 -0.1577  0.8098
  321TMC3    C7 4830   3.983   1.778  16.861  0.2403  1.0531  0.9067
  321TMC3    C8 4831   3.748   1.461  16.704  0.3752 -0.1042  0.3026
  321TMC3    O1 4832   3.993   1.737  16.973  0.4476  0.0734  0.7830
  321TMC3    O2 4833   3.678   1.405  16.619  0.7377 -0.4140 -0.3366
  322MPD2     C 4834   2.324   3.488  13.151 -0.0221  0.4268  0.2148
  322MPD2    C1 4835   2.296   3.441  13.273 -0.1025  0.8201  0.0476
  322MPD2    C2 4836   2.233   3.315  13.273 -0.1604  0.5305  0.0521
  322MPD2    C3 4837   2.233   3.233  13.165  0.2000  0.6231  0.0839
  322MPD2    C4 4838   2.270   3.287  13.041  0.1516 -0.3994  0.2736
  322MPD2    C5 4839   2.308   3.417  13.036  0.1374 -0.0946  1.2334
  322MPD2     H 4840   2.202   3.268  13.365  1.5295  1.5022  1.1359
  322MPD2    H1 4841   2.266   3.237  12.945 -4.9452  0.0498  0.2540
  322MPD2    H2 4842   2.372   3.584  13.134  0.9677  0.0839  0.9999
  322MPD2    H3 4843   2.345   3.446  12.938  2.4290 -3.4385  1.0942
  322MPD2     N 4844   2.190   3.095  13.185 -0.1960 -0.1698 -0.4112
  322MPD2    H5 4845   2.146   3.080  13.275  2.3771 -0.0875  0.8594
  322MPD2    N1 4846   2.339   3.521  13.383 -0.5032  0.2319 -0.2695
  322MPD2    H7 4847   2.393   3.606  13.364 -0.2661 -0.1665 -1.3561
  323TMC3    C1 4848   2.381   3.564  13.615 -0.2449  0.7672  0.3363
  323TMC3    C2 4849   2.480   3.655  13.574  0.2931 -0.6541 -0.1155
  323TMC3    C3 4850   2.542   3.732  13.669  0.4424  0.3520 -0.1619
  323TMC3    C4 4851   2.340   3.558  13.746  0.3803 -0.4827 -0.2341
  323TMC3    C5 4852   2.400   3.637  13.834 -0.7847 -0.1340  1.1029
  323TMC3    C6 4853   2.496   3.735  13.797  0.9386 -0.7581 -0.0006
  323TMC3     C 4854   2.314   3.485  13.516  0.2991 -0.7210  0.5151
  323TMC3     O 4855   2.246   3.395  13.565 -0.6456 -0.1192  0.2464
  323TMC3     H 4856   2.520   3.648  13.474  4.2049 -0.7788  1.4313
  323TMC3    H1 4857   2.269   3.482  13.778 -0.4817  0.5492  0.2997
  323TMC3    H2 4858   2.550   3.802  13.864  1.4947  0.2174 -1.4178
  323TMC3    C7 4859   2.416   3.595  13.966  1.0438  0.2272  0.0445
  323TMC3    C8 4860   2.679   3.765  13.654 -0.9428 -0.0837  0.6268
  323TMC3    O1 4861   2.361   3.490  13.997  0.4170  0.2733 -0.1554
  323TMC3    O2 4862   2.746   3.777  13.754 -0.5606  0.6304 -0.0415
  324MPD2     C 4863   3.627   4.220  13.622 -0.3509  0.1440 -0.5710
  324MPD2    C1 4864   3.590   4.267  13.745  0.4350 -0.1042 -0.4797
  324MPD2    C2 4865   3.464   4.232  13.794  0.5035 -0.0171  0.1014
  324MPD2    C3 4866   3.363   4.180  13.713  0.1412 -0.2693  0.2073
  324MPD2    C4 4867   3.402   4.143  13.586 -0.8439  0.1166 -0.5934
  324MPD2    C5 4868   3.533   4.161  13.542  0.0559  0.0978 -0.4925
  324MPD2     H 4869   3.437   4.269  13.892 -0.6858  0.9066 -0.5757
  324MPD2    H1 4870   3.331   4.092  13.522 -1.8839  0.3060  0.4146
  324MPD2    H2 4871   3.718   4.252  13.572  0.7455 -0.8583  0.7850
  324MPD2    H3 4872   3.562   4.119  13.446  0.4897  0.2846 -0.4407
  324MPD2     N 4873   3.227   4.161  13.758 -0.3002 -0.0214 -0.5853
  324MPD2    H5 4874   3.162   4.120  13.690 -1.6766 -1.1940  1.4431
  324MPD2    N1 4875   3.664   4.356  13.830 -0.0824 -0.8604  0.6852
  324MPD2    H7 4876   3.636   4.387  13.922 -1.4021  0.8884 -0.3067
  325TMC3    C1 4877   3.045   4.133  13.900 -0.4367  0.2855  0.4841
  325TMC3    C2 4878   2.961   4.127  13.786 -0.1598 -0.1617  0.2745
  325TMC3    C3 4879   2.824   4.109  13.811 -1.0815 -0.0969  0.3106
  325TMC3    C4 4880   2.999   4.115  14.023 -0.0263 -0.0272  0.4424
  325TMC3    C5 4881   2.867   4.094  14.033  0.0339 -0.7690  0.3066
  325TMC3    C6 4882   2.771   4.074  13.934 -0.3972 -0.7051  0.2207
  325TMC3     C 4883   3.183   4.178  13.886  0.0514 -0.1561  0.8458
  325TMC3     O 4884   3.238   4.226  13.984  0.9452  0.9098  0.4105
  325TMC3     H 4885   2.993   4.143  13.683 -1.2822  3.5183  0.4875
  325TMC3    H1 4886   3.059   4.120  14.114 -0.2468 -0.4517  0.6076
  325TMC3    H2 4887   2.665   4.076  13.956 -0.7078 -0.0475 -1.2880
  325TMC3    C7 4888   2.803   4.127  14.163  0.3095 -0.7451  0.1156
  325TMC3    C8 4889   2.738   4.149  13.700  0.0610  0.0422  0.2153
  325TMC3    O1 4890   2.688   4.089  14.191 -0.0421 -0.4293 -0.2653
  325TMC3    O2 4891   2.794   4.212  13.609 -0.3496 -0.2123  0.7182
  326MPD2     C 4892   0.584   0.400  11.468 -0.1488  0.0877  1.1884
  326MPD2    C1 4893   0.485   0.429  11.380  0.1413  0.5797  1.0492
  326MPD2    C2 4894   0.520   0.489  11.259  0.1211 -0.3861  0.1459
  326MPD2    C3 4895   0.654   0.524  11.234  0.1233  0.6707  0.0468
  326MPD2    C4 4896   0.745   0.500  11.331 -0.0305  1.0460 -0.2169
  326MPD2    C5 4897   0.712   0.436  11.440 -0.3764 -0.4155 -0.3655
  326MPD2     H 4898   0.435   0.518  11.199  0.3579 -0.3774 -0.1839
  326MPD2    H1 4899   0.847   0.538  11.329  0.0567  0.8281  0.1405
  326MPD2    H2 4900   0.565   0.377  11.572 -2.8220  0.3918  0.7475
  326MPD2    H3 4901   0.793   0.435  11.512 -0.2090  0.1733 -0.5435
  326MPD2     N 4902   0.701   0.577  11.111  0.6946  0.2806 -0.0758
  326MPD2    H5 4903   0.800   0.597  11.104  0.8710 -0.8500 -0.8645
  326MPD2    N1 4904   0.353   0.403  11.407  0.1832  0.0240  0.2095
  326MPD2    H7 4905   0.285   0.428  11.336  0.3924  0.2476  0.0878
  327TMC3    C1 4906   0.178   0.282  11.473 -0.3506  0.3320 -0.3986
  327TMC3    C2 4907   0.095   0.378  11.423  0.4226 -0.0784 -0.4333
  327TMC3    C3 4908   4.717   0.339  11.344 -0.7965  0.1205 -0.4473
  327TMC3    C4 4909   0.172   0.152  11.438  0.2630 -0.0254 -0.6574
  327TMC3    C5 4910   0.082   0.117  11.338  0.2491 -0.1540 -0.9756
  327TMC3    C6 4911   4.702   0.207  11.307  0.0925 -0.4815 -0.5869
  327TMC3     C 4912   0.310   0.320  11.509  0.0944 -0.3697 -0.4371
  327TMC3     O 4913   0.370   0.243  11.581 -0.0232 -0.2277  0.7810
  327TMC3     H 4914   0.102   0.480  11.459 -3.7368  0.7017 -1.8924
  327TMC3    H1 4915   0.248   0.080  11.466  0.8039  1.6631  2.1356
  327TMC3    H2 4916   4.632   0.174  11.231  0.6717 -3.1515  0.0224
  327TMC3    C7 4917   0.152   0.109  11.211 -0.5603 -0.3855 -0.3449
  327TMC3    C8 4918   4.633   0.440  11.291  0.1045 -0.3222 -0.6360
  327TMC3    O1 4919   0.093   0.146  11.112 -0.1588  0.1757  0.1721
  327TMC3    O2 4920   4.677   0.552  11.307  0.2517  0.5170 -1.0499
  328MPD2     C 4921   2.635   0.403  17.107 -0.1874 -0.0480  0.0584
  328MPD2    C1 4922   2.539   0.369  17.022  0.2809  0.2586 -0.0167
  328MPD2    C2 4923   2.475   0.465  16.948 -0.2826  0.2608 -0.1990
  328MPD2    C3 4924   2.508   0.598  16.961 -0.0523 -0.2783  0.0761
  328MPD2    C4 4925   2.607   0.632  17.051  0.0718  0.2481 -0.8781
  328MPD2    C5 4926   2.667   0.536  17.126  0.4659  1.2142 -1.3699
  328MPD2     H 4927   2.390   0.431  16.890 -0.5220  0.9414 -0.2402
  328MPD2    H1 4928   2.629   0.736  17.072  0.6883 -0.3922  1.6051
  328MPD2    H2 4929   2.694   0.332  17.164 -0.9323 -2.9779 -2.8324
  328MPD2    H3 4930   2.737   0.570  17.201  0.5050 -2.4902  0.2202
  328MPD2     N 4931   2.438   0.707  16.895 -0.3170 -0.1734  0.1699
  328MPD2    H5 4932   2.457   0.800  16.932 -0.2452 -0.3103  0.4792
  328MPD2    N1 4933   2.481   0.239  17.010  0.2945  0.2785 -0.1140
  328MPD2    H7 4934   2.391   0.230  16.964  0.7019 -0.1737 -0.8310
  329TMC3    C1 4935   2.461   0.009  17.029  0.5233 -0.2227  0.5817
  329TMC3    C2 4936   2.332   0.028  16.977 -0.1163 -0.2250  0.3194
  329TMC3    C3 4937   2.275   4.659  16.899 -0.3682 -0.1834 -0.0668
  329TMC3    C4 4938   2.529   4.626  16.993 -0.7356  0.0287 -0.6213
  329TMC3    C5 4939   2.471   4.534  16.903  0.1333 -0.0100  0.3609
  329TMC3    C6 4940   2.349   4.550  16.853 -0.1011  0.9241 -0.3983
  329TMC3     C 4941   2.542   0.126  17.051 -0.1403  0.6064 -0.1773
  329TMC3     O 4942   2.659   0.113  17.081  0.0577  0.1640 -0.3271
  329TMC3     H 4943   2.263   0.102  17.016  0.8827  0.0029  1.6428
  329TMC3    H1 4944   2.631   4.619  17.031 -0.3205 -0.8749 -1.8834
  329TMC3    H2 4945   2.316   4.474  16.783 -0.7405  2.3862 -1.6795
  329TMC3    C7 4946   2.549   4.412  16.865 -0.4136 -0.2351  0.5101
  329TMC3    C8 4947   2.159   4.697  16.829 -1.0999  0.0660  0.7697
  329TMC3    O1 4948   2.498   4.304  16.838  0.3366 -0.1584  0.6089
  329TMC3    O2 4949   2.160   4.673  16.708 -0.2279 -0.3530  0.3801
  330TMC3    C1 4950   0.000   0.616   9.575 -0.3008  0.4791 -0.1946
  330TMC3    C2 4951   4.687   0.527   9.476 -0.4548 -0.1313  0.1428
  330TMC3    C3 4952   0.037   0.418   9.441  0.6934 -0.4784 -0.1285
  330TMC3    C4 4953   0.112   0.597   9.647 -0.2736 -0.9363 -0.4847
  330TMC3    C5 4954   0.186   0.487   9.608  0.2721 -0.1875  0.5301
  330TMC3    C6 4955   0.151   0.399   9.515  0.6540 -0.5587 -0.2899
  330TMC3     C 4956   4.625   0.695   9.641 -0.5647 -0.0152  0.3734
  330TMC3     O 4957   4.654   0.776   9.727 -0.2396  0.2916 -0.6719
  330TMC3     H 4958   4.606   0.559   9.410 -0.1348  0.3372 -0.0263
  330TMC3    H1 4959   0.134   0.661   9.731  2.1829 -2.8142  0.2984
  330TMC3    H2 4960   0.203   0.305   9.498  0.5181 -0.7930  0.6115
  330TMC3    C7 4961   0.293   0.468   9.693 -0.3112 -0.3862  0.5296
  330TMC3    C8 4962   4.706   0.321   9.349  0.9255  0.0641  0.2417
  330TMC3    O1 4963   0.335   0.572   9.739 -0.1201 -0.2699  0.2511
  330TMC3    O2 4964   4.638   0.369   9.257 -0.0172  0.1969  0.2910
  331MPD2     C 4965   3.155   3.772  12.436 -0.0251 -0.4125 -0.2383
  331MPD2    C1 4966   3.280   3.812  12.388  0.1568  0.3944  0.8455
  331MPD2    C2 4967   3.328   3.752  12.283  1.2670 -0.4774  0.4684
  331MPD2    C3 4968   3.252   3.668  12.207 -0.3231  0.3476 -0.2914
  331MPD2    C4 4969   3.127   3.638  12.246 -0.0528 -0.5580 -0.0417
  331MPD2    C5 4970   3.075   3.684  12.372  0.6991  0.0494 -0.2325
  331MPD2     H 4971   3.427   3.773  12.244  1.5530  0.4725  1.7057
  331MPD2    H1 4972   3.071   3.564  12.190  1.0226 -1.7646  0.4702
  331MPD2    H2 4973   3.129   3.826  12.527  0.3667 -0.9356  0.1820
  331MPD2    H3 4974   2.983   3.647  12.415  2.0197 -2.3169  0.5620
  331MPD2     N 4975   3.306   3.610  12.088 -0.1016  0.0441  0.1321
  331MPD2    H5 4976   3.408   3.611  12.089 -0.1705  3.0834  2.6121
  331MPD2    N1 4977   3.346   3.913  12.465  0.5793 -0.4842  0.0416
  331MPD2    H7 4978   3.310   3.935  12.557  0.2316  1.0800 -0.4752
  332TMC3    C1 4979   3.339   3.545  11.881  0.4547 -0.1377 -0.7813
  332TMC3    C2 4980   3.317   3.613  11.768 -0.4105 -0.1125 -0.1778
  332TMC3    C3 4981   3.410   3.614  11.665  0.1018 -0.0785  0.4674
  332TMC3    C4 4982   3.449   3.461  11.891 -0.4236 -0.0298 -0.0360
  332TMC3    C5 4983   3.545   3.461  11.790 -0.6452  1.0793  0.3896
  332TMC3    C6 4984   3.514   3.533  11.678  0.3700 -0.3494 -0.0571
  332TMC3     C 4985   3.243   3.567  11.978  0.3866 -0.0271 -0.7001
  332TMC3     O 4986   3.125   3.594  11.948  0.1864  0.6771  0.3237
  332TMC3     H 4987   3.240   3.689  11.765  2.4703  2.8165 -0.4732
  332TMC3    H1 4988   3.467   3.402  11.981 -1.1048 -0.1602  0.0094
  332TMC3    H2 4989   3.596   3.538  11.606 -0.8995 -1.0671 -1.5511
  332TMC3    C7 4990   3.686   3.477  11.829 -0.1923  0.2100 -0.1550
  332TMC3    C8 4991   3.450   3.749  11.633  1.1292 -0.3386  0.7300
  332TMC3    O1 4992   3.738   3.388  11.896 -0.1513  0.3555  0.1607
  332TMC3    O2 4993   3.560   3.782  11.687  0.3852 -0.2462  0.1367
  333MPD2     C 4994   3.038   3.611  11.060  0.6533 -0.5603 -0.0691
  333MPD2    C1 4995   3.136   3.522  11.023  0.0169 -0.0021  0.3131
  333MPD2    C2 4996   3.124   3.388  11.056  0.4626  0.2417  0.0463
  333MPD2    C3 4997   3.024   3.339  11.130  0.3731 -0.4875 -0.3800
  333MPD2    C4 4998   2.922   3.432  11.167 -0.0153 -0.5839  0.2727
  333MPD2    C5 4999   2.930   3.567  11.133  0.9151  0.3227  0.1231
  333MPD2     H 5000   3.204   3.318  11.037  0.2936  0.0377  0.0790
  333MPD2    H1 5001   2.842   3.410  11.237 -1.5073 -0.6507 -1.4727
  333MPD2    H2 5002   3.040   3.717  11.039  1.2271 -0.3373  1.1145
  333MPD2    H3 5003   2.860   3.638  11.176  1.5104  0.6366  0.5704
  333MPD2     N 5004   3.017   3.205  11.184  0.0913 -0.7900  0.2424
  333MPD2    H5 5005   3.078   3.135  11.143 -0.1073 -1.5082  1.1841
  333MPD2    N1 5006   3.237   3.578  10.944 -0.5217 -0.1725  0.3984
  333MPD2    H7 5007   3.230   3.679  10.956 -1.4692  0.0968 -2.3637
  334TMC3    C1 5008   3.461   3.589  10.858 -1.2217  0.1243  0.3672
  334TMC3    C2 5009   3.554   3.530  10.772  0.6374 -0.3068 -0.1345
  334TMC3    C3 5010   3.673   3.597  10.755 -0.5611 -0.3799  0.0087
  334TMC3    C4 5011   3.486   3.701  10.934 -0.2936  0.5335 -0.6786
  334TMC3    C5 5012   3.607   3.760  10.914 -0.3814  0.1784 -0.2726
  334TMC3    C6 5013   3.699   3.715  10.822  0.2643  0.1872 -0.1607
  334TMC3     C 5014   3.334   3.514  10.867  0.1972  1.0607 -0.6208
  334TMC3     O 5015   3.315   3.397  10.838  0.1206  0.8951  0.0611
  334TMC3     H 5016   3.523   3.448  10.708 -0.4524  2.2050 -2.8331
  334TMC3    H1 5017   3.422   3.722  11.019 -2.2284  1.5651 -2.3675
  334TMC3    H2 5018   3.795   3.765  10.829 -0.1402  0.9755 -0.2764
  334TMC3    C7 5019   3.632   3.894  10.962 -0.4073  1.0151  0.0895
  334TMC3    C8 5020   3.778   3.540  10.660  0.1891 -0.3011 -1.0938
  334TMC3    O1 5021   3.746   3.930  10.976 -0.4372 -0.3894 -0.8989
  334TMC3    O2 5022   3.741   3.456  10.580 -0.3949  0.6512 -0.3507
  335TMC3    C1 5023   3.182   0.817  17.493 -0.7085  0.1385 -0.0678
  335TMC3    C2 5024   3.131   0.791  17.370 -0.1831 -0.5838 -0.3308
  335TMC3    C3 5025   3.213   0.778  17.265 -0.9185 -0.2241  0.3467
  335TMC3    C4 5026   3.313   0.830  17.516  0.6933  0.3987  0.0971
  335TMC3    C5 5027   3.395   0.821  17.403  0.1263 -0.5614  0.2111
  335TMC3    C6 5028   3.347   0.792  17.273  0.6371  0.4416 -0.0903
  335TMC3     C 5029   3.094   0.863  17.599  0.4305 -0.3805  0.2785
  335TMC3     O 5030   3.123   0.825   0.003 -0.3856  0.2854 -0.1872
  335TMC3     H 5031   3.025   0.767  17.366  0.0676 -1.8863  0.8403
  335TMC3    H1 5032   3.354   0.853  17.614  1.1549  0.7626 -0.1800
  335TMC3    H2 5033   3.413   0.781  17.188  0.1029  2.8883 -0.8111
  335TMC3    C7 5034   3.537   0.851  17.412  0.0455 -0.5903  0.8626
  335TMC3    C8 5035   3.176   0.690  17.160  0.2434  0.1696 -0.3591
  335TMC3    O1 5036   3.582   0.868  17.304  0.4946  0.3046 -0.0303
  335TMC3    O2 5037   3.236   0.707  17.056  0.3853 -0.1037 -0.2501
  336MPD2     C 5038   2.856   3.135  16.425 -0.2486 -0.4972  0.6339
  336MPD2    C1 5039   2.925   3.126  16.306  0.4096 -0.0097 -0.8238
  336MPD2    C2 5040   3.043   3.047  16.308  0.0079 -0.3863 -0.5737
  336MPD2    C3 5041   3.083   2.969  16.414  0.3060  0.2468 -0.0372
  336MPD2    C4 5042   3.016   2.981  16.533  0.0399 -0.8235 -0.1137
  336MPD2    C5 5043   2.899   3.045  16.527 -0.0533  0.2742  0.2867
  336MPD2     H 5044   3.090   3.044  16.211  1.8261  0.4607  0.2921
  336MPD2    H1 5045   3.038   2.917  16.617  0.2026  0.6521  0.9791
  336MPD2    H2 5046   2.764   3.190  16.439 -1.0374 -1.8557  0.8039
  336MPD2    H3 5047   2.826   3.040  16.606 -0.6651 -0.2850 -0.3124
  336MPD2     N 5048   3.189   2.878  16.404  0.1623  0.0876 -0.4478
  336MPD2    H5 5049   3.200   2.805  16.474  0.1622  0.1088 -0.4255
  336MPD2    N1 5050   2.900   3.206  16.193 -0.2442 -0.7665 -0.0397
  336MPD2    H7 5051   2.959   3.185  16.113 -1.7979  1.6007 -1.8137
  337TMC3    C1 5052   2.811   3.376  16.056 -0.3066 -0.0604 -0.3773
  337TMC3    C2 5053   2.695   3.437  16.002  0.4597  0.0633 -0.0603
  337TMC3    C3 5054   2.712   3.489  15.872 -0.0269  0.5584  0.6112
  337TMC3    C4 5055   2.937   3.380  15.989 -0.1616  0.6430 -0.3289
  337TMC3    C5 5056   2.946   3.435  15.864  0.0530 -0.5578  0.2195
  337TMC3    C6 5057   2.832   3.485  15.799 -0.2290  0.4599  0.6065
  337TMC3     C 5058   2.803   3.307  16.183  1.0314 -0.2248 -0.2513
  337TMC3     O 5059   2.713   3.331  16.264  0.1178 -0.1366  0.5684
  337TMC3     H 5060   2.595   3.440  16.043  1.2657  0.4189  1.8903
  337TMC3    H1 5061   3.029   3.344  16.032 -0.5590  1.1751  0.9773
  337TMC3    H2 5062   2.840   3.550  15.712 -1.7678  0.5778  0.5474
  337TMC3    C7 5063   3.073   3.420  15.803  0.0400 -0.2357 -0.4750
  337TMC3    C8 5064   2.595   3.546  15.810  0.7581  0.2821  0.8078
  337TMC3    O1 5065   3.168   3.407  15.882  0.0240 -0.2534 -0.2772
  337TMC3    O2 5066   2.522   3.609  15.885 -0.0065 -0.3652 -0.0583
  338MPD2     C 5067   2.496   2.131   0.474  0.6153  0.0768  0.1338
  338MPD2    C1 5068   2.587   2.206   0.397  0.1702  0.2757  1.3241
  338MPD2    C2 5069   2.589   2.340   0.408  0.7575 -0.0424 -0.1817
  338MPD2    C3 5070   2.519   2.401   0.510 -0.1281 -0.3606 -1.0770
  338MPD2    C4 5071   2.423   2.331   0.579 -0.2756 -0.3522  0.2107
  338MPD2    C5 5072   2.419   2.197   0.562  0.6436 -0.0418 -0.3680
  338MPD2     H 5073   2.654   2.400   0.345  1.3350  2.7005  3.0342
  338MPD2    H1 5074   2.363   2.377   0.657  1.4468  0.1836  1.2163
  338MPD2    H2 5075   2.498   2.023   0.477 -2.9064 -0.0108 -1.1880
  338MPD2    H3 5076   2.345   2.140   0.617 -0.0184  0.6361 -0.5536
  338MPD2     N 5077   2.550   2.542   0.534  0.1339  0.9030 -0.4664
  338MPD2    H5 5078   2.601   2.585   0.457 -1.7438  2.1890 -0.9856
  338MPD2    N1 5079   2.678   2.139   0.311 -0.1741 -0.1134 -0.2180
  338MPD2    H7 5080   2.750   2.204   0.282  0.7511 -2.4666 -3.2065
  339TMC3    C1 5081   2.559   2.763   0.623 -0.9920  0.0397  0.5027
  339TMC3    C2 5082   2.475   2.851   0.688 -0.4558 -0.2684  0.2734
  339TMC3    C3 5083   2.522   2.978   0.693 -0.4147  0.5002  0.5223
  339TMC3    C4 5084   2.690   2.781   0.606  0.1031  0.1531  0.5381
  339TMC3    C5 5085   2.733   2.909   0.624  0.0296  1.1862  0.1307
  339TMC3    C6 5086   2.651   3.014   0.660 -0.2169  0.0610  0.0803
  339TMC3     C 5087   2.509   2.621   0.638  0.3268 -0.3252 -0.0672
  339TMC3     O 5088   2.443   2.588   0.732 -0.0123  0.2396 -0.2637
  339TMC3     H 5089   2.368   2.838   0.698 -0.6056  1.0493  0.4428
  339TMC3    H1 5090   2.763   2.703   0.587 -1.2192 -0.9259 -0.1125
  339TMC3    H2 5091   2.684   3.117   0.665 -0.6260  0.2362 -0.8957
  339TMC3    C7 5092   2.872   2.945   0.610 -0.1218  0.1011  0.0060
  339TMC3    C8 5093   2.458   3.072   0.780  0.7153  0.2676 -0.0918
  339TMC3    O1 5094   2.897   3.064   0.587 -0.2289 -0.0428 -0.1028
  339TMC3    O2 5095   2.466   3.193   0.766 -0.5510 -0.3176  0.2891
  340MPD2     C 5096   2.927   0.105  10.664  0.0254  0.1782  0.1120
  340MPD2    C1 5097   3.034   0.132  10.573 -0.2171  0.3115  0.4869
  340MPD2    C2 5098   3.159   0.089  10.602  0.2198 -0.3078 -0.3453
  340MPD2    C3 5099   3.198   0.024  10.714  0.0238  0.0319 -0.5662
  340MPD2    C4 5100   3.095   4.720  10.802 -0.6346 -0.3260 -0.1950
  340MPD2    C5 5101   2.966   0.028  10.774  0.3424 -0.4072  0.6747
  340MPD2     H 5102   3.233   0.105  10.524  0.4396  0.7479  0.0697
  340MPD2    H1 5103   3.118   4.661  10.890  1.8515  1.3204  0.2629
  340MPD2    H2 5104   2.823   0.130  10.650 -0.2297 -0.7793  0.2985
  340MPD2    H3 5105   2.887   4.726  10.843 -1.8890  1.6788 -1.0140
  340MPD2     N 5106   3.329   4.711  10.739  0.3108  0.1773 -0.2107
  340MPD2    H5 5107   3.351   4.659  10.823  1.6285 -1.3076 -1.4489
  340MPD2    N1 5108   2.993   0.201  10.451  0.2667  0.4130  0.3154
  340MPD2    H7 5109   2.893   0.203  10.433  0.1801 -1.7085  0.5569
  341TMC3    C1 5110   3.006   0.293  10.241  0.4572 -0.0738  0.2764
  341TMC3    C2 5111   2.914   0.198  10.202  0.5375 -0.3463  0.2692
  341TMC3    C3 5112   2.923   0.148  10.072  0.4765 -0.3786 -0.7663
  341TMC3    C4 5113   3.090   0.352  10.150 -0.0106  0.1059 -0.2994
  341TMC3    C5 5114   3.092   0.303  10.022 -0.5359 -0.1074 -0.1668
  341TMC3    C6 5115   3.004   0.201   9.980 -0.1202 -0.1758 -0.6465
  341TMC3     C 5116   3.074   0.260  10.358  0.3175 -0.1495  0.4167
  341TMC3     O 5117   3.196   0.259  10.360 -0.6564 -0.3763 -0.0053
  341TMC3     H 5118   2.847   0.154  10.275 -1.1835  1.5278 -0.1777
  341TMC3    H1 5119   3.163   0.427  10.177  1.6403 -1.4242 -0.5198
  341TMC3    H2 5120   3.011   0.167   9.878 -0.1836  0.6201 -0.9088
  341TMC3    C7 5121   3.216   0.317   9.945  0.5629  0.2528  0.2501
  341TMC3    C8 5122   2.825   0.045  10.025  0.4759 -0.1289 -0.2268
  341TMC3    O1 5123   3.238   0.228   9.865  0.1317 -0.3764  0.7672
  341TMC3    O2 5124   2.852   0.006   9.914 -0.3106 -0.5067 -0.4394
  342MPD2     C 5125   1.106   3.067  17.133 -0.0221  0.7231 -0.2712
  342MPD2    C1 5126   1.234   3.108  17.127 -0.3332  0.1802  0.1643
  342MPD2    C2 5127   1.259   3.237  17.179  0.1374 -0.5193  0.5201
  342MPD2    C3 5128   1.155   3.322  17.230 -0.3295  0.8056  0.1737
  342MPD2    C4 5129   1.024   3.279  17.223  0.2630 -0.8923 -0.2857
  342MPD2    C5 5130   1.004   3.151  17.183 -0.1714  0.1058 -0.2865
  342MPD2     H 5131   1.360   3.275  17.167 -0.4172  2.0640  4.2779
  342MPD2    H1 5132   0.935   3.328  17.262  1.9689  0.3214  2.0983
  342MPD2    H2 5133   1.079   2.968  17.098  1.6388  0.8200 -1.8556
  342MPD2    H3 5134   0.900   3.122  17.194 -0.0980 -0.2185 -0.4274
  342MPD2     N 5135   1.180   3.450  17.275 -0.2939 -0.1375 -0.3531
  342MPD2    H5 5136   1.098   3.505  17.298 -0.5138 -1.3149  1.6403
  342MPD2    N1 5137   1.343   3.028  17.078 -0.4057 -0.1061 -0.2450
  342MPD2    H7 5138   1.434   3.071  17.092 -0.0892 -1.4752  1.7811
  343TMC3    C1 5139   1.453   2.825  17.027  0.2541  0.2662 -0.4890
  343TMC3    C2 5140   1.574   2.882  16.990 -0.4576 -0.0035  0.2231
  343TMC3    C3 5141   1.684   2.806  17.028  0.3453  0.2477  0.1326
  343TMC3    C4 5142   1.447   2.703  17.085 -0.4463 -0.1706 -0.3737
  343TMC3    C5 5143   1.559   2.627  17.122  0.6106 -0.5322 -0.9880
  343TMC3    C6 5144   1.679   2.678  17.088 -0.3003  0.1129  0.2570
  343TMC3     C 5145   1.329   2.893  17.041 -0.2353  0.6725  0.3899
  343TMC3     O 5146   1.226   2.826  17.024  0.1450  0.0167 -0.0056
  343TMC3     H 5147   1.584   2.987  16.965  3.2026 -0.2719  0.5251
  343TMC3    H1 5148   1.346   2.670  17.107 -1.1307  1.3790 -1.1806
  343TMC3    H2 5149   1.772   2.630  17.118 -1.8699 -1.8467  1.9411
  343TMC3    C7 5150   1.556   2.512  17.212 -0.4793 -0.4873  0.2493
  343TMC3    C8 5151   1.811   2.882  17.031 -0.4712  0.5544  0.5230
  343TMC3    O1 5152   1.648   2.491  17.287 -0.1927 -0.0153  0.9389
  343TMC3    O2 5153   1.812   3.006  17.052 -0.1247  0.6449 -0.5398
  344MPD2     C 5154   2.222   2.739  10.049  0.0862  0.1459 -0.6734
  344MPD2    C1 5155   2.132   2.836  10.091 -0.1163 -0.3257  0.4412
  344MPD2    C2 5156   2.163   2.970  10.099 -0.9366 -0.3120  0.4081
  344MPD2    C3 5157   2.287   3.016  10.058 -0.3061  0.1319  0.5113
  344MPD2    C4 5158   2.375   2.920  10.011 -0.0579  0.5567  0.0470
  344MPD2    C5 5159   2.341   2.787  10.005  1.1810  0.8447 -0.3002
  344MPD2     H 5160   2.089   3.035  10.144 -0.7886  0.0234  0.1687
  344MPD2    H1 5161   2.476   2.932   9.973 -0.3302 -2.7019 -1.6540
  344MPD2    H2 5162   2.203   2.632  10.052  0.5137  0.1606  2.3055
  344MPD2    H3 5163   2.418   2.718   9.971 -1.1937 -0.2303 -3.4884
  344MPD2     N 5164   2.335   3.153  10.067  0.3583 -0.3366  0.2612
  344MPD2    H5 5165   2.427   3.162  10.023 -0.5733  2.8302 -1.0360
  344MPD2    N1 5166   2.008   2.789  10.132 -0.1050 -0.1136  0.1420
  344MPD2    H7 5167   1.945   2.860  10.167 -0.0998  0.1997 -0.4825
  345TMC3    C1 5168   2.340   3.399  10.079  0.0443 -0.2850 -0.8209
  345TMC3    C2 5169   2.463   3.394  10.012 -0.4277  0.6007  0.3479
  345TMC3    C3 5170   2.518   3.514   9.982 -0.4033 -0.0093  0.1387
  345TMC3    C4 5171   2.280   3.516  10.113 -0.2250 -0.4667 -0.0043
  345TMC3    C5 5172   2.344   3.634  10.076  1.3914 -0.3220 -0.7253
  345TMC3    C6 5173   2.458   3.634  10.009 -0.8284  0.0119 -0.1395
  345TMC3     C 5174   2.266   3.269  10.105 -0.2869 -0.4394  0.3704
  345TMC3     O 5175   2.160   3.276  10.167 -0.0279 -0.0484 -0.0152
  345TMC3     H 5176   2.510   3.301   9.985 -2.2951 -1.0961  2.8756
  345TMC3    H1 5177   2.194   3.522  10.179  0.9579  1.9176  1.3420
  345TMC3    H2 5178   2.498   3.731   9.981  0.0491 -0.1220  0.6574
  345TMC3    C7 5179   2.268   3.752  10.047 -0.3347  0.1441 -0.7945
  345TMC3    C8 5180   2.632   3.503   9.887  1.1641 -0.9106 -0.3541
  345TMC3    O1 5181   2.316   3.856  10.002  0.3456  0.2317  0.1726
  345TMC3    O2 5182   2.648   3.396   9.825  0.1347  0.2402  0.4338
  346MPD2     C 5183   2.213   4.699  13.911  0.5871 -0.0787 -0.3220
  346MPD2    C1 5184   2.346   4.657  13.899 -0.1035  1.0582 -0.3938
  346MPD2    C2 5185   2.438   4.696  13.992 -0.0815 -0.2864  0.5283
  346MPD2    C3 5186   2.403   0.060  14.091  0.3958  0.4810 -0.2548
  346MPD2    C4 5187   2.276   0.112  14.093 -0.0285 -0.0236 -0.2163
  346MPD2    C5 5188   2.182   0.061  14.006 -0.2264  0.0025  0.6475
  346MPD2     H 5189   2.542   4.665  13.985  0.2212  0.6150  1.0765
  346MPD2    H1 5190   2.244   0.164  14.183  0.9633 -2.7499  1.7185
  346MPD2    H2 5191   2.136   4.671  13.840 -0.2995 -0.3217  0.7377
  346MPD2    H3 5192   2.080   0.098  14.010 -0.0300  0.4401  1.5355
  346MPD2     N 5193   2.504   0.101  14.185  0.6200  0.0013 -0.4593
  346MPD2    H5 5194   2.587   0.042  14.193  0.4297  0.0910  2.2246
  346MPD2    N1 5195   2.383   4.566  13.795 -0.5188  0.0922 -0.1469
  346MPD2    H7 5196   2.483   4.553  13.785 -0.1463  3.2637 -0.3403
  347TMC3    C1 5197   2.622   0.219  14.349 -0.5695  0.5707 -0.0551
  347TMC3    C2 5198   2.733   0.137  14.328 -0.4491  0.4688 -0.5066
  347TMC3    C3 5199   2.828   0.128  14.424  1.0303  0.2054 -0.0356
  347TMC3    C4 5200   2.604   0.282  14.468  0.2772 -0.0971  0.8440
  347TMC3    C5 5201   2.696   0.272  14.563 -0.2786 -0.0507 -0.2709
  347TMC3    C6 5202   2.807   0.186  14.547  0.2344 -0.9413  0.0452
  347TMC3     C 5203   2.505   0.215  14.261 -0.3448  0.0487  0.1337
  347TMC3     O 5204   2.424   0.310  14.257 -0.1015  0.0769 -0.5151
  347TMC3     H 5205   2.743   0.074  14.240 -3.2703  0.2182 -0.6536
  347TMC3    H1 5206   2.511   0.328  14.497  0.3884  0.6755 -0.0414
  347TMC3    H2 5207   2.879   0.159  14.623  1.3586  0.1010 -0.6393
  347TMC3    C7 5208   2.650   0.302  14.704 -0.4869 -0.1193  0.1733
  347TMC3    C8 5209   2.907   0.004  14.427  0.1702  0.2201 -0.2661
  347TMC3    O1 5210   2.530   0.310  14.729  0.6889  0.0724 -0.0384
  347TMC3    O2 5211   2.999   4.715  14.349  0.6741 -0.6038 -0.0920
  348MPD2     C 5212   0.819   4.071  12.292 -0.1585  0.7444  0.2181
  348MPD2    C1 5213   0.933   4.095  12.212  0.1006 -0.3145 -0.2896
  348MPD2    C2 5214   0.919   4.162  12.093  0.0984 -0.3027 -0.2324
  348MPD2    C3 5215   0.801   4.201  12.040  0.5411 -0.4773 -0.0722
  348MPD2    C4 5216   0.683   4.174  12.120  0.1163  0.4184 -0.3798
  348MPD2    C5 5217   0.696   4.118  12.244 -0.5750 -0.3308 -0.4918
  348MPD2     H 5218   1.005   4.190  12.032 -0.0868 -2.0240 -1.2845
  348MPD2    H1 5219   0.584   4.212  12.096  0.3112  0.5342 -0.9847
  348MPD2    H2 5220   0.820   4.017  12.386 -1.4860  1.4740  0.6548
  348MPD2    H3 5221   0.613   4.126  12.314  0.5163  0.1116  0.7519
  348MPD2     N 5222   0.800   4.259  11.909 -0.3126  0.3935 -0.2257
  348MPD2    H5 5223   0.881   4.274  11.849 -0.1478 -3.0083 -0.8673
  348MPD2    N1 5224   1.060   4.054  12.244  0.1110 -0.7830  0.2138
  348MPD2    H7 5225   1.130   4.080  12.176  0.6584  1.6044  1.7016
  349TMC3    C1 5226   1.241   3.939  12.337 -0.2045  0.4448  0.8547
  349TMC3    C2 5227   1.267   3.810  12.348  0.0758 -0.3728 -1.0043
  349TMC3    C3 5228   1.374   3.757  12.281  0.9467  0.2346  0.0094
  349TMC3    C4 5229   1.326   4.027  12.261  0.3667 -0.1024 -0.1148
  349TMC3    C5 5230   1.433   3.967  12.198  0.6432  0.3350 -0.0767
  349TMC3    C6 5231   1.462   3.836  12.203 -0.4918 -0.2088  0.0066
  349TMC3     C 5232   1.096   3.968  12.343 -0.7293 -0.4760  0.4082
  349TMC3     O 5233   1.027   3.910  12.425 -0.1622  0.2688  0.5139
  349TMC3     H 5234   1.204   3.752  12.414  0.9601  0.0970  0.2540
  349TMC3    H1 5235   1.314   4.135  12.252  2.3214  0.0125 -1.2259
  349TMC3    H2 5236   1.546   3.793  12.150  1.5173  2.5707  0.9775
  349TMC3    C7 5237   1.462   4.042  12.077 -0.0510  0.0470  0.0174
  349TMC3    C8 5238   1.401   3.615  12.293  0.2838 -0.3499  0.8807
  349TMC3    O1 5239   1.500   4.159  12.092 -0.8120  0.6347  0.0575
  349TMC3    O2 5240   1.361   3.574  12.401  0.3967  0.0171 -0.0888
  350MPD2     C 5241   4.104   2.474   9.485  0.1108  0.1304 -0.9268
  350MPD2    C1 5242   4.143   2.347   9.452  0.6328  0.3272 -0.2761
  350MPD2    C2 5243   4.274   2.313   9.483 -0.2941  0.5124  0.6162
  350MPD2    C3 5244   4.360   2.394   9.553 -0.1291  0.8598 -0.5535
  350MPD2    C4 5245   4.321   2.519   9.590 -0.2891  0.1081 -0.0542
  350MPD2    C5 5246   4.190   2.559   9.554 -0.0751 -0.3760 -0.1237
  350MPD2     H 5247   4.303   2.212   9.457 -2.9199 -0.5709  1.9173
  350MPD2    H1 5248   4.390   2.585   9.641 -0.3018  0.2666 -0.2468
  350MPD2    H2 5249   4.000   2.503   9.471  0.1460  0.5058 -0.3918
  350MPD2    H3 5250   4.157   2.656   9.588  0.9095 -0.2495  0.4664
  350MPD2     N 5251   4.490   2.349   9.583  0.1439  0.7853  0.2321
  350MPD2    H5 5252   4.532   2.400   9.659  1.0552 -0.6049  0.6642
  350MPD2    N1 5253   4.063   2.248   9.384  0.5298  0.0995  0.4418
  350MPD2    H7 5254   4.102   2.155   9.372  1.7546  1.1950 -3.8890
  351TMC3    C1 5255   3.886   2.138   9.285  0.3518  0.3104  0.5540
  351TMC3    C2 5256   3.960   2.023   9.281  0.7983 -0.5061  0.0579
  351TMC3    C3 5257   3.897   1.914   9.238 -0.0826  0.4776 -0.4229
  351TMC3    C4 5258   3.764   2.149   9.241  0.5224 -0.2314 -0.1088
  351TMC3    C5 5259   3.699   2.035   9.196  0.5542 -0.4321 -0.4135
  351TMC3    C6 5260   3.770   1.919   9.184 -1.3912  0.5394  0.3317
  351TMC3     C 5261   3.937   2.263   9.338  1.1560 -0.2728 -0.5551
  351TMC3     O 5262   3.861   2.362   9.352 -0.4670  0.1110  0.4682
  351TMC3     H 5263   4.068   2.014   9.292  0.6740  1.2410  2.6265
  351TMC3    H1 5264   3.702   2.235   9.264 -0.3634 -0.6078 -1.0967
  351TMC3    H2 5265   3.721   1.828   9.150 -4.3693  2.7753 -1.3311
  351TMC3    C7 5266   3.575   2.051   9.117  0.8407 -0.2640  0.9394
  351TMC3    C8 5267   3.968   1.782   9.245 -0.8438 -0.1629 -0.2839
  351TMC3    O1 5268   3.550   2.168   9.099 -0.1378 -0.4802 -0.1094
  351TMC3    O2 5269   3.931   1.702   9.162 -0.4952  0.1900  0.3768
  352MPD2     C 5270   2.980   0.069   0.867 -0.0885 -0.5312  0.2086
  352MPD2    C1 5271   2.932   0.162   0.952  0.0020 -0.3080 -0.8171
  352MPD2    C2 5272   2.897   0.120   1.082  0.2767 -0.0595  0.0761
  352MPD2    C3 5273   2.909   4.712   1.117 -0.0804  0.3544  0.5310
  352MPD2    C4 5274   2.964   4.626   1.027  0.5238 -0.0806 -0.5502
  352MPD2    C5 5275   2.998   4.666   0.905 -0.3597 -0.2417 -0.4149
  352MPD2     H 5276   2.855   0.188   1.155 -0.2865  0.4729 -0.7445
  352MPD2    H1 5277   2.994   4.530   1.068 -1.0356 -0.0621  0.6683
  352MPD2    H2 5278   3.008   0.096   0.766 -0.3057 -0.6879  0.1061
  352MPD2    H3 5279   3.057   4.598   0.845  1.6172  1.6423 -0.6224
  352MPD2     N 5280   2.877   4.659   1.245  0.0600  0.1282  0.7702
  352MPD2    H5 5281   2.884   4.559   1.259 -1.0208  0.3980  3.2782
  352MPD2    N1 5282   2.929   0.295   0.906 -0.4007  0.0724  1.0569
  352MPD2    H7 5283   2.947   0.315   0.808 -1.7389 -2.5497  0.2895
  353TMC3    C1 5284   2.807   4.650   1.470 -0.2309  1.0027 -0.2798
  353TMC3    C2 5285   2.907   4.555   1.484  0.1767 -0.4816 -0.4504
  353TMC3    C3 5286   2.896   4.472   1.597 -0.4627  0.6900 -0.5911
  353TMC3    C4 5287   2.696   4.658   1.545 -0.3934 -0.6351 -1.1486
  353TMC3    C5 5288   2.679   4.562   1.645 -0.1479  0.1021  0.1613
  353TMC3    C6 5289   2.787   4.481   1.682  0.2371  0.2277  0.3377
  353TMC3     C 5290   2.807   0.002   1.345  0.5141 -0.1305  0.5575
  353TMC3     O 5291   2.738   0.105   1.330 -0.2092 -0.2413 -0.0862
  353TMC3     H 5292   3.000   4.558   1.429  1.1395  1.7607  1.3231
  353TMC3    H1 5293   2.617   4.724   1.509 -0.0780  0.7263  0.6729
  353TMC3    H2 5294   2.758   4.399   1.747  0.1725 -0.3247 -0.3868
  353TMC3    C7 5295   2.549   4.500   1.632  0.2884  0.6950  0.7751
  353TMC3    C8 5296   2.991   4.369   1.619 -0.3369 -0.5038  0.2791
  353TMC3    O1 5297   2.492   4.529   1.530  0.5212 -0.2162 -0.0604
  353TMC3    O2 5298   3.001   4.329   1.733  0.7055  0.2688  0.2663
  354TMC3    C1 5299   0.551   0.809  13.288  0.1634 -0.1278  0.6186
  354TMC3    C2 5300   0.524   0.936  13.242 -0.5880 -0.2357  0.9611
  354TMC3    C3 5301   0.578   0.974  13.125  0.2859 -0.4111  0.1952
  354TMC3    C4 5302   0.632   0.718  13.223  0.6379 -0.5116 -0.6690
  354TMC3    C5 5303   0.667   0.758  13.095  0.3176  1.0456  0.6061
  354TMC3    C6 5304   0.641   0.884  13.044 -0.3594 -0.3212 -0.4269
  354TMC3     C 5305   0.509   0.770  13.421 -0.3631  0.5225  0.7802
  354TMC3     O 5306   0.418   0.834  13.476  0.2101 -0.3675 -0.3965
  354TMC3     H 5307   0.456   1.002  13.295 -0.0278 -0.3925  1.8842
  354TMC3    H1 5308   0.619   0.612  13.243  0.6518  0.1470  2.8675
  354TMC3    H2 5309   0.692   0.911  12.952  0.4459 -1.4545 -0.3088
  354TMC3    C7 5310   0.733   0.659  13.015 -0.2797 -0.2079 -0.0339
  354TMC3    C8 5311   0.531   1.087  13.047 -0.1906  0.0785 -0.7966
  354TMC3    O1 5312   0.768   0.557  13.072  0.2889 -0.0865  0.3135
  354TMC3    O2 5313   0.531   1.063  12.925  0.5019  0.0811 -0.1053
  355MPD2     C 5314   0.650   1.500  11.783 -0.0892  0.6356 -0.0755
  355MPD2    C1 5315   0.617   1.503  11.649 -0.2928 -0.2516 -1.0813
  355MPD2    C2 5316   0.702   1.566  11.558 -0.0929 -0.5390  0.0290
  355MPD2    C3 5317   0.805   1.642  11.607 -0.2736 -0.2017  0.0956
  355MPD2    C4 5318   0.848   1.624  11.736  0.4107 -0.5532 -0.2712
  355MPD2    C5 5319   0.769   1.556  11.823 -0.6358  0.7308  0.1411
  355MPD2     H 5320   0.680   1.567  11.452  0.6746  1.4471 -0.0949
  355MPD2    H1 5321   0.932   1.685  11.767 -0.0685  0.7873 -1.6061
  355MPD2    H2 5322   0.576   1.452  11.845  0.5893 -1.1715 -0.6676
  355MPD2    H3 5323   0.789   1.544  11.929 -1.2506  0.2039  0.1938
  355MPD2     N 5324   0.867   1.743  11.529 -0.4168 -0.0980 -0.0409
  355MPD2    H5 5325   0.929   1.803  11.582 -0.8349 -0.9398  1.4012
  355MPD2    N1 5326   0.496   1.432  11.612 -0.1606  0.3880 -0.6020
  355MPD2    H7 5327   0.469   1.362  11.680  2.1958  0.4804  0.4204
  356TMC3    C1 5328   0.860   1.930  11.387 -0.3871  0.3386 -0.4216
  356TMC3    C2 5329   0.946   1.965  11.285 -0.7359 -0.5965  0.1018
  356TMC3    C3 5330   1.004   2.082  11.301 -0.3768 -0.7435  0.1386
  356TMC3    C4 5331   0.837   2.005  11.494  0.9415  0.0756  0.6157
  356TMC3    C5 5332   0.899   2.118  11.502  0.6132 -0.5215  0.0255
  356TMC3    C6 5333   0.991   2.163  11.413 -0.1891 -0.0653 -0.2895
  356TMC3     C 5334   0.833   1.787  11.401  0.1970 -0.0801 -0.2402
  356TMC3     O 5335   0.804   1.713  11.309 -0.0594 -0.2171  0.3462
  356TMC3     H 5336   0.968   1.900  11.201  0.8768  1.5474 -1.1168
  356TMC3    H1 5337   0.774   1.979  11.578 -1.7102  0.9337 -1.1195
  356TMC3    H2 5338   1.049   2.252  11.433 -1.6143  0.2445  2.3643
  356TMC3    C7 5339   0.879   2.197  11.621  0.1961 -0.6640 -0.2237
  356TMC3    C8 5340   1.073   2.131  11.177  0.4399  0.8718  0.2473
  356TMC3    O1 5341   0.767   2.188  11.670  1.0748  0.1512  0.0955
  356TMC3    O2 5342   1.058   2.057  11.079  0.2346 -0.0910 -0.7003
  357MPD2     C 5343   0.379   1.733   1.561 -0.1508  0.3346  0.3045
  357MPD2    C1 5344   0.477   1.666   1.487  0.0314  0.6684  0.8698
  357MPD2    C2 5345   0.600   1.638   1.546  0.2141 -0.1720 -0.2368
  357MPD2    C3 5346   0.628   1.690   1.670 -0.5614  0.0039 -0.0348
  357MPD2    C4 5347   0.538   1.753   1.749  0.4091 -0.7908 -0.5478
  357MPD2    C5 5348   0.415   1.780   1.691 -0.7448  0.2414 -0.2305
  357MPD2     H 5349   0.682   1.593   1.490  0.3548 -0.2745  0.0488
  357MPD2    H1 5350   0.556   1.793   1.848 -0.1367 -1.6463 -0.1111
  357MPD2    H2 5351   0.290   1.761   1.507 -1.6056 -1.9110  1.5648
  357MPD2    H3 5352   0.355   1.845   1.754 -1.3126 -0.3068 -0.2046
  357MPD2     N 5353   0.754   1.668   1.733  0.6631 -0.4199 -0.0757
  357MPD2    H5 5354   0.765   1.707   1.827 -1.0989 -0.4978  0.1597
  357MPD2    N1 5355   0.446   1.639   1.352  0.4223 -0.3027  0.1247
  357MPD2    H7 5356   0.350   1.655   1.324  1.1282  2.1186 -0.8479
  358TMC3    C1 5357   0.463   1.585   1.135 -0.1799  0.0402  0.4683
  358TMC3    C2 5358   0.485   1.484   1.044 -0.5531  0.8111 -0.0493
  358TMC3    C3 5359   0.445   1.506   0.916  0.0482 -0.4871 -0.2205
  358TMC3    C4 5360   0.393   1.697   1.105  0.2019  0.6270 -0.3150
  358TMC3    C5 5361   0.354   1.718   0.973 -0.2496  0.2775 -0.6468
  358TMC3    C6 5362   0.387   1.625   0.879  0.0721 -0.0705  0.0572
  358TMC3     C 5363   0.523   1.568   1.269 -0.3136 -0.0308 -0.3493
  358TMC3     O 5364   0.629   1.517   1.289 -0.1695 -0.3934 -0.3726
  358TMC3     H 5365   0.527   1.388   1.072 -2.7237 -0.4839 -1.1643
  358TMC3    H1 5366   0.388   1.783   1.170  1.0902 -0.3011  0.9813
  358TMC3    H2 5367   0.329   1.631   0.788  1.8826 -0.3803 -1.1232
  358TMC3    C7 5368   0.248   1.813   0.943  0.4451 -0.0908  0.8673
  358TMC3    C8 5369   0.475   1.415   0.809  0.0099  0.5398 -0.5314
  358TMC3    O1 5370   0.254   1.870   0.839  0.3003 -0.1821 -0.2345
  358TMC3    O2 5371   0.414   1.441   0.706 -0.5191  0.4884  0.2178
  359MPD2     C 5372   0.993   0.539  12.216  0.4431 -0.2955 -0.5016
  359MPD2    C1 5373   0.945   0.454  12.315  0.2239  0.1176 -0.5926
  359MPD2    C2 5374   0.820   0.478  12.373 -0.8321  0.1518  0.5684
  359MPD2    C3 5375   0.752   0.596  12.345  0.2491 -0.2818 -0.1050
  359MPD2    C4 5376   0.807   0.684  12.259  0.2227 -0.2914  0.7689
  359MPD2    C5 5377   0.919   0.651  12.187  0.0904  0.1150 -0.2097
  359MPD2     H 5378   0.784   0.409  12.448  2.0641 -0.8549  1.0249
  359MPD2    H1 5379   0.757   0.779  12.247 -1.1998 -1.1057  0.2541
  359MPD2    H2 5380   1.082   0.519  12.158 -0.5234 -2.0088 -1.4111
  359MPD2    H3 5381   0.951   0.724  12.114 -0.3124  0.1253 -0.3752
  359MPD2     N 5382   0.625   0.629  12.403  0.0947 -0.0865  0.4967
  359MPD2    H5 5383   0.600   0.725  12.383  1.1736 -0.1636 -1.2641
  359MPD2    N1 5384   1.007   0.337  12.346 -0.2396  0.3845  0.1844
  359MPD2    H7 5385   0.957   0.268  12.401  1.2695 -1.2404 -0.4681
  360TMC3    C1 5386   1.170   0.189  12.382  0.4524  0.0961 -0.9797
  360TMC3    C2 5387   1.309   0.175  12.404 -0.0063  0.0624 -0.5985
  360TMC3    C3 5388   1.370   0.074  12.345 -0.4257 -0.7345 -0.2261
  360TMC3    C4 5389   1.099   0.085  12.339 -0.2831  0.1508 -0.0679
  360TMC3    C5 5390   1.160   4.699  12.293  0.1953  0.3033  0.6849
  360TMC3    C6 5391   1.295   4.694  12.298 -0.0950 -0.0536 -0.2561
  360TMC3     C 5392   1.136   0.313  12.323 -0.4915  0.1473 -0.4106
  360TMC3     O 5393   1.225   0.392  12.292 -0.4593 -0.7477  0.1099
  360TMC3     H 5394   1.363   0.267  12.421  1.5400 -1.0370  0.4014
  360TMC3    H1 5395   0.991   0.098  12.332 -0.2101  0.4878 -0.5065
  360TMC3    H2 5396   1.356   4.612  12.263 -0.7962 -0.8999  0.4903
  360TMC3    C7 5397   1.101   4.644  12.172  0.6789  0.4942  0.6937
  360TMC3    C8 5398   1.508   0.095  12.310  0.5776  0.0665  0.1046
  360TMC3    O1 5399   1.181   4.600  12.092 -0.0905  0.1685  0.4900
  360TMC3    O2 5400   1.558   0.194  12.363 -0.0969  0.0580 -0.1649
  361MPD2     C 5401   2.597   3.900  16.486 -0.4706 -0.2677 -0.5821
  361MPD2    C1 5402   2.571   3.971  16.599  0.2274 -0.4515 -0.0115
  361MPD2    C2 5403   2.655   3.954  16.706 -0.5428  0.3252 -0.0912
  361MPD2    C3 5404   2.771   3.874  16.709  0.8264 -0.4232 -0.4072
  361MPD2    C4 5405   2.791   3.802  16.596  0.3121 -0.0354  0.5791
  361MPD2    C5 5406   2.701   3.810  16.493  0.8412 -0.2735  0.3927
  361MPD2     H 5407   2.629   4.005  16.798  0.3094 -2.9621  1.9777
  361MPD2    H1 5408   2.878   3.738  16.593 -0.2086 -0.6695 -1.0723
  361MPD2    H2 5409   2.532   3.895  16.400 -0.6119 -0.1563 -0.4809
  361MPD2    H3 5410   2.720   3.751  16.404 -1.9856 -0.3433 -0.1729
  361MPD2     N 5411   2.863   3.859  16.814 -0.2518  0.2589 -0.1831
  361MPD2    H5 5412   2.942   3.798  16.793 -0.3939 -0.6102  1.8009
  361MPD2    N1 5413   2.482   4.072  16.604 -0.7662  0.7074 -0.3918
  361MPD2    H7 5414   2.469   4.122  16.691 -0.1605 -2.0624  1.3020
  362TMC3    C1 5415   2.328   4.234  16.552 -1.4599 -0.1205 -0.4933
  362TMC3    C2 5416   2.263   4.210  16.671  0.3511  0.6037 -0.3359
  362TMC3    C3 5417   2.135   4.270  16.686  0.1514 -0.8653  0.4117
  362TMC3    C4 5418   2.272   4.318  16.462 -0.0364  0.2098 -0.3869
  362TMC3    C5 5419   2.165   4.390  16.490  0.0727 -0.0008  0.1137
  362TMC3    C6 5420   2.091   4.365  16.597  0.3268 -0.7373 -0.2567
  362TMC3     C 5421   2.418   4.132  16.501  0.6939 -0.1882 -0.4936
  362TMC3     O 5422   2.444   4.107  16.384 -0.2693  0.3236  0.3222
  362TMC3     H 5423   2.317   4.159  16.750 -0.4261 -0.9853 -0.8425
  362TMC3    H1 5424   2.318   4.321  16.363  3.6329  2.3378  1.4059
  362TMC3    H2 5425   2.003   4.422  16.624  0.3965 -0.9317  0.3967
  362TMC3    C7 5426   2.123   4.488  16.389 -0.4767  0.1023 -0.0869
  362TMC3    C8 5427   2.097   4.287  16.821  0.3265 -0.4557 -0.0704
  362TMC3    O1 5428   2.003   4.519  16.386 -0.0894 -0.4902  0.2302
  362TMC3    O2 5429   2.184   4.278  16.908  0.6316 -0.1461 -0.0995
  363TMC3    C1 5430   4.558   1.447   9.062  0.0111 -0.2903  0.3306
  363TMC3    C2 5431   4.625   1.393   9.161 -0.2499  0.1900  0.2159
  363TMC3    C3 5432   4.657   1.472   9.272 -0.7436 -0.1016  0.0934
  363TMC3    C4 5433   4.509   1.578   9.072 -0.3464 -0.0324  0.1975
  363TMC3    C5 5434   4.537   1.642   9.186  0.0636  0.2655 -0.3776
  363TMC3    C6 5435   4.595   1.594   9.295  0.7009  0.2945 -0.0612
  363TMC3     C 5436   4.555   1.384   8.938  0.3119 -0.4898 -0.0733
  363TMC3     O 5437   4.610   1.277   8.931  0.0209 -0.0470  0.2257
  363TMC3     H 5438   4.679   1.299   9.149  1.3578  1.0611  0.5755
  363TMC3    H1 5439   4.483   1.631   8.982 -1.4970 -1.0362 -0.0583
  363TMC3    H2 5440   4.614   1.654   9.383  0.6356  2.4430 -1.5134
  363TMC3    C7 5441   4.499   1.774   9.195  0.3387  0.0758 -0.2182
  363TMC3    C8 5442   4.717   1.417   9.397  0.5268  0.4529 -0.2175
  363TMC3    O1 5443   4.562   1.848   9.271 -0.3273 -0.0670  0.5246
  363TMC3    O2 5444   4.694   1.482   9.500 -0.5394 -0.2839 -0.3179
  364MPD2     C 5445   4.251   0.592  10.983  0.1481 -0.6418 -0.0253
  364MPD2    C1 5446   4.362   0.665  11.026  0.1394 -0.2316 -0.0066
  364MPD2    C2 5447   4.454   0.597  11.108 -0.0038 -0.2294  0.0234
  364MPD2    C3 5448   4.434   0.463  11.145 -0.9496 -0.4256 -0.1836
  364MPD2    C4 5449   4.315   0.406  11.112  0.5665  0.1528 -0.2528
  364MPD2    C5 5450   4.235   0.462  11.017 -0.3078 -0.2135 -0.6317
  364MPD2     H 5451   4.544   0.650  11.136 -0.7484  0.7694  0.5227
  364MPD2    H1 5452   4.298   0.301  11.131  0.1592  0.0995 -0.9061
  364MPD2    H2 5453   4.186   0.637  10.909  0.4684  1.3317  0.8826
  364MPD2    H3 5454   4.148   0.412  10.976 -0.1706 -2.1136  1.4037
  364MPD2     N 5455   4.519   0.388  11.231 -0.0084 -0.1209 -0.5420
  364MPD2    H5 5456   4.505   0.288  11.227  1.7970 -0.3602 -0.8411
  364MPD2    N1 5457   4.368   0.806  11.000 -0.1180  0.5256  0.0145
  364MPD2    H7 5458   4.296   0.832  10.933 -0.9975  0.3958  0.9090
  365TMC3    C1 5459   4.465   1.017  10.971  0.4336  0.4853  0.1289
  365TMC3    C2 5460   4.455   1.002  10.837  0.2461 -0.4615 -0.0275
  365TMC3    C3 5461   4.478   1.106  10.756 -0.4622  0.1079 -0.3825
  365TMC3    C4 5462   4.503   1.134  11.030  0.4266  0.4445  0.1257
  365TMC3    C5 5463   4.514   1.234  10.945 -0.2783 -0.0522  0.4130
  365TMC3    C6 5464   4.502   1.229  10.810  0.3175 -0.0783  0.1645
  365TMC3     C 5465   4.469   0.893  11.039  0.5153  0.4763  0.0227
  365TMC3     O 5466   4.551   0.879  11.133 -0.1074  0.1546  0.4173
  365TMC3     H 5467   4.432   0.901  10.803 -1.1842 -0.0203 -0.3597
  365TMC3    H1 5468   4.521   1.139  11.137  2.3695  0.0923 -0.1843
  365TMC3    H2 5469   4.496   1.323  10.755 -3.2224 -0.4127  0.0100
  365TMC3    C7 5470   4.511   1.363  11.004 -0.0558  0.9369  0.0704
  365TMC3    C8 5471   4.451   1.110  10.618 -0.3307  0.3066  0.5426
  365TMC3    O1 5472   4.549   1.455  10.936  0.0331  0.0058 -0.9015
  365TMC3    O2 5473   4.479   1.210  10.556 -0.0055  0.7182  0.0501
  366MPD2     C 5474   3.229   2.034  15.318  0.0570  0.6837  0.2823
  366MPD2    C1 5475   3.196   2.134  15.232  0.3322  0.5271 -0.0825
  366MPD2    C2 5476   3.278   2.167  15.129  0.1261 -0.8826 -0.1812
  366MPD2    C3 5477   3.401   2.110  15.116  0.0812  0.0782  0.5341
  366MPD2    C4 5478   3.433   2.001  15.199 -0.6385 -0.0553  0.2926
  366MPD2    C5 5479   3.342   1.963  15.297 -0.3069  0.5111  0.3428
  366MPD2     H 5480   3.257   2.257  15.072  1.2326 -1.8756 -2.1523
  366MPD2    H1 5481   3.530   1.954  15.184 -0.1424  0.4756  1.8102
  366MPD2    H2 5482   3.156   2.010  15.394 -0.5161  0.7137 -0.2510
  366MPD2    H3 5483   3.363   1.881  15.364 -1.8622 -0.9633 -0.9692
  366MPD2     N 5484   3.494   2.152  15.021 -0.4237 -0.1561  0.1152
  366MPD2    H5 5485   3.572   2.092  14.998  0.8387  1.6592 -0.4167
  366MPD2    N1 5486   3.083   2.208  15.256  0.0465 -0.0447 -0.2826
  366MPD2    H7 5487   3.055   2.219  15.353  0.3158  2.3685 -0.4733
  367TMC3    C1 5488   2.979   2.401  15.227 -0.1582 -1.1704 -0.7582
  367TMC3    C2 5489   3.063   2.468  15.313 -0.5527  0.3326 -1.1943
  367TMC3    C3 5490   3.053   2.599  15.328  0.9199  0.1274  0.0932
  367TMC3    C4 5491   2.889   2.468  15.150 -0.6648 -0.2652 -0.9820
  367TMC3    C5 5492   2.884   2.601  15.165  0.4628  0.5108 -1.0774
  367TMC3    C6 5493   2.961   2.673  15.250  0.3562 -0.4720  0.0085
  367TMC3     C 5494   3.039   2.290  15.165 -0.0822 -0.1984  0.2436
  367TMC3     O 5495   3.030   2.284  15.042  0.0853  0.2686 -0.2357
  367TMC3     H 5496   3.129   2.409  15.376 -0.1977  1.4825 -0.4904
  367TMC3    H1 5497   2.834   2.407  15.079  0.0048 -0.8858 -0.9727
  367TMC3    H2 5498   2.970   2.780  15.240 -1.3176 -0.6229 -2.9878
  367TMC3    C7 5499   2.766   2.674  15.119  0.1117 -0.0516 -0.6561
  367TMC3    C8 5500   3.150   2.661  15.411  0.5962  0.0587 -0.7417
  367TMC3    O1 5501   2.747   2.775  15.183 -0.0518  0.8029 -0.2712
  367TMC3    O2 5502   3.246   2.592  15.449 -0.0727 -0.0705 -0.1050
  368MPD2     C 5503   3.710   4.699  13.101  0.1075  0.9062  0.1275
  368MPD2    C1 5504   3.718   0.085  13.021 -0.4728  0.0085 -0.3346
  368MPD2    C2 5505   3.832   0.101  12.947  0.1991 -0.9950  0.0106
  368MPD2    C3 5506   3.931   4.725  12.937 -0.4966  0.2901  0.6753
  368MPD2    C4 5507   3.911   4.613  13.020 -0.4244 -0.4034 -0.2688
  368MPD2    C5 5508   3.807   4.604  13.109  0.4622 -0.0540 -0.7648
  368MPD2     H 5509   3.839   0.185  12.879  3.5614 -1.4247 -0.1635
  368MPD2    H1 5510   3.969   4.522  13.015  0.9946  0.4248  1.3672
  368MPD2    H2 5511   3.623   4.672  13.160 -1.6409  0.9679 -2.4056
  368MPD2    H3 5512   3.798   4.510  13.161  1.2823 -0.0808 -0.6783
  368MPD2     N 5513   4.047   0.002  12.856  0.5054  0.0036  0.0673
  368MPD2    H5 5514   4.092   4.637  12.856  2.2880  0.9008  2.2983
  368MPD2    N1 5515   3.615   0.181  13.026 -0.3571 -0.0741 -0.3495
  368MPD2    H7 5516   3.542   0.162  13.094 -1.6932  3.4303 -0.8277
  369TMC3    C1 5517   3.479   0.372  12.957 -0.8510  0.0386 -0.1698
  369TMC3    C2 5518   3.479   0.469  12.866 -0.4424  0.0402 -0.3055
  369TMC3    C3 5519   3.392   0.475  12.765  0.0448  0.6425  0.7980
  369TMC3    C4 5520   3.369   0.289  12.957  0.4491  0.0648  0.3849
  369TMC3    C5 5521   3.267   0.297  12.862 -0.8328 -0.2225  0.0628
  369TMC3    C6 5522   3.282   0.393  12.764 -0.3288  0.1833  0.4283
  369TMC3     C 5523   3.607   0.306  12.963  0.1503  0.2494  0.4434
  369TMC3     O 5524   3.700   0.360  12.910 -0.8104  0.6317 -0.2318
  369TMC3     H 5525   3.567   0.533  12.874  0.4255 -1.3339  1.1570
  369TMC3    H1 5526   3.358   0.221  13.040 -0.5252  0.3510  0.4866
  369TMC3    H2 5527   3.224   0.392  12.673 -0.7717 -3.1093  0.7470
  369TMC3    C7 5528   3.158   0.204  12.862  0.1008 -0.0911  0.1183
  369TMC3    C8 5529   3.450   0.484  12.632  0.4906 -0.2811 -0.1600
  369TMC3    O1 5530   3.181   0.097  12.917 -0.1108 -0.5823  0.5918
  369TMC3    O2 5531   3.376   0.508  12.538  0.0390 -0.3058  0.1042
  370TMC3    C1 5532   3.435   0.137  16.050 -0.3771  0.5598  0.8904
  370TMC3    C2 5533   3.386   0.081  16.160 -0.3415 -0.0332  0.2844
  370TMC3    C3 5534   3.413   4.672  16.190  0.5402 -0.0968  0.2696
  370TMC3    C4 5535   3.515   0.071  15.964  0.5728 -0.3255  0.5358
  370TMC3    C5 5536   3.540   4.666  15.990  0.0449 -0.6819  0.2348
  370TMC3    C6 5537   3.486   4.600  16.102  0.2698 -0.1308  0.6567
  370TMC3     C 5538   3.351   0.226  15.981  0.1400 -0.2031 -0.4963
  370TMC3     O 5539   3.242   0.174  15.943  0.6369 -0.3945  0.4672
  370TMC3     H 5540   3.316   0.132  16.226 -1.2812 -1.1847  0.1874
  370TMC3    H1 5541   3.554   0.124  15.878  1.1343 -0.5625  0.6421
  370TMC3    H2 5542   3.483   4.491  16.105  2.0539 -0.2119  0.0067
  370TMC3    C7 5543   3.631   4.599  15.897 -0.2248  0.3246 -0.0810
  370TMC3    C8 5544   3.421   4.620  16.323  0.3268 -0.2274  0.8195
  370TMC3    O1 5545   3.658   4.651  15.788  0.2583 -0.2124 -0.7939
  370TMC3    O2 5546   3.458   4.502  16.339  0.2060  1.0329  0.0171
  371TMC3    C1 5547   0.213   3.176  15.411  0.6706 -0.8056 -0.0495
  371TMC3    C2 5548   0.170   3.196  15.537 -0.1111 -0.0147 -0.5439
  371TMC3    C3 5549   0.109   3.321  15.560 -0.8606  0.2444  0.4884
  371TMC3    C4 5550   0.208   3.265  15.305 -0.1877 -0.1034 -0.2842
  371TMC3    C5 5551   0.153   3.387  15.338 -0.7518  0.1048  0.2594
  371TMC3    C6 5552   0.098   3.424  15.461  0.2232 -0.0786 -0.4501
  371TMC3     C 5553   0.266   3.046  15.384  0.0082 -0.0830  1.1430
  371TMC3     O 5554   0.340   3.030  15.288  0.4704  0.0649 -0.4622
  371TMC3     H 5555   0.189   3.138  15.627 -1.8084  1.3436  0.7053
  371TMC3    H1 5556   0.254   3.240  15.210  0.2844 -0.8621  0.1500
  371TMC3    H2 5557   0.050   3.521  15.469  0.7612  0.3619 -2.6433
  371TMC3    C7 5558   0.139   3.484  15.235 -0.0873 -1.0226 -0.4914
  371TMC3    C8 5559   0.029   3.323  15.682 -0.4653  0.1125 -0.0199
  371TMC3    O1 5560   0.048   3.565  15.235  0.0020  0.2536 -0.3078
  371TMC3    O2 5561   0.005   3.212  15.729 -0.2773  0.0674 -0.1741
  372MPD2     C 5562   4.626   0.011  13.927 -0.1352 -0.7385 -0.0489
  372MPD2    C1 5563   4.699   4.641  13.864  0.5687 -0.7521 -0.4841
  372MPD2    C2 5564   4.638   4.555  13.782 -0.4060  0.2388  0.5472
  372MPD2    C3 5565   4.501   4.564  13.755  1.4208  0.1622 -0.8745
  372MPD2    C4 5566   4.429   4.670  13.809 -0.1519  0.3476 -0.0149
  372MPD2    C5 5567   4.495   0.030  13.889  0.3615 -0.0231 -0.2199
  372MPD2     H 5568   4.690   4.469  13.739  0.9921  0.5585  1.6178
  372MPD2    H1 5569   4.323   4.687  13.791 -0.3894  0.2368  1.2780
  372MPD2    H2 5570   4.675   0.093  13.979 -0.9487  0.6094 -1.4177
  372MPD2    H3 5571   4.446   0.118  13.930 -1.1092  0.0294 -2.1129
  372MPD2     N 5572   4.434   4.465  13.676 -0.0935  0.1470 -0.2401
  372MPD2    H5 5573   4.496   4.406  13.621 -0.9340 -0.9870  0.0453
  372MPD2    N1 5574   0.112   4.630  13.892 -0.2467 -0.6306 -0.6143
  372MPD2    H7 5575   0.164   4.573  13.826 -1.0739 -0.6531 -1.2414
  373TMC3    C1 5576   4.264   4.367  13.556 -0.2909 -0.5627 -0.0194
  373TMC3    C2 5577   4.154   4.296  13.573 -0.3417  0.2688 -0.3546
  373TMC3    C3 5578   4.128   4.203  13.473  0.3796  0.3177  0.8963
  373TMC3    C4 5579   4.364   4.346  13.464  0.2481  0.0163 -0.1158
  373TMC3    C5 5580   4.339   4.249  13.376  0.4426 -0.5628  0.2580
  373TMC3    C6 5581   4.220   4.181  13.375 -0.1535 -0.2207 -0.5127
  373TMC3     C 5582   4.298   4.449  13.669  0.2132 -0.2470  0.6459
  373TMC3     O 5583   4.214   4.488  13.746  0.0281  0.3752  0.4367
  373TMC3     H 5584   4.096   4.316  13.662  0.1838  0.2410 -0.0076
  373TMC3    H1 5585   4.449   4.412  13.455 -0.3433  0.6831 -0.7263
  373TMC3    H2 5586   4.202   4.100  13.305 -1.5054 -0.1121 -0.2947
  373TMC3    C7 5587   4.427   4.220  13.266 -0.0873  0.6374 -0.3520
  373TMC3    C8 5588   4.064   4.085  13.528 -0.3638 -0.1158 -0.2960
  373TMC3    O1 5589   4.378   4.205  13.159  0.2981 -0.1535  0.0126
  373TMC3    O2 5590   4.117   3.981  13.491 -0.2481 -0.8224  0.0262
  374TMC3    C1 5591   4.501   4.341   9.811 -0.0029  0.4412 -0.2229
  374TMC3    C2 5592   4.581   4.447   9.858 -0.8060  0.4890 -1.1058
  374TMC3    C3 5593   4.563   4.564   9.799  0.1095 -0.2281  0.2697
  374TMC3    C4 5594   4.404   4.358   9.709  0.4380  0.0790 -0.1750
  374TMC3    C5 5595   4.396   4.481   9.646 -0.0357  0.1902 -0.0576
  374TMC3    C6 5596   4.476   4.583   9.696  0.7707 -0.4499  0.0431
  374TMC3     C 5597   4.538   4.203   9.843 -0.6404 -0.3562  0.5972
  374TMC3     O 5598   4.451   4.120   9.829 -0.1258 -0.0434 -0.1721
  374TMC3     H 5599   4.648   4.431   9.942  1.0008  2.3552 -2.1894
  374TMC3    H1 5600   4.341   4.273   9.687 -0.6644  0.3906  1.7855
  374TMC3    H2 5601   4.461   4.674   9.640 -2.7653 -1.3964 -0.5208
  374TMC3    C7 5602   4.328   4.488   9.523 -0.0731 -0.1987 -0.4240
  374TMC3    C8 5603   4.634   4.687   9.840  0.2016  0.4369  0.0145
  374TMC3    O1 5604   4.323   4.377   9.474 -0.8838  0.3174 -0.6536
  374TMC3    O2 5605   4.630   0.056   9.761 -0.1921 -0.1766  0.3893
  375MPD2     C 5606   0.140   1.148  17.191 -0.2791 -0.0737 -0.2605
  375MPD2    C1 5607   0.059   1.078  17.107 -0.4145 -0.1498 -0.4910
  375MPD2    C2 5608   0.119   0.985  17.016  0.0710  0.2035  0.3203
  375MPD2    C3 5609   0.254   0.965  17.003 -0.3564 -0.2240 -0.0429
  375MPD2    C4 5610   0.334   1.038  17.094  0.1960  0.3371  0.4400
  375MPD2    C5 5611   0.279   1.125  17.177 -0.1375  0.2703  0.2706
  375MPD2     H 5612   0.049   0.922  16.962  1.2121 -0.4457 -0.3990
  375MPD2    H1 5613   0.439   1.017  17.114 -0.1010  0.2185  1.9025
  375MPD2    H2 5614   0.110   1.236  17.247  1.3621 -0.0123  0.5152
  375MPD2    H3 5615   0.346   1.175  17.245 -1.5252  3.0004 -0.3757
  375MPD2     N 5616   0.312   0.879  16.917 -0.9575 -0.1978 -0.1228
  375MPD2    H5 5617   0.412   0.867  16.925 -0.7040  0.7308 -1.8681
  375MPD2    N1 5618   4.646   1.084  17.101 -0.4898  0.2283 -0.3139
  375MPD2    H7 5619   4.606   1.019  17.035 -0.1724  0.2291 -0.5046
  376TMC3    C1 5620   0.325   0.732  16.730 -0.0918 -0.0941 -0.5351
  376TMC3    C2 5621   0.456   0.702  16.763 -0.1075 -0.3386 -0.6092
  376TMC3    C3 5622   0.534   0.649  16.661  0.1805 -0.3202  0.2115
  376TMC3    C4 5623   0.281   0.709  16.599  0.0082 -0.5005  0.4771
  376TMC3    C5 5624   0.357   0.647  16.509  0.1980 -0.1501 -0.7739
  376TMC3    C6 5625   0.485   0.619  16.539  0.0278 -0.3028 -0.4673
  376TMC3     C 5626   0.242   0.818  16.810  0.3727  0.2077 -0.0779
  376TMC3     O 5627   0.137   0.853  16.769 -0.6410 -0.4501 -0.5735
  376TMC3     H 5628   0.492   0.715  16.865 -0.4761  0.4269 -0.5802
  376TMC3    H1 5629   0.182   0.745  16.573 -1.4999 -2.5504  3.3213
  376TMC3    H2 5630   0.529   0.560  16.459 -1.0023 -0.8227 -0.6503
  376TMC3    C7 5631   0.319   0.672  16.371  0.0278  0.5649 -0.4388
  376TMC3    C8 5632   0.661   0.595  16.689  0.2427 -0.4605 -0.3662
  376TMC3    O1 5633   0.282   0.784  16.337 -0.0730 -0.0729  0.1014
  376TMC3    O2 5634   0.688   0.523  16.787 -0.2408  0.5820 -0.2868
  377MPD2     C 5635   2.694   0.394  12.176  0.4521 -0.0279  0.6215
  377MPD2    C1 5636   2.743   0.281  12.238 -0.2686  0.1352  0.2921
  377MPD2    C2 5637   2.650   0.207  12.308  0.2132 -0.3677 -0.4249
  377MPD2    C3 5638   2.516   0.247  12.317  0.1056  0.0327  0.3353
  377MPD2    C4 5639   2.475   0.365  12.256  0.0198 -0.2113 -0.6372
  377MPD2    C5 5640   2.565   0.431  12.182  0.0011 -0.3056 -0.7124
  377MPD2     H 5641   2.686   0.114  12.351 -0.4177 -0.1804  0.5020
  377MPD2    H1 5642   2.374   0.404  12.260  0.0942  0.0163 -0.9525
  377MPD2    H2 5643   2.756   0.450  12.107  0.9817 -1.8576 -0.3905
  377MPD2    H3 5644   2.534   0.520  12.129 -1.9139 -1.8955 -2.2655
  377MPD2     N 5645   2.413   0.188  12.391  0.4902 -0.4697  0.3374
  377MPD2    H5 5646   2.323   0.236  12.400 -1.1923 -3.1534 -2.2860
  377MPD2    N1 5647   2.881   0.251  12.220 -0.2712  0.3756 -0.3265
  377MPD2    H7 5648   2.934   0.322  12.170 -1.8131  1.2754 -0.6886
  378TMC3    C1 5649   3.280   0.227  12.166  0.2145  0.1444 -0.1290
  378TMC3    C2 5650   3.145   0.202  12.170 -0.0450  0.8432  0.5141
  378TMC3    C3 5651   3.087   0.169  12.290  0.0571 -0.4646  0.1013
  378TMC3    C4 5652   3.359   0.215  12.277 -0.3662  0.3230  1.0515
  378TMC3    C5 5653   3.297   0.165  12.394  0.6415  0.5075  0.2240
  378TMC3    C6 5654   3.161   0.142  12.400 -0.5677 -0.2709  0.0780
  378TMC3     C 5655   3.325   0.269  12.033 -0.4502 -0.8302 -0.4972
  378TMC3     O 5656   3.240   0.273  11.943 -0.0237 -0.0931  0.1549
  378TMC3     H 5657   3.084   0.216  12.081 -0.3579 -1.2263  0.4194
  378TMC3    H1 5658   3.461   0.252  12.279 -0.8428  1.6776  0.1828
  378TMC3    H2 5659   3.114   0.116  12.494 -0.0256 -1.8080 -0.0718
  378TMC3    C7 5660   3.373   0.105  12.503 -0.9416 -0.2266  0.1766
  378TMC3    C8 5661   2.949   0.169  12.312 -0.2738  0.6108  0.0867
  378TMC3    O1 5662   3.304   0.044  12.585 -0.0743 -0.5281 -0.1801
  378TMC3    O2 5663   2.911   0.097  12.404  0.2321 -0.3692 -0.2836
  379MPD2     C 5664   3.638   2.888  16.473 -0.2878 -0.8533  0.5812
  379MPD2    C1 5665   3.733   2.835  16.387 -0.1373  0.2316  0.9080
  379MPD2    C2 5666   3.801   2.725  16.428 -0.1443 -0.6260 -0.6163
  379MPD2    C3 5667   3.787   2.667  16.556  0.8192 -0.5315 -0.2453
  379MPD2    C4 5668   3.691   2.722  16.636  0.1703 -0.5507 -0.2297
  379MPD2    C5 5669   3.616   2.829  16.592  0.9685  0.1029  0.5079
  379MPD2     H 5670   3.873   2.680  16.360 -0.1920 -0.3774 -0.8318
  379MPD2    H1 5671   3.666   2.677  16.731  0.2437  3.7115  1.8087
  379MPD2    H2 5672   3.571   2.967  16.440 -0.6419 -1.8075 -0.9745
  379MPD2    H3 5673   3.531   2.868  16.648 -0.1833 -0.5222 -0.7960
  379MPD2     N 5674   3.861   2.547  16.607  0.3772 -0.1964 -0.4897
  379MPD2    H5 5675   3.831   2.519  16.700  0.3586  0.9551 -0.1550
  379MPD2    N1 5676   3.750   2.896  16.259  0.0231 -0.4056 -0.0738
  379MPD2    H7 5677   3.681   2.968  16.240 -0.9827 -1.5255 -0.6665
  380TMC3    C1 5678   3.818   2.928  16.042  0.3855  0.2696  0.2515
  380TMC3    C2 5679   3.911   2.906  15.947 -0.1450  0.1215  0.2975
  380TMC3    C3 5680   3.871   2.914  15.815  0.2964  0.0101  0.4110
  380TMC3    C4 5681   3.685   2.938  16.015 -0.2918  0.0547 -0.9593
  380TMC3    C5 5682   3.651   2.929  15.881  0.3125  0.6713  0.3174
  380TMC3    C6 5683   3.743   2.926  15.780  1.0858 -0.3587  0.0626
  380TMC3     C 5684   3.845   2.865  16.167 -0.0771 -0.1465  0.2671
  380TMC3     O 5685   3.924   2.772  16.155  0.5232  0.2992 -0.4372
  380TMC3     H 5686   4.014   2.879  15.968 -0.5979 -1.2013  0.8049
  380TMC3    H1 5687   3.598   2.948  16.079  0.0296  1.4085 -0.7349
  380TMC3    H2 5688   3.717   2.921  15.675  2.3891  1.2986 -0.3455
  380TMC3    C7 5689   3.521   2.978  15.840 -0.0281 -0.0079  0.1896
  380TMC3    C8 5690   3.972   2.936  15.714 -0.4712  0.1444  0.5366
  380TMC3    O1 5691   3.471   3.066  15.909  0.0671  0.4821  0.0363
  380TMC3    O2 5692   3.936   2.921  15.597 -0.4438  0.1263 -0.5473
  381TMC3    C1 5693   3.711   3.934  16.283  0.3615  0.1305  0.5825
  381TMC3    C2 5694   3.762   4.056  16.245  0.3894 -0.2876 -0.1151
  381TMC3    C3 5695   3.723   4.163  16.316  0.0302 -0.4360 -0.0689
  381TMC3    C4 5696   3.635   3.915  16.395  0.6504  0.2850 -0.4457
  381TMC3    C5 5697   3.605   4.027  16.472  0.2695 -0.5524  0.6678
  381TMC3    C6 5698   3.656   4.151  16.435  0.1349 -0.3338 -0.6471
  381TMC3     C 5699   3.779   3.813  16.228 -0.3256  0.5834 -0.4411
  381TMC3     O 5700   3.772   3.713  16.299  0.4324  0.5581  0.8443
  381TMC3     H 5701   3.810   4.078  16.150 -1.0490  0.6822 -0.6152
  381TMC3    H1 5702   3.582   3.822  16.410 -1.4766  1.9906  2.4391
  381TMC3    H2 5703   3.640   4.232  16.505  0.6423 -1.4049  0.6872
  381TMC3    C7 5704   3.576   3.991  16.607 -0.6327  0.1601 -0.1830
  381TMC3    C8 5705   3.816   4.275  16.300 -0.2338 -0.4529 -0.1499
  381TMC3    O1 5706   3.613   3.878  16.642 -0.0569  0.0484  0.1978
  381TMC3    O2 5707   3.927   4.254  16.254 -0.1187 -0.1854 -0.8265
  382MPD2     C 5708   2.707   1.391  17.388  0.2199 -0.5384  0.4572
  382MPD2    C1 5709   2.634   1.488  17.453  0.2991 -0.2129 -0.5335
  382MPD2    C2 5710   2.495   1.476  17.470  0.6890  0.2920  0.2886
  382MPD2    C3 5711   2.424   1.367  17.429  0.4266  0.2218 -1.0560
  382MPD2    C4 5712   2.499   1.271  17.361  0.3790  0.6563  0.1946
  382MPD2    C5 5713   2.640   1.293  17.330 -0.3342  0.0298  0.0483
  382MPD2     H 5714   2.447   1.554  17.528  3.0052  0.5247  1.8808
  382MPD2    H1 5715   2.470   1.170  17.334  2.3948  0.4054 -1.0526
  382MPD2    H2 5716   2.814   1.401  17.374 -0.0205 -0.5648 -1.4091
  382MPD2    H3 5717   2.693   1.227  17.263 -0.9034  1.1563 -1.5293
  382MPD2     N 5718   2.281   1.354  17.446 -0.2462 -0.4964 -0.0309
  382MPD2    H5 5719   2.246   1.268  17.405 -2.2170  1.1319 -1.7846
  382MPD2    N1 5720   2.699   1.605  17.499  0.1279 -0.1723 -0.1577
  382MPD2    H7 5721   2.644   1.680  17.539  0.6457  1.8056 -3.1038
  383TMC3    C1 5722   2.052   1.386  17.502  1.2503 -0.0106  0.4655
  383TMC3    C2 5723   2.016   1.298  17.404 -0.3565 -0.5309 -0.7011
  383TMC3    C3 5724   1.878   1.265  17.409  1.0086  0.2589  0.3176
  383TMC3    C4 5725   1.965   1.433  17.597 -0.4475 -0.3575  0.3008
  383TMC3    C5 5726   1.834   1.402  17.582 -0.6852 -0.8220 -0.1562
  383TMC3    C6 5727   1.781   1.315  17.492 -0.0736  0.3363 -0.0155
  383TMC3     C 5728   2.188   1.437  17.510 -0.1129  0.1848 -0.2705
  383TMC3     O 5729   2.211   1.539  17.565  0.0673  0.4028 -0.4098
  383TMC3     H 5730   2.088   1.266  17.330 -0.8975 -0.3902 -1.2981
  383TMC3    H1 5731   2.002   1.492  17.681  0.6988 -0.9135  0.1921
  383TMC3    H2 5732   1.675   1.294  17.487 -0.1467  0.9273 -1.0247
  383TMC3    C7 5733   1.739   1.445  17.683 -0.7458  0.0234 -0.9160
  383TMC3    C8 5734   1.821   1.175  17.303  0.6404  0.3167 -0.5578
  383TMC3    O1 5735   1.617   1.439  17.661  0.2189 -0.8282 -0.0446
  383TMC3    O2 5736   1.707   1.200  17.270  0.5388 -0.1335  0.3411
  384MPD2     C 5737   3.574   3.101  12.011  0.0698  0.9781 -0.3683
  384MPD2    C1 5738   3.630   3.070  12.135 -0.3386  0.5507  0.2430
  384MPD2    C2 5739   3.726   2.966  12.134 -0.2556 -0.5443 -0.7908
  384MPD2    C3 5740   3.760   2.902  12.017 -0.2596 -0.1294  0.1066
  384MPD2    C4 5741   3.699   2.935  11.902  0.2642 -0.8119  0.5134
  384MPD2    C5 5742   3.615   3.042  11.897 -0.4905  0.4905 -0.2904
  384MPD2     H 5743   3.777   2.936  12.225 -0.9337 -0.1281 -0.2665
  384MPD2    H1 5744   3.732   2.893  11.807 -0.2062 -0.7946  0.3414
  384MPD2    H2 5745   3.511   3.190  12.004 -1.5107 -0.0499  0.7976
  384MPD2    H3 5746   3.579   3.080  11.802 -0.5776 -0.9682 -0.8526
  384MPD2     N 5747   3.863   2.807  12.042  0.3393 -0.8668  0.5184
  384MPD2    H5 5748   3.900   2.807  12.137  2.4568  1.0456 -0.2965
  384MPD2    N1 5749   3.577   3.139  12.249  0.6900 -0.1699 -0.2582
  384MPD2    H7 5750   3.504   3.207  12.234  1.4975  0.3947 -1.6835
  385TMC3    C1 5751   3.999   2.626  12.020 -0.9900 -0.5884 -0.3473
  385TMC3    C2 5752   3.957   2.498  12.030  0.0939 -0.0523  0.6813
  385TMC3    C3 5753   3.981   2.432  12.149  0.2263  0.0083 -0.4349
  385TMC3    C4 5754   4.062   2.687  12.115 -0.1548  0.0065  0.5490
  385TMC3    C5 5755   4.079   2.632  12.236  0.7924  0.8193  0.8471
  385TMC3    C6 5756   4.032   2.504  12.255  0.0791  0.3701 -0.4536
  385TMC3     C 5757   3.902   2.708  11.958  0.2456 -0.4328  0.2944
  385TMC3     O 5758   3.842   2.660  11.860  0.2034  0.7655  0.4839
  385TMC3     H 5759   3.884   2.456  11.963  1.1355 -3.3680  1.6510
  385TMC3    H1 5760   4.105   2.784  12.094  0.7830 -0.4416  0.4027
  385TMC3    H2 5761   4.047   2.452  12.349 -0.9771  1.4215  0.2827
  385TMC3    C7 5762   4.055   2.729  12.332  0.0590 -0.0017 -0.1824
  385TMC3    C8 5763   3.897   2.312  12.169 -0.0626  0.4323  0.2008
  385TMC3    O1 5764   4.000   2.827  12.289 -0.2149 -0.2199  0.0945
  385TMC3    O2 5765   3.844   2.308  12.280 -0.6581  0.6443 -0.1446
  386TMC3    C1 5766   4.500   0.019  11.978 -0.3352  0.8366  0.3220
  386TMC3    C2 5767   4.555   4.704  11.856  0.0981  0.3827  1.4526
  386TMC3    C3 5768   4.515   0.041  11.746 -0.0775  0.0674 -0.7292
  386TMC3    C4 5769   4.431   0.137  11.990 -0.4731 -1.1418 -0.3640
  386TMC3    C5 5770   4.402   0.203  11.877  0.0898  0.8747 -0.4276
  386TMC3    C6 5771   4.434   0.149  11.758  0.2493 -0.0751  0.0198
  386TMC3     C 5772   4.542   4.671  12.100  0.3298 -0.0806  0.7487
  386TMC3     O 5773   4.503   4.717  12.203  0.5507 -0.4085  0.2520
  386TMC3     H 5774   4.615   4.614  11.846 -0.2573  0.3468 -0.3332
  386TMC3    H1 5775   4.394   0.165  12.088 -1.0723 -1.6695 -0.4441
  386TMC3    H2 5776   4.398   0.202  11.671  0.7772  1.3989  0.6969
  386TMC3    C7 5777   4.312   0.322  11.877  0.1421  0.0654  0.1982
  386TMC3    C8 5778   4.507   4.698  11.615 -1.2516  0.4939 -0.0975
  386TMC3    O1 5779   4.214   0.328  11.950  0.1176 -0.2072  0.0218
  386TMC3    O2 5780   4.461   0.040  11.520  0.6486 -0.6592  0.3624
  387MPD2     C 5781   1.902   0.443   9.677 -0.3189 -0.6545  0.6499
  387MPD2    C1 5782   1.973   0.389   9.779 -0.1976  0.6971 -0.3199
  387MPD2    C2 5783   1.956   0.265   9.819  0.1143  0.2134  0.1935
  387MPD2    C3 5784   1.883   0.169   9.747  0.0829 -0.6248 -0.3560
  387MPD2    C4 5785   1.821   0.216   9.636 -0.6673  0.1329 -0.0718
  387MPD2    C5 5786   1.822   0.353   9.608 -0.5042  0.2612 -1.0226
  387MPD2     H 5787   2.015   0.232   9.904 -1.4969  2.3047  2.1043
  387MPD2    H1 5788   1.755   0.151   9.579 -0.5390 -0.2857  0.2641
  387MPD2    H2 5789   1.920   0.545   9.646  0.3597  0.1708  3.7204
  387MPD2    H3 5790   1.759   0.385   9.527 -0.0265 -0.5066 -1.6980
  387MPD2     N 5791   1.873   0.035   9.797 -0.0216 -0.2044 -0.6317
  387MPD2    H5 5792   1.905   0.023   9.892 -0.1487 -0.9384 -0.6853
  387MPD2    N1 5793   2.063   0.462   9.856 -0.0597  0.2961  0.1197
  387MPD2    H7 5794   2.117   0.407   9.922  0.6795 -1.4471 -1.9246
  388TMC3    C1 5795   2.134   0.654   9.992 -0.8507 -0.9739 -0.6053
  388TMC3    C2 5796   2.107   0.783  10.032 -0.0852  0.0984  0.4210
  388TMC3    C3 5797   2.137   0.815  10.164 -0.7734 -0.0359 -0.7499
  388TMC3    C4 5798   2.187   0.564  10.078  0.4529 -0.0312 -0.2156
  388TMC3    C5 5799   2.214   0.596  10.209 -0.0626  0.4840 -0.1878
  388TMC3    C6 5800   2.182   0.719  10.256 -0.1089 -0.3619  0.1853
  388TMC3     C 5801   2.060   0.601   9.876 -0.1197  0.8164  0.1784
  388TMC3     O 5802   2.003   0.689   9.812  0.3756  0.4089  0.2132
  388TMC3     H 5803   2.059   0.860   9.972  1.0478  0.2976 -0.2146
  388TMC3    H1 5804   2.226   0.469  10.043  1.3453 -0.4351  1.8813
  388TMC3    H2 5805   2.190   0.729  10.364  0.8984 -1.0666  0.1822
  388TMC3    C7 5806   2.217   0.493  10.310 -0.5463 -0.3125 -0.1382
  388TMC3    C8 5807   2.155   0.960  10.205  0.3768 -0.4775 -0.2458
  388TMC3    O1 5808   2.301   0.500  10.399  0.2005  0.1712 -0.4909
  388TMC3    O2 5809   2.141   1.050  10.122 -0.6244  0.4909 -0.2734
  389MPD2     C 5810   0.959   2.743  10.154  0.2702 -0.1172 -0.2555
  389MPD2    C1 5811   1.070   2.738  10.238 -0.5639  0.3212 -0.1392
  389MPD2    C2 5812   1.042   2.689  10.359 -0.2720  0.2574 -0.6354
  389MPD2    C3 5813   0.914   2.648  10.392 -0.3932  0.5196 -0.3678
  389MPD2    C4 5814   0.810   2.648  10.303  0.0965  0.4457  0.1514
  389MPD2    C5 5815   0.835   2.697  10.183 -0.5034 -0.5941  0.0126
  389MPD2     H 5816   1.118   2.698  10.436 -0.9792  0.4209  0.0472
  389MPD2    H1 5817   0.709   2.618  10.327  0.6200 -1.4251 -0.0033
  389MPD2    H2 5818   0.964   2.792  10.058 -0.7707  0.6971  0.0992
  389MPD2    H3 5819   0.753   2.699  10.112 -1.4776  1.0178  1.1752
  389MPD2     N 5820   0.874   2.604  10.521  0.3599  0.6683 -0.1076
  389MPD2    H5 5821   0.779   2.568  10.519 -0.0187  1.6692  0.1267
  389MPD2    N1 5822   1.194   2.782  10.184 -0.5122  0.5228  0.9136
  389MPD2    H7 5823   1.199   2.817  10.089  0.1576  0.8605  1.0762
  390TMC3    C1 5824   0.869   2.508  10.726  0.7351  0.0256 -0.2163
  390TMC3    C2 5825   0.888   2.540  10.858  0.3805  0.2514  0.0057
  390TMC3    C3 5826   0.778   2.541  10.942  0.0635 -0.1298  0.1336
  390TMC3    C4 5827   0.752   2.458  10.680 -0.2717  0.0143  0.2129
  390TMC3    C5 5828   0.656   2.441  10.769 -0.0398 -0.7843  0.1327
  390TMC3    C6 5829   0.663   2.498  10.897  0.0355 -0.0661 -0.7669
  390TMC3     C 5830   0.946   2.583  10.635 -0.0635  0.5850 -0.2864
  390TMC3     O 5831   1.057   2.626  10.671 -0.3194 -0.5361  0.0847
  390TMC3     H 5832   0.987   2.574  10.889  0.8986 -0.7219 -0.5694
  390TMC3    H1 5833   0.742   2.414  10.581  0.8201 -2.2007  1.1066
  390TMC3    H2 5834   0.591   2.492  10.977  2.0088 -1.5171  0.8772
  390TMC3    C7 5835   0.579   2.316  10.755  0.0599 -0.0119  1.0288
  390TMC3    C8 5836   0.798   2.487  11.075  0.4988  0.4237 -0.3878
  390TMC3    O1 5837   0.616   2.241  10.666 -0.5407 -0.3209  0.1987
  390TMC3    O2 5838   0.869   2.550  11.152 -0.3758  0.0763  0.3172
  391MPD2     C 5839   0.230   4.331  11.349  0.5467 -0.0409  0.3123
  391MPD2    C1 5840   0.360   4.336  11.320  0.6648 -0.0685 -0.3399
  391MPD2    C2 5841   0.381   4.391  11.193 -0.9557 -0.7656 -0.0360
  391MPD2    C3 5842   0.279   4.442  11.110 -0.1158 -0.6851 -0.0216
  391MPD2    C4 5843   0.148   4.432  11.149 -0.8941 -0.1582  0.6464
  391MPD2    C5 5844   0.124   4.372  11.266  0.1356 -0.9521 -0.0599
  391MPD2     H 5845   0.481   4.407  11.154 -1.7795  1.2867 -1.3155
  391MPD2    H1 5846   0.063   4.465  11.091  0.3427 -0.2583 -1.2093
  391MPD2    H2 5847   0.205   4.288  11.445 -2.3960  1.1029  0.0654
  391MPD2    H3 5848   0.027   4.381  11.315  0.1398  1.4198 -0.4872
  391MPD2     N 5849   0.319   4.495  10.984  0.4195 -0.0691 -0.1409
  391MPD2    H5 5850   0.417   4.480  10.962  0.7099  2.1905 -0.4271
  391MPD2    N1 5851   0.456   4.292  11.407 -0.4424  0.6694 -0.3776
  391MPD2    H7 5852   0.426   4.256  11.497  3.6885  2.2830  1.6653
  392TMC3    C1 5853   0.312   4.572  10.760  0.2173 -0.6368 -0.2376
  392TMC3    C2 5854   0.253   4.577  10.636  0.6713 -0.7170 -0.0551
  392TMC3    C3 5855   0.315   4.649  10.537  0.1831 -0.4272 -0.1310
  392TMC3    C4 5856   0.431   4.632  10.788 -0.3315 -0.8371  0.3148
  392TMC3    C5 5857   0.488   4.708  10.685 -0.3251 -0.2135 -0.4762
  392TMC3    C6 5858   0.434   4.716  10.561  0.5259  0.4401  0.0737
  392TMC3     C 5859   0.234   4.530  10.876  0.9880 -0.5014 -0.7010
  392TMC3     O 5860   0.120   4.498  10.860 -0.0088 -0.3198  0.0053
  392TMC3     H 5861   0.154   4.534  10.626 -0.7561  2.5069  0.2016
  392TMC3    H1 5862   0.458   4.644  10.892  1.5751 -2.4466 -0.0063
  392TMC3    H2 5863   0.484   0.046  10.483  0.3992 -0.2378 -0.4905
  392TMC3    C7 5864   0.625   0.028  10.707  0.4563  0.6476 -0.0655
  392TMC3    C8 5865   0.234   4.671  10.414  0.1877  0.0507  0.3165
  392TMC3    O1 5866   0.683   4.687  10.791 -0.0302  0.1505  0.2973
  392TMC3    O2 5867   0.125   4.616  10.409  0.1292  0.4333 -0.3445
  393TMC3    C1 5868   4.370   2.324  10.158 -0.0536 -0.3470  0.2609
  393TMC3    C2 5869   4.352   2.275  10.290  0.5411 -0.7457  0.1158
  393TMC3    C3 5870   4.350   2.141  10.304 -0.0849 -0.7041  0.0310
  393TMC3    C4 5871   4.365   2.243  10.048  0.7309  0.2780 -0.5518
  393TMC3    C5 5872   4.349   2.106  10.069  0.5636 -0.1502 -0.1413
  393TMC3    C6 5873   4.340   2.057  10.193  0.0392 -0.1263 -0.5623
  393TMC3     C 5874   4.409   2.466  10.145  0.0119 -0.3439 -0.4910
  393TMC3     O 5875   4.400   2.516  10.035  0.5840 -0.8852  0.1188
  393TMC3     H 5876   4.361   2.329  10.383  3.3538 -1.1679  0.0911
  393TMC3    H1 5877   4.392   2.285   9.952 -1.0389  1.3810 -0.5621
  393TMC3    H2 5878   4.339   1.949  10.207  1.1323 -0.4329 -2.9429
  393TMC3    C7 5879   4.378   2.029   9.952 -0.5891  0.2534  0.0243
  393TMC3    C8 5880   4.352   2.084  10.438 -0.1455 -0.0163  0.4826
  393TMC3    O1 5881   4.412   2.089   9.849  0.8021  0.0294  0.6628
  393TMC3    O2 5882   4.304   2.153  10.526  0.3785  0.0661 -0.2883
  394TMC3    C1 5883   1.424   2.827  10.168  0.1945 -0.7692  0.3830
  394TMC3    C2 5884   1.424   2.804  10.038 -0.1665  0.1196  0.7327
  394TMC3    C3 5885   1.516   2.879   9.968  0.0169 -1.0227 -0.4043
  394TMC3    C4 5886   1.523   2.894  10.234 -0.2564  0.2429  0.4824
  394TMC3    C5 5887   1.617   2.964  10.164 -0.2949  0.0101  0.0672
  394TMC3    C6 5888   1.609   2.954  10.028  0.6069 -1.0117 -0.1718
  394TMC3     C 5889   1.312   2.774  10.246 -0.0261 -0.3043  0.8513
  394TMC3     O 5890   1.337   2.728  10.357 -0.3523 -0.6182 -0.1433
  394TMC3     H 5891   1.351   2.739   9.992  1.7641 -2.6014  1.5109
  394TMC3    H1 5892   1.519   2.895  10.342 -4.2682  1.6844  0.3518
  394TMC3    H2 5893   1.685   3.003   9.969 -0.5614 -1.0673 -1.7196
  394TMC3    C7 5894   1.745   3.020  10.228  0.1449  0.2356  0.0035
  394TMC3    C8 5895   1.536   2.860   9.829  0.0925  0.1820  0.1690
  394TMC3    O1 5896   1.848   3.020  10.165  0.5426 -0.1142 -0.0367
  394TMC3    O2 5897   1.646   2.882   9.781 -0.1276 -0.3495  0.0595
  395TMC3    C1 5898   0.843   0.485  14.107  0.0409 -0.6739 -0.1496
  395TMC3    C2 5899   0.707   0.507  14.107  0.6012  0.5043  0.3019
  395TMC3    C3 5900   0.669   0.607  14.196  0.6376  0.3795 -0.5656
  395TMC3    C4 5901   0.932   0.572  14.167  0.7953  0.2278  1.0819
  395TMC3    C5 5902   0.892   0.657  14.264 -0.0959 -0.1277 -0.1438
  395TMC3    C6 5903   0.759   0.683  14.275  0.0684  0.6608  0.3371
  395TMC3     C 5904   0.898   0.393  14.008  0.1386  0.0039  0.3953
  395TMC3     O 5905   0.846   0.405  13.896  0.2989  0.0579 -0.0762
  395TMC3     H 5906   0.643   0.442  14.049  0.9384  0.3438  0.1120
  395TMC3    H1 5907   1.036   0.543  14.158  0.5425 -0.8233  1.5442
  395TMC3    H2 5908   0.723   0.741  14.360  0.0141  2.7895 -1.1207
  395TMC3    C7 5909   0.967   0.667  14.395  0.7628 -0.0756  0.4961
  395TMC3    C8 5910   0.531   0.608  14.233 -0.2186 -0.0719 -0.9067
  395TMC3    O1 5911   0.913   0.700  14.499  0.1180 -0.6731  0.5252
  395TMC3    O2 5912   0.483   0.713  14.269 -0.5665  0.9797 -0.5386
  396MPD2     C 5913   0.695   1.811  16.985  0.8631 -0.7103  0.0348
  396MPD2    C1 5914   0.818   1.776  17.033 -0.3614 -0.1865  0.7341
  396MPD2    C2 5915   0.922   1.870  17.028 -0.5870  0.2125  0.6661
  396MPD2    C3 5916   0.911   1.989  16.962  0.3561  0.3738 -0.3200
  396MPD2    C4 5917   0.791   2.012  16.898 -1.0040 -0.3336 -0.3550
  396MPD2    C5 5918   0.685   1.927  16.914  0.3096  0.2835  0.3224
  396MPD2     H 5919   1.018   1.847  17.072 -0.7712  1.1198  1.5381
  396MPD2    H1 5920   0.772   2.099  16.836 -1.7312 -0.8513 -0.8682
  396MPD2    H2 5921   0.610   1.744  17.001  1.6647 -1.1030  2.6838
  396MPD2    H3 5922   0.585   1.954  16.883  0.3525  1.2813  1.0478
  396MPD2     N 5923   1.032   2.062  16.933 -0.1274  0.2847  0.2055
  396MPD2    H5 5924   1.122   2.031  16.968  0.2512 -0.6673 -1.5842
  396MPD2    N1 5925   0.832   1.646  17.090 -0.4034 -0.6478 -0.4156
  396MPD2    H7 5926   0.750   1.586  17.092  0.7062 -2.2274 -2.1215
  397TMC3    C1 5927   0.939   1.439  17.113  0.0963 -0.1076  0.0932
  397TMC3    C2 5928   0.979   1.361  17.007 -0.1326  0.2734 -0.6597
  397TMC3    C3 5929   0.885   1.275  16.957 -0.7543  0.6478 -0.1203
  397TMC3    C4 5930   0.823   1.393  17.179 -0.1730  0.0558  0.3404
  397TMC3    C5 5931   0.750   1.284  17.142  0.1574 -0.7410  0.0904
  397TMC3    C6 5932   0.780   1.225  17.026  0.3226 -0.9608 -0.1715
  397TMC3     C 5933   0.952   1.585  17.093  0.4356 -0.1098 -0.2458
  397TMC3     O 5934   1.056   1.620  17.037  0.1018  0.1785 -0.0076
  397TMC3     H 5935   1.030   1.428  16.940 -0.6151  1.9278  0.6189
  397TMC3    H1 5936   0.798   1.437  17.274  2.6544  1.8079  0.2798
  397TMC3    H2 5937   0.708   1.159  16.979  2.0162 -1.7896 -1.6214
  397TMC3    C7 5938   0.679   1.201  17.241 -0.4008 -0.4771 -0.8881
  397TMC3    C8 5939   0.863   1.269  16.812  0.0140  0.0328  0.3179
  397TMC3    O1 5940   0.625   1.103  17.198  0.6146  0.1915 -0.3509
  397TMC3    O2 5941   0.756   1.247  16.755  0.6141  0.4393 -0.5805
  398MPD2     C 5942   3.372   2.022   0.016  0.3412  0.8311  0.6475
  398MPD2    C1 5943   3.456   2.038   0.124  0.6577 -0.3756 -0.5603
  398MPD2    C2 5944   3.524   2.158   0.145 -0.3772 -0.5143 -0.2765
  398MPD2    C3 5945   3.519   2.263   0.056 -0.2867  0.2137  0.1045
  398MPD2    C4 5946   3.440   2.249  17.656 -0.3042  0.2387 -0.1018
  398MPD2    C5 5947   3.372   2.137  17.637 -0.0376 -0.3493  0.0801
  398MPD2     H 5948   3.575   2.174   0.239 -0.9031 -0.9293  0.0828
  398MPD2    H1 5949   3.421   2.336  17.595  2.2277  0.6120 -0.3393
  398MPD2    H2 5950   3.316   1.931  17.701 -0.2731  1.0123  1.5064
  398MPD2    H3 5951   3.296   2.147  17.561 -3.1251  0.6534  3.2601
  398MPD2     N 5952   3.586   2.377   0.097 -0.1563 -0.5413 -0.6056
  398MPD2    H5 5953   3.633   2.369   0.187 -1.2034  1.2452  0.1121
  398MPD2    N1 5954   3.459   1.941   0.225 -0.1076  0.2403 -0.1521
  398MPD2    H7 5955   3.497   1.973   0.314  1.0207 -0.1037 -0.5140
  399TMC3    C1 5956   3.470   1.736   0.335 -0.3077  0.0874 -0.3446
  399TMC3    C2 5957   3.572   1.793   0.409  0.0780  0.0513 -0.4097
  399TMC3    C3 5958   3.605   1.731   0.529  0.4577 -0.2489  0.0276
  399TMC3    C4 5959   3.405   1.619   0.366 -1.0928  0.3280 -0.3050
  399TMC3    C5 5960   3.469   1.552   0.474  0.2210  0.3702 -0.5502
  399TMC3    C6 5961   3.565   1.607   0.556  0.0526  0.9980  0.5661
  399TMC3     C 5962   3.411   1.809   0.225 -0.0246 -0.2577 -0.4712
  399TMC3     O 5963   3.342   1.755   0.143  0.5957 -0.5726  0.2146
  399TMC3     H 5964   3.623   1.888   0.392 -1.8511  1.1639 -0.0527
  399TMC3    H1 5965   3.325   1.580   0.303 -1.5346  0.0445  0.4229
  399TMC3    H2 5966   3.621   1.547   0.626 -1.9713 -0.9301  0.5230
  399TMC3    C7 5967   3.418   1.420   0.521 -0.0339  0.2306  0.5228
  399TMC3    C8 5968   3.710   1.797   0.612  0.0352 -0.0252 -0.0011
  399TMC3    O1 5969   3.462   1.389   0.633  0.2468  0.1747 -0.9480
  399TMC3    O2 5970   3.777   1.891   0.564 -0.0020 -0.5390  0.2183
  400TMC3    C1 5971   2.286   0.813  16.752 -0.9507 -0.4623 -0.1066
  400TMC3    C2 5972   2.173   0.804  16.678  0.3019  0.7905 -0.4336
  400TMC3    C3 5973   2.090   0.910  16.661  0.0628  0.1514  0.0232
  400TMC3    C4 5974   2.317   0.921  16.822  0.3346 -0.2722 -0.1496
  400TMC3    C5 5975   2.238   1.029  16.813 -0.4351 -0.5290  0.1605
  400TMC3    C6 5976   2.127   1.026  16.728 -0.1394 -0.1998  0.5684
  400TMC3     C 5977   2.341   0.692  16.800 -0.3257 -0.4012  1.0306
  400TMC3     O 5978   2.309   0.588  16.737 -0.2821 -0.3481  0.8322
  400TMC3     H 5979   2.133   0.709  16.643 -0.5815  1.0402 -0.1095
  400TMC3    H1 5980   2.398   0.933  16.893 -0.7021  0.8839  0.8550
  400TMC3    H2 5981   2.066   1.114  16.714  2.4765  1.0348 -2.8896
  400TMC3    C7 5982   2.253   1.144  16.906 -0.0927  0.4704 -0.5700
  400TMC3    C8 5983   1.962   0.898  16.598  0.9473 -0.1131  0.3059
  400TMC3    O1 5984   2.341   1.132  16.988  0.3730  0.1351  0.2733
  400TMC3    O2 5985   1.893   0.999  16.592  0.2131  0.1049  0.1418
  401MPD2     C 5986   0.014   3.756   0.046 -0.1787 -0.5616 -0.1886
  401MPD2    C1 5987   0.101   3.723   0.148 -0.3873  0.5725 -0.6674
  401MPD2    C2 5988   0.136   3.589   0.176  0.2740  0.0188 -0.0379
  401MPD2    C3 5989   0.097   3.498   0.080 -0.2500  0.6179  0.0232
  401MPD2    C4 5990   0.016   3.532  17.679 -0.8737  0.2394  0.2737
  401MPD2    C5 5991   4.691   3.660  17.668  0.4876  0.2571  0.7139
  401MPD2     H 5992   0.210   3.567   0.252  1.5800  0.0636 -1.2859
  401MPD2    H1 5993   4.716   3.449  17.614  0.3718  1.4951 -1.8436
  401MPD2    H2 5994   4.690   3.852   0.047 -0.6052 -0.7843  0.4000
  401MPD2    H3 5995   4.617   3.678  17.590 -0.2346 -0.1406  1.3073
  401MPD2     N 5996   0.130   3.362   0.114 -0.1582  0.1157  0.2557
  401MPD2    H5 5997   0.201   3.340   0.184 -1.0272 -0.2012  1.0296
  401MPD2    N1 5998   0.149   3.815   0.240 -0.4962  0.2264 -0.3322
  401MPD2    H7 5999   0.201   3.779   0.320 -3.1623  2.4516  2.4012
  402TMC3    C1 6000   0.171   3.144   0.115  0.6872  0.3953 -0.1358
  402TMC3    C2 6001   0.202   3.166   0.247  0.4439 -0.3115 -0.6984
  402TMC3    C3 6002   0.319   3.113   0.292  0.0527  0.2988 -0.1008
  402TMC3    C4 6003   0.250   3.068   0.033 -0.5642 -0.2860  0.0469
  402TMC3    C5 6004   0.371   3.027   0.084 -0.0943  0.1594  0.9106
  402TMC3    C6 6005   0.411   3.056   0.212 -0.0188  0.3291 -0.6843
  402TMC3     C 6006   0.100   3.250   0.046 -0.6582 -0.1801 -0.5667
  402TMC3     O 6007   0.049   3.235  17.640 -0.1291  0.1074 -0.2843
  402TMC3     H 6008   0.130   3.211   0.314  0.1022 -1.3016 -0.3971
  402TMC3    H1 6009   0.217   3.066  17.636 -0.7539 -0.3511  0.1086
  402TMC3    H2 6010   0.499   3.006   0.250 -0.9202 -0.6187  0.1346
  402TMC3    C7 6011   0.463   2.986  17.688 -0.6134  0.0549 -0.3884
  402TMC3    C8 6012   0.371   3.152   0.422  0.6721  0.6060  0.0198
  402TMC3    O1 6013   0.417   2.970  17.576  1.1368 -0.4300 -0.2037
  402TMC3    O2 6014   0.489   3.158   0.448 -0.5282  0.5370 -0.6622
  403MPD2     C 6015   3.677   2.995  13.461 -0.9006 -0.9350 -0.1643
  403MPD2    C1 6016   3.736   2.872  13.461  0.3421 -1.1296  0.1226
  403MPD2    C2 6017   3.869   2.862  13.513  0.0309  0.9367  0.1752
  403MPD2    C3 6018   3.940   2.972  13.558 -0.3863  0.4257  0.1217
  403MPD2    C4 6019   3.874   3.090  13.561  0.4169  0.8412  0.8142
  403MPD2    C5 6020   3.750   3.099  13.504 -0.4826 -0.6848 -0.3683
  403MPD2     H 6021   3.919   2.766  13.510  1.6624  1.8487 -2.2754
  403MPD2    H1 6022   3.926   3.183  13.583  0.2263  1.2461 -0.4602
  403MPD2    H2 6023   3.576   3.019  13.430 -1.0056 -2.0741 -0.7106
  403MPD2    H3 6024   3.702   3.197  13.510  1.6104  0.1994  1.9976
  403MPD2     N 6025   4.081   2.957  13.588 -0.1034 -0.3416  0.3758
  403MPD2    H5 6026   4.126   2.870  13.560 -0.8105 -0.1136 -1.4217
  403MPD2    N1 6027   3.655   2.764  13.410 -0.2705 -0.4688 -0.3058
  403MPD2    H7 6028   3.567   2.788  13.365 -0.6713 -1.1603  0.0952
  404TMC3    C1 6029   3.595   2.545  13.357  0.0560  0.4961 -0.1583
  404TMC3    C2 6030   3.598   2.413  13.391 -0.8885 -0.0313  0.6127
  404TMC3    C3 6031   3.540   2.322  13.310  0.7946 -0.0078 -0.4560
  404TMC3    C4 6032   3.535   2.587  13.241  0.8970  0.5712 -0.8982
  404TMC3    C5 6033   3.491   2.488  13.150  0.8858  0.0658  0.5459
  404TMC3    C6 6034   3.493   2.352  13.186  0.1855  0.3621 -0.8387
  404TMC3     C 6035   3.699   2.629  13.412  0.0457  0.2514  0.0304
  404TMC3     O 6036   3.794   2.577  13.464  0.2122  0.0115  0.3171
  404TMC3     H 6037   3.630   2.381  13.489 -1.4109 -0.1476  0.7444
  404TMC3    H1 6038   3.548   2.689  13.206 -0.2737  0.7186 -0.8894
  404TMC3    H2 6039   3.453   2.274  13.122  0.4302  0.9293 -1.6787
  404TMC3    C7 6040   3.425   2.543  13.032 -0.0359  0.2102  0.1257
  404TMC3    C8 6041   3.569   2.181  13.346  0.2503  0.7912 -0.6029
  404TMC3    O1 6042   3.380   2.657  13.031 -0.7932  0.2484  0.1510
  404TMC3    O2 6043   3.614   2.113  13.257  0.0083 -0.7540  0.0383
  405MPD2     C 6044   4.192   3.269  14.576 -0.4129 -0.2818 -0.5736
  405MPD2    C1 6045   4.111   3.178  14.514 -0.0298  0.1970 -0.2012
  405MPD2    C2 6046   4.014   3.224  14.431 -0.4610  0.2689  0.4962
  405MPD2    C3 6047   3.976   3.357  14.423 -0.5436  0.5806  0.3986
  405MPD2    C4 6048   4.057   3.452  14.482  0.2024 -0.3609  0.6642
  405MPD2    C5 6049   4.168   3.397  14.555  0.5772  0.0447 -0.0934
  405MPD2     H 6050   3.952   3.151  14.381 -0.3599 -0.6563  1.7323
  405MPD2    H1 6051   4.036   3.558  14.480  1.1865 -0.1441  2.4305
  405MPD2    H2 6052   4.267   3.241  14.649  0.4234  0.2541 -1.2328
  405MPD2    H3 6053   4.230   3.471  14.605  1.7291 -0.7801 -0.3116
  405MPD2     N 6054   3.848   3.386  14.367 -0.3719 -0.3228  0.5420
  405MPD2    H5 6055   3.798   3.306  14.328  1.1605 -1.7710  1.5341
  405MPD2    N1 6056   4.132   3.044  14.553  0.1931 -0.0699 -0.2063
  405MPD2    H7 6057   4.200   3.029  14.626 -0.4463 -0.4646  0.3003
  406TMC3    C1 6058   3.425   3.572  14.361 -0.1014 -0.3370 -0.7394
  406TMC3    C2 6059   3.364   3.453  14.372 -0.1949 -0.8880 -0.6197
  406TMC3    C3 6060   3.444   3.344  14.381 -0.4010  0.0747  0.6456
  406TMC3    C4 6061   3.556   3.596  14.348  0.3540  0.1103 -0.0986
  406TMC3    C5 6062   3.633   3.483  14.356  0.0770  0.1914 -0.8691
  406TMC3    C6 6063   3.577   3.354  14.377 -0.4149 -0.2253  0.7760
  406TMC3     C 6064   3.347   3.695  14.380  0.1143 -0.2275  0.4644
  406TMC3     O 6065   3.392   3.802  14.342 -0.3855  0.1521 -0.3425
  406TMC3     H 6066   3.258   3.438  14.360 -0.5973  0.8674  0.7252
  406TMC3    H1 6067   3.603   3.693  14.346  1.1701 -0.2893 -0.3334
  406TMC3    H2 6068   3.647   3.275  14.403  1.6581  0.9617 -1.1092
  406TMC3    C7 6069   3.779   3.501  14.373 -0.1577  0.1394 -0.2437
  406TMC3    C8 6070   3.380   3.230  14.446  0.5373 -0.6617 -0.0458
  406TMC3    O1 6071   3.825   3.612  14.399  0.4772 -0.2959  0.0752
  406TMC3    O2 6072   3.272   3.239  14.505  0.4719  0.1691  0.1330
  407MPD2     C 6073   1.306   4.138   9.559 -0.4760  0.3302  0.4509
  407MPD2    C1 6074   1.420   4.166   9.635  0.2817 -0.0006  0.1081
  407MPD2    C2 6075   1.420   4.271   9.723  0.9056 -0.5133 -0.0870
  407MPD2    C3 6076   1.310   4.356   9.733 -0.3332 -0.1136  1.0160
  407MPD2    C4 6077   1.205   4.324   9.654 -0.3790 -0.2268  1.0550
  407MPD2    C5 6078   1.196   4.224   9.567  0.4022 -0.6189  0.6524
  407MPD2     H 6079   1.503   4.288   9.790  1.0482  0.5879 -0.5511
  407MPD2    H1 6080   1.122   4.393   9.647  0.6690  0.8064 -1.1709
  407MPD2    H2 6081   1.300   4.054   9.491 -3.8713  0.8846  0.0670
  407MPD2    H3 6082   1.111   4.216   9.500  1.4825  2.2869 -1.0690
  407MPD2     N 6083   1.308   4.474   9.808  0.4722 -0.0497  0.6432
  407MPD2    H5 6084   1.222   4.528   9.800  1.9454  2.4957  1.9632
  407MPD2    N1 6085   1.535   4.087   9.614  0.7867 -0.2242 -0.5417
  407MPD2    H7 6086   1.612   4.115   9.674  1.1653 -3.4514  0.4571
  408TMC3    C1 6087   1.693   3.942   9.519 -0.0087 -0.2947 -0.1478
  408TMC3    C2 6088   1.795   4.031   9.540 -0.2795  0.5221 -0.5157
  408TMC3    C3 6089   1.918   3.987   9.548  0.0184 -0.0710 -0.5047
  408TMC3    C4 6090   1.715   3.816   9.483  0.5598  0.6308  0.2479
  408TMC3    C5 6091   1.843   3.779   9.479  0.2666 -0.5982  1.1859
  408TMC3    C6 6092   1.949   3.857   9.528  0.6503 -0.5682  0.5398
  408TMC3     C 6093   1.556   3.982   9.529 -0.2284 -0.4344 -0.6314
  408TMC3     O 6094   1.477   3.912   9.472 -0.5175 -0.3261  0.2633
  408TMC3     H 6095   1.776   4.138   9.542 -2.5678  0.0908  0.8211
  408TMC3    H1 6096   1.634   3.757   9.442 -0.5184  2.5991 -0.4123
  408TMC3    H2 6097   2.049   3.820   9.509  1.1480  0.1480  1.7435
  408TMC3    C7 6098   1.869   3.636   9.473  0.1760 -1.1348 -0.3013
  408TMC3    C8 6099   2.021   4.068   9.599  0.1628  0.0800  0.2069
  408TMC3    O1 6100   1.978   3.597   9.427 -0.0900 -0.0035  0.1650
  408TMC3    O2 6101   2.123   4.012   9.643  0.0030  0.3239 -0.3167
  409MPD2     C 6102   1.360   0.094  16.435  0.4346 -0.1374 -0.3675
  409MPD2    C1 6103   1.341   0.140  16.565  0.2804 -0.0887  0.3201
  409MPD2    C2 6104   1.370   0.268  16.610 -0.0770 -0.1870  0.1133
  409MPD2    C3 6105   1.413   0.362  16.517 -0.2935  0.3532  0.2235
  409MPD2    C4 6106   1.432   0.320  16.385 -0.4737 -1.0224 -0.2361
  409MPD2    C5 6107   1.407   0.186  16.350  0.4536 -0.2201  0.1243
  409MPD2     H 6108   1.347   0.291  16.714 -0.9665  0.9628 -0.3406
  409MPD2    H1 6109   1.454   0.382  16.299  1.3742 -1.1141  0.1672
  409MPD2    H2 6110   1.325   4.726  16.395 -0.0130  0.3760 -1.1908
  409MPD2    H3 6111   1.422   0.156  16.246  1.6859  0.6626  0.0513
  409MPD2     N 6112   1.428   0.503  16.552  0.8242  0.5397  0.0501
  409MPD2    H5 6113   1.452   0.571  16.481  0.5742  0.7350  0.1482
  409MPD2    N1 6114   1.301   0.055  16.665 -0.1706  0.2029  0.0805
  409MPD2    H7 6115   1.301   0.094  16.759 -1.6649  1.6962 -0.5454
  410TMC3    C1 6116   1.412   0.699  16.678 -0.8327  0.3854  0.4480
  410TMC3    C2 6117   1.471   0.763  16.781 -0.0925 -0.8751  0.0541
  410TMC3    C3 6118   1.494   0.897  16.768  0.6169 -0.0593  1.0407
  410TMC3    C4 6119   1.359   0.766  16.572  0.2317  0.2716  0.2122
  410TMC3    C5 6120   1.362   0.905  16.562  0.0448 -0.1998 -0.1458
  410TMC3    C6 6121   1.430   0.971  16.664  0.1740  0.2880  0.2832
  410TMC3     C 6122   1.411   0.554  16.683 -0.2637  0.0240 -0.4778
  410TMC3     O 6123   1.397   0.507  16.793 -0.1379  0.1956 -0.2845
  410TMC3     H 6124   1.515   0.719  16.869  2.0191 -1.0780 -1.0956
  410TMC3    H1 6125   1.302   0.710  16.499  1.1975  1.0885 -1.1649
  410TMC3    H2 6126   1.439   1.079  16.671  0.4966  0.2444  0.5553
  410TMC3    C7 6127   1.308   0.957  16.441 -0.1603 -0.1037 -0.3223
  410TMC3    C8 6128   1.610   0.949  16.837 -0.4248 -0.2290 -0.2741
  410TMC3    O1 6129   1.238   0.884  16.375 -0.5655  0.0450  0.1877
  410TMC3    O2 6130   1.614   1.073  16.845 -0.7195  0.0598  0.2016
  411MPD2     C 6131   1.898   1.454  14.541 -0.6050 -0.5340 -0.8354
  411MPD2    C1 6132   1.782   1.520  14.508  0.2406  0.1195 -0.8850
  411MPD2    C2 6133   1.660   1.446  14.521  0.0650  0.0815 -0.3567
  411MPD2    C3 6134   1.660   1.314  14.556  0.6748  0.8846 -0.4871
  411MPD2    C4 6135   1.777   1.248  14.580  0.3736  0.1115  0.3844
  411MPD2    C5 6136   1.897   1.318  14.577  0.0820 -0.7534  0.1492
  411MPD2     H 6137   1.569   1.489  14.480 -0.8925 -0.7285  0.9552
  411MPD2    H1 6138   1.779   1.142  14.601  0.8465  0.0950  0.2501
  411MPD2    H2 6139   1.998   1.485  14.513 -1.6123  1.7213 -1.8523
  411MPD2    H3 6140   1.989   1.261  14.577 -1.3771 -3.0870 -1.1847
  411MPD2     N 6141   1.546   1.236  14.553 -0.6199 -0.2127  0.2470
  411MPD2    H5 6142   1.563   1.137  14.569  0.6099 -0.3755 -2.1264
  411MPD2    N1 6143   1.784   1.657  14.466  0.0264 -0.8853  0.6137
  411MPD2    H7 6144   1.867   1.715  14.466 -1.1323  0.7701  0.9336
  412TMC3    C1 6145   1.317   1.191  14.509  0.3363  0.4663 -0.4535
  412TMC3    C2 6146   1.190   1.218  14.556  0.0782 -0.2608 -0.1826
  412TMC3    C3 6147   1.095   1.119  14.544  0.1185  0.2959  0.2691
  412TMC3    C4 6148   1.346   1.093  14.427 -0.1466  0.2537  0.7340
  412TMC3    C5 6149   1.253   0.993  14.418 -0.5046 -0.4030  0.6517
  412TMC3    C6 6150   1.133   1.001  14.484 -0.4239 -0.5145 -0.1045
  412TMC3     C 6151   1.419   1.289  14.544  0.0031  0.3993  0.3902
  412TMC3     O 6152   1.381   1.402  14.560 -0.3322 -0.5432 -0.0212
  412TMC3     H 6153   1.157   1.312  14.600 -1.5009 -1.2687  0.7962
  412TMC3    H1 6154   1.436   1.095  14.366 -0.1309  0.4482  0.7618
  412TMC3    H2 6155   1.063   0.919  14.472  0.5268 -1.6260  2.0242
  412TMC3    C7 6156   1.226   0.947  14.277 -0.0339  1.3167 -0.0304
  412TMC3    C8 6157   0.961   1.166  14.510  0.3339  0.8078  0.5615
  412TMC3    O1 6158   1.106   0.925  14.257  0.4991 -0.1471 -0.3177
  412TMC3    O2 6159   0.919   1.266  14.562 -0.0319 -0.2819 -0.0750
  413MPD2     C 6160   2.803   4.489  15.364  0.0810 -0.6075  0.0072
  413MPD2    C1 6161   2.788   4.444  15.234 -0.1332 -0.3804  0.2370
  413MPD2    C2 6162   2.886   4.369  15.175  0.4409  0.3555  0.1653
  413MPD2    C3 6163   2.995   4.337  15.248 -0.8995 -0.4259  0.3078
  413MPD2    C4 6164   3.015   4.391  15.375 -0.0212  0.0482  0.2042
  413MPD2    C5 6165   2.912   4.464  15.428 -0.1344  0.5611 -0.2835
  413MPD2     H 6166   2.874   4.336  15.072 -0.5842 -0.1542  0.4505
  413MPD2    H1 6167   3.100   4.378  15.441  1.2588  1.3758 -1.1992
  413MPD2    H2 6168   2.719   4.546  15.401  0.7570  0.6784 -0.4462
  413MPD2    H3 6169   2.923   4.508  15.527 -0.0696 -1.4433  0.5935
  413MPD2     N 6170   3.097   4.253  15.196  0.0805  0.2055 -0.2321
  413MPD2    H5 6171   3.072   4.207  15.109 -0.6007  1.0341 -0.4759
  413MPD2    N1 6172   2.669   4.485  15.166 -0.2141  0.3607  0.5980
  413MPD2    H7 6173   2.608   4.549  15.216 -0.4912  1.6229 -1.3243
  414TMC3    C1 6174   3.288   4.120  15.175  0.3302 -0.7795  1.0263
  414TMC3    C2 6175   3.393   4.060  15.242 -0.5321  0.5758 -0.3041
  414TMC3    C3 6176   3.404   3.925  15.215 -0.2868  0.3556 -0.0804
  414TMC3    C4 6177   3.231   4.067  15.067 -0.0680  0.6599 -0.4014
  414TMC3    C5 6178   3.262   3.939  15.026  0.9418  0.7460  0.4226
  414TMC3    C6 6179   3.341   3.865  15.106  0.1671  0.7600 -0.0826
  414TMC3     C 6180   3.212   4.212  15.259  0.4603  0.5131 -0.0155
  414TMC3     O 6181   3.266   4.248  15.362 -0.0173  0.2259 -0.0435
  414TMC3     H 6182   3.439   4.103  15.331 -2.3590  0.6125  0.6181
  414TMC3    H1 6183   3.158   4.117  15.004  0.5928 -0.5182 -2.1230
  414TMC3    H2 6184   3.367   3.763  15.077  0.4916  0.8350 -0.0577
  414TMC3    C7 6185   3.157   3.875  14.949  0.4464  0.2718 -0.0853
  414TMC3    C8 6186   3.518   3.853  15.257 -0.3467 -0.4843 -0.4299
  414TMC3    O1 6187   3.051   3.934  14.958  0.2289  0.1777  0.5792
  414TMC3    O2 6188   3.505   3.735  15.245  0.3559  0.3556  0.3963
  415TMC3    C1 6189   3.298   2.123   9.365 -0.7375 -0.0270 -0.2776
  415TMC3    C2 6190   3.317   2.254   9.327 -0.1176  0.1337 -0.3028
  415TMC3    C3 6191   3.209   2.307   9.249 -0.7117  0.1566 -0.4356
  415TMC3    C4 6192   3.184   2.051   9.339  0.0308  0.3143 -0.0434
  415TMC3    C5 6193   3.081   2.109   9.267  0.0049  0.7732 -0.2736
  415TMC3    C6 6194   3.098   2.231   9.212  0.1339 -0.0248 -0.0116
  415TMC3     C 6195   3.409   2.057   9.438 -0.6565 -0.4524 -0.3006
  415TMC3     O 6196   3.389   1.943   9.478  0.1793 -0.3137  0.5428
  415TMC3     H 6197   3.393   2.313   9.376 -1.0129  1.3738 -0.4068
  415TMC3    H1 6198   3.172   1.957   9.391  0.1469  0.6243  0.5404
  415TMC3    H2 6199   3.012   2.285   9.174  1.1908 -1.0403 -3.8629
  415TMC3    C7 6200   2.984   2.022   9.206  0.0499 -0.6004 -1.0148
  415TMC3    C8 6201   3.218   2.431   9.176  0.1924 -0.0385  0.4779
  415TMC3    O1 6202   2.881   2.076   9.163  0.5408  0.8625  0.0961
  415TMC3    O2 6203   3.123   2.459   9.098  0.0248 -0.7174 -0.4490
  416MPD2     C 6204   1.315   0.797  11.517  0.6875 -0.2716 -0.5355
  416MPD2    C1 6205   1.189   0.778  11.455  0.0565 -0.3470 -0.3904
  416MPD2    C2 6206   1.148   0.648  11.423  0.1314  0.0407  0.6014
  416MPD2    C3 6207   1.238   0.545  11.448  0.1806 -0.3440 -0.9683
  416MPD2    C4 6208   1.360   0.568  11.506  0.4803  0.7353  0.0260
  416MPD2    C5 6209   1.402   0.694  11.526 -0.3803  0.0409 -0.2784
  416MPD2     H 6210   1.048   0.636  11.383  1.6156 -0.4608 -2.9126
  416MPD2    H1 6211   1.433   0.490  11.523 -1.6730 -1.1750  0.5088
  416MPD2    H2 6212   1.348   0.895  11.548  0.0374 -0.3550  0.4007
  416MPD2    H3 6213   1.495   0.716  11.577  0.0312 -3.0680  0.3003
  416MPD2     N 6214   1.202   0.410  11.423  0.1641  0.0622 -0.2949
  416MPD2    H5 6215   1.260   0.339  11.467 -1.3560  0.5659  2.5629
  416MPD2    N1 6216   1.101   0.885  11.451  0.1431  0.2331 -0.3883
  416MPD2    H7 6217   1.114   0.974  11.499  0.4666 -1.2364  2.2404
  417TMC3    C1 6218   0.902   0.992  11.402 -0.3751 -0.0664 -0.2778
  417TMC3    C2 6219   0.902   1.056  11.526  0.0144  0.1795 -0.7219
  417TMC3    C3 6220   0.805   1.145  11.555 -0.2569  0.2550  0.6693
  417TMC3    C4 6221   0.810   1.014  11.309 -0.4308  0.2829  0.2649
  417TMC3    C5 6222   0.712   1.104  11.344 -0.5962 -0.0042 -0.2437
  417TMC3    C6 6223   0.704   1.170  11.462 -0.0129 -0.2862 -0.0434
  417TMC3     C 6224   0.982   0.879  11.385 -1.0554 -0.1555 -0.3183
  417TMC3     O 6225   0.934   0.807  11.297  0.2929  0.2598 -0.1381
  417TMC3     H 6226   0.969   1.017  11.602 -0.2256 -0.0706 -0.6362
  417TMC3    H1 6227   0.798   0.972  11.210 -0.6331  3.0395 -0.8782
  417TMC3    H2 6228   0.629   1.243  11.487 -0.7865 -0.5464 -1.5993
  417TMC3    C7 6229   0.608   1.119  11.247  0.3785 -0.1326 -0.1586
  417TMC3    C8 6230   0.788   1.168  11.693 -0.3825  0.8142 -0.0603
  417TMC3    O1 6231   0.581   1.233  11.212  0.2284  0.1110 -0.3779
  417TMC3    O2 6232   0.675   1.195  11.719 -0.6731  0.0208 -0.0695
  418TMC3    C1 6233   3.670   2.812   0.208 -0.7091 -0.3275  0.2714
  418TMC3    C2 6234   3.640   2.717   0.109  0.9719 -0.2378 -0.4462
  418TMC3    C3 6235   3.604   2.598   0.149  0.2691  0.2812  0.9177
  418TMC3    C4 6236   3.641   2.788   0.336  0.4175  0.0891  0.0710
  418TMC3    C5 6237   3.597   2.668   0.376  0.2369 -0.1775 -0.4812
  418TMC3    C6 6238   3.584   2.568   0.281  0.1612  0.3372 -0.2290
  418TMC3     C 6239   3.777   2.904   0.185  0.3361  0.4772  0.4478
  418TMC3     O 6240   3.788   2.948   0.070  0.0923 -0.0597  0.4662
  418TMC3     H 6241   3.660   2.742   0.006  1.4339 -0.6604 -0.4615
  418TMC3    H1 6242   3.664   2.867   0.406 -2.1246  1.8086 -1.0355
  418TMC3    H2 6243   3.538   2.474   0.311 -0.0441  0.3191 -0.6074
  418TMC3    C7 6244   3.577   2.634   0.516 -0.5785 -0.2925  1.0094
  418TMC3    C8 6245   3.571   2.501   0.041 -1.1433 -0.6315 -0.1981
  418TMC3    O1 6246   3.587   2.514   0.538 -0.1130  0.4577 -0.0361
  418TMC3    O2 6247   3.563   2.532  17.630  0.1122  0.9026  0.2227
  419MPD2     C 6248   2.932   0.994  12.582 -0.4235  0.7377  0.4895
  419MPD2    C1 6249   2.796   1.017  12.545 -0.6499  0.3610  0.0768
  419MPD2    C2 6250   2.705   1.023  12.646 -0.3459 -0.7475  0.0252
  419MPD2    C3 6251   2.751   1.009  12.775  1.0357  0.2635  0.3918
  419MPD2    C4 6252   2.881   0.975  12.804  0.1182  0.1989 -0.0913
  419MPD2    C5 6253   2.976   0.963  12.703  0.2951 -0.6665  0.5667
  419MPD2     H 6254   2.600   1.035  12.620 -0.2846  0.2298  0.2391
  419MPD2    H1 6255   2.916   0.968  12.906 -0.6379 -1.1211  0.0820
  419MPD2    H2 6256   3.012   1.000  12.509 -1.0710  0.1026 -0.2656
  419MPD2    H3 6257   3.083   0.954  12.715  0.7224  2.4749 -1.0395
  419MPD2     N 6258   2.653   1.023  12.879  0.0149 -0.3857 -0.0410
  419MPD2    H5 6259   2.565   1.050  12.836 -1.0702 -3.5264  0.1816
  419MPD2    N1 6260   2.739   1.052  12.421 -0.5281  0.3107  0.3539
  419MPD2    H7 6261   2.644   1.087  12.424 -0.6484  0.1377 -1.2407
  420TMC3    C1 6262   2.561   1.041  13.097 -0.2241 -0.3762  0.4345
  420TMC3    C2 6263   2.445   1.092  13.041  0.6352 -0.2204 -0.2527
  420TMC3    C3 6264   2.334   1.126  13.117 -0.7403 -0.2055 -1.0675
  420TMC3    C4 6265   2.557   1.009  13.229  0.2165  0.7293  0.1637
  420TMC3    C5 6266   2.457   1.062  13.311  0.2054  0.2291  0.4915
  420TMC3    C6 6267   2.341   1.112  13.254  0.5988  0.3229  1.0137
  420TMC3     C 6268   2.664   0.988  13.015  0.3009  0.0689  0.5826
  420TMC3     O 6269   2.756   0.922  13.065 -0.3930  0.0518 -0.0019
  420TMC3     H 6270   2.445   1.105  12.933  0.1898 -0.0256 -0.2324
  420TMC3    H1 6271   2.647   0.960  13.262  0.7469  0.4505 -1.6939
  420TMC3    H2 6272   2.248   1.108  13.308  0.9973 -0.7140  1.6195
  420TMC3    C7 6273   2.463   1.042  13.451 -0.5344  0.3202 -0.1913
  420TMC3    C8 6274   2.242   1.218  13.049 -0.2358 -0.2786 -0.2497
  420TMC3    O1 6275   2.560   0.978  13.495  0.4236 -0.5654  0.3863
  420TMC3    O2 6276   2.235   1.210  12.926  0.4608  0.2095  0.1231
  421TMC3    C1 6277   4.294   3.007  13.660  0.4294 -0.1686  0.0644
  421TMC3    C2 6278   4.391   3.100  13.638 -0.3568  0.3200  0.2988
  421TMC3    C3 6279   4.516   3.045  13.612 -0.1529 -0.6725  0.2274
  421TMC3    C4 6280   4.321   2.869  13.667  0.0260 -0.0916 -0.6172
  421TMC3    C5 6281   4.449   2.827  13.645 -0.1271  0.1430  0.4588
  421TMC3    C6 6282   4.543   2.913  13.599  0.0195 -0.0035  0.3738
  421TMC3     C 6283   4.163   3.054  13.626 -0.4979 -0.1560 -0.5518
  421TMC3     O 6284   4.140   3.166  13.661 -0.0603  0.5186 -0.0066
  421TMC3     H 6285   4.379   3.207  13.632  0.4122  0.3605 -0.4140
  421TMC3    H1 6286   4.243   2.796  13.684  0.1014 -0.1935 -0.7162
  421TMC3    H2 6287   4.640   2.885  13.560 -0.4005 -3.7413  2.1029
  421TMC3    C7 6288   4.504   2.707  13.700  0.2007 -0.2019 -0.4314
  421TMC3    C8 6289   4.634   3.127  13.648  0.1036 -0.1525  1.0170
  421TMC3    O1 6290   4.625   2.712  13.697 -0.0943 -0.3890  0.2649
  421TMC3    O2 6291   0.011   3.069  13.677 -0.4920  0.3274  0.3899
  422TMC3    C1 6292   1.707   3.607  12.555 -0.2133  0.0023 -0.1531
  422TMC3    C2 6293   1.644   3.714  12.614 -0.6192  0.2705  0.9321
  422TMC3    C3 6294   1.544   3.688  12.695 -0.3061  0.1637 -0.0276
  422TMC3    C4 6295   1.666   3.477  12.585  0.3813  0.1685 -0.0299
  422TMC3    C5 6296   1.567   3.457  12.674  0.1041 -0.3061  0.3828
  422TMC3    C6 6297   1.508   3.561  12.734 -0.0821  0.1205  0.6470
  422TMC3     C 6298   1.772   3.632  12.428 -0.6098 -0.0454 -0.0788
  422TMC3     O 6299   1.759   3.740  12.368  0.4124  0.2527 -0.5918
  422TMC3     H 6300   1.652   3.815  12.574  1.1534  0.7479  2.5223
  422TMC3    H1 6301   1.720   3.390  12.552  1.5254  0.0822  2.0644
  422TMC3    H2 6302   1.424   3.546  12.801 -1.6899  1.3684 -1.0848
  422TMC3    C7 6303   1.492   3.330  12.657  0.2436 -0.3538 -0.2023
  422TMC3    C8 6304   1.434   3.782  12.681 -0.1576  0.4167 -0.1821
  422TMC3    O1 6305   1.545   3.232  12.607  0.0189 -0.0606 -0.0613
  422TMC3    O2 6306   1.325   3.726  12.700  1.1333 -0.3410  0.5044
  423MPD2     C 6307   2.895   0.668   0.297 -0.7198 -0.4878 -0.2287
  423MPD2    C1 6308   2.960   0.571   0.380  0.2345  0.3314 -0.0548
  423MPD2    C2 6309   3.010   0.451   0.321 -0.0877 -0.4395 -0.7404
  423MPD2    C3 6310   2.987   0.430   0.185 -0.3535  0.3532  0.2946
  423MPD2    C4 6311   2.922   0.525   0.110 -0.3010 -0.4358  0.9597
  423MPD2    C5 6312   2.879   0.648   0.165 -0.4386 -0.1366 -0.5302
  423MPD2     H 6313   3.051   0.372   0.382 -1.1463 -0.2445  0.2251
  423MPD2    H1 6314   2.913   0.525   0.002 -1.1847 -2.2402  1.0420
  423MPD2    H2 6315   2.872   0.765   0.340  1.7394 -0.0560  0.0961
  423MPD2    H3 6316   2.833   0.724   0.103  0.6493  1.9335  1.1631
  423MPD2     N 6317   3.028   0.316   0.111 -0.4831  0.9024  0.3563
  423MPD2    H5 6318   3.042   0.341   0.013  0.8315  0.6508  0.4771
  423MPD2    N1 6319   2.980   0.585   0.519  0.4443 -0.4581  0.1345
  423MPD2    H7 6320   3.023   0.505   0.565  1.3735  0.6333  1.1663
  424TMC3    C1 6321   2.929   0.670   0.734  0.4764  0.0728  0.3732
  424TMC3    C2 6322   2.911   0.546   0.784  0.4857 -0.3051 -0.2470
  424TMC3    C3 6323   2.894   0.533   0.918  0.5438 -0.1599  0.0592
  424TMC3    C4 6324   2.938   0.778   0.817 -0.0777 -0.7079  0.0147
  424TMC3    C5 6325   2.906   0.762   0.953  0.1289  0.1044 -0.3895
  424TMC3    C6 6326   2.900   0.638   1.004 -0.9059 -0.8069  0.1087
  424TMC3     C 6327   2.949   0.698   0.593 -0.0410 -0.1538  0.0279
  424TMC3     O 6328   2.922   0.811   0.557  0.6254  0.0713  0.2985
  424TMC3     H 6329   2.892   0.464   0.716 -0.7998 -0.4489  0.2968
  424TMC3    H1 6330   2.949   0.879   0.777 -1.5407 -0.6780 -0.3341
  424TMC3    H2 6331   2.884   0.626   1.111 -0.9487 -0.9765  0.0826
  424TMC3    C7 6332   2.827   0.871   0.998 -0.1151 -0.0789  0.0546
  424TMC3    C8 6333   2.890   0.403   0.985  0.0965  0.1373  0.8053
  424TMC3    O1 6334   2.818   0.974   0.929 -0.0108 -0.1245  0.3642
  424TMC3    O2 6335   2.861   0.402   1.103  0.0268 -0.3610 -0.4403
  425MPD2     C 6336   2.023   3.944  17.112  0.5856 -0.1586 -0.1537
  425MPD2    C1 6337   1.976   3.815  17.096  0.2871  0.8855  0.0429
  425MPD2    C2 6338   1.855   3.776  17.147  0.0783  0.1910 -0.2089
  425MPD2    C3 6339   1.781   3.866  17.220 -1.4903  0.3526 -0.2532
  425MPD2    C4 6340   1.819   3.996  17.221  0.2404  0.0091 -0.0370
  425MPD2    C5 6341   1.934   4.041  17.162  0.0646  0.0854 -1.1204
  425MPD2     H 6342   1.831   3.671  17.152 -1.1452  0.3376 -2.8923
  425MPD2    H1 6343   1.764   4.077  17.268 -0.3647  0.1723 -1.0300
  425MPD2    H2 6344   2.117   3.970  17.065  0.2342  1.0649 -0.1829
  425MPD2    H3 6345   1.971   4.143  17.165 -2.4306  0.9621 -0.0343
  425MPD2     N 6346   1.654   3.829  17.272 -0.0897  0.0516  0.0809
  425MPD2    H5 6347   1.637   3.730  17.255  1.8010 -0.4104  0.9000
  425MPD2    N1 6348   2.058   3.716  17.039 -0.5173  0.4060 -0.3909
  425MPD2    H7 6349   2.154   3.743  17.023 -0.4246 -0.4212 -1.2648
  426TMC3    C1 6350   2.129   3.512  16.960 -0.5677 -0.1346 -0.2556
  426TMC3    C2 6351   2.116   3.420  16.858 -0.0575 -0.0006  0.1366
  426TMC3    C3 6352   2.230   3.350  16.816  0.1614  0.5574  0.2391
  426TMC3    C4 6353   2.255   3.531  17.022 -0.1261 -0.4762 -0.0191
  426TMC3    C5 6354   2.355   3.458  16.974 -0.2372 -0.0922  0.2811
  426TMC3    C6 6355   2.355   3.373  16.871 -0.4742 -0.1684  0.2145
  426TMC3     C 6356   2.019   3.600  16.981  0.2871  0.1539  0.2337
  426TMC3     O 6357   1.909   3.569  16.947 -0.0514 -0.6446 -0.0108
  426TMC3     H 6358   2.029   3.433  16.796  0.6973 -0.6703 -1.0553
  426TMC3    H1 6359   2.272   3.617  17.085 -0.2307 -1.3265  1.1825
  426TMC3    H2 6360   2.441   3.314  16.844 -0.8325 -1.4119  1.7484
  426TMC3    C7 6361   2.429   3.401  17.085  0.3150 -0.3331 -0.2330
  426TMC3    C8 6362   2.220   3.223  16.743  0.2739  0.9997 -0.4330
  426TMC3    O1 6363   2.521   3.325  17.058  0.0432 -0.2199  0.3195
  426TMC3    O2 6364   2.312   3.182  16.677 -0.5865  0.0534 -0.3768
  427MPD2     C 6365   0.749   1.890  14.669 -0.5062 -0.5927  0.2887
  427MPD2    C1 6366   0.730   1.785  14.758 -0.3164 -0.6984 -0.3344
  427MPD2    C2 6367   0.595   1.769  14.796  0.2958  0.1572  0.0648
  427MPD2    C3 6368   0.494   1.856  14.760 -1.1592 -0.2232 -0.2412
  427MPD2    C4 6369   0.522   1.962  14.678 -0.1315 -0.5186  0.1737
  427MPD2    C5 6370   0.649   1.973  14.633  0.2616 -0.5791  0.0516
  427MPD2     H 6371   0.577   1.679  14.855  0.1461 -1.2264 -2.0995
  427MPD2    H1 6372   0.446   2.028  14.640 -0.1856 -0.1601  0.8908
  427MPD2    H2 6373   0.848   1.901  14.626 -0.5315 -0.0986  0.3597
  427MPD2    H3 6374   0.670   2.059  14.570  1.4781 -1.3728 -0.6369
  427MPD2     N 6375   0.364   1.843  14.806 -0.7387 -0.4833 -0.1760
  427MPD2    H5 6376   0.289   1.892  14.757 -0.3496  0.4192  0.1219
  427MPD2    N1 6377   0.826   1.685  14.781  0.5112 -0.3794  0.4640
  427MPD2    H7 6378   0.791   1.603  14.829  2.3808 -1.5812 -0.2327
  428TMC3    C1 6379   1.043   1.574  14.778  0.5658 -0.3238  0.0980
  428TMC3    C2 6380   0.983   1.464  14.816  0.5886 -0.6181  0.0439
  428TMC3    C3 6381   1.050   1.359  14.878 -0.4383 -0.6504  0.1344
  428TMC3    C4 6382   1.173   1.594  14.815 -0.7221  0.6295  0.0941
  428TMC3    C5 6383   1.246   1.488  14.867  0.4557 -0.8223 -0.0326
  428TMC3    C6 6384   1.183   1.368  14.896  0.4213 -0.2674 -0.4922
  428TMC3     C 6385   0.961   1.684  14.736  0.3263  0.0907 -0.6458
  428TMC3     O 6386   1.025   1.770  14.682  0.2347  0.7132  0.4606
  428TMC3     H 6387   0.883   1.442  14.780  0.0660 -2.4682  2.6382
  428TMC3    H1 6388   1.213   1.695  14.812 -0.4883  0.4219 -3.6101
  428TMC3    H2 6389   1.233   1.284  14.943 -1.3636 -0.2793  1.3696
  428TMC3    C7 6390   1.371   1.504  14.933 -0.0995  0.1431  0.6203
  428TMC3    C8 6391   1.004   1.221  14.873 -0.4124  0.1770  0.2102
  428TMC3    O1 6392   1.387   1.429  15.027 -0.5637 -0.2482 -0.2318
  428TMC3    O2 6393   1.086   1.130  14.872  0.0282  0.1937  0.1500
  429MPD2     C 6394   1.081   1.172  17.510  0.2954  0.3434  0.0873
  429MPD2    C1 6395   1.111   1.145  17.377  0.8863 -0.7118  0.0290
  429MPD2    C2 6396   1.192   1.229  17.303 -0.2573 -0.1035  0.8492
  429MPD2    C3 6397   1.237   1.349  17.366 -0.5317  0.0775  0.4277
  429MPD2    C4 6398   1.211   1.367  17.499 -0.3880  0.1373 -0.1025
  429MPD2    C5 6399   1.134   1.280  17.562 -0.4756 -0.4700 -0.1422
  429MPD2     H 6400   1.221   1.217  17.199  1.9467 -1.5159  1.6444
  429MPD2    H1 6401   1.234   1.459  17.552  0.0141 -0.1840  0.2833
  429MPD2    H2 6402   1.031   1.096  17.569  0.3863 -0.0085 -0.2825
  429MPD2    H3 6403   1.110   1.307  17.665  5.0321  0.7848  0.8000
  429MPD2     N 6404   1.309   1.447  17.297  0.1314 -0.8725  0.7007
  429MPD2    H5 6405   1.308   1.431  17.197  2.4303  0.4207  0.4773
  429MPD2    N1 6406   1.066   1.030  17.310  0.2837  0.5507  0.8627
  429MPD2    H7 6407   1.093   1.029  17.213  0.5100  5.4501  0.8620
  430TMC3    C1 6408   1.428   1.640  17.248  0.0857  0.1320  0.1337
  430TMC3    C2 6409   1.380   1.647  17.118  0.6598 -0.6640  0.8330
  430TMC3    C3 6410   1.477   1.668  17.022 -0.6547 -0.3319  0.2807
  430TMC3    C4 6411   1.560   1.651  17.287 -0.3006 -0.3156  0.5200
  430TMC3    C5 6412   1.649   1.651  17.184  0.5352  0.3217  0.4420
  430TMC3    C6 6413   1.613   1.659  17.050 -0.3432  0.4761  0.0020
  430TMC3     C 6414   1.359   1.570  17.348 -0.4256 -0.4446  0.2815
  430TMC3     O 6415   1.374   1.605  17.465  0.0901 -0.4817  0.3731
  430TMC3     H 6416   1.277   1.624  17.092  0.1732  0.0981  2.1093
  430TMC3    H1 6417   1.598   1.620  17.384  0.8170  1.6322  0.6929
  430TMC3    H2 6418   1.689   1.697  16.983  1.4431 -0.8529  1.2776
  430TMC3    C7 6419   1.778   1.598  17.225 -1.2063 -0.1092  0.3393
  430TMC3    C8 6420   1.434   1.697  16.886 -0.1300 -0.4524  0.4835
  430TMC3    O1 6421   1.827   1.628  17.334  0.2496  0.5952  0.2940
  430TMC3    O2 6422   1.519   1.666  16.803  0.4272  0.1581 -0.3041
  431MPD2     C 6423   2.500   1.775  12.520 -0.2556 -0.1992  0.3768
  431MPD2    C1 6424   2.588   1.790  12.416 -0.1424  0.8146 -0.2687
  431MPD2    C2 6425   2.601   1.697  12.323  0.4354  0.1040 -0.4486
  431MPD2    C3 6426   2.538   1.571  12.342 -0.3315  0.5302  0.5874
  431MPD2    C4 6427   2.453   1.557  12.451 -0.2533 -0.5898 -0.5702
  431MPD2    C5 6428   2.442   1.656  12.543 -0.2497 -0.0647 -0.6317
  431MPD2     H 6429   2.668   1.714  12.239 -0.4326 -1.2867 -1.4136
  431MPD2    H1 6430   2.410   1.459  12.473 -0.3106 -0.4017  0.1728
  431MPD2    H2 6431   2.483   1.862  12.583 -0.9367 -0.6531  0.8131
  431MPD2    H3 6432   2.382   1.633  12.631 -0.4106 -0.8454 -0.9481
  431MPD2     N 6433   2.566   1.453  12.263  0.2066 -0.2624  0.3977
  431MPD2    H5 6434   2.529   1.365  12.296  1.0405 -0.5859  0.4739
  431MPD2    N1 6435   2.666   1.912  12.404 -0.0484 -0.4590  0.5177
  431MPD2    H7 6436   2.710   1.928  12.314 -0.2787 -0.7416  0.3551
  432TMC3    C1 6437   2.694   1.311  12.122  0.1309 -0.5223 -0.2241
  432TMC3    C2 6438   2.773   1.296  12.010  0.1507  0.4075 -0.7447
  432TMC3    C3 6439   2.820   1.170  11.991  0.1604 -0.2440  0.3092
  432TMC3    C4 6440   2.668   1.215  12.217 -0.2281 -0.5204 -0.1242
  432TMC3    C5 6441   2.730   1.091  12.193  0.0388  0.3246  0.1249
  432TMC3    C6 6442   2.799   1.070  12.078  0.6705 -0.2106 -0.3860
  432TMC3     C 6443   2.655   1.452  12.159 -0.1172  0.0771 -0.1198
  432TMC3     O 6444   2.691   1.551  12.085 -0.1414  0.7702  0.0600
  432TMC3     H 6445   2.779   1.378  11.939  0.6137 -0.8675 -2.1775
  432TMC3    H1 6446   2.673   1.253  12.318  1.7698  1.5555 -0.9709
  432TMC3    H2 6447   2.845   0.973  12.060  1.0804  0.0335 -0.6323
  432TMC3    C7 6448   2.801   1.033  12.304  0.4825 -0.5040  0.0718
  432TMC3    C8 6449   2.960   1.167  11.955 -0.7825  0.0912  0.8628
  432TMC3    O1 6450   2.912   0.986  12.282  0.1482  0.2728  0.6674
  432TMC3    O2 6451   3.000   1.235  11.862 -0.6677 -0.3954 -0.4982
  433MPD2     C 6452   1.500   4.642  10.852 -0.5832 -0.0119 -0.0507
  433MPD2    C1 6453   1.461   4.515  10.897 -0.3509  0.1406 -1.1367
  433MPD2    C2 6454   1.498   4.469  11.027 -0.3129  0.2612 -0.4218
  433MPD2    C3 6455   1.576   4.554  11.104 -0.0515  0.6890  0.2598
  433MPD2    C4 6456   1.622   4.673  11.050 -0.2990 -0.2991 -0.3802
  433MPD2    C5 6457   1.580   4.721  10.929 -0.4664 -0.1505 -0.4959
  433MPD2     H 6458   1.472   4.377  11.077 -0.8423 -0.0942 -1.3543
  433MPD2    H1 6459   1.692   0.008  11.106 -2.7570 -0.0561  2.4619
  433MPD2    H2 6460   1.482   4.666  10.748  1.1485  4.1140  0.6103
  433MPD2    H3 6461   1.626   0.085  10.892  1.3049 -1.0100 -0.4134
  433MPD2     N 6462   1.614   4.506  11.229 -0.0542  0.4241 -0.6028
  433MPD2    H5 6463   1.587   4.410  11.249 -1.4326  1.1018  0.7793
  433MPD2    N1 6464   1.388   4.428  10.808  0.3422 -0.3249  0.0795
  433MPD2    H7 6465   1.344   4.462  10.722 -0.7679  0.7274  1.0650
  434TMC3    C1 6466   1.316   4.235  10.709 -0.3319 -0.0857 -0.1506
  434TMC3    C2 6467   1.356   4.106  10.695  0.0413  0.5339  0.8216
  434TMC3    C3 6468   1.388   4.067  10.570 -0.4068 -0.3727  0.4574
  434TMC3    C4 6469   1.278   4.316  10.599  0.2647  0.3229 -0.0825
  434TMC3    C5 6470   1.316   4.276  10.479 -0.1554  0.2095  0.4172
  434TMC3    C6 6471   1.379   4.158  10.464 -0.5428  0.6854  0.2745
  434TMC3     C 6472   1.359   4.300  10.831  0.6557  0.4661 -0.3769
  434TMC3     O 6473   1.383   4.220  10.916  0.1742  0.3613 -0.6444
  434TMC3     H 6474   1.364   4.034  10.776 -0.5392 -1.1066 -0.6037
  434TMC3    H1 6475   1.241   4.417  10.609  0.7856  0.2774  2.2427
  434TMC3    H2 6476   1.412   4.125  10.366 -0.7223  1.0990  0.0774
  434TMC3    C7 6477   1.303   4.371  10.377  0.3014  0.0052  0.6765
  434TMC3    C8 6478   1.494   3.970  10.585 -1.1604  0.2682  0.9179
  434TMC3    O1 6479   1.338   4.486  10.397 -0.7831  0.7629 -0.2605
  434TMC3    O2 6480   1.463   3.863  10.639 -0.5307  0.6986  0.0806
  435MPD2     C 6481   3.439   4.573  15.419  0.0166 -0.0114  0.0767
  435MPD2    C1 6482   3.455   4.682  15.504  0.0711  0.2766  0.8392
  435MPD2    C2 6483   3.584   0.006  15.518  0.4327 -0.2342 -0.7105
  435MPD2    C3 6484   3.692   4.666  15.463 -0.2383  0.0125 -0.1865
  435MPD2    C4 6485   3.673   4.554  15.382 -0.3183  0.8609 -0.0865
  435MPD2    C5 6486   3.544   4.515  15.346 -0.1035 -0.3594 -0.4148
  435MPD2     H 6487   3.596   0.088  15.588  0.3443 -1.8049  1.1511
  435MPD2    H1 6488   3.759   4.511  15.331  0.4541  0.8222  1.2372
  435MPD2    H2 6489   3.341   4.535  15.393  0.4321 -0.8112 -0.3242
  435MPD2    H3 6490   3.523   4.438  15.272 -0.8032 -0.5223 -0.0490
  435MPD2     N 6491   3.819   4.692  15.513 -0.5963  0.4068 -0.1214
  435MPD2    H5 6492   3.817   0.033  15.589  1.3499  1.9443 -1.4282
  435MPD2    N1 6493   3.339   0.009  15.558 -0.2863  0.3744 -0.6954
  435MPD2    H7 6494   3.340   0.104  15.595  0.7450 -0.7126  2.0857
  436TMC3    C1 6495   2.974   0.120  15.782 -0.0114  0.4697 -0.6917
  436TMC3    C2 6496   3.054   0.017  15.734  0.2501 -0.5993  0.1750
  436TMC3    C3 6497   3.122   0.039  15.618 -0.2312  0.0996 -0.1668
  436TMC3    C4 6498   2.951   0.238  15.723  0.6058 -0.3017 -0.1730
  436TMC3    C5 6499   3.028   0.259  15.607 -0.0927  0.2285  0.5746
  436TMC3    C6 6500   3.118   0.160  15.555 -0.5618  0.4830 -0.5741
  436TMC3     C 6501   2.918   0.092  15.912  0.3137  1.3065 -0.2120
  436TMC3     O 6502   2.956   4.714  15.962  0.3963  0.5806  1.2822
  436TMC3     H 6503   3.060   4.642  15.774  2.1435 -1.1520 -1.5227
  436TMC3    H1 6504   2.914   0.321  15.781 -2.1205 -0.2300 -2.0163
  436TMC3    H2 6505   3.162   0.182  15.459  2.6510 -1.3385  0.4766
  436TMC3    C7 6506   3.038   0.381  15.532  0.0576  0.1331  0.4261
  436TMC3    C8 6507   3.218   4.664  15.579 -0.1746 -0.8115 -0.2323
  436TMC3    O1 6508   3.129   0.400  15.454 -0.4766  0.3276  0.3902
  436TMC3    O2 6509   3.192   4.549  15.599  0.0874  0.1180 -0.6049
  437TMC3    C1 6510   2.192   1.782  12.973  1.1963 -0.2720 -0.3777
  437TMC3    C2 6511   2.084   1.804  13.055  0.5231 -0.0276 -0.0302
  437TMC3    C3 6512   1.987   1.894  13.008 -0.3700  0.2786 -0.6312
  437TMC3    C4 6513   2.212   1.856  12.862 -0.2148  0.4749  0.2578
  437TMC3    C5 6514   2.111   1.946  12.827  0.1443  0.4263 -0.5063
  437TMC3    C6 6515   1.993   1.965  12.893 -0.1080  0.3619  0.0578
  437TMC3     C 6516   2.294   1.689  13.011 -0.2757  0.0061 -0.1340
  437TMC3     O 6517   2.383   1.674  12.928 -0.5214  0.3331  0.2172
  437TMC3     H 6518   2.065   1.751  13.147 -1.0514  0.5300 -0.0323
  437TMC3    H1 6519   2.298   1.846  12.798 -2.0088 -2.8762 -1.6346
  437TMC3    H2 6520   1.922   2.043  12.864 -0.4267  0.0061 -0.1209
  437TMC3    C7 6521   2.136   2.046  12.720 -0.1284 -0.1672 -0.9695
  437TMC3    C8 6522   1.890   1.932  13.111 -0.3080 -0.3031  1.0393
  437TMC3    O1 6523   2.037   2.088  12.667 -0.2286 -0.0797  0.2259
  437TMC3    O2 6524   1.876   1.861  13.209 -0.3914  0.0712  0.7099
  438MPD2     C 6525   4.284   2.592  16.603  0.2025 -0.2815  0.1619
  438MPD2    C1 6526   4.360   2.492  16.661 -0.5417  0.4600 -0.0387
  438MPD2    C2 6527   4.347   2.459  16.797  0.6672  0.2620 -0.0869
  438MPD2    C3 6528   4.256   2.530  16.875 -0.6550  0.4906  0.0804
  438MPD2    C4 6529   4.182   2.632  16.823 -0.0922  0.2504 -1.1284
  438MPD2    C5 6530   4.195   2.659  16.680 -0.5274 -0.4187  0.4044
  438MPD2     H 6531   4.428   2.402  16.844 -0.2506 -0.7295  0.2946
  438MPD2    H1 6532   4.101   2.685  16.872  0.0455 -0.5278 -0.0564
  438MPD2    H2 6533   4.289   2.617  16.497 -0.8098 -0.0506  0.1693
  438MPD2    H3 6534   4.134   2.740  16.642 -0.5852 -2.3898 -3.6593
  438MPD2     N 6535   4.241   2.503  17.010 -0.2858  0.4410  0.1050
  438MPD2    H5 6536   4.199   2.576  17.065 -0.6448  0.0707  0.3281
  438MPD2    N1 6537   4.475   2.433  16.599  0.0140  0.2369  0.2262
  438MPD2    H7 6538   4.524   2.361  16.651  1.3212 -0.0169 -1.3677
  439TMC3    C1 6539   4.651   2.391  16.446 -0.1451 -0.1433 -0.0306
  439TMC3    C2 6540   4.705   2.416  16.325 -0.3855 -0.4426  1.3935
  439TMC3    C3 6541   0.087   2.339  16.285 -0.4044 -0.4329  0.7945
  439TMC3    C4 6542   4.716   2.317  16.541 -1.4000  0.4175  0.4613
  439TMC3    C5 6543   0.105   2.252  16.509 -0.5673  0.2375  0.6250
  439TMC3    C6 6544   0.158   2.261  16.382  0.5872 -0.2784  0.1743
  439TMC3     C 6545   4.530   2.464  16.477 -0.3335 -0.2030 -0.4972
  439TMC3     O 6546   4.487   2.534  16.387 -1.1933 -0.5675 -0.5412
  439TMC3     H 6547   4.645   2.477  16.258  2.8987 -1.0490 -2.0713
  439TMC3    H1 6548   4.681   2.311  16.643 -0.8343 -0.2947  0.6098
  439TMC3    H2 6549   0.250   2.212  16.352 -1.2355 -3.0079 -0.9453
  439TMC3    C7 6550   0.203   2.259  16.614 -0.0861 -0.2915 -0.1884
  439TMC3    C8 6551   0.171   2.388  16.177  0.9762  0.1867 -0.0403
  439TMC3    O1 6552   0.168   2.240  16.732 -0.2620 -0.2440 -0.4733
  439TMC3    O2 6553   0.282   2.345  16.170 -0.2710 -0.0826 -0.3614
  440MPD2     C 6554   3.337   3.274  15.037  0.5263  0.3810  1.1226
  440MPD2    C1 6555   3.396   3.394  15.079  0.1200  0.1384  0.3875
  440MPD2    C2 6556   3.535   3.403  15.077 -0.5251 -0.3238 -0.1209
  440MPD2    C3 6557   3.613   3.304  15.022  0.3190  0.7035  0.4413
  440MPD2    C4 6558   3.554   3.185  14.985  0.1856  0.3901 -0.5682
  440MPD2    C5 6559   3.416   3.175  14.984 -0.1572 -0.3834  0.0202
  440MPD2     H 6560   3.583   3.493  15.113 -0.9800 -0.3652  0.5893
  440MPD2    H1 6561   3.614   3.104  14.944 -1.8198 -1.0795 -0.6068
  440MPD2    H2 6562   3.231   3.254  15.029  0.5754  0.5228  0.1343
  440MPD2    H3 6563   3.368   3.088  14.941  0.5035 -0.3965 -0.6977
  440MPD2     N 6564   3.754   3.322  15.001  0.2299  0.7392 -0.7233
  440MPD2    H5 6565   3.810   3.239  14.986 -1.4106 -0.8837  2.1368
  440MPD2    N1 6566   3.323   3.496  15.134  0.1228 -0.3669 -0.0830
  440MPD2    H7 6567   3.379   3.563  15.185 -1.7305 -0.8733  2.5719
  441TMC3    C1 6568   3.972   3.414  15.037 -0.2608  0.5868  0.0481
  441TMC3    C2 6569   4.038   3.532  15.032  0.3688  0.0967 -0.5687
  441TMC3    C3 6570   4.152   3.542  15.104  0.1900  0.4416 -0.3292
  441TMC3    C4 6571   4.002   3.311  15.116  0.3846  0.3906  0.0084
  441TMC3    C5 6572   4.125   3.320  15.176  0.2467  0.1936 -0.2036
  441TMC3    C6 6573   4.196   3.433  15.170  0.1941 -0.5113  0.1707
  441TMC3     C 6574   3.829   3.437  15.025  1.0933  0.5307  0.3891
  441TMC3     O 6575   3.797   3.553  15.041 -0.0415  0.5807  0.0837
  441TMC3     H 6576   4.004   3.618  14.975  1.2486  1.1190  0.4217
  441TMC3    H1 6577   3.936   3.225  15.123 -0.5890  1.1871  0.5108
  441TMC3    H2 6578   4.275   3.448  15.243 -0.6634  1.3733  0.7162
  441TMC3    C7 6579   4.128   3.249  15.304  0.3123  0.1692 -0.5082
  441TMC3    C8 6580   4.143   3.662  15.185 -0.2768  0.2577 -0.1061
  441TMC3    O1 6581   4.015   3.214  15.334 -0.6291  0.5528  0.8054
  441TMC3    O2 6582   4.230   3.682  15.268  0.0044 -0.2348 -0.7315
  442MPD2     C 6583   2.193   3.724  16.575  0.3357  0.3152 -0.0228
  442MPD2    C1 6584   2.066   3.677  16.574  0.3933  0.5639 -0.0407
  442MPD2    C2 6585   2.040   3.547  16.539  0.3815 -0.0894  0.1269
  442MPD2    C3 6586   2.144   3.460  16.497 -0.4622  0.4342 -0.4856
  442MPD2    C4 6587   2.274   3.512  16.496  0.6362  0.1808  0.6899
  442MPD2    C5 6588   2.297   3.644  16.536  0.3907 -0.0301 -0.3754
  442MPD2     H 6589   1.936   3.518  16.536  0.0406  1.2321 -0.6672
  442MPD2    H1 6590   2.360   3.458  16.458 -0.5594 -1.5164  0.3572
  442MPD2    H2 6591   2.218   3.825  16.602 -2.5817  0.6359  1.4980
  442MPD2    H3 6592   2.395   3.690  16.532  0.0914  0.8753  2.6335
  442MPD2     N 6593   2.132   3.326  16.452 -0.0462  0.4240 -0.2341
  442MPD2    H5 6594   2.217   3.285  16.416 -0.8406 -0.9016 -0.6355
  442MPD2    N1 6595   1.963   3.756  16.627 -0.5768 -0.2306  0.0243
  442MPD2    H7 6596   1.878   3.703  16.640  0.6917 -2.2305  0.2501
  443TMC3    C1 6597   1.830   3.926  16.702 -0.0742  0.2466  0.2154
  443TMC3    C2 6598   1.774   4.040  16.653  0.4383  0.0954  0.0176
  443TMC3    C3 6599   1.645   4.062  16.689 -0.1036  0.4327 -0.1571
  443TMC3    C4 6600   1.770   3.844  16.790  0.0505  0.5268 -0.0194
  443TMC3    C5 6601   1.653   3.882  16.841  0.0219 -0.4214  0.1007
  443TMC3    C6 6602   1.586   3.992  16.789  0.0637 -0.4560  0.4127
  443TMC3     C 6603   1.961   3.891  16.646  0.2030 -0.5102  0.3116
  443TMC3     O 6604   2.037   3.976  16.603 -0.4059 -0.2200 -0.7045
  443TMC3     H 6605   1.831   4.087  16.574  0.2176  2.2824  1.1801
  443TMC3    H1 6606   1.824   3.759  16.830 -0.1629  0.5320  0.2722
  443TMC3    H2 6607   1.480   4.012  16.804  0.4194  2.8678 -1.5022
  443TMC3    C7 6608   1.568   3.786  16.909  0.3189 -0.2735  0.2200
  443TMC3    C8 6609   1.559   4.101  16.579 -0.2261  0.0189 -0.2501
  443TMC3    O1 6610   1.587   3.666  16.910 -0.1227 -0.0674 -0.4614
  443TMC3    O2 6611   1.579   4.056  16.469  0.5601  0.1671 -0.0126
  444MPD2     C 6612   2.100   2.960  17.049 -0.6988 -0.0307  0.1280
  444MPD2    C1 6613   2.057   2.831  17.024  0.5532 -0.0018  0.2273
  444MPD2    C2 6614   2.148   2.736  16.996 -0.2865  0.0166 -0.0016
  444MPD2    C3 6615   2.277   2.754  17.025 -0.2251 -0.7394  0.0959
  444MPD2    C4 6616   2.325   2.883  17.049 -0.3183 -0.2542 -0.5496
  444MPD2    C5 6617   2.233   2.986  17.056 -0.0675 -0.3667  0.3213
  444MPD2     H 6618   2.110   2.642  16.958  0.7624 -0.3184 -0.2307
  444MPD2    H1 6619   2.427   2.904  17.077 -0.3751  0.4297 -0.8668
  444MPD2    H2 6620   2.030   3.042  17.048  2.3344  2.5562  1.6752
  444MPD2    H3 6621   2.251   3.090  17.080 -0.0440 -0.5978  1.3205
  444MPD2     N 6622   2.357   2.642  16.991  0.2625  0.1643 -0.4195
  444MPD2    H5 6623   2.312   2.558  16.956  0.4368 -0.7037  1.4252
  444MPD2    N1 6624   1.922   2.797  17.018  0.2533 -0.1544 -0.3052
  444MPD2    H7 6625   1.903   2.698  17.002 -1.3076 -0.0151  0.7327
  445TMC3    C1 6626   2.556   2.517  16.973 -0.2942 -0.2256 -0.1009
  445TMC3    C2 6627   2.487   2.407  16.935  0.7337  0.4639 -0.0304
  445TMC3    C3 6628   2.553   2.296  16.893 -0.6554 -0.0859 -0.8635
  445TMC3    C4 6629   2.691   2.513  16.989  0.2701  0.3223 -0.1624
  445TMC3    C5 6630   2.757   2.403  16.936  0.5841 -0.3665  0.0122
  445TMC3    C6 6631   2.691   2.291  16.895 -0.1200 -0.2771 -0.2562
  445TMC3     C 6632   2.492   2.638  17.011 -0.2278 -0.1469 -0.1448
  445TMC3     O 6633   2.559   2.723  17.067 -0.5408 -0.0865  0.5122
  445TMC3     H 6634   2.380   2.405  16.921  0.8451 -2.9423 -0.2364
  445TMC3    H1 6635   2.744   2.602  17.020 -0.5506  0.3835  1.0874
  445TMC3    H2 6636   2.746   2.204  16.861 -2.8955 -2.2412  0.3305
  445TMC3    C7 6637   2.895   2.430  16.902 -0.3459 -0.7296 -0.8859
  445TMC3    C8 6638   2.490   2.178  16.829 -0.3770 -0.5079 -0.3223
  445TMC3    O1 6639   2.913   2.542  16.862 -0.1455  0.0734  0.1508
  445TMC3    O2 6640   2.559   2.106  16.753 -0.0383 -0.0766  0.0837
  446MPD2     C 6641   1.242   3.681  11.137 -1.1072  0.4627  0.0966
  446MPD2    C1 6642   1.209   3.782  11.050 -0.0741 -0.1294 -0.9651
  446MPD2    C2 6643   1.299   3.882  11.026  0.1717  0.1560 -0.1671
  446MPD2    C3 6644   1.433   3.880  11.070 -0.1894 -0.1577 -0.4039
  446MPD2    C4 6645   1.462   3.790  11.171 -0.4630 -0.3417  0.9260
  446MPD2    C5 6646   1.365   3.691  11.197 -0.3200 -0.3444 -0.3032
  446MPD2     H 6647   1.270   3.959  10.955 -0.5896 -0.4770 -0.5414
  446MPD2    H1 6648   1.554   3.789  11.229  1.0390  0.3283 -1.4422
  446MPD2    H2 6649   1.181   3.596  11.162  1.7448 -1.8189 -0.6947
  446MPD2    H3 6650   1.393   3.607  11.259 -0.0243 -1.2054 -1.6035
  446MPD2     N 6651   1.526   3.967  11.015  0.0717 -0.5313  0.5662
  446MPD2    H5 6652   1.484   4.043  10.962  1.4606  0.3256  0.6804
  446MPD2    N1 6653   1.077   3.779  10.978 -0.3349 -0.1747  0.4614
  446MPD2    H7 6654   1.056   3.857  10.916  1.4525 -0.8643 -1.0273
  447TMC3    C1 6655   1.745   4.067  10.954 -0.2677 -0.1119 -0.5286
  447TMC3    C2 6656   1.685   4.159  10.868 -0.1423  0.1918  0.2954
  447TMC3    C3 6657   1.759   4.262  10.818  0.0414  0.2083 -0.0432
  447TMC3    C4 6658   1.875   4.080  10.990  0.4742  0.1684  0.3780
  447TMC3    C5 6659   1.948   4.176  10.928 -0.3714 -0.2867  0.6751
  447TMC3    C6 6660   1.895   4.273  10.844 -0.0952  0.2235  0.4147
  447TMC3     C 6661   1.668   3.971  11.034 -1.0676 -0.6206  0.2204
  447TMC3     O 6662   1.736   3.889  11.094  0.3096 -0.3630 -0.3884
  447TMC3     H 6663   1.584   4.140  10.835 -0.0896  0.6683 -0.1494
  447TMC3    H1 6664   1.923   4.008  11.056  1.3486 -1.0572 -1.5829
  447TMC3    H2 6665   1.954   4.343  10.787 -3.0551  1.9765 -0.4526
  447TMC3    C7 6666   2.093   4.182  10.959  0.9350 -0.1266 -0.2440
  447TMC3    C8 6667   1.704   4.350  10.711  0.1099  0.1591  0.1386
  447TMC3    O1 6668   2.144   4.292  10.946 -0.3328 -0.3087  0.1570
  447TMC3    O2 6669   1.621   4.299  10.637 -0.4805 -0.1505 -0.0652
  448TMC3    C1 6670   4.472   4.441  16.818  0.1301 -0.4564  0.1225
  448TMC3    C2 6671   4.528   4.357  16.718 -0.2019 -0.5280  0.1781
  448TMC3    C3 6672   4.579   4.235  16.762  0.0700 -0.2445 -0.3249
  448TMC3    C4 6673   4.462   4.406  16.944 -0.0238 -0.6904 -0.3121
  448TMC3    C5 6674   4.495   4.278  16.982 -0.6522 -0.1448  0.2603
  448TMC3    C6 6675   4.563   4.197  16.889  0.2316  0.2935 -0.7964
  448TMC3     C 6676   4.411   4.562  16.762 -0.5653 -0.8428  0.3589
  448TMC3     O 6677   4.427   4.578  16.642  0.2219 -0.3283  0.0500
  448TMC3     H 6678   4.521   4.385  16.613 -2.9542 -1.7031  0.0253
  448TMC3    H1 6679   4.395   4.467  17.003  2.0446  1.2324  0.0847
  448TMC3    H2 6680   4.606   4.104  16.925 -1.1989  0.8496  2.3853
  448TMC3    C7 6681   4.505   4.253  17.121  0.5472  0.3241 -0.3054
  448TMC3    C8 6682   4.621   4.138  16.661 -0.4164 -0.2864  0.6108
  448TMC3    O1 6683   4.514   4.358  17.188  0.6979  0.6926  0.3396
  448TMC3    O2 6684   4.667   4.033  16.710 -0.0436  0.5745 -0.0607
  449MPD2     C 6685   2.004   3.024  14.034  0.1548 -0.7039  0.1218
  449MPD2    C1 6686   1.935   2.907  14.036 -0.5633 -0.2747 -0.0335
  449MPD2    C2 6687   1.976   2.812  14.124  0.0557 -0.0499 -0.5090
  449MPD2    C3 6688   2.070   2.833  14.215 -0.5995  0.2191  0.3024
  449MPD2    C4 6689   2.139   2.950  14.218 -0.6440 -0.6027  0.2273
  449MPD2    C5 6690   2.108   3.045  14.120 -0.3250 -0.6289  0.2673
  449MPD2     H 6691   1.915   2.723  14.133  0.7261 -0.5317 -0.8206
  449MPD2    H1 6692   2.211   2.978  14.294  0.3311 -0.7768 -0.6332
  449MPD2    H2 6693   1.976   3.104  13.967  0.3995  1.8632  3.0926
  449MPD2    H3 6694   2.163   3.138  14.124 -1.8924  0.3673 -1.4030
  449MPD2     N 6695   2.096   2.723  14.297 -0.0488  0.9976  0.1967
  449MPD2    H5 6696   2.048   2.638  14.270  0.3318  1.2080 -1.1304
  449MPD2    N1 6697   1.825   2.883  13.949 -0.1707 -0.3217 -0.0029
  449MPD2    H7 6698   1.783   2.792  13.967 -1.7060  0.4441  0.2602
  450TMC3    C1 6699   1.648   2.905  13.806 -0.1302  0.2767  0.1109
  450TMC3    C2 6700   1.656   2.841  13.687  0.5446 -0.2154  0.2421
  450TMC3    C3 6701   1.599   2.718  13.684  0.1370 -0.2711  0.1261
  450TMC3    C4 6702   1.569   2.863  13.910  0.4267  0.3863  0.1963
  450TMC3    C5 6703   1.515   2.743  13.904 -0.0826 -0.5074 -1.0801
  450TMC3    C6 6704   1.533   2.666  13.789  0.0238  0.3094 -0.5756
  450TMC3     C 6705   1.776   2.959  13.847  0.6472 -0.1173 -0.4665
  450TMC3     O 6706   1.842   3.045  13.783  0.2126  0.4807  0.2643
  450TMC3     H 6707   1.718   2.876  13.606 -0.1079 -0.9637 -0.5779
  450TMC3    H1 6708   1.564   2.917  14.004  3.4394 -1.1838  1.2737
  450TMC3    H2 6709   1.502   2.562  13.786 -2.1880  0.9275  0.5967
  450TMC3    C7 6710   1.554   2.669  14.024 -0.2240  0.1449 -0.5071
  450TMC3    C8 6711   1.546   2.678  13.553  0.0148  0.1947 -0.4605
  450TMC3    O1 6712   1.668   2.697  14.070 -0.2862 -0.2411  0.1925
  450TMC3    O2 6713   1.429   2.640  13.559 -0.2744  0.0006 -0.0489
  451MPD2     C 6714   2.577   1.702   1.060 -0.9925 -0.4413  0.4431
  451MPD2    C1 6715   2.563   1.721   1.193 -0.3430  0.0126 -0.3014
  451MPD2    C2 6716   2.598   1.618   1.281 -0.9322  0.0928 -0.1509
  451MPD2    C3 6717   2.642   1.502   1.226 -0.4839  0.1342 -0.4167
  451MPD2    C4 6718   2.652   1.487   1.090  0.4991  0.1792 -0.1228
  451MPD2    C5 6719   2.620   1.583   1.005 -0.2516  0.2463 -0.4052
  451MPD2     H 6720   2.582   1.628   1.388  0.6633  0.6440  0.0421
  451MPD2    H1 6721   2.685   1.394   1.046  1.9827  0.2457  0.8352
  451MPD2    H2 6722   2.538   1.774   0.989 -0.3072 -1.0997 -0.5992
  451MPD2    H3 6723   2.621   1.570   0.897  0.7713 -2.8894 -0.0027
  451MPD2     N 6724   2.667   1.387   1.303  0.4724 -1.0583 -0.0905
  451MPD2    H5 6725   2.693   1.305   1.248  0.7991 -0.1119 -1.3633
  451MPD2    N1 6726   2.501   1.845   1.225 -0.7116 -0.3408  1.0312
  451MPD2    H7 6727   2.482   1.903   1.144 -0.7540 -0.1743  1.1605
  452TMC3    C1 6728   2.707   1.247   1.495  0.2878 -0.7253  0.1779
  452TMC3    C2 6729   2.676   1.234   1.628  1.1681  0.1841 -0.3827
  452TMC3    C3 6730   2.694   1.119   1.684  0.2182  0.6164 -0.4969
  452TMC3    C4 6731   2.757   1.146   1.421 -0.3070 -0.1724  0.8320
  452TMC3    C5 6732   2.774   1.028   1.486 -0.1853  0.2272 -0.1371
  452TMC3    C6 6733   2.748   1.018   1.614  0.4827 -0.2164 -0.6122
  452TMC3     C 6734   2.673   1.379   1.437 -0.1738 -0.5366  0.1947
  452TMC3     O 6735   2.637   1.464   1.517  0.3332  0.3021  0.4988
  452TMC3     H 6736   2.625   1.310   1.685  1.1989  1.0357 -1.4745
  452TMC3    H1 6737   2.781   1.155   1.315 -2.4288 -0.9875  0.2769
  452TMC3    H2 6738   2.785   0.938   1.676  1.6295 -1.7549 -3.2914
  452TMC3    C7 6739   2.864   0.936   1.426 -0.6157 -0.7240  0.2227
  452TMC3    C8 6740   2.664   1.091   1.827 -0.2197 -0.3875 -0.2984
  452TMC3    O1 6741   2.926   0.974   1.326 -0.1314 -0.4759 -0.2635
  452TMC3    O2 6742   2.662   0.971   1.859 -0.1577  0.1992  0.1822
  453TMC3    C1 6743   3.464   3.428  11.215  0.2120  0.1958  0.4470
  453TMC3    C2 6744   3.381   3.433  11.321 -0.2561 -0.9643  0.3896
  453TMC3    C3 6745   3.330   3.316  11.365  0.6827 -0.5074  0.2502
  453TMC3    C4 6746   3.475   3.319  11.137 -0.5459 -0.8316 -0.4332
  453TMC3    C5 6747   3.409   3.204  11.177  0.3021  0.1149  0.1716
  453TMC3    C6 6748   3.336   3.204  11.294 -0.2329  0.4779  0.0107
  453TMC3     C 6749   3.587   3.498  11.219 -0.4077  0.0916  0.3184
  453TMC3     O 6750   3.685   3.436  11.178 -0.1992  0.8235 -0.4525
  453TMC3     H 6751   3.377   3.526  11.378  0.8347 -0.1874 -0.7934
  453TMC3    H1 6752   3.534   3.311  11.047 -0.1679 -0.8237 -0.1843
  453TMC3    H2 6753   3.287   3.112  11.325 -0.8474  1.2599  1.3673
  453TMC3    C7 6754   3.361   3.102  11.088 -0.0614  0.2548 -0.7090
  453TMC3    C8 6755   3.273   3.312  11.502  0.4714 -0.2104  0.7765
  453TMC3    O1 6756   3.252   3.051  11.116  0.7460  0.2919 -0.1956
  453TMC3    O2 6757   3.205   3.412  11.527 -0.5276 -0.3346 -0.1144
  454MPD2     C 6758   3.183   2.432  16.191 -0.1494  0.3436  0.4580
  454MPD2    C1 6759   3.089   2.532  16.193 -0.0422  0.4109 -0.3848
  454MPD2    C2 6760   2.993   2.538  16.300 -0.8617 -0.2545 -0.4779
  454MPD2    C3 6761   2.983   2.432  16.385 -0.4947 -0.0594  0.0191
  454MPD2    C4 6762   3.068   2.322  16.370 -0.3328  0.3777 -0.1652
  454MPD2    C5 6763   3.177   2.327  16.281 -0.5936 -0.3556 -0.0935
  454MPD2     H 6764   2.923   2.620  16.293  1.3887  1.7853  0.8182
  454MPD2    H1 6765   3.054   2.240  16.439  0.4881  1.1746  0.9391
  454MPD2    H2 6766   3.260   2.433  16.115 -1.3960  1.6881 -0.7733
  454MPD2    H3 6767   3.248   2.246  16.272 -2.5511 -1.8940 -1.5064
  454MPD2     N 6768   2.877   2.435  16.486 -0.2747 -0.4273  0.2837
  454MPD2    H5 6769   2.855   2.354  16.543  2.2485 -1.4609 -0.2356
  454MPD2    N1 6770   3.071   2.623  16.089 -0.1155 -0.4007 -0.0357
  454MPD2    H7 6771   2.979   2.666  16.096 -0.8649 -2.0475  0.2221
  455TMC3    C1 6772   2.682   2.518  16.569  0.3213 -0.5179  0.0837
  455TMC3    C2 6773   2.603   2.627  16.598  0.1964  0.3082 -0.5071
  455TMC3    C3 6774   2.470   2.613  16.603 -0.3183  0.5770 -0.3640
  455TMC3    C4 6775   2.624   2.402  16.524  0.0767 -0.3320 -0.0591
  455TMC3    C5 6776   2.487   2.386  16.537  0.1962 -0.0332 -0.1151
  455TMC3    C6 6777   2.405   2.484  16.581 -0.3343  0.2911 -0.4972
  455TMC3     C 6778   2.805   2.550  16.508 -0.4833 -0.0255  0.1089
  455TMC3     O 6779   2.828   2.669  16.492  0.2264 -0.1970  0.3372
  455TMC3     H 6780   2.650   2.722  16.624  1.2200 -0.4685  0.4713
  455TMC3    H1 6781   2.673   2.331  16.458  0.3258  0.5957 -0.8549
  455TMC3    H2 6782   2.297   2.474  16.578 -0.1546 -2.4753  2.4104
  455TMC3    C7 6783   2.421   2.282  16.460  0.1325 -0.4002 -0.6075
  455TMC3    C8 6784   2.393   2.732  16.616  0.2143  0.0326  0.1246
  455TMC3    O1 6785   2.305   2.307  16.427 -0.0694  0.3403 -0.4377
  455TMC3    O2 6786   2.456   2.836  16.601 -0.7654 -0.2253  0.1323
  456MPD2     C 6787   0.549   3.215  15.667 -0.0018 -0.1680 -0.0700
  456MPD2    C1 6788   0.563   3.159  15.789  0.3233 -0.1688 -0.3325
  456MPD2    C2 6789   0.464   3.180  15.877 -0.2421 -0.3961  0.3339
  456MPD2    C3 6790   0.375   3.286  15.866  0.2148 -0.6475 -0.6248
  456MPD2    C4 6791   0.372   3.353  15.748  0.0566 -0.4304 -0.0220
  456MPD2    C5 6792   0.466   3.320  15.655  0.5452  0.1094  0.0607
  456MPD2     H 6793   0.469   3.123  15.969 -0.9292  0.7962  1.1060
  456MPD2    H1 6794   0.302   3.431  15.723 -0.5101 -1.2893 -1.1419
  456MPD2    H2 6795   0.614   3.185  15.586  1.0097  0.1106  0.6426
  456MPD2    H3 6796   0.462   3.384  15.568  1.1828  1.6594  1.1644
  456MPD2     N 6797   0.289   3.314  15.974 -0.6101  0.2844  0.1903
  456MPD2    H5 6798   0.282   3.258  16.058  0.5003 -1.1366 -0.6541
  456MPD2    N1 6799   0.667   3.066  15.799  0.0563  0.0669 -0.4579
  456MPD2    H7 6800   0.718   3.039  15.716  0.6778  0.2860 -0.1444
  457TMC3    C1 6801   0.163   3.437  16.128  0.3235 -0.4841  0.4616
  457TMC3    C2 6802   0.149   3.561  16.190  0.1519  0.9393  0.1906
  457TMC3    C3 6803   0.080   3.566  16.307 -0.9199 -0.6901 -0.2725
  457TMC3    C4 6804   0.109   3.326  16.189 -0.2703  0.3572  0.0225
  457TMC3    C5 6805   0.036   3.337  16.303 -0.3721  0.3614 -0.0098
  457TMC3    C6 6806   0.023   3.456  16.367 -0.8701 -0.5585 -0.2681
  457TMC3     C 6807   0.231   3.434  15.998 -0.4235  0.3456 -0.8030
  457TMC3     O 6808   0.234   3.543  15.945  1.2784 -0.6349  0.3375
  457TMC3     H 6809   0.196   3.650  16.149  2.1255  0.4327  1.3551
  457TMC3    H1 6810   0.136   3.225  16.158 -0.2991 -0.1006  1.4603
  457TMC3    H2 6811   4.689   3.469  16.457  1.5361  1.3416  1.0858
  457TMC3    C7 6812   4.658   3.233  16.341  0.4365  0.4610  0.0847
  457TMC3    C8 6813   0.045   3.691  16.369  0.7506 -0.3446 -0.3485
  457TMC3    O1 6814   4.541   3.272  16.351 -0.1363  0.0795  0.8217
  457TMC3    O2 6815   4.724   3.693  16.481 -0.7831 -0.0466 -0.5739
  458MPD2     C 6816   2.471   2.368  12.515 -0.5833  0.4558  0.3970
  458MPD2    C1 6817   2.534   2.309  12.622  0.3916 -0.1231 -0.3020
  458MPD2    C2 6818   2.463   2.201  12.677 -0.5021 -0.4478  0.3439
  458MPD2    C3 6819   2.332   2.174  12.646  0.1206  0.2166 -0.5827
  458MPD2    C4 6820   2.270   2.243  12.545  0.0075 -0.2098 -0.5626
  458MPD2    C5 6821   2.347   2.331  12.477  0.7898  0.2716 -0.1499
  458MPD2     H 6822   2.506   2.155  12.766  3.9070 -0.8801 -1.9911
  458MPD2    H1 6823   2.175   2.215  12.500  0.8333 -1.2757 -1.6597
  458MPD2    H2 6824   2.509   2.454  12.461 -0.7048  0.9560  1.1077
  458MPD2    H3 6825   2.296   2.381  12.396  3.2573  2.0143 -0.6024
  458MPD2     N 6826   2.264   2.070  12.717  0.1936 -0.2871  0.4565
  458MPD2    H5 6827   2.326   2.031  12.787  4.2361  3.8651 -0.7349
  458MPD2    N1 6828   2.657   2.358  12.677 -0.1387  0.0087  0.4997
  458MPD2    H7 6829   2.699   2.425  12.613 -0.1271 -0.7797 -0.3118
  459TMC3    C1 6830   2.833   2.393  12.832 -0.7172 -0.4748 -0.4819
  459TMC3    C2 6831   2.821   2.527  12.810  0.3209 -0.1630 -0.6771
  459TMC3    C3 6832   2.916   2.595  12.873  0.2463 -0.0258  0.4263
  459TMC3    C4 6833   2.915   2.335  12.919 -0.1550 -0.1536 -0.0864
  459TMC3    C5 6834   2.998   2.416  12.994  0.2343 -0.1647  0.2396
  459TMC3    C6 6835   3.006   2.550  12.966  1.0532 -0.4057 -0.1599
  459TMC3     C 6836   2.722   2.310  12.793  0.7065  0.0161 -0.7812
  459TMC3     O 6837   2.700   2.211  12.860 -0.5465 -0.6416 -0.8080
  459TMC3     H 6838   2.748   2.567  12.741 -0.7284  0.5071  0.8356
  459TMC3    H1 6839   2.911   2.229  12.942 -2.1382  0.0635  0.5484
  459TMC3    H2 6840   3.092   2.608  12.996  2.2270 -1.7458 -0.9458
  459TMC3    C7 6841   3.067   2.360  13.109 -0.1179  0.0749 -0.6606
  459TMC3    C8 6842   2.935   2.740  12.851  0.0803 -0.9858  0.3476
  459TMC3    O1 6843   3.058   2.236  13.106  0.0740 -0.2397  0.4917
  459TMC3    O2 6844   3.018   2.799  12.922  0.3014  0.2122 -0.1202
  460MPD2     C 6845   1.842   4.672  10.605 -0.1949 -0.1951 -0.0738
  460MPD2    C1 6846   1.756   4.564  10.598 -0.6136  0.3854 -0.0605
  460MPD2    C2 6847   1.654   4.563  10.506 -0.1265 -0.7086  0.1155
  460MPD2    C3 6848   1.622   4.677  10.434  0.2903  0.5507 -0.1182
  460MPD2    C4 6849   1.703   0.061  10.449  0.6248  0.2217 -0.8881
  460MPD2    C5 6850   1.813   0.057  10.529  0.7438 -0.2343 -0.3216
  460MPD2     H 6851   1.588   4.480  10.487 -2.1951  0.6104  1.6258
  460MPD2    H1 6852   1.685   0.156  10.399 -2.0309 -0.1297 -0.6292
  460MPD2    H2 6853   1.917   4.680  10.682  0.4427  2.1205 -0.9237
  460MPD2    H3 6854   1.868   0.148  10.549  0.5308 -0.3584  0.8152
  460MPD2     N 6855   1.523   4.677  10.336  1.0790  0.2500 -0.0045
  460MPD2    H5 6856   1.470   4.590  10.333 -2.1338  2.2082  0.4353
  460MPD2    N1 6857   1.770   4.464  10.695  0.1801 -0.2742 -0.6122
  460MPD2    H7 6858   1.836   4.483  10.769 -0.2597 -1.0463 -0.0320
  461TMC3    C1 6859   1.383   0.015  10.164 -0.3168 -0.2799 -0.4389
  461TMC3    C2 6860   1.426   4.636  10.094 -0.0041  0.2934 -0.5577
  461TMC3    C3 6861   1.380   4.639   9.961 -0.0212 -0.6856  0.1854
  461TMC3    C4 6862   1.289   0.108  10.127  0.4159  0.2823  0.2685
  461TMC3    C5 6863   1.249   0.106  10.003 -0.8073 -0.2353  0.3003
  461TMC3    C6 6864   1.285   0.002   9.923  0.1112 -0.0097 -0.2585
  461TMC3     C 6865   1.470   0.057  10.272 -0.4269  1.1910 -0.6302
  461TMC3     O 6866   1.493   0.177  10.273 -0.1848  0.5608 -0.1422
  461TMC3     H 6867   1.508   4.569  10.117  0.5802  1.9422  2.2155
  461TMC3    H1 6868   1.256   0.174  10.205  1.1961  1.6315 -0.5412
  461TMC3    H2 6869   1.256   4.725   9.819  1.5647  0.8205 -0.6985
  461TMC3    C7 6870   1.158   0.212   9.943 -0.1462 -0.1221 -0.1494
  461TMC3    C8 6871   1.408   4.521   9.884 -0.2829 -0.2557  0.2584
  461TMC3    O1 6872   1.123   0.199   9.823  1.0837 -0.6522 -0.6096
  461TMC3    O2 6873   1.507   4.463   9.928  0.2251  0.1473  0.5696
  462TMC3    C1 6874   1.335   0.440  17.185  0.1993  0.3405 -0.2805
  462TMC3    C2 6875   1.368   0.351  17.086  0.0407  1.4606  0.5933
  462TMC3    C3 6876   1.441   0.238  17.125 -0.1659 -0.1893 -0.0148
  462TMC3    C4 6877   1.364   0.425  17.314 -0.3431  0.0840  0.5067
  462TMC3    C5 6878   1.441   0.316  17.345 -0.1935  0.5301  0.9099
  462TMC3    C6 6879   1.490   0.225  17.253  0.2963  0.0855  0.4944
  462TMC3     C 6880   1.281   0.571  17.148 -0.4894 -0.0858 -0.6659
  462TMC3     O 6881   1.289   0.656  17.239  0.4972  0.0182 -0.5956
  462TMC3     H 6882   1.350   0.376  16.982  0.0299  1.5384  0.6136
  462TMC3    H1 6883   1.319   0.484  17.393 -0.9137 -1.0744  1.0409
  462TMC3    H2 6884   1.538   0.131  17.277 -1.8670 -1.2044 -0.1979
  462TMC3    C7 6885   1.459   0.268  17.478 -0.3782  0.5475  0.3541
  462TMC3    C8 6886   1.494   0.155  17.020  0.2030 -0.0507 -0.2422
  462TMC3    O1 6887   1.463   0.145  17.491 -0.0236 -0.2498  0.0517
  462TMC3    O2 6888   1.428   0.142  16.919 -0.0214 -0.0799 -0.5355
  463MPD2     C 6889   2.806   0.068   1.951  0.0919  0.5226 -0.1593
  463MPD2    C1 6890   2.746   0.178   1.901  0.3609 -0.5849  0.8176
  463MPD2    C2 6891   2.829   0.283   1.860 -0.1846  0.7707  0.4433
  463MPD2    C3 6892   2.965   0.273   1.860 -0.1217  0.5798 -0.0907
  463MPD2    C4 6893   3.027   0.159   1.904 -0.0514  0.8244  0.2780
  463MPD2    C5 6894   2.943   0.056   1.941 -0.3271  0.8350  0.1667
  463MPD2     H 6895   2.787   0.376   1.824 -0.8507  0.0417 -0.6857
  463MPD2    H1 6896   3.134   0.147   1.918 -0.2652  0.6005  1.8002
  463MPD2    H2 6897   2.762   4.699   1.977  1.1682  0.0249 -0.1688
  463MPD2    H3 6898   2.973   4.683   1.973  0.2990  0.5652 -1.2784
  463MPD2     N 6899   3.038   0.398   1.841  0.0248 -0.1569 -0.3506
  463MPD2    H5 6900   2.995   0.490   1.841 -1.8457 -1.0189 -0.2197
  463MPD2    N1 6901   2.604   0.172   1.878 -0.3995  0.3409  0.3595
  463MPD2    H7 6902   2.564   0.250   1.827 -1.9864  0.0498  1.1672
  464TMC3    C1 6903   2.381   0.090   1.844 -0.4700 -0.1912  0.5347
  464TMC3    C2 6904   2.383   0.168   1.729  0.0187  0.4304 -0.5995
  464TMC3    C3 6905   2.282   0.152   1.637  0.4863 -0.3786 -0.4661
  464TMC3    C4 6906   2.299   4.712   1.855 -0.1668 -0.0784 -0.3974
  464TMC3    C5 6907   2.216   4.687   1.754  0.4667 -0.2306 -0.6647
  464TMC3    C6 6908   2.198   0.045   1.645 -0.5678  0.4007 -0.4576
  464TMC3     C 6909   2.509   0.074   1.907 -0.4194 -0.1092 -0.0081
  464TMC3     O 6910   2.530   4.707   1.975  0.0149  0.3889  0.6233
  464TMC3     H 6911   2.450   0.250   1.709  2.7268 -1.7845 -0.5063
  464TMC3    H1 6912   2.315   4.654   1.945 -0.9627 -1.8087 -1.3520
  464TMC3    H2 6913   2.133   0.008   1.566  0.4341 -1.6823 -0.3134
  464TMC3    C7 6914   2.115   4.588   1.791  0.3469  0.0844 -0.1611
  464TMC3    C8 6915   2.262   0.250   1.531  0.9165  0.1067  0.3398
  464TMC3    O1 6916   2.099   4.586   1.914  0.7585  0.0563 -0.0097
  464TMC3    O2 6917   2.341   0.342   1.523 -0.0353 -0.4754  0.2477
  465MPD2     C 6918   4.446   3.490  17.371  0.1866 -0.4630  0.5723
  465MPD2    C1 6919   4.359   3.404  17.311 -0.2584 -0.3317  0.0477
  465MPD2    C2 6920   4.370   3.381  17.172  0.1862  0.8527 -0.3897
  465MPD2    C3 6921   4.472   3.440  17.094 -0.4574  0.3164 -0.6918
  465MPD2    C4 6922   4.548   3.539  17.156  0.2087 -0.5374  0.0653
  465MPD2    C5 6923   4.538   3.561  17.293  0.0968  0.2463  0.5739
  465MPD2     H 6924   4.317   3.296  17.131 -0.2628 -0.2245  2.4478
  465MPD2    H1 6925   4.621   3.602  17.106 -0.4120 -0.0717 -0.2516
  465MPD2    H2 6926   4.440   3.513  17.477  2.0631 -1.0764  0.7931
  465MPD2    H3 6927   4.600   3.639  17.336  1.6750  0.3171 -1.8413
  465MPD2     N 6928   4.469   3.404  16.954 -0.1376  0.3491  0.2884
  465MPD2    H5 6929   4.402   3.330  16.933  1.1616 -0.7072 -0.1433
  465MPD2    N1 6930   4.258   3.339  17.384  0.3047 -0.2845  0.2639
  465MPD2    H7 6931   4.201   3.271  17.335 -3.6671  2.1869  1.4364
  466TMC3    C1 6932   4.340   3.213  16.677  0.5364  0.1531 -0.2797
  466TMC3    C2 6933   4.262   3.291  16.593  0.0103  0.5460 -1.0027
  466TMC3    C3 6934   4.300   3.417  16.571  0.4574  0.5000 -0.2770
  466TMC3    C4 6935   4.448   3.266  16.742  0.2711  0.1898  0.4491
  466TMC3    C5 6936   4.482   3.391  16.718 -0.2275  1.0417 -0.4746
  466TMC3    C6 6937   4.410   3.472  16.632  0.2146  0.2132  0.1120
  466TMC3     C 6938   4.261   3.157  16.785  0.2973 -0.4070 -0.1700
  466TMC3     O 6939   4.306   3.191  16.894 -0.0763  0.2541 -0.3779
  466TMC3     H 6940   4.172   3.261  16.540  0.7073 -0.4712 -1.6227
  466TMC3    H1 6941   4.509   3.210  16.813  1.6171 -0.8077 -1.5086
  466TMC3    H2 6942   4.422   3.579  16.624  2.1373 -0.0778 -0.8784
  466TMC3    C7 6943   4.525   3.468  16.839 -0.2998 -0.8538  0.0745
  466TMC3    C8 6944   4.216   3.508  16.494 -0.5852  0.1260  0.6431
  466TMC3    O1 6945   4.593   3.570  16.827 -0.3718 -0.6197  0.6499
  466TMC3    O2 6946   4.190   3.487  16.374  0.3651 -0.2926  0.2763
  467TMC3    C1 6947   0.312   2.095  13.541  0.1123  0.1893  0.1655
  467TMC3    C2 6948   0.369   2.174  13.452 -0.2086 -0.9432 -0.0760
  467TMC3    C3 6949   0.287   2.253  13.373 -0.1587  0.0136  0.1569
  467TMC3    C4 6950   0.174   2.075  13.555 -0.4494  0.2468  0.2648
  467TMC3    C5 6951   0.095   2.152  13.474  0.2801 -0.0657 -0.7529
  467TMC3    C6 6952   0.149   2.246  13.390 -0.3273 -0.2328  0.0025
  467TMC3     C 6953   0.390   2.000  13.608  0.3370  0.1925  0.0955
  467TMC3     O 6954   0.503   2.031  13.631 -0.1987  0.3366  0.2617
  467TMC3     H 6955   0.476   2.188  13.448 -0.5036  1.3681  0.1724
  467TMC3    H1 6956   0.134   2.004  13.628  0.9252  0.5626  1.3216
  467TMC3    H2 6957   0.092   2.307  13.321  0.7663 -0.7017 -1.3181
  467TMC3    C7 6958   4.683   2.175  13.506 -0.8890  0.4004  0.0699
  467TMC3    C8 6959   0.334   2.304  13.246 -0.2587  0.1291  0.2916
  467TMC3    O1 6960   4.626   2.264  13.438 -0.3883  0.3072 -0.7374
  467TMC3    O2 6961   0.271   2.395  13.190 -0.4132 -0.7962  0.1429
  468MPD2     C 6962   3.476   4.370  11.079  0.3388  0.0711 -0.5380
  468MPD2    C1 6963   3.599   4.314  11.082 -0.8667 -0.1840  0.1442
  468MPD2    C2 6964   3.613   4.172  11.057 -0.3437 -0.2646 -0.2587
  468MPD2    C3 6965   3.497   4.095  11.031  0.3650  0.6622  0.6539
  468MPD2    C4 6966   3.378   4.162  11.040 -0.2006  0.3965 -0.2918
  468MPD2    C5 6967   3.369   4.292  11.059  0.4273  0.2534 -0.1297
  468MPD2     H 6968   3.713   4.130  11.063 -0.4067 -0.2266  0.9858
  468MPD2    H1 6969   3.286   4.109  11.016  0.7093 -1.6900  0.7550
  468MPD2    H2 6970   3.454   4.476  11.077 -0.0206  0.0244  1.3258
  468MPD2    H3 6971   3.271   4.337  11.051  0.5998  1.1066  2.3954
  468MPD2     N 6972   3.509   3.956  10.987 -0.0824 -0.2148 -0.6335
  468MPD2    H5 6973   3.417   3.914  10.974 -0.4593  0.5387 -0.3610
  468MPD2    N1 6974   3.723   4.383  11.081 -0.6720  0.3194 -0.1248
  468MPD2    H7 6975   3.808   4.332  11.102 -1.0378 -0.8290 -1.4949
  469TMC3    C1 6976   3.866   4.568  11.061  0.8633  0.6102 -0.2039
  469TMC3    C2 6977   3.973   4.479  11.039 -0.2429 -0.5360 -0.2073
  469TMC3    C3 6978   4.098   4.523  11.069  1.4279  0.2265 -0.0638
  469TMC3    C4 6979   3.898   4.701  11.083  0.0469 -0.0830  1.2725
  469TMC3    C5 6980   4.029   0.024  11.090 -0.5511  1.0068  0.2478
  469TMC3    C6 6981   4.126   4.657  11.092  0.6373 -0.6762  0.1290
  469TMC3     C 6982   3.736   4.522  11.078  0.3903 -0.0230  0.1202
  469TMC3     O 6983   3.656   4.609  11.106  0.4606 -0.2127  0.8161
  469TMC3     H 6984   3.962   4.373  11.018  0.8745 -0.9956  1.5126
  469TMC3    H1 6985   3.817   0.045  11.098  0.8368  1.6197 -2.2612
  469TMC3    H2 6986   4.227   4.695  11.101  0.1266  0.5210  0.7019
  469TMC3    C7 6987   4.045   0.142  11.178  0.2662 -0.2117  0.9167
  469TMC3    C8 6988   4.199   4.432  11.113 -0.6098  0.1833  0.2039
  469TMC3    O1 6989   4.132   0.120  11.260 -0.0683 -0.3751 -0.0354
  469TMC3    O2 6990   4.194   4.313  11.076  0.3157  0.1763  0.4527
  470TMC3    C1 6991   1.758   1.177   0.359  0.0342  0.6559  0.5265
  470TMC3    C2 6992   1.649   1.224   0.419  0.3073 -0.6083  0.6447
  470TMC3    C3 6993   1.663   1.280   0.544  0.3091  0.3506 -0.2692
  470TMC3    C4 6994   1.885   1.185   0.418  1.2952  0.1470  0.3615
  470TMC3    C5 6995   1.892   1.240   0.541 -0.1658  0.4729 -0.0849
  470TMC3    C6 6996   1.785   1.287   0.607  0.1561 -0.6202  0.6774
  470TMC3     C 6997   1.739   1.108   0.234  0.3341  0.2840  0.3720
  470TMC3     O 6998   1.624   1.086   0.197  0.3503  0.7253  0.4036
  470TMC3     H 6999   1.553   1.231   0.368  0.8212 -1.3665 -0.4238
  470TMC3    H1 7000   1.981   1.158   0.376  0.8003 -0.7231 -0.2151
  470TMC3    H2 7001   1.791   1.331   0.707  0.8757  2.8077 -0.8533
  470TMC3    C7 7002   2.007   1.327   0.559 -0.4999 -0.2965 -0.1023
  470TMC3    C8 7003   1.553   1.347   0.610  0.1154  0.0335  0.1532
  470TMC3    O1 7004   2.073   1.365   0.466 -0.1603  0.4058  0.2811
  470TMC3    O2 7005   1.584   1.400   0.715 -0.7077 -0.0964  0.6519
  471MPD2     C 7006   1.131   1.880  16.518  0.4945  0.5169  0.0130
  471MPD2    C1 7007   1.268   1.852  16.526  0.1038 -0.6422  0.1266
  471MPD2    C2 7008   1.325   1.799  16.638 -0.1287  0.1305 -0.2135
  471MPD2    C3 7009   1.246   1.770  16.748  0.2925 -0.7227  0.2731
  471MPD2    C4 7010   1.111   1.789  16.744 -0.0178 -0.4646 -0.2404
  471MPD2    C5 7011   1.056   1.837  16.625 -0.6095  0.4695  0.6995
  471MPD2     H 7012   1.431   1.779  16.624 -0.2042 -0.0569 -0.5290
  471MPD2    H1 7013   1.051   1.769  16.833 -2.3239 -2.5469 -2.2883
  471MPD2    H2 7014   1.078   1.911  16.429 -0.0590  1.5536  0.6935
  471MPD2    H3 7015   0.949   1.850  16.635  0.0149  5.5127  0.7766
  471MPD2     N 7016   1.300   1.728  16.868  0.1306  0.4434 -0.6292
  471MPD2    H5 7017   1.243   1.727  16.952 -1.7328  1.1933 -1.8956
  471MPD2    N1 7018   1.356   1.868  16.419 -0.4666 -0.1480 -0.7081
  471MPD2    H7 7019   1.454   1.856  16.443 -0.9083 -0.8687  0.7390
  472TMC3    C1 7020   1.423   1.863  16.194  0.2497  0.1239  0.5759
  472TMC3    C2 7021   1.384   1.876  16.063 -0.2085 -0.1680 -0.1980
  472TMC3    C3 7022   1.440   1.791  15.971  0.3645  0.5547 -0.5185
  472TMC3    C4 7023   1.497   1.756  16.227  0.2019  0.3174 -1.1516
  472TMC3    C5 7024   1.539   1.666  16.134  0.6026 -0.8712  0.4588
  472TMC3    C6 7025   1.511   1.681  16.005  0.0706 -0.9395 -0.0125
  472TMC3     C 7026   1.316   1.895  16.289 -0.0650  0.1946 -0.0560
  472TMC3     O 7027   1.213   1.945  16.241  0.1172 -0.3434 -0.2759
  472TMC3     H 7028   1.317   1.955  16.031  0.8633  0.1084 -1.7893
  472TMC3    H1 7029   1.523   1.719  16.325  0.3347  1.1030 -0.8938
  472TMC3    H2 7030   1.554   1.614  15.931  0.5705  1.5548 -1.9404
  472TMC3    C7 7031   1.525   1.529  16.178 -0.0489 -0.0446  0.1553
  472TMC3    C8 7032   1.364   1.782  15.847 -0.3495 -0.1863 -0.2344
  472TMC3    O1 7033   1.573   1.495  16.283 -0.0130  0.0244  0.3292
  472TMC3    O2 7034   1.425   1.786  15.741 -0.6246 -0.6481 -0.3654
  473MPD2     C 7035   1.597   3.955  13.815 -0.3676 -0.3451  0.1934
  473MPD2    C1 7036   1.597   4.067  13.735 -0.5357  0.0665  0.2457
  473MPD2    C2 7037   1.621   4.193  13.793  0.6488  0.5255 -0.0797
  473MPD2    C3 7038   1.651   4.203  13.924  0.2521  0.5730  0.2293
  473MPD2    C4 7039   1.642   4.088  13.999  0.2961 -0.0598 -0.0980
  473MPD2    C5 7040   1.615   3.965  13.947 -0.6492 -0.1330 -0.1806
  473MPD2     H 7041   1.632   4.281  13.730 -0.1731  0.1805 -0.7056
  473MPD2    H1 7042   1.637   4.088  14.107  1.1913 -1.4319 -0.0572
  473MPD2    H2 7043   1.589   3.857  13.770 -1.6586 -0.7731  1.3600
  473MPD2    H3 7044   1.606   3.877  14.009 -1.3466 -0.9034 -1.3683
  473MPD2     N 7045   1.676   4.322  13.998  0.0165 -0.1788  0.2239
  473MPD2    H5 7046   1.715   4.315  14.091  2.4394 -0.0213 -0.7597
  473MPD2    N1 7047   1.571   4.060  13.598 -0.9079  0.2051 -0.6894
  473MPD2    H7 7048   1.560   4.150  13.551  1.3986  0.7412 -0.1734
  474TMC3    C1 7049   1.705   4.558  14.042 -0.5406 -0.8541  0.1162
  474TMC3    C2 7050   1.658   4.677  14.003  1.0051  0.1815  0.1256
  474TMC3    C3 7051   1.713   0.062  14.064 -0.5149  0.0449 -0.5093
  474TMC3    C4 7052   1.813   4.537  14.120  0.0103  0.2235  0.1027
  474TMC3    C5 7053   1.871   4.647  14.166 -0.0180  0.9242  0.8921
  474TMC3    C6 7054   1.817   0.047  14.150 -0.3361  0.8729  0.1130
  474TMC3     C 7055   1.662   4.449  13.954  0.3119 -0.0776  0.9206
  474TMC3     O 7056   1.600   4.476  13.852  0.2835  0.3009 -0.0894
  474TMC3     H 7057   1.575   4.691  13.935  1.0287 -0.8526 -0.1055
  474TMC3    H1 7058   1.857   4.439  14.123 -2.7073 -0.9987  0.3088
  474TMC3    H2 7059   1.871   0.139  14.168  0.5033 -0.2840  3.5587
  474TMC3    C7 7060   1.999   4.627  14.228  0.5007  0.2938 -0.6208
  474TMC3    C8 7061   1.632   0.185  14.062  0.0222  0.5171  0.2579
  474TMC3    O1 7062   2.067   4.536  14.178 -0.6767 -0.4523 -0.2498
  474TMC3    O2 7063   1.542   0.177  13.980  0.0430  0.3440  0.0084
  475MPD2     C 7064   4.582   1.586   9.787  0.1492 -0.3734  0.2701
  475MPD2    C1 7065   4.605   1.713   9.740  0.3631 -0.4750 -0.7627
  475MPD2    C2 7066   4.537   1.818   9.802 -0.0463 -0.0162  0.2263
  475MPD2    C3 7067   4.447   1.795   9.910  0.3090  0.1297  0.3194
  475MPD2    C4 7068   4.415   1.664   9.934  0.4130  1.0755 -0.3604
  475MPD2    C5 7069   4.481   1.561   9.866 -0.0932 -0.0955 -0.6384
  475MPD2     H 7070   4.536   1.919   9.761  1.9860 -0.3153 -0.5956
  475MPD2    H1 7071   4.342   1.631  10.008  0.3375 -1.9975 -1.8041
  475MPD2    H2 7072   4.619   1.494   9.744  0.6463  0.1882 -0.5084
  475MPD2    H3 7073   4.451   1.459   9.889 -0.9607  0.5148  0.8981
  475MPD2     N 7074   4.380   1.901   9.975 -0.1008 -0.2088  0.6786
  475MPD2    H5 7075   4.322   1.876  10.055 -1.5173 -1.4352 -0.7461
  475MPD2    N1 7076   4.690   1.728   9.632 -0.5089  0.2902 -0.1712
  475MPD2    H7 7077   4.709   1.637   9.591 -1.9012 -0.9219  1.8769
  476TMC3    C1 7078   0.016   1.976   9.626  0.7114 -0.2987  0.7441
  476TMC3    C2 7079   4.708   2.076   9.533  0.2654  0.5180 -0.3979
  476TMC3    C3 7080   4.666   2.191   9.589  0.3025  0.3975  0.0336
  476TMC3    C4 7081   0.039   1.997   9.756 -0.5397 -0.0378  0.6932
  476TMC3    C5 7082   0.004   2.120   9.803  0.0213 -0.1130 -0.0702
  476TMC3    C6 7083   4.668   2.217   9.723  0.1857  0.0136 -0.3888
  476TMC3     C 7084   0.025   1.838   9.568 -0.3297 -0.1005  0.1140
  476TMC3     O 7085   0.064   1.834   9.451  0.7368 -0.0089  0.2431
  476TMC3     H 7086   4.698   2.052   9.428 -1.6837  3.4255 -0.8656
  476TMC3    H1 7087   0.077   1.924   9.827  1.2911 -0.6001 -0.8701
  476TMC3    H2 7088   4.632   2.310   9.765  1.2997  0.6555 -0.8833
  476TMC3    C7 7089   4.717   2.137   9.945  0.0491  0.0130 -0.2973
  476TMC3    C8 7090   4.554   2.244   9.520  0.2835  0.0941  0.5996
  476TMC3    O1 7091   0.004   2.042  10.023 -0.3353 -0.3367  0.1154
  476TMC3    O2 7092   4.522   2.181   9.418  0.4967  0.0305 -0.8708
  477MPD2     C 7093   2.413   3.749  11.328 -0.7708  0.8380  0.3645
  477MPD2    C1 7094   2.340   3.638  11.364  0.2353 -0.6449 -0.7317
  477MPD2    C2 7095   2.355   3.590  11.496 -0.0593 -0.1052  0.4000
  477MPD2    C3 7096   2.422   3.667  11.591  0.2107 -0.0636  0.4118
  477MPD2    C4 7097   2.480   3.786  11.555  0.6209  0.3957  1.4957
  477MPD2    C5 7098   2.480   3.820  11.418 -0.5192 -0.0009 -0.8627
  477MPD2     H 7099   2.300   3.500  11.520 -0.4250 -0.4514 -1.7046
  477MPD2    H1 7100   2.539   3.847  11.622 -1.5223  1.4657  2.4087
  477MPD2    H2 7101   2.423   3.778  11.224 -1.8919  0.8010  0.2509
  477MPD2    H3 7102   2.533   3.905  11.375 -1.0861  1.6791  1.7235
  477MPD2     N 7103   2.426   3.625  11.726  0.0144  0.7484 -0.8919
  477MPD2    H5 7104   2.392   3.532  11.747 -1.2068  1.5946  0.9098
  477MPD2    N1 7105   2.252   3.587  11.265 -0.1217 -0.0991  0.3427
  477MPD2    H7 7106   2.248   3.638  11.177 -0.3589  0.4646  0.6741
  478TMC3    C1 7107   2.063   3.483  11.182 -0.1642 -0.5042 -0.2503
  478TMC3    C2 7108   1.942   3.432  11.223  0.4470  0.2204  0.0750
  478TMC3    C3 7109   1.833   3.493  11.172  0.1451 -0.4668 -0.6781
  478TMC3    C4 7110   2.076   3.574  11.077 -0.1438  0.2711  0.1922
  478TMC3    C5 7111   1.966   3.629  11.025 -0.1146 -0.1989 -0.2083
  478TMC3    C6 7112   1.841   3.595  11.076 -0.0914  0.3038  0.7159
  478TMC3     C 7113   2.168   3.481  11.275 -0.7035 -0.0512 -0.4554
  478TMC3     O 7114   2.172   3.402  11.369  0.3519 -0.2494 -0.8487
  478TMC3     H 7115   1.925   3.376  11.315 -0.2855  1.7809  0.9017
  478TMC3    H1 7116   2.174   3.585  11.032  0.3443 -1.5083  0.7989
  478TMC3    H2 7117   1.754   3.653  11.047  0.9435  1.0607 -0.8546
  478TMC3    C7 7118   1.982   3.726  10.922 -0.6010  0.3891  0.0298
  478TMC3    C8 7119   1.736   3.520  11.274 -1.0026 -0.2197 -0.6389
  478TMC3    O1 7120   2.093   3.772  10.911 -0.8670  0.2777 -0.2067
  478TMC3    O2 7121   1.682   3.422  11.318 -0.5366  0.6956 -0.2686
  479MPD2     C 7122   1.667   1.675  14.789  0.0041  0.6280  0.5093
  479MPD2    C1 7123   1.594   1.612  14.887  0.0236  0.2188 -0.0831
  479MPD2    C2 7124   1.651   1.584  15.009  0.1956 -0.0211 -0.0109
  479MPD2    C3 7125   1.774   1.641  15.042 -0.8259  0.3258  0.6105
  479MPD2    C4 7126   1.844   1.707  14.945 -0.0054  0.6439  0.1459
  479MPD2    C5 7127   1.791   1.720  14.818 -0.1152  1.2466 -0.0870
  479MPD2     H 7128   1.598   1.531  15.087 -1.0883 -1.3916 -1.8159
  479MPD2    H1 7129   1.946   1.744  14.951  0.8968 -2.0128  1.1888
  479MPD2    H2 7130   1.639   1.684  14.684 -2.6905  1.1249  1.2794
  479MPD2    H3 7131   1.855   1.760  14.741  1.1884  0.0372  0.3785
  479MPD2     N 7132   1.836   1.639  15.171 -0.0413 -0.4391  0.1502
  479MPD2    H5 7133   1.929   1.678  15.181 -0.6598  0.0534  4.1394
  479MPD2    N1 7134   1.459   1.581  14.857 -0.7135 -0.6610 -0.3355
  479MPD2    H7 7135   1.432   1.602  14.762 -1.9793 -0.8209 -0.0120
  480TMC3    C1 7136   1.485   1.467  15.421  0.4288  0.5293  0.4004
  480TMC3    C2 7137   1.412   1.578  15.404  0.2062  0.0868 -0.7421
  480TMC3    C3 7138   1.461   1.685  15.340  0.2279 -0.0000 -0.0332
  480TMC3    C4 7139   1.612   1.454  15.378 -0.7275 -0.0121  0.1668
  480TMC3    C5 7140   1.664   1.566  15.315 -0.6648  0.1460 -0.3455
  480TMC3    C6 7141   1.593   1.683  15.302 -0.0571 -0.0773  0.3537
  480TMC3     C 7142   1.420   1.353  15.479  0.1011 -0.0586 -0.4941
  480TMC3     O 7143   1.501   1.278  15.533 -0.1506 -0.4770  0.6153
  480TMC3     H 7144   1.304   1.578  15.416  0.2872 -1.1303 -0.0295
  480TMC3    H1 7145   1.671   1.366  15.403 -1.0284 -0.3823 -0.4103
  480TMC3    H2 7146   1.634   1.777  15.266  1.9315 -0.8270  0.6658
  480TMC3    C7 7147   1.798   1.560  15.273  0.3223 -0.4942  0.4039
  480TMC3    C8 7148   1.365   1.777  15.270  0.1158 -0.4006 -0.1511
  480TMC3    O1 7149   1.875   1.518  15.361 -0.0210  0.1534 -0.1936
  480TMC3    O2 7150   1.255   1.797  15.319 -0.5741 -0.2997  0.6104
  481MPD2     C 7151   2.859   0.133  13.929  0.4789 -0.6790  0.3976
  481MPD2    C1 7152   2.821   0.246  13.994 -0.9491  0.2215 -0.9267
  481MPD2    C2 7153   2.895   0.297  14.098  0.9839  0.3188  0.4529
  481MPD2    C3 7154   3.020   0.247  14.128  0.0355 -0.4516 -0.3225
  481MPD2    C4 7155   3.053   0.121  14.070  1.2281 -0.3108  0.0798
  481MPD2    C5 7156   2.969   0.067  13.973  0.4573 -0.2126 -0.3511
  481MPD2     H 7157   2.874   0.394  14.141  1.7799  0.5900  0.2223
  481MPD2    H1 7158   3.141   0.062  14.092  2.3683  2.2270  2.3673
  481MPD2    H2 7159   2.809   0.105  13.837 -0.2898  5.8751 -1.2085
  481MPD2    H3 7160   2.984   4.694  13.933 -1.8253 -0.3945 -0.7185
  481MPD2     N 7161   3.087   0.321  14.227 -0.6186  0.8450 -0.2715
  481MPD2    H5 7162   3.038   0.398  14.272 -2.4520 -0.8515  0.6752
  481MPD2    N1 7163   2.706   0.312  13.946  0.4057  0.2802  0.5347
  481MPD2    H7 7164   2.643   0.268  13.880 -0.2142  0.9426  0.6860
  482TMC3    C1 7165   2.520   0.461  13.965  0.2477  0.0202 -0.7582
  482TMC3    C2 7166   2.446   0.361  13.915 -0.7204  0.5402 -0.0625
  482TMC3    C3 7167   2.317   0.386  13.885 -0.0511  0.1617 -0.1901
  482TMC3    C4 7168   2.474   0.588  13.984 -0.8258  0.0464 -0.8358
  482TMC3    C5 7169   2.333   0.605  13.964 -0.4389 -0.0737 -0.5157
  482TMC3    C6 7170   2.267   0.510  13.894 -0.0118 -0.7082  0.4879
  482TMC3     C 7171   2.659   0.436  13.998 -0.0534  0.0741 -0.4034
  482TMC3     O 7172   2.714   0.525  14.054 -0.1644  0.8276 -0.2438
  482TMC3     H 7173   2.480   0.260  13.936  0.0422  1.2457  2.1102
  482TMC3    H1 7174   2.533   0.653  14.048  0.1372  0.9709 -2.6892
  482TMC3    H2 7175   2.174   0.544  13.850  0.2964  0.4639  0.7422
  482TMC3    C7 7176   2.287   0.742  13.964 -0.3028 -0.3868  0.6141
  482TMC3    C8 7177   2.278   0.305  13.771 -0.0589 -0.2900 -0.2277
  482TMC3    O1 7178   2.170   0.772  13.986  0.1502 -0.0090  0.0786
  482TMC3    O2 7179   2.363   0.228  13.731  0.3885  0.0690 -0.5378
  483TMC3    C1 7180   0.240   4.012   0.318  0.2093  0.3853 -0.2374
  483TMC3    C2 7181   0.224   4.147   0.338  0.5274  0.7212 -0.3601
  483TMC3    C3 7182   0.274   4.206   0.455  0.5470 -0.3143  0.1639
  483TMC3    C4 7183   0.312   3.934   0.404 -0.3780  0.9198  0.3813
  483TMC3    C5 7184   0.356   4.003   0.518  0.2788  0.1574  0.1938
  483TMC3    C6 7185   0.335   4.132   0.550  0.0077  0.6955  0.3433
  483TMC3     C 7186   0.151   3.949   0.227  0.2054  0.1401 -0.3790
  483TMC3     O 7187   0.095   4.017   0.141  0.7874 -0.0214 -0.3578
  483TMC3     H 7188   0.165   4.214   0.276 -0.5461  0.2160  0.1165
  483TMC3    H1 7189   0.353   3.838   0.374 -1.2206  0.9179 -0.7621
  483TMC3    H2 7190   0.372   4.171   0.644  4.2078  0.7417 -1.3467
  483TMC3    C7 7191   0.466   3.942   0.598  0.0287 -0.6879  0.3522
  483TMC3    C8 7192   0.335   4.333   0.440  0.1515 -0.7737  0.6861
  483TMC3    O1 7193   0.541   4.024   0.655 -0.1507  0.1337  0.3977
  483TMC3    O2 7194   0.373   4.369   0.328  0.5196 -0.4496 -0.1101
  484MPD2     C 7195   2.826   2.947  12.565  0.3077 -0.5752 -0.2453
  484MPD2    C1 7196   2.918   2.894  12.651  0.4267  0.3170  0.0832
  484MPD2    C2 7197   3.045   2.948  12.670 -0.2216  0.1985 -0.0417
  484MPD2    C3 7198   3.083   3.061  12.602 -0.1407 -0.4134 -0.2509
  484MPD2    C4 7199   2.985   3.117  12.526 -0.4248  0.2822 -0.6654
  484MPD2    C5 7200   2.861   3.066  12.508  0.6267 -0.6382 -0.4287
  484MPD2     H 7201   3.113   2.895  12.735  0.7238  1.5361  0.0560
  484MPD2    H1 7202   3.014   3.217  12.495 -2.5273  0.7760 -1.0254
  484MPD2    H2 7203   2.723   2.915  12.560 -0.2615  1.4357 -1.3814
  484MPD2    H3 7204   2.793   3.127  12.451 -0.9676 -1.2524  0.8011
  484MPD2     N 7205   3.210   3.114  12.606  0.5181 -0.3963  0.6652
  484MPD2    H5 7206   3.224   3.193  12.544 -1.8876 -2.6680 -2.7896
  484MPD2    N1 7207   2.876   2.776  12.730 -0.2848 -0.6250 -0.1720
  484MPD2    H7 7208   2.797   2.730  12.686  0.5628 -0.0399 -2.2959
  485TMC3    C1 7209   3.437   3.134  12.650 -0.5300  0.2912  0.3639
  485TMC3    C2 7210   3.533   3.163  12.741 -0.1857  0.4459 -0.1756
  485TMC3    C3 7211   3.657   3.196  12.701  0.4270 -0.1692 -0.4352
  485TMC3    C4 7212   3.464   3.140  12.510 -0.4654 -0.1732  0.3706
  485TMC3    C5 7213   3.587   3.187  12.475 -0.7242  0.2886  0.7691
  485TMC3    C6 7214   3.684   3.221  12.574  0.3133  0.3926  0.8777
  485TMC3     C 7215   3.307   3.080  12.690  0.3712  0.6043 -0.2948
  485TMC3     O 7216   3.308   3.001  12.784  0.2247  0.0418 -0.4558
  485TMC3     H 7217   3.507   3.153  12.846  0.8502  0.3623  0.0643
  485TMC3    H1 7218   3.402   3.097  12.432 -0.0437 -0.1599  0.0244
  485TMC3    H2 7219   3.785   3.251  12.549  0.2030  0.7568  0.8752
  485TMC3    C7 7220   3.641   3.120  12.368  0.3240 -0.0704 -0.0961
  485TMC3    C8 7221   3.747   3.098  12.763 -1.8871  0.2411 -0.5772
  485TMC3    O1 7222   3.749   3.072  12.395  0.5283  0.5092 -0.7219
  485TMC3    O2 7223   3.744   3.065  12.881  0.5068 -0.2377 -0.0918
  486MPD2     C 7224   1.221   1.639  12.576  0.0372 -0.5689  0.2997
  486MPD2    C1 7225   1.110   1.570  12.531 -0.1068  0.1483 -0.1659
  486MPD2    C2 7226   1.037   1.629  12.427  0.5490 -0.3868 -0.1211
  486MPD2    C3 7227   1.059   1.758  12.390 -0.6116 -0.7336  0.3115
  486MPD2    C4 7228   1.175   1.824  12.432 -0.5514 -0.7437  0.3998
  486MPD2    C5 7229   1.258   1.760  12.521 -0.2575 -0.3281 -0.6429
  486MPD2     H 7230   0.945   1.580  12.396 -0.1891  1.2171 -0.4493
  486MPD2    H1 7231   1.204   1.918  12.385  1.7145 -2.2576 -1.2201
  486MPD2    H2 7232   1.280   1.599  12.658 -1.1325 -0.3213  1.2634
  486MPD2    H3 7233   1.347   1.809  12.557 -0.7589 -0.7307  1.1502
  486MPD2     N 7234   0.953   1.814  12.323  0.2818 -0.1032  0.2349
  486MPD2    H5 7235   0.874   1.754  12.301  0.6074 -0.7304  0.7889
  486MPD2    N1 7236   1.087   1.439  12.579 -0.0073 -0.1602  0.0603
  486MPD2    H7 7237   1.158   1.410  12.645  0.1219  2.3133  1.0035
  487TMC3    C1 7238   0.994   1.231  12.614 -0.3394  0.1706  0.2432
  487TMC3    C2 7239   0.988   1.124  12.539 -0.0293 -0.2492  0.0487
  487TMC3    C3 7240   1.020   1.004  12.599 -0.5074  0.3393 -0.6962
  487TMC3    C4 7241   0.996   1.226  12.749 -0.5220 -0.0265  0.5080
  487TMC3    C5 7242   1.019   1.109  12.805  0.7136 -0.1617 -0.2763
  487TMC3    C6 7243   1.059   1.006  12.730  0.1272 -0.0976 -0.1424
  487TMC3     C 7244   0.983   1.354  12.543  0.2805 -0.3421 -0.1409
  487TMC3     O 7245   0.899   1.365  12.454 -0.8445 -0.3345 -0.0529
  487TMC3     H 7246   0.975   1.132  12.432  3.2419  0.1710 -0.3077
  487TMC3    H1 7247   1.002   1.318  12.806 -1.7676  0.1995  0.2714
  487TMC3    H2 7248   1.068   0.912  12.783  3.3416 -0.6449 -1.6318
  487TMC3    C7 7249   0.962   1.086  12.941  0.1799  0.2258 -0.3368
  487TMC3    C8 7250   1.071   0.906  12.501 -0.2095  0.0516  0.0588
  487TMC3    O1 7251   0.999   0.980  12.997  0.4238 -0.3776 -0.1268
  487TMC3    O2 7252   1.126   0.958  12.405  0.6004  0.5728  0.0840
  488MPD2     C 7253   1.029   3.439  15.970 -0.5130  0.1845  0.1697
  488MPD2    C1 7254   1.034   3.539  16.061 -0.1367  0.3920  0.0657
  488MPD2    C2 7255   1.033   3.501  16.192 -0.3827  0.4417 -0.6497
  488MPD2    C3 7256   1.020   3.373  16.238  0.3586  0.4022 -0.0149
  488MPD2    C4 7257   1.010   3.279  16.146 -0.2556  0.1987  0.0523
  488MPD2    C5 7258   1.008   3.310  16.011  0.6202 -0.2204 -0.0316
  488MPD2     H 7259   1.044   3.572  16.272 -2.7534  0.9855 -0.8275
  488MPD2    H1 7260   1.010   3.174  16.174  1.1892  0.5968  1.5420
  488MPD2    H2 7261   1.023   3.461  15.864  0.4846  3.0284  0.7042
  488MPD2    H3 7262   1.011   3.229  15.939 -1.3282 -0.9387  0.7162
  488MPD2     N 7263   1.024   3.351  16.377  0.9825 -0.3282  0.2812
  488MPD2    H5 7264   1.052   3.437  16.424  1.9600  0.4586 -1.7543
  488MPD2    N1 7265   1.054   3.673  16.037 -0.7966 -0.1100  0.3786
  488MPD2    H7 7266   1.070   3.739  16.112  0.5902 -1.4559  1.2736
  489TMC3    C1 7267   0.989   3.240  16.583  0.4601 -0.1755 -0.1900
  489TMC3    C2 7268   1.091   3.314  16.643  0.7909 -0.0729  0.0872
  489TMC3    C3 7269   1.076   3.349  16.774  0.2779 -1.0908  0.5287
  489TMC3    C4 7270   0.885   3.182  16.656 -0.4535  0.0238  0.0247
  489TMC3    C5 7271   0.878   3.217  16.787 -0.0831  0.3780 -0.0913
  489TMC3    C6 7272   0.975   3.299  16.852  0.0511 -0.1581  0.5730
  489TMC3     C 7273   0.989   3.231  16.439  0.4292  0.5461  0.2953
  489TMC3     O 7274   0.939   3.132  16.392  0.2311  0.2729  0.0237
  489TMC3     H 7275   1.180   3.331  16.583  2.0033  2.5348  2.6215
  489TMC3    H1 7276   0.810   3.125  16.603  0.1691  1.5596 -2.5512
  489TMC3    H2 7277   0.974   3.317  16.958 -1.2695 -1.1307  0.7320
  489TMC3    C7 7278   0.785   3.152  16.865 -0.5642 -0.5766  0.3846
  489TMC3    C8 7279   1.167   3.441  16.831  0.5655 -0.1183 -0.7419
  489TMC3    O1 7280   0.759   3.039  16.829 -0.1601 -0.4549 -0.5213
  489TMC3    O2 7281   1.275   3.458  16.774  0.4596 -0.5054  0.1403
  490MPD2     C 7282   2.555   2.300  17.309  0.1212 -0.0730  0.0813
  490MPD2    C1 7283   2.456   2.367  17.384 -0.8230  0.4658  0.0155
  490MPD2    C2 7284   2.485   2.498  17.424  0.9286 -0.5500  0.4149
  490MPD2    C3 7285   2.603   2.559  17.382 -0.1286  0.2674 -0.4762
  490MPD2    C4 7286   2.691   2.493  17.303 -0.1057  0.4526  0.4914
  490MPD2    C5 7287   2.672   2.360  17.276  0.2686  0.1795  0.0721
  490MPD2     H 7288   2.411   2.553  17.481  0.9194 -0.2484  0.1160
  490MPD2    H1 7289   2.779   2.548  17.271  0.7781 -1.9239 -1.1129
  490MPD2    H2 7290   2.552   2.197  17.278  1.8564  0.0016 -0.3547
  490MPD2    H3 7291   2.752   2.312  17.219  1.1530  0.0697  1.4103
  490MPD2     N 7292   2.644   2.692  17.417 -0.1492  0.2436 -0.2907
  490MPD2    H5 7293   2.740   2.715  17.392 -0.2065 -1.7643 -2.3768
  490MPD2    N1 7294   2.334   2.304  17.421 -0.3711 -0.9379  0.5319
  490MPD2    H7 7295   2.272   2.369  17.469  0.0706 -0.1759  0.0843
  491TMC3    C1 7296   2.154   2.150  17.419 -0.1856 -0.9809 -0.7908
  491TMC3    C2 7297   2.099   2.225  17.522 -0.4949 -0.2663  0.0615
  491TMC3    C3 7298   1.965   2.212  17.544 -0.9109  0.2699 -0.0442
  491TMC3    C4 7299   2.082   2.066  17.343  0.1947  0.4001 -0.2001
  491TMC3    C5 7300   1.941   2.059  17.369 -0.0069  0.4153 -0.4841
  491TMC3    C6 7301   1.886   2.130  17.469  0.2785 -0.2331  0.5187
  491TMC3     C 7302   2.290   2.182  17.379 -0.7208 -0.4297  0.3937
  491TMC3     O 7303   2.346   2.102  17.304  0.4925  0.3086  0.0861
  491TMC3     H 7304   2.162   2.278  17.592 -0.6248  0.9595 -0.7324
  491TMC3    H1 7305   2.134   2.036  17.253  1.9387 -1.1319  1.3217
  491TMC3    H2 7306   1.779   2.132  17.484  0.5457  0.3749  2.3255
  491TMC3    C7 7307   1.850   2.018  17.260 -0.0780 -0.2357  0.3166
  491TMC3    C8 7308   1.898   2.291  17.646 -0.8294 -0.0036  0.4948
  491TMC3    O1 7309   1.743   2.074  17.263  0.3297  0.3119  0.1338
  491TMC3    O2 7310   1.800   2.242  17.696 -0.1086 -0.2353  0.0887
  492MPD2     C 7311   2.030   2.719  10.731 -0.1434  0.0269  0.3962
  492MPD2    C1 7312   1.914   2.654  10.706 -0.6207 -0.3808  0.2469
  492MPD2    C2 7313   1.845   2.606  10.814 -0.6451  0.2297  0.0347
  492MPD2    C3 7314   1.885   2.634  10.944 -0.0220 -0.1373 -0.0599
  492MPD2    C4 7315   2.006   2.695  10.966 -0.0904  1.1028 -0.2224
  492MPD2    C5 7316   2.074   2.736  10.856  0.8420  0.0794 -0.9712
  492MPD2     H 7317   1.751   2.555  10.795 -0.8658  2.0189 -3.5338
  492MPD2    H1 7318   2.045   2.704  11.067 -0.6712 -1.3448  0.2199
  492MPD2    H2 7319   2.089   2.762  10.651  0.7092 -2.1269 -0.1267
  492MPD2    H3 7320   2.175   2.776  10.859  1.3575 -1.3059  0.0265
  492MPD2     N 7321   1.822   2.582  11.052 -0.6150  0.1409 -0.0689
  492MPD2    H5 7322   1.843   2.636  11.136  1.9932  0.6800 -1.0891
  492MPD2    N1 7323   1.875   2.630  10.572  0.4169 -0.0025  0.2732
  492MPD2    H7 7324   1.952   2.649  10.510  0.4699  1.4684  0.7771
  493TMC3    C1 7325   1.740   2.603  10.387  0.9047  0.2754 -0.5143
  493TMC3    C2 7326   1.833   2.676  10.309 -0.8772  0.0878  0.6671
  493TMC3    C3 7327   1.834   2.646  10.177 -0.0692 -0.0879  0.1217
  493TMC3    C4 7328   1.648   2.516  10.326 -0.0431 -0.2803 -0.0454
  493TMC3    C5 7329   1.648   2.500  10.194  0.2046  0.7703 -0.1326
  493TMC3    C6 7330   1.743   2.562  10.119 -0.7529 -0.5550 -0.0098
  493TMC3     C 7331   1.753   2.587  10.526  0.3898  0.3410 -0.0320
  493TMC3     O 7332   1.651   2.551  10.585 -0.4601 -0.0281  0.3495
  493TMC3     H 7333   1.901   2.744  10.358  1.9007 -1.6205 -0.8392
  493TMC3    H1 7334   1.561   2.494  10.386 -0.0907 -0.0493 -0.0283
  493TMC3    H2 7335   1.759   2.531  10.016  1.2703  0.2394  0.0585
  493TMC3    C7 7336   1.539   2.438  10.117  0.2280 -0.1166  0.6749
  493TMC3    C8 7337   1.958   2.667  10.107 -0.0688 -0.4913  0.3602
  493TMC3    O1 7338   1.521   2.481  10.004 -0.2575  0.4014  0.4156
  493TMC3    O2 7339   1.987   2.577  10.030  0.0903  0.1156  0.1127
  494TMC3    C1 7340   2.779   0.070   0.518  0.1356  0.3632  0.6485
  494TMC3    C2 7341   2.734   0.014   0.627 -0.6052  0.2856 -0.0949
  494TMC3    C3 7342   2.667   4.623   0.618  0.0653 -0.3826 -0.1438
  494TMC3    C4 7343   2.790   0.010   0.401 -0.0922 -0.7433 -0.3559
  494TMC3    C5 7344   2.747   4.608   0.403 -0.1811 -0.0771  0.5132
  494TMC3    C6 7345   2.676   4.545   0.504 -0.3088 -0.2096 -0.2793
  494TMC3     C 7346   2.769   0.215   0.531  0.5840 -0.3993  0.4538
  494TMC3     O 7347   2.773   0.265   0.648 -0.4565 -0.0193 -0.2459
  494TMC3     H 7348   2.715   0.067   0.720 -3.7412  1.9420 -1.6856
  494TMC3    H1 7349   2.836   0.055   0.314 -0.0694  0.4189  0.2558
  494TMC3    H2 7350   2.630   4.448   0.501 -1.7848  0.4183  1.8998
  494TMC3    C7 7351   2.750   4.554   0.266 -0.2466 -0.1775  0.3962
  494TMC3    C8 7352   2.595   4.563   0.729 -0.1055 -0.2625 -0.2990
  494TMC3    O1 7353   2.774   4.632   0.175  0.0948  0.7195 -0.0463
  494TMC3    O2 7354   2.500   4.494   0.695 -0.3511  0.0303  0.3437
  495TMC3    C1 7355   1.678   1.845  14.359 -0.4281 -0.8336  0.0222
  495TMC3    C2 7356   1.585   1.873  14.267  0.3458 -0.3167  0.3720
  495TMC3    C3 7357   1.470   1.942  14.297  0.1527 -0.1764 -0.2975
  495TMC3    C4 7358   1.669   1.894  14.483  0.3016 -0.2447 -0.5864
  495TMC3    C5 7359   1.557   1.965  14.513  0.1167 -0.8713 -0.3161
  495TMC3    C6 7360   1.456   1.993  14.426  0.0056  0.8500  0.4706
  495TMC3     C 7361   1.683   1.702  14.378 -0.3591  0.8621 -0.3000
  495TMC3     O 7362   1.613   1.633  14.310  0.5164 -0.0293  0.2365
  495TMC3     H 7363   1.595   1.824  14.171  1.1121 -0.4592  0.5267
  495TMC3    H1 7364   1.746   1.867  14.554 -0.1925 -3.4314 -1.2570
  495TMC3    H2 7365   1.374   2.057  14.457 -0.7363  1.1234 -2.0441
  495TMC3    C7 7366   1.531   1.975  14.659  0.5184 -0.1157 -0.5661
  495TMC3    C8 7367   1.345   1.879  14.259 -0.5745  0.2249  0.1728
  495TMC3    O1 7368   1.629   1.974  14.728  0.3260  0.2656  0.4363
  495TMC3    O2 7369   1.244   1.934  14.297  0.0671  0.1270  0.0606
  496MPD2     C 7370   3.447   1.769  14.927 -0.4164  0.4627 -0.5239
  496MPD2    C1 7371   3.496   1.702  15.039  0.7944  0.3372  0.3036
  496MPD2    C2 7372   3.407   1.645  15.126  0.4792 -0.0116  0.7096
  496MPD2    C3 7373   3.274   1.674  15.123  0.6113  0.3187  0.5009
  496MPD2    C4 7374   3.225   1.741  15.012 -0.0373  0.5170  0.9691
  496MPD2    C5 7375   3.315   1.795  14.920 -0.3181 -0.4404  0.0295
  496MPD2     H 7376   3.444   1.560  15.182 -1.5598 -0.7721  0.9015
  496MPD2    H1 7377   3.118   1.759  15.006 -0.0886 -0.0240  0.3404
  496MPD2    H2 7378   3.516   1.811  14.855  0.1968 -2.4827 -1.6535
  496MPD2    H3 7379   3.282   1.869  14.848  1.8288 -1.8385 -2.3753
  496MPD2     N 7380   3.183   1.618  15.216  0.4721  0.2207  0.0189
  496MPD2    H5 7381   3.087   1.617  15.183  0.3694  1.2850  0.2974
  496MPD2    N1 7382   3.632   1.669  15.046 -0.3643 -0.0465  0.5845
  496MPD2    H7 7383   3.688   1.692  14.964  0.6929 -1.7890  0.8113
  497TMC3    C1 7384   3.123   1.468  15.390 -0.4221  0.3142  0.7342
  497TMC3    C2 7385   3.050   1.379  15.314  0.1051 -0.0890 -0.4164
  497TMC3    C3 7386   2.979   1.288  15.383  0.8935  0.4989 -0.1731
  497TMC3    C4 7387   3.138   1.455  15.527  0.3476  0.2506 -0.3022
  497TMC3    C5 7388   3.062   1.360  15.589 -0.4175  0.2524  0.0641
  497TMC3    C6 7389   2.975   1.279  15.518  0.0915 -0.0709 -0.6090
  497TMC3     C 7390   3.221   1.557  15.333  0.3887  0.2268 -0.1454
  497TMC3     O 7391   3.333   1.561  15.383  0.6357 -0.0252  0.0516
  497TMC3     H 7392   3.066   1.368  15.207 -0.1000 -2.0699 -0.2267
  497TMC3    H1 7393   3.208   1.516  15.582  0.7276  0.0567 -0.5676
  497TMC3    H2 7394   2.910   1.210  15.570  0.4844  1.2278  1.6346
  497TMC3    C7 7395   3.091   1.334  15.731 -1.0175  0.7484  0.5498
  497TMC3    C8 7396   2.904   1.185  15.311 -0.0829  0.4498 -0.1255
  497TMC3    O1 7397   2.990   1.289  15.790  0.1756 -0.0457 -0.0370
  497TMC3    O2 7398   2.791   1.164  15.350 -0.5871  0.2383 -0.6371
  498MPD2     C 7399   3.441   2.866   9.052  0.8139  0.0452  0.0933
  498MPD2    C1 7400   3.531   2.799   9.128  0.7962  0.5389 -0.1799
  498MPD2    C2 7401   3.500   2.673   9.167  0.5081 -0.9409 -0.6123
  498MPD2    C3 7402   3.374   2.630   9.154 -0.0667  0.4408  0.3194
  498MPD2    C4 7403   3.280   2.699   9.081  0.6259  0.5121  0.1391
  498MPD2    C5 7404   3.314   2.821   9.034 -0.1527 -0.0141  0.8691
  498MPD2     H 7405   3.574   2.617   9.224 -0.9952 -0.3701  1.9337
  498MPD2    H1 7406   3.177   2.663   9.071  0.8408 -0.4225  1.3383
  498MPD2    H2 7407   3.459   2.957   8.995 -2.0378 -1.5202 -3.3523
  498MPD2    H3 7408   3.245   2.887   8.983  1.7902  0.9293 -0.5465
  498MPD2     N 7409   3.339   2.499   9.202  0.3798 -0.3026  0.0287
  498MPD2    H5 7410   3.406   2.457   9.265  0.3885  0.1934  0.3483
  498MPD2    N1 7411   3.657   2.846   9.163 -0.7913  0.1746 -0.3008
  498MPD2    H7 7412   3.720   2.772   9.192  1.5499  1.4593 -2.1428
  499TMC3    C1 7413   3.834   3.019   9.173  0.5044  0.2177 -0.4772
  499TMC3    C2 7414   3.939   2.936   9.138  0.1161 -0.3791  0.2459
  499TMC3    C3 7415   4.063   2.998   9.112 -0.5972 -0.0253 -0.0652
  499TMC3    C4 7416   3.848   3.147   9.207 -0.8995  0.2588 -0.8375
  499TMC3    C5 7417   3.975   3.200   9.200  0.7767  0.2200  0.5852
  499TMC3    C6 7418   4.077   3.134   9.135 -0.3768 -0.5989  0.3752
  499TMC3     C 7419   3.699   2.976   9.141  0.1758 -0.3253  0.0749
  499TMC3     O 7420   3.633   3.076   9.115  0.6012 -0.0503 -0.0662
  499TMC3     H 7421   3.921   2.833   9.108 -2.6904 -0.8967  3.7078
  499TMC3    H1 7422   3.764   3.213   9.223 -1.5311 -0.7953  0.1732
  499TMC3    H2 7423   4.173   3.184   9.133  0.0529 -1.3850  1.3637
  499TMC3    C7 7424   3.993   3.340   9.222  0.9568  0.2027  0.0129
  499TMC3    C8 7425   4.163   2.921   9.043  0.1675 -0.0583  0.4643
  499TMC3    O1 7426   4.078   3.391   9.157  0.5146 -0.2798 -0.1274
  499TMC3    O2 7427   4.129   2.811   9.000 -0.3177 -0.5919 -0.4508
  500MPD2     C 7428   0.827   3.482   9.739  0.6990 -0.8678  0.3267
  500MPD2    C1 7429   0.805   3.610   9.713  0.0946  0.0800  0.3207
  500MPD2    C2 7430   0.694   3.651   9.636 -0.2565  1.0540  0.4144
  500MPD2    C3 7431   0.611   3.554   9.593 -0.2611  0.5199 -0.4210
  500MPD2    C4 7432   0.632   3.421   9.618  0.4182  0.6228  0.3839
  500MPD2    C5 7433   0.743   3.382   9.698  0.4169  0.2012  0.1545
  500MPD2     H 7434   0.676   3.758   9.632 -0.0207  1.2249  3.3966
  500MPD2    H1 7435   0.564   3.346   9.580  0.9757 -0.0005  0.6303
  500MPD2    H2 7436   0.899   3.445   9.810  0.3915  0.1248  1.1525
  500MPD2    H3 7437   0.760   3.279   9.727 -1.0234 -0.2343 -0.5855
  500MPD2     N 7438   0.484   3.590   9.534  0.1742  0.8412 -0.2518
  500MPD2    H5 7439   0.415   3.518   9.516  0.9022  0.1289 -0.1720
  500MPD2    N1 7440   0.889   3.715   9.756 -0.6191 -0.1412 -0.0846
  500MPD2    H7 7441   0.867   3.807   9.719  2.5851  0.7759  0.2588
  501TMC3    C1 7442   1.055   3.828   9.875  0.0334  0.1126  0.9012
  501TMC3    C2 7443   0.978   3.939   9.883  0.0678  0.2641  0.7771
  501TMC3    C3 7444   1.036   4.061   9.894 -0.2900 -0.9019  0.0847
  501TMC3    C4 7445   1.189   3.838   9.858  0.4561  0.2052 -0.4137
  501TMC3    C5 7446   1.245   3.965   9.861 -0.5914 -0.4251 -0.5663
  501TMC3    C6 7447   1.170   4.077   9.880  0.3643 -0.4164 -0.2888
  501TMC3     C 7448   0.995   3.700   9.842  0.1772 -0.1239 -0.4900
  501TMC3     O 7449   1.049   3.602   9.888  0.0057  0.3800 -0.2058
  501TMC3     H 7450   0.871   3.923   9.892  0.2432 -0.3925  1.6217
  501TMC3    H1 7451   1.251   3.750   9.846  0.2473 -0.3623  2.7765
  501TMC3    H2 7452   1.209   4.177   9.866 -0.0455 -0.3734 -1.1871
  501TMC3    C7 7453   1.381   3.967   9.908  0.2713  0.0289 -0.0055
  501TMC3    C8 7454   0.941   4.159   9.840  0.3598 -0.8125  0.0532
  501TMC3    O1 7455   1.435   3.857   9.919  0.4937  0.5654 -0.2170
  501TMC3    O2 7456   0.855   4.113   9.768  0.0680  0.2123 -0.3886
  502TMC3    C1 7457   0.825   2.189  14.876 -0.5201  0.2128 -0.0330
  502TMC3    C2 7458   0.803   2.238  14.751 -0.3257  0.0649 -0.2279
  502TMC3    C3 7459   0.678   2.287  14.727 -0.7060  0.2431 -0.1301
  502TMC3    C4 7460   0.713   2.167  14.962  1.2583  0.2918 -0.2367
  502TMC3    C5 7461   0.593   2.195  14.921 -0.1595 -0.7596  0.5024
  502TMC3    C6 7462   0.571   2.263  14.803 -0.3384  0.1776  0.1990
  502TMC3     C 7463   0.940   2.259  14.943 -0.2431 -0.1814  0.0982
  502TMC3     O 7464   1.027   2.300  14.870 -0.4940 -0.7375  0.0111
  502TMC3     H 7465   0.890   2.252  14.687  0.3408 -1.6509  0.2935
  502TMC3    H1 7466   0.728   2.112  15.054  0.0834  2.8336  1.4884
  502TMC3    H2 7467   0.469   2.284  14.772 -0.2698  1.1473  0.6527
  502TMC3    C7 7468   0.489   2.136  15.008  0.2277 -0.3375 -0.6276
  502TMC3    C8 7469   0.687   2.411  14.660 -0.4995  0.6849  0.1196
  502TMC3    O1 7470   0.521   2.039  15.071 -0.6361  0.4711 -0.0939
  502TMC3    O2 7471   0.797   2.459  14.653 -0.6340 -0.1527  0.2454
  503MPD2     C 7472   3.436   3.369  16.973 -0.0656 -0.2318  0.0525
  503MPD2    C1 7473   3.356   3.395  17.081 -0.2460  0.1324  0.6165
  503MPD2    C2 7474   3.355   3.299  17.183 -0.4002 -0.1909  0.0844
  503MPD2    C3 7475   3.447   3.195  17.195  0.0190  0.4973  0.4256
  503MPD2    C4 7476   3.528   3.174  17.082  0.8972  0.0400  0.4942
  503MPD2    C5 7477   3.528   3.264  16.979 -0.0521 -0.1844 -0.1457
  503MPD2     H 7478   3.291   3.314  17.269  0.4164 -1.3800  0.9023
  503MPD2    H1 7479   3.601   3.094  17.077  1.5625  0.6579  0.3449
  503MPD2    H2 7480   3.420   3.433  16.887 -0.3170  0.1848  0.4099
  503MPD2    H3 7481   3.606   3.256  16.904  1.0431 -1.5396  1.1229
  503MPD2     N 7482   3.448   3.108  17.310  0.2957  0.0979 -0.3725
  503MPD2    H5 7483   3.368   3.114  17.372  0.5770 -1.0499  0.0949
  503MPD2    N1 7484   3.263   3.504  17.100 -0.2232 -0.1110  0.0657
  503MPD2    H7 7485   3.215   3.501  17.190 -1.2041  2.3462 -0.3734
  504TMC3    C1 7486   3.551   2.928  17.421 -0.2032 -0.3917 -0.2889
  504TMC3    C2 7487   3.429   2.916  17.487 -0.3498  0.0766 -0.2496
  504TMC3    C3 7488   3.366   2.792  17.497  0.0662  0.6778  0.3113
  504TMC3    C4 7489   3.619   2.820  17.378  0.2790  0.2370  0.1486
  504TMC3    C5 7490   3.553   2.701  17.385 -0.0963  0.0654  0.4159
  504TMC3    C6 7491   3.430   2.689  17.448 -0.4790 -0.5467  0.3124
  504TMC3     C 7492   3.565   3.050  17.349 -0.3059  0.2196 -0.4439
  504TMC3     O 7493   3.676   3.068  17.298  0.2061 -0.1688 -0.6479
  504TMC3     H 7494   3.380   3.006  17.522 -0.7855 -0.4992  0.5980
  504TMC3    H1 7495   3.714   2.837  17.330 -1.2923 -2.0894 -3.7587
  504TMC3    H2 7496   3.382   2.593  17.430 -1.6826  0.5906 -2.5245
  504TMC3    C7 7497   3.605   2.601  17.288  0.3163 -0.0423  0.5159
  504TMC3    C8 7498   3.320   2.774  17.635 -0.2377  0.3146 -0.4416
  504TMC3    O1 7499   3.670   2.629  17.190 -0.3088 -0.3252 -0.4372
  504TMC3    O2 7500   3.355   2.861   0.008  0.1861  0.5958 -0.0283
  505MPD2     C 7501   3.170   1.263   9.665 -0.3203  0.2029 -0.3817
  505MPD2    C1 7502   3.242   1.209   9.565  0.8277 -0.3896  0.7534
  505MPD2    C2 7503   3.374   1.221   9.565  0.9251 -0.6678  0.6243
  505MPD2    C3 7504   3.431   1.271   9.687  0.0686 -0.0996 -0.1103
  505MPD2    C4 7505   3.363   1.307   9.791 -0.0900 -0.3058 -0.2651
  505MPD2    C5 7506   3.224   1.307   9.779 -0.3519  0.3343  0.4067
  505MPD2     H 7507   3.441   1.188   9.486  1.6599  1.3276  0.4188
  505MPD2    H1 7508   3.411   1.331   9.886  1.3131 -1.6299 -0.6369
  505MPD2    H2 7509   3.063   1.245   9.668 -0.1249 -1.1077 -1.1648
  505MPD2    H3 7510   3.161   1.330   9.864  1.2213  0.7153  1.4722
  505MPD2     N 7511   3.570   1.286   9.680  0.0944  0.6151 -0.3415
  505MPD2    H5 7512   3.614   1.243   9.599 -0.8730 -0.0554 -0.5172
  505MPD2    N1 7513   3.172   1.159   9.457  0.5204 -0.3954 -0.3300
  505MPD2    H7 7514   3.077   1.191   9.445 -0.2528 -2.1313  1.0731
  506TMC3    C1 7515   3.149   1.064   9.249 -1.2224 -0.9304  0.5748
  506TMC3    C2 7516   3.080   1.172   9.206  0.2999  0.1998 -0.3967
  506TMC3    C3 7517   3.057   1.178   9.070 -0.2338  0.3275 -0.6898
  506TMC3    C4 7518   3.200   0.972   9.166 -0.5725  0.0143 -0.2733
  506TMC3    C5 7519   3.186   0.989   9.028  0.0029  0.0246 -0.4439
  506TMC3    C6 7520   3.106   1.089   8.983  0.7965 -0.2442  0.3025
  506TMC3     C 7521   3.234   1.084   9.365  0.3861  0.2547  0.4336
  506TMC3     O 7522   3.339   1.018   9.375 -0.4594  0.6686 -0.1405
  506TMC3     H 7523   3.025   1.233   9.277  1.9533 -0.3335  1.3534
  506TMC3    H1 7524   3.243   0.883   9.211  1.6630  1.6348  0.8143
  506TMC3    H2 7525   3.087   1.096   8.877  0.6304  1.9883  0.4915
  506TMC3    C7 7526   3.318   1.003   8.963  0.3927  0.7782 -0.5560
  506TMC3    C8 7527   2.987   1.290   9.020  0.3302  0.3898  1.6487
  506TMC3    O1 7528   3.306   1.033   8.845  0.4069  0.1323 -0.0274
  506TMC3    O2 7529   2.934   1.278   8.909 -0.4899  0.5697 -0.8428
  507TMC3    C1 7530   4.128   2.801  14.829 -0.0395 -0.5108  0.0012
  507TMC3    C2 7531   4.021   2.717  14.827  0.1116  0.0798  0.4372
  507TMC3    C3 7532   3.959   2.702  14.709  0.6374  0.1062 -0.2308
  507TMC3    C4 7533   4.169   2.851  14.708 -0.1472  0.6802 -0.4310
  507TMC3    C5 7534   4.105   2.821  14.588  0.0392 -0.1696  0.7545
  507TMC3    C6 7535   4.009   2.731  14.586  0.0709  0.1167  0.1372
  507TMC3     C 7536   4.198   2.842  14.949 -0.1392  0.7883  0.1012
  507TMC3     O 7537   4.291   2.918  14.937 -0.4167 -0.0519 -0.4921
  507TMC3     H 7538   3.972   2.676  14.914 -2.6553 -0.4506 -1.3712
  507TMC3    H1 7539   4.269   2.894  14.703 -0.2620  0.8694 -1.0186
  507TMC3    H2 7540   3.949   2.719  14.497 -0.8324 -0.1963  0.7814
  507TMC3    C7 7541   4.069   2.937  14.514  0.5354  0.3630  0.2776
  507TMC3    C8 7542   3.816   2.716  14.728  0.3897 -0.8506  0.2169
  507TMC3    O1 7543   3.976   2.933  14.432 -0.2599 -0.3150  0.5599
  507TMC3    O2 7544   3.763   2.658  14.822  0.4659  0.2517 -0.0344
  508MPD2     C 7545   0.374   0.435  16.100  0.2010 -0.8050 -0.3201
  508MPD2    C1 7546   0.329   0.550  16.157 -0.5102  0.1182 -0.5051
  508MPD2    C2 7547   0.288   0.650  16.074  0.2879 -0.2098  0.5382
  508MPD2    C3 7548   0.279   0.631  15.937  0.6764  0.2729  0.2550
  508MPD2    C4 7549   0.315   0.509  15.881  0.6966 -0.2158 -0.1378
  508MPD2    C5 7550   0.364   0.415  15.965  0.6628  0.3886 -0.6070
  508MPD2     H 7551   0.264   0.747  16.115  2.5892  0.9509 -0.8626
  508MPD2    H1 7552   0.321   0.481  15.776  1.7500 -4.3386  1.0244
  508MPD2    H2 7553   0.404   0.353  16.163  0.4088 -0.5211 -0.0472
  508MPD2    H3 7554   0.400   0.319  15.931  0.7707 -0.0802  0.8329
  508MPD2     N 7555   0.244   0.744  15.854  0.1067  0.1786  1.3738
  508MPD2    H5 7556   0.213   0.831  15.896  2.4245  0.5178  2.3556
  508MPD2    N1 7557   0.340   0.557  16.296  0.2212  0.1778 -0.2121
  508MPD2    H7 7558   0.369   0.472  16.344 -2.0355 -0.2404  0.4155
  509TMC3    C1 7559   0.200   1.096  15.683  0.5507  0.7143  0.2595
  509TMC3    C2 7560   0.278   1.128  15.576  0.1358 -0.2433  0.5055
  509TMC3    C3 7561   0.334   1.021  15.503 -0.0403  0.1402 -0.3519
  509TMC3    C4 7562   0.169   0.972  15.721 -0.1121  0.1480 -0.1446
  509TMC3    C5 7563   0.229   0.870  15.661 -0.8272  0.4993 -0.0283
  509TMC3    C6 7564   0.307   0.890  15.544  0.0506  0.7214  0.4505
  509TMC3     C 7565   0.083   1.176  15.698 -0.2415  0.7665 -0.1688
  509TMC3     O 7566   0.029   1.185  15.810  0.6089 -0.5218 -0.0543
  509TMC3     H 7567   0.314   1.229  15.564 -0.6453 -0.2957 -2.2598
  509TMC3    H1 7568   0.124   0.955  15.818  0.4088  2.0134  0.4417
  509TMC3    H2 7569   0.343   0.810  15.481 -2.8480 -0.8227  0.7661
  509TMC3    C7 7570   0.255   0.742  15.720  0.9195  0.2889  0.8186
  509TMC3    C8 7571   0.442   1.043  15.406  0.1610  1.2113 -0.1043
  509TMC3    O1 7572   0.281   0.654  15.643 -0.0286  0.0387  0.4948
  509TMC3    O2 7573   0.482   0.940  15.352  0.1229  0.6051  0.6682
  510MPD2     C 7574   3.159   2.219  14.667  0.3545 -0.0728  0.3536
  510MPD2    C1 7575   3.166   2.079  14.659  0.1967 -0.1605  0.6034
  510MPD2    C2 7576   3.273   2.020  14.588  0.2440  0.4797  1.2507
  510MPD2    C3 7577   3.359   2.100  14.521  0.2503  0.1421  0.7399
  510MPD2    C4 7578   3.341   2.238  14.517  0.1667  0.5746 -0.8392
  510MPD2    C5 7579   3.249   2.299  14.595  0.0582 -0.5767  0.4537
  510MPD2     H 7580   3.281   1.913  14.577  0.8649  0.5091  1.3819
  510MPD2    H1 7581   3.394   2.293  14.440  1.9345  0.7664  0.5148
  510MPD2    H2 7582   3.094   2.272  14.736 -0.3412  1.3157 -1.3519
  510MPD2    H3 7583   3.250   2.407  14.605  0.5637 -0.7086  1.7884
  510MPD2     N 7584   3.460   2.036  14.441 -0.3023  0.0271 -0.7210
  510MPD2    H5 7585   3.470   1.936  14.451 -3.7232 -0.2719 -0.2439
  510MPD2    N1 7586   3.059   2.005  14.714  0.3376  0.6485  0.5315
  510MPD2    H7 7587   2.983   2.064  14.747 -1.0463  0.1070 -1.6943
  511TMC3    C1 7588   2.922   1.824  14.762  0.0908  0.1284 -0.0820
  511TMC3    C2 7589   2.854   1.897  14.861  0.5271 -0.2312  0.4528
  511TMC3    C3 7590   2.743   1.839  14.911  0.3206  0.7677 -0.6606
  511TMC3    C4 7591   2.877   1.701  14.719  0.6631  0.1095 -0.2029
  511TMC3    C5 7592   2.768   1.645  14.777  0.1171  0.1096 -0.0379
  511TMC3    C6 7593   2.692   1.717  14.876  0.4795 -0.4653  0.1414
  511TMC3     C 7594   3.048   1.866  14.710 -1.1274  0.2329  0.5979
  511TMC3     O 7595   3.130   1.779  14.674  0.3279  0.4901 -0.0634
  511TMC3     H 7596   2.904   1.977  14.914 -0.1192  0.7455 -0.4055
  511TMC3    H1 7597   2.939   1.648  14.648  0.5956 -0.5172  0.2068
  511TMC3    H2 7598   2.595   1.686  14.913  1.1801  0.5331  2.8151
  511TMC3    C7 7599   2.705   1.543  14.703 -0.4643  0.4738 -0.3096
  511TMC3    C8 7600   2.673   1.894  15.022 -0.2765 -0.3219 -0.2578
  511TMC3    O1 7601   2.752   1.522  14.590 -0.1136  0.1448 -0.3635
  511TMC3    O2 7602   2.605   1.817  15.090  0.7758 -0.7576 -0.3386
  512TMC3    C1 7603   1.240   1.215  13.193 -0.4325  0.5440 -0.1800
  512TMC3    C2 7604   1.292   1.185  13.315  0.5574  0.3136  0.4635
  512TMC3    C3 7605   1.369   1.069  13.324 -0.1144 -0.2131  0.3399
  512TMC3    C4 7606   1.259   1.137  13.084 -0.2004  0.3892  0.2980
  512TMC3    C5 7607   1.312   1.014  13.110  0.7760 -0.4980  0.1726
  512TMC3    C6 7608   1.376   0.977  13.219  0.2125 -0.1697 -0.1148
  512TMC3     C 7609   1.186   1.342  13.169  0.2035  0.2298 -0.0108
  512TMC3     O 7610   1.204   1.396  13.061 -0.4106 -0.4186  0.6521
  512TMC3     H 7611   1.280   1.247  13.403 -0.2382  1.1434 -0.2293
  512TMC3    H1 7612   1.226   1.168  12.986 -1.0516 -0.9511  0.1556
  512TMC3    H2 7613   1.436   0.888  13.237 -1.5710 -1.3547 -0.0796
  512TMC3    C7 7614   1.351   0.941  12.994 -0.8009 -0.1363  0.5735
  512TMC3    C8 7615   1.456   1.052  13.428 -0.5140  0.1175 -0.0672
  512TMC3    O1 7616   1.367   1.007  12.891 -0.4187  0.1686 -0.0371
  512TMC3    O2 7617   1.492   0.938  13.453 -0.1776  0.3873  0.0482
  513MPD2     C 7618   3.964   1.704  13.624  0.1011 -0.7729  0.7496
  513MPD2    C1 7619   3.922   1.575  13.660  0.2677  0.2743  0.0466
  513MPD2    C2 7620   4.010   1.494  13.731 -0.7037  0.5559  0.0976
  513MPD2    C3 7621   4.138   1.536  13.758  0.7617 -0.2419 -0.4232
  513MPD2    C4 7622   4.176   1.655  13.697  0.1933 -0.5780 -0.6533
  513MPD2    C5 7623   4.092   1.739  13.631 -0.6566 -0.0281 -0.1571
  513MPD2     H 7624   3.986   1.396  13.769 -0.5000 -0.2066 -1.7285
  513MPD2    H1 7625   4.281   1.681  13.704 -0.3431  1.1586  0.7403
  513MPD2    H2 7626   3.897   1.777  13.579  0.1889 -0.9311  0.3610
  513MPD2    H3 7627   4.119   1.837  13.592  1.4389 -0.3631  0.4627
  513MPD2     N 7628   4.224   1.441  13.815  0.1926  0.0645 -0.4861
  513MPD2    H5 7629   4.184   1.359  13.858 -0.6761  1.0486  0.5722
  513MPD2    N1 7630   3.789   1.542  13.625  0.6104  0.4165 -0.0758
  513MPD2    H7 7631   3.727   1.611  13.583 -1.0351 -0.6439  0.5717
  514TMC3    C1 7632   3.608   1.381  13.608 -0.1643  0.2862  0.4924
  514TMC3    C2 7633   3.583   1.406  13.478 -0.2866 -0.0553 -0.3946
  514TMC3    C3 7634   3.512   1.315  13.409 -0.4035  0.2137 -0.2324
  514TMC3    C4 7635   3.558   1.271  13.674 -0.1748 -0.3600 -0.1484
  514TMC3    C5 7636   3.480   1.183  13.601 -0.5104  0.1813  0.3959
  514TMC3    C6 7637   3.449   1.204  13.468  0.0310  0.0234  0.4438
  514TMC3     C 7638   3.743   1.418  13.643 -0.0965  0.1711  0.2314
  514TMC3     O 7639   3.804   1.316  13.687  0.2495 -0.5947 -0.0813
  514TMC3     H 7640   3.631   1.488  13.426 -1.1981  1.4395  1.1173
  514TMC3    H1 7641   3.572   1.265  13.781  1.8207 -0.0564 -0.4080
  514TMC3    H2 7642   3.381   1.140  13.413  0.3300 -0.0878  0.2026
  514TMC3    C7 7643   3.541   1.050  13.620  0.7081  1.0857  0.7004
  514TMC3    C8 7644   3.484   1.342  13.273  0.3567 -0.6989  0.0611
  514TMC3    O1 7645   3.516   0.960  13.536  0.0442  0.1072  0.0968
  514TMC3    O2 7646   3.469   1.457  13.241  0.1659  0.6048 -0.0636
  515MPD2     C 7647   1.696   3.518  14.562 -0.4156 -0.1450 -0.0790
  515MPD2    C1 7648   1.741   3.391  14.551  0.1687 -0.0224  0.1805
  515MPD2    C2 7649   1.862   3.360  14.598  0.1784  0.0833  0.3313
  515MPD2    C3 7650   1.934   3.456  14.664  0.4518 -0.0541  0.5270
  515MPD2    C4 7651   1.890   3.586  14.680  0.2078  0.1525 -0.2409
  515MPD2    C5 7652   1.766   3.615  14.631 -0.3209  0.4763  0.6565
  515MPD2     H 7653   1.899   3.260  14.581  0.2985 -0.0787  1.5238
  515MPD2    H1 7654   1.952   3.661  14.728  1.2375 -1.0720  0.3590
  515MPD2    H2 7655   1.604   3.542  14.510 -0.2778 -1.8453 -1.0808
  515MPD2    H3 7656   1.725   3.715  14.624  0.1219  0.5658 -0.4972
  515MPD2     N 7657   2.053   3.423  14.737 -0.0537 -0.2420  0.2993
  515MPD2    H5 7658   2.106   3.501  14.774 -1.3249  0.0350  1.5469
  515MPD2    N1 7659   1.671   3.294  14.476 -0.3228  0.2225  0.1843
  515MPD2    H7 7660   1.717   3.205  14.460 -0.8387  0.0505 -0.3328
  516TMC3    C1 7661   1.503   3.184  14.366  0.2350 -0.4699  0.2102
  516TMC3    C2 7662   1.421   3.166  14.261 -0.3321  0.1863 -0.9182
  516TMC3    C3 7663   1.375   3.038  14.233 -0.4611 -0.2567  0.1434
  516TMC3    C4 7664   1.539   3.069  14.441  0.4249  0.5545 -0.2141
  516TMC3    C5 7665   1.478   2.950  14.409 -0.3763 -0.4462 -0.1949
  516TMC3    C6 7666   1.394   2.930  14.304  0.5129 -0.2994 -0.2402
  516TMC3     C 7667   1.553   3.307  14.408  0.4105 -0.6059  0.4991
  516TMC3     O 7668   1.482   3.399  14.376 -0.3739  0.2507 -0.1127
  516TMC3     H 7669   1.402   3.251  14.197  1.1029 -0.0873 -1.6909
  516TMC3    H1 7670   1.602   3.073  14.529 -1.7922 -2.1678  1.5055
  516TMC3    H2 7671   1.367   2.834  14.262  3.0170 -0.3119 -1.8468
  516TMC3    C7 7672   1.492   2.848  14.512 -0.0685  0.1413 -0.0086
  516TMC3    C8 7673   1.324   3.023  14.100 -0.2041 -0.1657 -0.0166
  516TMC3    O1 7674   1.587   2.849  14.587 -0.1976  0.0981 -0.0582
  516TMC3    O2 7675   1.233   2.941  14.098  0.9838  0.5144 -0.0685
  517MPD2     C 7676   0.930   4.151  17.520  0.3051  0.1401  0.4466
  517MPD2    C1 7677   1.049   4.131  17.592  0.0096 -0.7173  0.4516
  517MPD2    C2 7678   1.079   4.221  17.694  0.0010 -0.2171  0.7028
  517MPD2    C3 7679   0.991   4.325   0.010 -0.0892  0.1590 -1.0725
  517MPD2    C4 7680   0.876   4.349  17.643 -0.2062  0.0898 -0.0707
  517MPD2    C5 7681   0.843   4.259  17.542  0.9716  0.1291 -0.1196
  517MPD2     H 7682   1.167   4.197   0.046 -1.0384 -0.0832  2.3513
  517MPD2    H1 7683   0.816   4.438  17.658 -2.0272 -1.2660  0.7164
  517MPD2    H2 7684   0.901   4.088  17.437  1.8374 -0.8146  0.6318
  517MPD2    H3 7685   0.760   4.269  17.474  1.8428 -1.5755 -1.4290
  517MPD2     N 7686   1.014   4.426   0.109  0.1130  0.5823 -0.5675
  517MPD2    H5 7687   0.946   4.500   0.112  0.3471  0.8347 -1.3285
  517MPD2    N1 7688   1.136   4.027  17.561  0.5314  0.2928 -0.3087
  517MPD2    H7 7689   1.223   4.022  17.612  1.7410  1.1313 -2.2667
  518TMC3    C1 7690   1.221   3.828  17.467  0.0971  0.5307 -0.3839
  518TMC3    C2 7691   1.194   3.705  17.418 -0.0136 -0.5150 -0.4517
  518TMC3    C3 7692   1.294   3.642  17.345 -0.1012 -0.3425  0.9701
  518TMC3    C4 7693   1.339   3.894  17.443 -0.6313 -0.4056  0.0439
  518TMC3    C5 7694   1.439   3.826  17.373 -1.1783  0.2807  0.7980
  518TMC3    C6 7695   1.421   3.705  17.322  0.4275 -0.2782 -1.1747
  518TMC3     C 7696   1.109   3.916  17.477  0.7879  0.0880  0.0033
  518TMC3     O 7697   1.005   3.881  17.420  0.6553  0.1177  0.1844
  518TMC3     H 7698   1.098   3.654  17.417 -1.0475  1.4503 -3.5011
  518TMC3    H1 7699   1.367   3.993  17.476 -4.4687  1.6852 -2.9147
  518TMC3    H2 7700   1.489   3.646  17.262 -0.5779 -1.0386 -1.5704
  518TMC3    C7 7701   1.557   3.906  17.334  0.5553 -0.5120 -1.0649
  518TMC3    C8 7702   1.298   3.500  17.312 -0.3951 -0.4884 -0.4200
  518TMC3    O1 7703   1.558   4.025  17.354  0.4933  0.6721  0.4003
  518TMC3    O2 7704   1.410   3.459  17.319 -0.2062 -0.0655 -0.0937
  519MPD2     C 7705   3.073   3.073  14.298  0.1186 -0.0581 -0.5604
  519MPD2    C1 7706   3.025   3.049  14.168 -0.3912 -0.1835 -0.1766
  519MPD2    C2 7707   3.016   2.916  14.116 -0.5809  0.9883 -0.2605
  519MPD2    C3 7708   3.057   2.806  14.198  0.4555 -0.5275 -0.1749
  519MPD2    C4 7709   3.114   2.841  14.325  0.1011 -0.5015  0.5992
  519MPD2    C5 7710   3.117   2.966  14.375 -0.1199 -0.0698 -0.0564
  519MPD2     H 7711   2.983   2.902  14.013 -0.1687  2.5881 -0.6095
  519MPD2    H1 7712   3.152   2.763  14.391  1.5601 -0.1336  0.1925
  519MPD2    H2 7713   3.097   3.173  14.331 -0.7247 -0.1725  0.3888
  519MPD2    H3 7714   3.160   2.981  14.473 -1.0292  1.2898  0.1449
  519MPD2     N 7715   3.040   2.670  14.168  0.2765  0.1878  0.5718
  519MPD2    H5 7716   3.072   2.601  14.235 -2.4664 -1.2290  0.4117
  519MPD2    N1 7717   2.977   3.165  14.104  0.6052  0.1479 -0.7970
  519MPD2    H7 7718   2.964   3.252  14.155  0.2287 -1.8906  2.5174
  520TMC3    C1 7719   2.972   2.483  14.021 -0.5184  0.0760 -0.5196
  520TMC3    C2 7720   2.902   2.447  13.904  0.3413 -0.8285 -0.2894
  520TMC3    C3 7721   2.966   2.349  13.832 -0.2098  0.1614 -0.2221
  520TMC3    C4 7722   3.081   2.423  14.074  0.7063 -0.4289  0.4049
  520TMC3    C5 7723   3.132   2.328  13.989  0.2873  0.1036 -0.2432
  520TMC3    C6 7724   3.080   2.287  13.870 -0.5900 -0.5322 -0.4914
  520TMC3     C 7725   2.967   2.627  14.061 -0.7106 -0.4808  0.2792
  520TMC3     O 7726   2.914   2.695  13.980 -0.5585  0.2964  0.0154
  520TMC3     H 7727   2.817   2.502  13.866  0.6830  0.0691  0.2621
  520TMC3    H1 7728   3.139   2.459  14.159  2.0269 -2.0506  0.1892
  520TMC3    H2 7729   3.136   2.211  13.817  1.8926  1.1592 -0.2344
  520TMC3    C7 7730   3.273   2.313  13.999 -0.1806  0.5775 -0.1951
  520TMC3    C8 7731   2.920   2.321  13.700 -0.0886  0.5047  0.1151
  520TMC3    O1 7732   3.314   2.217  14.068  0.1663 -0.0010 -0.1418
  520TMC3    O2 7733   2.964   2.216  13.650  0.3541 -0.1627  0.1494
  521MPD2     C 7734   3.768   0.906  17.700 -0.1957  0.0298  0.6579
  521MPD2    C1 7735   3.723   0.922  17.569 -0.6329  0.0242  0.2887
  521MPD2    C2 7736   3.794   0.992  17.471  0.0714 -0.6516 -0.1971
  521MPD2    C3 7737   3.931   1.023  17.490  0.0733  0.0394  0.8608
  521MPD2    C4 7738   3.988   0.981  17.613  0.2841 -0.3893  0.2250
  521MPD2    C5 7739   3.907   0.927   0.008  0.0150 -0.1817  0.7085
  521MPD2     H 7740   3.741   1.025  17.382 -1.2562  0.3574  0.9492
  521MPD2    H1 7741   4.089   0.991  17.652 -0.3214  4.2191  0.6078
  521MPD2    H2 7742   3.713   0.845   0.065  1.9211 -1.6028  0.9146
  521MPD2    H3 7743   3.949   0.915   0.107  0.4300  0.7689  0.6450
  521MPD2     N 7744   4.004   1.077  17.382  0.0108  0.4691 -0.3766
  521MPD2    H5 7745   3.959   1.089  17.291 -0.7187 -1.3689 -0.2586
  521MPD2    N1 7746   3.592   0.867  17.542  0.2789 -1.1449 -0.1154
  521MPD2    H7 7747   3.545   0.840  17.627 -0.9252 -0.2747 -0.5040
  522TMC3    C1 7748   4.201   1.127  17.261  0.3004  0.2318  0.2774
  522TMC3    C2 7749   4.331   1.170  17.265 -0.5822  0.2123  0.0671
  522TMC3    C3 7750   4.424   1.121  17.173  0.2646 -0.3153 -0.2327
  522TMC3    C4 7751   4.158   1.039  17.169 -0.4858 -0.4121  0.3548
  522TMC3    C5 7752   4.247   1.005  17.066  0.1624  0.4269 -0.3256
  522TMC3    C6 7753   4.379   1.047  17.064 -0.8502 -0.2300  0.0770
  522TMC3     C 7754   4.137   1.116  17.394  0.1725  0.6123 -0.0896
  522TMC3     O 7755   4.206   1.124  17.495  0.1197  0.1892  0.4251
  522TMC3     H 7756   4.365   1.246  17.335 -1.7413  2.2647 -1.5776
  522TMC3    H1 7757   4.066   0.982  17.183 -0.2960 -0.9452 -0.5274
  522TMC3    H2 7758   4.439   1.001  16.987  2.2980  1.3500  1.5413
  522TMC3    C7 7759   4.213   0.896  16.977 -0.3666  0.0107  0.2014
  522TMC3    C8 7760   4.564   1.158  17.183 -0.3832 -0.7081 -0.1007
  522TMC3    O1 7761   4.309   0.826  16.942  0.4535 -0.0959  0.1765
  522TMC3    O2 7762   4.597   1.248  17.255  0.4786 -0.1170 -0.1047
  523MPD2     C 7763   1.089   0.542  10.090 -0.4283 -0.4697  0.3185
  523MPD2    C1 7764   1.069   0.440   9.995  0.5948  0.5872  0.6343
  523MPD2    C2 7765   0.992   0.472   9.883 -0.7031 -0.8382  0.7418
  523MPD2    C3 7766   0.930   0.593   9.871  0.2845 -0.2192  0.9351
  523MPD2    C4 7767   0.950   0.688   9.966 -0.5528 -0.2593 -0.0906
  523MPD2    C5 7768   1.018   0.656  10.079  0.5558 -0.1041 -0.2605
  523MPD2     H 7769   0.970   0.398   9.807 -1.6172  0.4942 -0.2923
  523MPD2    H1 7770   0.912   0.788   9.954 -0.7186 -0.4523 -1.1389
  523MPD2    H2 7771   1.144   0.521  10.181  1.0112  1.4614 -0.0976
  523MPD2    H3 7772   1.028   0.727  10.161  1.6139 -0.1247 -0.3724
  523MPD2     N 7773   0.846   0.638   9.763 -0.6041  0.0248 -0.8239
  523MPD2    H5 7774   0.837   0.739   9.757  2.1521  0.5099  2.7974
  523MPD2    N1 7775   1.142   0.323  10.021  0.0164 -0.2595 -0.7991
  523MPD2    H7 7776   1.193   0.312  10.108 -4.2531  1.2483  1.8540
  524TMC3    C1 7777   0.729   0.628   9.560 -0.1023  0.0176 -0.7356
  524TMC3    C2 7778   0.679   0.554   9.456 -0.1917  0.1647 -0.1582
  524TMC3    C3 7779   0.598   0.618   9.368  0.6825 -0.0703 -0.0125
  524TMC3    C4 7780   0.669   0.747   9.593 -0.4970  0.3923  0.4605
  524TMC3    C5 7781   0.575   0.799   9.514 -0.6312 -1.1269  0.0848
  524TMC3    C6 7782   0.540   0.737   9.394 -0.1184  0.6677  0.6771
  524TMC3     C 7783   0.810   0.560   9.663  0.1483  0.3811  0.2330
  524TMC3     O 7784   0.834   0.445   9.629 -0.0471  0.0766  0.7951
  524TMC3     H 7785   0.729   0.470   9.409 -1.2164 -0.2395 -0.5306
  524TMC3    H1 7786   0.699   0.799   9.683  3.1985 -2.1163  0.6993
  524TMC3    H2 7787   0.463   0.781   9.330 -1.5268 -0.3822  1.6566
  524TMC3    C7 7788   0.488   0.903   9.568  0.3478 -0.7436  0.0143
  524TMC3    C8 7789   0.577   0.554   9.239 -0.1027 -0.6365  0.4929
  524TMC3    O1 7790   0.493   0.907   9.690  0.2933 -0.1270 -0.0162
  524TMC3    O2 7791   0.572   0.432   9.233 -0.0663 -0.0893 -0.3984
  525MPD2     C 7792   4.265   2.491  14.342  0.3076 -0.5018  0.2735
  525MPD2    C1 7793   4.396   2.503  14.380 -0.1322  0.3660  0.3678
  525MPD2    C2 7794   4.469   2.607  14.332 -0.0860 -0.0065  0.0544
  525MPD2    C3 7795   4.403   2.705  14.263 -0.4023  0.0173  0.1317
  525MPD2    C4 7796   4.279   2.687  14.213  0.2432 -0.9600  0.4591
  525MPD2    C5 7797   4.206   2.576  14.250  0.4747  0.9106 -0.1714
  525MPD2     H 7798   4.573   2.609  14.364  0.7234 -1.3115 -2.4971
  525MPD2    H1 7799   4.231   2.763  14.153 -0.8593 -2.0538 -0.0465
  525MPD2    H2 7800   4.212   2.401  14.370  1.1825 -0.3373  2.4650
  525MPD2    H3 7801   4.108   2.541  14.222 -0.1362  0.0197  3.0548
  525MPD2     N 7802   4.465   2.830  14.234  0.9357 -0.2772  0.1749
  525MPD2    H5 7803   4.402   2.902  14.199  3.2765  0.3734 -2.6906
  525MPD2    N1 7804   4.453   2.411  14.468  0.0644  0.4186  0.1160
  525MPD2    H7 7805   4.553   2.411  14.485  0.1159  0.8328 -0.1764
  526TMC3    C1 7806   4.468   2.230  14.618 -0.0050 -0.4821 -0.1974
  526TMC3    C2 7807   4.433   2.184  14.741  0.3179 -0.5242  0.3139
  526TMC3    C3 7808   4.527   2.140  14.837  0.4058 -0.4350  0.1018
  526TMC3    C4 7809   4.601   2.228  14.585 -0.4235  0.0992 -0.0732
  526TMC3    C5 7810   4.695   2.182  14.679 -0.8990  0.0721  0.2021
  526TMC3    C6 7811   4.662   2.134  14.805  0.9740  0.8480 -0.0681
  526TMC3     C 7812   4.384   2.318  14.550  0.4999 -0.1270  0.2514
  526TMC3     O 7813   4.262   2.318  14.576  0.6114  0.8124 -0.3037
  526TMC3     H 7814   4.329   2.185  14.773 -1.0674 -1.4399 -4.0996
  526TMC3    H1 7815   4.636   2.250  14.485  0.8914  1.9696  0.8089
  526TMC3    H2 7816   0.014   2.120  14.878 -2.6396 -1.0787  3.4155
  526TMC3    C7 7817   0.103   2.162  14.636  0.2260 -0.3993 -0.2239
  526TMC3    C8 7818   4.482   2.112  14.977 -0.2366 -0.7312 -0.4742
  526TMC3    O1 7819   0.180   2.083  14.694  0.3416  0.4607  0.4122
  526TMC3    O2 7820   4.573   2.083  15.054 -0.0421 -0.0153  0.4435
  527MPD2     C 7821   2.357   0.981   1.205 -0.4428 -0.5649 -0.0622
  527MPD2    C1 7822   2.416   0.860   1.254  0.6287 -0.3103 -0.3955
  527MPD2    C2 7823   2.541   0.817   1.234  0.5623  0.7378 -0.3233
  527MPD2    C3 7824   2.618   0.893   1.147  0.6199 -0.2068  0.8142
  527MPD2    C4 7825   2.568   1.012   1.090  0.2952 -0.1694  0.3909
  527MPD2    C5 7826   2.438   1.044   1.115 -0.2408 -0.4720 -0.1948
  527MPD2     H 7827   2.579   0.723   1.272 -2.0807 -0.2834 -0.2697
  527MPD2    H1 7828   2.625   1.069   1.018  0.3026  0.3373  0.7990
  527MPD2    H2 7829   2.256   1.017   1.226  0.8670  2.0902  1.7518
  527MPD2    H3 7830   2.397   1.133   1.069 -0.3330 -0.3295  0.1609
  527MPD2     N 7831   2.749   0.837   1.111  0.4196 -0.3780  0.6535
  527MPD2    H5 7832   2.772   0.748   1.153  0.7932 -0.1567  0.9236
  527MPD2    N1 7833   2.335   0.775   1.337  0.4513 -0.2501  0.5703
  527MPD2    H7 7834   2.379   0.701   1.389 -0.2707 -1.7949 -1.0153
  528TMC3    C1 7835   2.145   0.659   1.408  0.4038 -0.0570 -0.4970
  528TMC3    C2 7836   2.190   0.646   1.538 -0.0587 -0.4913 -0.2351
  528TMC3    C3 7837   2.112   0.569   1.622 -0.1155  0.9597 -0.5310
  528TMC3    C4 7838   2.021   0.612   1.375  0.6795 -0.8575  0.6017
  528TMC3    C5 7839   1.941   0.557   1.471  0.5176 -0.2264 -0.4203
  528TMC3    C6 7840   1.980   0.535   1.595  0.6511  0.0667 -0.1066
  528TMC3     C 7841   2.198   0.765   1.331  0.5972 -0.4677  0.5873
  528TMC3     O 7842   2.115   0.820   1.259 -0.5718 -0.5431  0.1053
  528TMC3     H 7843   2.287   0.687   1.564  0.4437 -1.4816 -0.5652
  528TMC3    H1 7844   2.007   0.625   1.269  1.5315  1.1283  0.7353
  528TMC3    H2 7845   1.914   0.476   1.657  0.9864 -0.3475 -0.1359
  528TMC3    C7 7846   1.798   0.519   1.436  0.2962 -0.4102 -0.1516
  528TMC3    C8 7847   2.172   0.536   1.744 -0.7376 -0.4079  0.0195
  528TMC3    O1 7848   1.733   0.469   1.529  0.4874  0.4714  0.5088
  528TMC3    O2 7849   2.271   0.602   1.779 -0.3118  0.3242  0.2381
  529MPD2     C 7850   3.857   3.142   0.500 -0.4935  0.2466 -0.2433
  529MPD2    C1 7851   3.986   3.188   0.506 -0.6383 -0.4564 -0.5634
  529MPD2    C2 7852   4.028   3.295   0.436  0.1028  0.1841  0.2302
  529MPD2    C3 7853   3.938   3.357   0.347 -0.1263  0.4344  0.0887
  529MPD2    C4 7854   3.808   3.316   0.341  0.3762 -0.8174 -0.4325
  529MPD2    C5 7855   3.770   3.204   0.413  0.1865 -0.0649  1.0359
  529MPD2     H 7856   4.130   3.332   0.440 -0.6855  2.1222  2.6247
  529MPD2    H1 7857   3.729   3.367   0.287  0.6156 -1.0737 -1.0195
  529MPD2    H2 7858   3.812   3.060   0.554 -2.4999  1.2207 -0.4211
  529MPD2    H3 7859   3.667   3.173   0.400  1.4253 -3.7945  0.1768
  529MPD2     N 7860   3.960   3.473   0.269  0.2808 -0.5738  0.6879
  529MPD2    H5 7861   3.881   3.512   0.218  1.1123  0.6419  0.3352
  529MPD2    N1 7862   4.087   3.121   0.585  0.4368 -0.1840  0.6993
  529MPD2    H7 7863   4.178   3.165   0.583  0.5422 -0.5131 -1.8606
  530TMC3    C1 7864   4.168   2.992   0.758 -0.2063 -0.0943 -0.5773
  530TMC3    C2 7865   4.291   3.025   0.719 -1.0735  0.4683  0.0815
  530TMC3    C3 7866   4.390   2.985   0.801 -0.5514 -0.7615  1.4220
  530TMC3    C4 7867   4.143   2.924   0.875  0.0823  1.1897 -0.0748
  530TMC3    C5 7868   4.249   2.896   0.962 -0.2209 -0.8668  0.3130
  530TMC3    C6 7869   4.379   2.918   0.920 -0.6141 -0.1619 -0.2144
  530TMC3     C 7870   4.056   3.024   0.675  0.3875 -0.0933 -0.1475
  530TMC3     O 7871   3.946   2.972   0.704  0.2903  0.2960 -0.0271
  530TMC3     H 7872   4.310   3.092   0.636  0.0968  0.0930  0.0503
  530TMC3    H1 7873   4.040   2.905   0.904  1.3486 -3.9543  1.0102
  530TMC3    H2 7874   4.456   2.883   0.988 -0.8084  0.6325  0.4037
  530TMC3    C7 7875   4.226   2.792   1.066 -0.1029  0.6754 -0.2041
  530TMC3    C8 7876   4.513   2.961   0.726 -0.1606 -0.6141 -0.0422
  530TMC3    O1 7877   4.318   2.710   1.078  0.1861 -0.1321 -0.1428
  530TMC3    O2 7878   4.501   2.958   0.607 -0.4935 -0.3612 -0.4390
  531MPD2     C 7879   3.975   0.801  13.698  0.2823  0.2204  0.5560
  531MPD2    C1 7880   3.980   0.923  13.757  0.4238  0.6452  0.5264
  531MPD2    C2 7881   3.869   0.996  13.758 -0.6628  0.2921  0.5694
  531MPD2    C3 7882   3.756   0.961  13.692 -0.3354 -0.0940 -0.4861
  531MPD2    C4 7883   3.747   0.839  13.639  0.8635 -0.1415  0.2902
  531MPD2    C5 7884   3.860   0.759  13.640  0.0525  0.2548 -0.3167
  531MPD2     H 7885   3.879   1.096  13.799  0.7494  0.9318 -1.3181
  531MPD2    H1 7886   3.662   0.803  13.581  0.9561 -2.1560  1.4065
  531MPD2    H2 7887   4.065   0.741  13.709  1.7377  1.8909 -2.1617
  531MPD2    H3 7888   3.846   0.659  13.601 -0.0355 -0.1363  0.7103
  531MPD2     N 7889   3.664   1.066  13.678 -0.3014 -0.2304 -0.1074
  531MPD2    H5 7890   3.691   1.152  13.726 -0.0081  0.0816 -0.8323
  531MPD2    N1 7891   4.102   0.960  13.815 -0.2065  0.3181 -0.7353
  531MPD2    H7 7892   4.179   0.894  13.816 -0.0004  0.6076  2.0485
  532TMC3    C1 7893   4.280   1.106  13.876 -0.0686  0.5110  0.3021
  532TMC3    C2 7894   4.310   1.234  13.908  0.2108 -0.5868 -0.6012
  532TMC3    C3 7895   4.408   1.308  13.846 -0.0480  0.1924 -0.2616
  532TMC3    C4 7896   4.341   1.053  13.772  0.7450  0.2292  0.1791
  532TMC3    C5 7897   4.441   1.124  13.702  0.1340  0.4661  0.0601
  532TMC3    C6 7898   4.477   1.252  13.743 -0.0226 -0.0142 -0.1398
  532TMC3     C 7899   4.140   1.089  13.860 -0.4278 -0.4153  0.0598
  532TMC3     O 7900   4.074   1.190  13.855 -0.1555  0.7042 -0.1804
  532TMC3     H 7901   4.276   1.274  14.003  1.5110  0.1457 -0.4378
  532TMC3    H1 7902   4.326   0.953  13.735  2.0397  0.4951 -1.0815
  532TMC3    H2 7903   4.542   1.304  13.673  0.8298  1.4440  1.7217
  532TMC3    C7 7904   4.550   1.047  13.639 -0.4000  0.3714 -1.2008
  532TMC3    C8 7905   4.363   1.445  13.813  0.6788  0.3163 -0.2195
  532TMC3    O1 7906   4.666   1.072  13.671  0.0132 -0.0294 -0.5030
  532TMC3    O2 7907   4.437   1.523  13.755 -0.3151  0.1943  0.0347
  533TMC3    C1 7908   4.610   3.018  14.267  0.0675 -0.3743 -0.3915
  533TMC3    C2 7909   0.013   3.064  14.250  0.6157  0.2929 -0.3134
  533TMC3    C3 7910   0.035   3.179  14.309 -0.3878 -0.2150 -0.0223
  533TMC3    C4 7911   4.511   3.090  14.322 -0.0145 -0.1868 -1.4320
  533TMC3    C5 7912   4.540   3.194  14.405 -0.0059 -0.8626  0.0543
  533TMC3    C6 7913   4.673   3.248  14.391 -0.9274 -0.4072 -0.0132
  533TMC3     C 7914   4.596   2.870  14.261  0.1900 -0.7633  0.7591
  533TMC3     O 7915   4.699   2.812  14.290  0.0213  0.0958  0.2508
  533TMC3     H 7916   0.083   3.006  14.190 -0.4018  0.7826 -1.9884
  533TMC3    H1 7917   4.410   3.052  14.310 -0.1234 -0.0037 -1.0619
  533TMC3    H2 7918   4.690   3.342  14.442 -2.6639 -0.8376  1.3680
  533TMC3    C7 7919   4.512   3.151  14.542  0.7821  0.6416 -0.5002
  533TMC3    C8 7920   0.176   3.232  14.299  0.4539  0.6544  0.0254
  533TMC3    O1 7921   4.465   3.039  14.563 -0.4517  0.5596 -0.1700
  533TMC3    O2 7922   0.269   3.150  14.280 -0.0143  0.2097  0.8480
  534MPD2     C 7923   1.848   4.439   1.811 -0.0662  0.2276 -0.4846
  534MPD2    C1 7924   1.913   4.476   1.693  0.2434 -0.2085  0.0837
  534MPD2    C2 7925   1.859   4.452   1.566 -0.0858  0.7519  0.4856
  534MPD2    C3 7926   1.737   4.381   1.560 -0.5282 -0.1050 -0.1856
  534MPD2    C4 7927   1.679   4.340   1.679 -0.0172  0.1023 -0.3629
  534MPD2    C5 7928   1.729   4.374   1.801  0.0450  0.2037 -0.7194
  534MPD2     H 7929   1.908   4.487   1.476  0.7239  0.2236  0.7208
  534MPD2    H1 7930   1.582   4.290   1.681  0.1744 -0.2159  2.1476
  534MPD2    H2 7931   1.891   4.445   1.910  1.5251  1.8942 -1.2817
  534MPD2    H3 7932   1.680   4.339   1.890 -2.2235  0.2313 -1.9556
  534MPD2     N 7933   1.677   4.350   1.439 -0.0651 -0.6409  0.2767
  534MPD2    H5 7934   1.598   4.287   1.449 -0.5690 -0.2882 -1.5611
  534MPD2    N1 7935   2.041   4.540   1.685  0.1734 -0.3045 -0.5645
  534MPD2    H7 7936   2.077   4.554   1.591 -0.1777 -0.5738 -0.7418
  535TMC3    C1 7937   1.649   4.335   1.202  0.2058 -0.3837  0.0565
  535TMC3    C2 7938   1.534   4.262   1.230  0.5351  0.4555 -0.8051
  535TMC3    C3 7939   1.509   4.154   1.148 -0.7352 -0.5244 -0.3139
  535TMC3    C4 7940   1.735   4.309   1.106 -0.3941  0.1490 -0.6327
  535TMC3    C5 7941   1.702   4.205   1.033 -0.4642  0.0496 -0.4106
  535TMC3    C6 7942   1.592   4.122   1.052 -0.7639 -0.0680 -0.1429
  535TMC3     C 7943   1.705   4.404   1.314  0.0798 -0.6616  0.8697
  535TMC3     O 7944   1.784   4.492   1.285  0.1442  0.2629  0.0524
  535TMC3     H 7945   1.472   4.295   1.312 -0.9943  1.4556 -2.3587
  535TMC3    H1 7946   1.822   4.373   1.098 -0.8331  0.7510 -0.6018
  535TMC3    H2 7947   1.592   4.035   0.986 -0.0283 -0.2913  0.1499
  535TMC3    C7 7948   1.791   4.171   0.921 -0.0837 -0.6879 -0.3889
  535TMC3    C8 7949   1.377   4.099   1.137  0.5962 -0.0303 -0.7514
  535TMC3    O1 7950   1.908   4.203   0.931 -0.1894 -0.2257 -0.3775
  535TMC3    O2 7951   1.372   3.984   1.092 -0.0393 -0.2622 -0.0003
  536MPD2     C 7952   1.503   2.250  16.195  0.2055 -0.2473 -0.5151
  536MPD2    C1 7953   1.386   2.274  16.260 -0.9240 -0.4193  0.3994
  536MPD2    C2 7954   1.284   2.318  16.184  0.1823  0.3029 -0.5376
  536MPD2    C3 7955   1.293   2.353  16.047 -0.9037 -0.2135 -0.3999
  536MPD2    C4 7956   1.409   2.325  15.987 -0.3836 -0.6440  0.0434
  536MPD2    C5 7957   1.513   2.266  16.059  0.1659  0.5268 -0.3169
  536MPD2     H 7958   1.190   2.332  16.237  1.3036  2.7287  0.8160
  536MPD2    H1 7959   1.425   2.348  15.883  0.0383 -4.0391 -0.6404
  536MPD2    H2 7960   1.589   2.213  16.250  0.2064 -1.6130 -1.4411
  536MPD2    H3 7961   1.600   2.232  16.003  0.5763 -1.3884  1.4816
  536MPD2     N 7962   1.183   2.408  15.979  0.6465 -0.2568 -0.4148
  536MPD2    H5 7963   1.195   2.417  15.878  0.4555 -0.2662 -0.4384
  536MPD2    N1 7964   1.383   2.246  16.396 -0.4349 -0.1457 -0.5888
  536MPD2    H7 7965   1.472   2.227  16.442 -0.1486  1.3140 -0.5392
  537TMC3    C1 7966   1.293   2.239  16.621  0.2465  0.6597 -0.1249
  537TMC3    C2 7967   1.395   2.169  16.678  0.1057 -0.1779  0.0626
  537TMC3    C3 7968   1.384   2.119  16.803  0.2169  0.2627 -0.2493
  537TMC3    C4 7969   1.187   2.276  16.699 -0.2100  0.2913 -0.3241
  537TMC3    C5 7970   1.171   2.216  16.821 -1.1145 -0.1754 -0.4509
  537TMC3    C6 7971   1.274   2.141  16.878  0.4064  0.2580 -0.6085
  537TMC3     C 7972   1.271   2.251  16.479 -0.1723  0.0611 -0.0902
  537TMC3     O 7973   1.163   2.302  16.448 -0.1918  0.3227  0.3113
  537TMC3     H 7974   1.482   2.153  16.614 -0.3476 -2.4534  0.0320
  537TMC3    H1 7975   1.104   2.334  16.659 -0.9473 -0.5397  0.0048
  537TMC3    H2 7976   1.272   2.082  16.969 -0.5136  1.1451 -0.0599
  537TMC3    C7 7977   1.039   2.170  16.847 -0.1985  0.6853 -0.7291
  537TMC3    C8 7978   1.503   2.082  16.878  0.5101  0.7065 -0.4399
  537TMC3    O1 7979   0.948   2.225  16.784 -0.3176  0.2798  0.1611
  537TMC3    O2 7980   1.501   2.113  16.993  0.0323 -0.1837  0.1091
  538TMC3    C1 7981   2.413   0.136  10.802 -0.4486 -0.0109  0.0878
  538TMC3    C2 7982   2.495   0.231  10.753 -0.7518 -0.3833 -0.1867
  538TMC3    C3 7983   2.446   0.345  10.696  0.0508 -0.2135  0.5688
  538TMC3    C4 7984   2.273   0.140  10.781 -0.4084  0.3994  0.2871
  538TMC3    C5 7985   2.226   0.257  10.722  0.6576 -0.0133  0.0285
  538TMC3    C6 7986   2.309   0.358  10.674 -0.5423  0.0972  0.0981
  538TMC3     C 7987   2.468   0.039  10.903 -0.5223  0.5205  0.1416
  538TMC3     O 7988   2.392   4.682  10.952  0.7067 -1.0175 -0.4669
  538TMC3     H 7989   2.597   0.195  10.740 -0.1838  0.8415  0.9027
  538TMC3    H1 7990   2.203   0.071  10.826 -1.1817  1.2923  0.4562
  538TMC3    H2 7991   2.251   0.447  10.652 -0.3447  0.1708 -0.1144
  538TMC3    C7 7992   2.087   0.290  10.750  0.2979  0.1310 -0.2434
  538TMC3    C8 7993   2.538   0.454  10.661 -0.3036  1.6602 -0.2909
  538TMC3    O1 7994   2.033   0.252  10.852 -0.3100  0.2554  0.1341
  538TMC3    O2 7995   2.648   0.449  10.716  0.0509  0.5560 -0.6563
  539MPD2     C 7996   1.664   3.627  11.539 -0.4989 -0.1051  0.6835
  539MPD2    C1 7997   1.705   3.709  11.438  0.0260 -0.0932  0.3056
  539MPD2    C2 7998   1.718   3.842  11.453 -0.9770 -0.5010 -0.4086
  539MPD2    C3 7999   1.708   3.903  11.575  0.0362 -0.1005 -1.5878
  539MPD2    C4 8000   1.661   3.828  11.688 -0.1312  0.2988 -0.1705
  539MPD2    C5 8001   1.634   3.692  11.660  0.1865  0.4612  0.4622
  539MPD2     H 8002   1.768   3.893  11.372 -1.0007 -0.8908 -0.6713
  539MPD2    H1 8003   1.647   3.871  11.786  0.0247  0.2699 -0.1353
  539MPD2    H2 8004   1.657   3.519  11.532  1.0617 -0.2071  0.7714
  539MPD2    H3 8005   1.596   3.636  11.745  1.9254 -0.1546  0.8416
  539MPD2     N 8006   1.723   4.041  11.576 -0.2327 -0.3406 -0.5677
  539MPD2    H5 8007   1.690   4.091  11.658  0.8183 -0.9734  0.2344
  539MPD2    N1 8008   1.744   3.653  11.316 -0.6701  0.1282 -0.2076
  539MPD2    H7 8009   1.802   3.712  11.257  1.4946 -1.3074  0.4908
  540TMC3    C1 8010   1.756   4.272  11.508  0.3669  0.4374  0.0901
  540TMC3    C2 8011   1.751   4.357  11.405  0.7516 -0.3560  0.1156
  540TMC3    C3 8012   1.747   4.488  11.428  0.0622 -0.2270 -0.2330
  540TMC3    C4 8013   1.767   4.307  11.640  0.1573 -0.3398 -0.2411
  540TMC3    C5 8014   1.769   4.442  11.666  0.0305 -0.4289 -0.2559
  540TMC3    C6 8015   1.750   4.538  11.561 -0.2742  0.5767  0.2236
  540TMC3     C 8016   1.752   4.127  11.474 -0.0563 -0.1253 -0.5072
  540TMC3     O 8017   1.782   4.109  11.356  0.2836 -0.6379  0.2354
  540TMC3     H 8018   1.755   4.318  11.304 -1.6005  0.7929 -0.4107
  540TMC3    H1 8019   1.769   4.231  11.717 -2.0911 -1.3957 -1.2261
  540TMC3    H2 8020   1.711   4.636  11.585 -0.0573  0.9488 -0.9054
  540TMC3    C7 8021   1.744   4.489  11.803  0.5142  0.2527  0.1211
  540TMC3    C8 8022   1.687   4.577  11.325 -1.1614  0.8686  0.3217
  540TMC3    O1 8023   1.698   4.412  11.886  0.0992 -0.1173 -0.3585
  540TMC3    O2 8024   1.715   4.695  11.330 -0.0193  0.0546 -0.1374
  541MPD2     C 8025   0.454   1.433  13.128 -0.1296 -0.2276 -0.2799
  541MPD2    C1 8026   0.458   1.322  13.052 -0.2346 -0.3379 -0.1976
  541MPD2    C2 8027   0.467   1.336  12.913  0.0358  0.0677  0.0630
  541MPD2    C3 8028   0.451   1.458  12.855 -0.0532  0.2511  0.6891
  541MPD2    C4 8029   0.431   1.564  12.939  0.0458 -0.6671  0.1039
  541MPD2    C5 8030   0.429   1.557  13.078  0.3029  0.0122 -0.1256
  541MPD2     H 8031   0.470   1.252  12.845 -0.0809  1.2350 -1.4081
  541MPD2    H1 8032   0.440   1.666  12.902  0.2067 -0.1311  1.5886
  541MPD2    H2 8033   0.455   1.425  13.236  1.0385  1.3146 -0.1795
  541MPD2    H3 8034   0.415   1.643  13.143  0.3236  0.7218 -1.0597
  541MPD2     N 8035   0.466   1.479  12.715  0.6218 -0.3240  0.0692
  541MPD2    H5 8036   0.430   1.565  12.673  0.4483  0.3282  1.5617
  541MPD2    N1 8037   0.488   1.202  13.118  0.0044 -0.3666 -0.2155
  541MPD2    H7 8038   0.491   1.193  13.219  0.8068 -3.4718 -0.5310
  542TMC3    C1 8039   0.470   1.408  12.493  0.0844 -0.0911  0.0524
  542TMC3    C2 8040   0.554   1.379  12.390 -0.2808 -0.1950  0.2549
  542TMC3    C3 8041   0.510   1.364  12.264 -0.0370 -0.1287  0.2835
  542TMC3    C4 8042   0.340   1.431  12.460  0.0480 -0.3298  0.8256
  542TMC3    C5 8043   0.296   1.414  12.334 -0.4764 -0.3186 -0.7150
  542TMC3    C6 8044   0.379   1.382  12.233 -0.1220 -0.4997  0.1190
  542TMC3     C 8045   0.498   1.381  12.623  0.3890 -0.5068  0.1854
  542TMC3     O 8046   0.565   1.282  12.637  0.1964 -0.1644  0.7429
  542TMC3     H 8047   0.660   1.373  12.412 -0.7303  2.0292  3.1634
  542TMC3    H1 8048   0.271   1.436  12.544  0.8265  1.9275  1.3503
  542TMC3    H2 8049   0.343   1.374  12.131 -0.4372 -1.8732  0.3395
  542TMC3    C7 8050   0.150   1.422  12.309  0.4413 -0.1201 -0.0776
  542TMC3    C8 8051   0.599   1.318  12.165  0.0437 -0.1000  0.5865
  542TMC3    O1 8052   0.085   1.494  12.386 -0.6402 -0.1327  0.3778
  542TMC3    O2 8053   0.543   1.273  12.067  0.4236 -0.3002 -0.7250
  543TMC3    C1 8054   4.280   2.392  17.215 -0.1209 -0.0009  0.2636
  543TMC3    C2 8055   4.255   2.274  17.282 -0.7227  0.0769 -0.2308
  543TMC3    C3 8056   4.266   2.285  17.421  0.6577  0.6852 -0.6258
  543TMC3    C4 8057   4.310   2.511  17.280 -0.2383 -0.4794  0.6072
  543TMC3    C5 8058   4.321   2.508  17.420 -0.3161  0.1069 -0.1615
  543TMC3    C6 8059   4.307   2.398  17.491 -0.1917  0.5941 -0.5570
  543TMC3     C 8060   4.282   2.388  17.072  0.3134 -0.1863  0.8809
  543TMC3     O 8061   4.324   2.284  17.026 -0.8372  0.4390  0.1819
  543TMC3     H 8062   4.239   2.178  17.236 -2.0558 -0.6861  1.8331
  543TMC3    H1 8063   4.304   2.601  17.220  0.8595 -0.6106  0.3080
  543TMC3    H2 8064   4.329   2.393  17.597  1.1404 -1.1549 -0.9264
  543TMC3    C7 8065   4.335   2.627  17.497  0.0395 -0.2966 -0.5153
  543TMC3    C8 8066   4.252   2.159  17.496  0.2444  0.0181  0.0400
  543TMC3    O1 8067   4.317   2.629  17.616  0.1565 -0.2702  0.2798
  543TMC3    O2 8068   4.183   2.079  17.436 -0.3957  0.1450 -0.1615
  544MPD2     C 8069   4.412   1.813   0.131 -0.0139  0.7152  0.4371
  544MPD2    C1 8070   4.327   1.793   0.020 -0.1911  0.2151  0.0843
  544MPD2    C2 8071   4.307   1.903  17.640 -0.7380 -0.0313  0.4423
  544MPD2    C3 8072   4.375   2.026  17.659 -0.2765 -0.1661  0.3942
  544MPD2    C4 8073   4.468   2.037   0.057  0.1452 -0.5203 -0.8456
  544MPD2    C5 8074   4.479   1.930   0.145 -0.3503  0.0436 -0.7114
  544MPD2     H 8075   4.230   1.893  17.564 -0.7459  1.1141  0.3091
  544MPD2    H1 8076   4.526   2.128   0.061 -1.0711  0.2542 -0.6984
  544MPD2    H2 8077   4.427   1.741   0.210  1.4950  0.4737 -0.0663
  544MPD2    H3 8078   4.542   1.939   0.233  0.4410 -0.9865 -1.1723
  544MPD2     N 8079   4.347   2.148  17.595  0.0083 -0.0352 -0.0133
  544MPD2    H5 8080   4.396   2.226  17.638  1.8189 -0.0407 -2.1185
  544MPD2    N1 8081   4.238   1.683   0.026  0.1746 -0.4274  0.4447
  544MPD2    H7 8082   4.265   1.617   0.098  1.5394 -0.4511 -0.0877
  545TMC3    C1 8083   4.060   1.533  17.686 -0.5276 -0.5607  0.2702
  545TMC3    C2 8084   3.934   1.514  17.633  0.2614 -0.0461  0.5127
  545TMC3    C3 8085   3.875   1.392  17.647  0.2886 -0.2307  0.0788
  545TMC3    C4 8086   4.114   1.433   0.054 -0.1896  1.5184 -0.3214
  545TMC3    C5 8087   4.050   1.311   0.058  0.1078  0.4036  0.9648
  545TMC3    C6 8088   3.927   1.291   0.010  0.1949  0.0639 -0.1235
  545TMC3     C 8089   4.133   1.653  17.652  0.2069  0.8393 -0.7140
  545TMC3     O 8090   4.084   1.713  17.556 -0.4985  0.5248  0.1837
  545TMC3     H 8091   3.888   1.606  17.600  1.2989  0.2583 -0.0961
  545TMC3    H1 8092   4.213   1.448   0.096 -0.3525 -1.1987  1.0182
  545TMC3    H2 8093   3.879   1.194   0.005  1.3424 -0.4903 -0.5413
  545TMC3    C7 8094   4.116   1.212   0.137 -0.6051  0.3600  0.1012
  545TMC3    C8 8095   3.755   1.372  17.565 -0.0656  0.7192 -0.3894
  545TMC3    O1 8096   4.052   1.143   0.211  0.1319  0.5645  1.1385
  545TMC3    O2 8097   3.758   1.422  17.458  0.8128 -0.2859  0.2245
  546MPD2     C 8098   1.304   2.115  17.417  0.0008 -0.5707  0.1379
  546MPD2    C1 8099   1.218   2.177  17.331  0.0368  0.3062  0.3775
  546MPD2    C2 8100   1.268   2.277  17.249  0.6170  0.4010 -0.0264
  546MPD2    C3 8101   1.390   2.335  17.270 -0.2874  0.0628  0.1468
  546MPD2    C4 8102   1.475   2.280  17.364  0.1447 -0.5236  0.9882
  546MPD2    C5 8103   1.429   2.171  17.431 -0.4388 -0.2249 -0.1746
  546MPD2     H 8104   1.212   2.325  17.170 -1.6755 -2.7828 -0.3295
  546MPD2    H1 8105   1.570   2.321  17.397  0.1758  0.9329 -0.8914
  546MPD2    H2 8106   1.279   2.031  17.481 -0.8617  0.6301  1.3559
  546MPD2    H3 8107   1.497   2.125  17.502  2.2113  0.0999 -2.5293
  546MPD2     N 8108   1.429   2.448  17.200 -0.4347 -0.5685 -0.8823
  546MPD2    H5 8109   1.375   2.485  17.122  0.3290 -0.2879 -1.2708
  546MPD2    N1 8110   1.079   2.128  17.318 -0.0982  0.0603 -0.6817
  546MPD2    H7 8111   1.041   2.056  17.380  0.8007 -0.7635 -1.0924
  547TMC3    C1 8112   0.843   2.146  17.242  0.0103  0.5664 -0.1157
  547TMC3    C2 8113   0.749   2.232  17.181 -0.0121  0.0633  0.2745
  547TMC3    C3 8114   0.619   2.189  17.177 -0.1529  0.3698 -0.2117
  547TMC3    C4 8115   0.799   2.038  17.313 -0.4866 -0.1759 -0.1180
  547TMC3    C5 8116   0.672   2.002  17.320 -0.1983  0.5341 -0.1096
  547TMC3    C6 8117   0.571   2.076  17.247 -0.7116  0.3771  0.3088
  547TMC3     C 8118   0.983   2.185  17.231 -0.0894 -0.3157  0.6421
  547TMC3     O 8119   0.996   2.280  17.153 -0.2305  0.2024  0.1880
  547TMC3     H 8120   0.773   2.331  17.143  0.0458 -1.0137 -2.4983
  547TMC3    H1 8121   0.874   1.971  17.353 -0.8085 -0.4597  0.0140
  547TMC3    H2 8122   0.465   2.056  17.248 -0.8271  1.0967  1.7367
  547TMC3    C7 8123   0.636   1.925  17.441 -0.3658  0.7350 -0.4683
  547TMC3    C8 8124   0.535   2.225  17.068  0.1173  0.0911 -0.6165
  547TMC3    O1 8125   0.727   1.904  17.517 -0.1626  0.4233 -0.2259
  547TMC3    O2 8126   0.420   2.190  17.050 -0.2202 -0.1898  0.4858
  548MPD2     C 8127   0.940   3.381  11.992  0.2294  0.5966  0.1782
  548MPD2    C1 8128   0.908   3.246  12.016  0.6406  0.7212 -0.1675
  548MPD2    C2 8129   1.011   3.159  12.032  0.2641 -0.4796  0.3731
  548MPD2    C3 8130   1.142   3.198  12.025 -0.4491 -0.1021  0.5001
  548MPD2    C4 8131   1.174   3.328  11.999  0.2972  0.2904 -0.3649
  548MPD2    C5 8132   1.071   3.417  11.978 -0.2486 -0.0383 -0.2638
  548MPD2     H 8133   0.989   3.055  12.054 -1.1530 -0.7453 -2.4122
  548MPD2    H1 8134   1.276   3.361  11.985  0.3161  0.5143  0.3405
  548MPD2    H2 8135   0.872   3.464  11.984 -0.3193  0.1644  0.3845
  548MPD2    H3 8136   1.089   3.522  11.961  1.6207 -0.6600 -2.1239
  548MPD2     N 8137   1.237   3.093  12.021  0.0001  0.2814 -0.2789
  548MPD2    H5 8138   1.206   3.000  12.047  0.9673  0.2917  0.9338
  548MPD2    N1 8139   0.773   3.205  12.001 -0.7455 -0.0941  0.2093
  548MPD2    H7 8140   0.707   3.279  11.977 -0.1928  0.0946 -0.7180
  549TMC3    C1 8141   0.579   3.071  11.978 -0.1202  0.2786  0.1197
  549TMC3    C2 8142   0.517   3.178  11.909 -0.2610 -0.5022  0.0768
  549TMC3    C3 8143   0.412   3.144  11.830 -0.1241 -0.4639  0.8363
  549TMC3    C4 8144   0.531   2.945  11.975 -0.5406 -0.2796 -0.5704
  549TMC3    C5 8145   0.427   2.922  11.891  0.0616 -0.3230  0.0137
  549TMC3    C6 8146   0.371   3.015  11.814  0.1741  0.1505 -0.2645
  549TMC3     C 8147   0.727   3.080  12.002 -0.2002 -0.0974 -0.6597
  549TMC3     O 8148   0.787   2.975  12.024  0.1046 -0.1674  0.0106
  549TMC3     H 8149   0.558   3.278  11.910  1.6058 -1.2289 -1.8621
  549TMC3    H1 8150   0.581   2.876  12.042 -0.8890  1.0280  1.0404
  549TMC3    H2 8151   0.289   2.986  11.749  0.1222 -1.5950  0.5794
  549TMC3    C7 8152   0.348   2.812  11.923  0.3161  0.5793 -0.1890
  549TMC3    C8 8153   0.320   3.245  11.780  0.5894  0.1748  0.0650
  549TMC3    O1 8154   0.239   2.804  11.873  0.5507 -0.3555  0.7253
  549TMC3    O2 8155   0.237   3.206  11.698  0.3196 -0.3871 -0.2471
  550TMC3    C1 8156   4.574   1.254  12.923 -0.0379 -0.2783  0.0270
  550TMC3    C2 8157   4.519   1.337  13.011 -0.5577 -0.2369  0.7322
  550TMC3    C3 8158   4.381   1.356  13.014 -0.2388  0.3752 -0.1317
  550TMC3    C4 8159   4.500   1.165  12.851 -0.0256  0.6829  0.0498
  550TMC3    C5 8160   4.360   1.172  12.862 -0.0272  0.3731  0.2840
  550TMC3    C6 8161   4.296   1.272  12.941  0.0449  0.4825  0.0267
  550TMC3     C 8162   4.711   1.270  12.869  0.1697 -0.7335 -0.0891
  550TMC3     O 8163   0.074   1.295  12.945 -0.2141  0.6660  0.1751
  550TMC3     H 8164   4.591   1.406  13.052 -1.3639  2.7933 -2.9128
  550TMC3    H1 8165   4.547   1.075  12.814 -0.6927  0.3221  0.0860
  550TMC3    H2 8166   4.188   1.281  12.950 -0.1997 -0.4013 -1.9972
  550TMC3    C7 8167   4.273   1.076  12.795 -0.0658 -0.0681 -0.2380
  550TMC3    C8 8168   4.338   1.493  13.047 -0.0001 -0.1797 -0.2585
  550TMC3    O1 8169   4.153   1.076  12.825  0.1268 -0.0766 -0.9093
  550TMC3    O2 8170   4.417   1.587  13.049  0.6358  0.2365 -0.3339
  551TMC3    C1 8171   1.960   3.565  13.032  0.4278 -0.0699 -0.0340
  551TMC3    C2 8172   2.051   3.629  12.949  0.3843 -0.0994 -0.1021
  551TMC3    C3 8173   2.081   3.762  12.975  0.0258 -0.0567  0.5103
  551TMC3    C4 8174   1.902   3.627  13.140 -0.4965  0.2244 -0.1479
  551TMC3    C5 8175   1.949   3.747  13.170  0.4044  0.0668 -0.0275
  551TMC3    C6 8176   2.036   3.822  13.092 -0.3970  0.1728 -0.6784
  551TMC3     C 8177   1.914   3.433  13.004 -0.3116 -0.3175 -0.0593
  551TMC3     O 8178   1.950   3.386  12.896 -0.4963  0.3664 -0.1424
  551TMC3     H 8179   2.103   3.581  12.867  0.0447  0.8488 -0.8858
  551TMC3    H1 8180   1.823   3.592  13.207 -0.5052 -1.9002 -1.2728
  551TMC3    H2 8181   2.086   3.913  13.123  2.3670 -1.3967 -0.5104
  551TMC3    C7 8182   1.925   3.797  13.303  0.9483 -0.4539  0.6939
  551TMC3    C8 8183   2.194   3.816  12.902  0.1697 -0.3665  0.1782
  551TMC3    O1 8184   1.943   3.720  13.394  0.4068  0.3029  0.3466
  551TMC3    O2 8185   2.280   3.735  12.874 -0.1364  0.3677 -0.0101
  552MPD2     C 8186   3.731   1.016  14.095 -1.0527  0.3123 -0.8922
  552MPD2    C1 8187   3.819   0.910  14.100 -0.6123  0.2196  0.4393
  552MPD2    C2 8188   3.954   0.939  14.129  0.3317  0.0968  0.0834
  552MPD2    C3 8189   3.990   1.064  14.183  0.2459 -0.5072  0.2802
  552MPD2    C4 8190   3.897   1.162  14.195  0.8174  0.1647  0.3818
  552MPD2    C5 8191   3.767   1.135  14.149  0.5331  0.3078  0.0707
  552MPD2     H 8192   4.028   0.861  14.112  1.1251  0.7453  0.5720
  552MPD2    H1 8193   3.906   1.263  14.231 -0.0360 -0.7035  3.0153
  552MPD2    H2 8194   3.629   1.006  14.061 -1.4879  0.9797  0.2449
  552MPD2    H3 8195   3.690   1.211  14.158  0.2279  0.1395 -1.1829
  552MPD2     N 8196   4.111   1.086  14.247 -0.6538  0.5271 -0.5035
  552MPD2    H5 8197   4.116   1.163  14.312  0.9608 -1.2754  1.5034
  552MPD2    N1 8198   3.788   0.784  14.047  0.4893 -0.2156  0.0624
  552MPD2    H7 8199   3.869   0.724  14.035  0.6175 -0.1575  0.6221
  553TMC3    C1 8200   3.681   0.615  13.925 -1.1096  0.0454 -0.9159
  553TMC3    C2 8201   3.617   0.587  13.809  0.0093 -0.3638  0.1986
  553TMC3    C3 8202   3.620   0.459  13.773 -0.1853 -0.1267  1.0304
  553TMC3    C4 8203   3.767   0.531  13.991  0.3545 -0.1670 -0.6729
  553TMC3    C5 8204   3.763   0.402  13.949  0.0621  0.2243 -0.7908
  553TMC3    C6 8205   3.696   0.366  13.834 -0.0228 -1.0830  0.8143
  553TMC3     C 8206   3.671   0.750  13.985 -0.1339 -0.9008  0.4664
  553TMC3     O 8207   3.562   0.806  13.979 -0.2941 -0.0378 -0.0581
  553TMC3     H 8208   3.547   0.662  13.773  0.5589 -1.2842 -2.7755
  553TMC3    H1 8209   3.810   0.550  14.089 -1.6299 -1.2116  0.4057
  553TMC3    H2 8210   3.699   0.261  13.809  1.8779 -0.3557 -2.0386
  553TMC3    C7 8211   3.843   0.310  14.021 -0.4122 -0.6171 -0.3848
  553TMC3    C8 8212   3.599   0.420  13.629  0.4675  0.1146  0.0734
  553TMC3    O1 8213   3.800   0.196  14.033 -0.5367  0.9456 -0.6121
  553TMC3    O2 8214   3.660   0.322  13.586  0.0219 -0.1404 -0.1179
  554TMC3    C1 8215   0.723   4.344  11.709  0.2405 -0.2802 -0.7289
  554TMC3    C2 8216   0.629   4.304  11.615  0.1850 -0.8667  0.1269
  554TMC3    C3 8217   0.676   4.266  11.488 -0.0291  0.1285 -0.3216
  554TMC3    C4 8218   0.861   4.348  11.683  0.3472 -0.5690  0.1057
  554TMC3    C5 8219   0.898   4.301  11.559 -0.1947  0.0732  0.7548
  554TMC3    C6 8220   0.816   4.260  11.463  0.1413 -0.6075 -0.5313
  554TMC3     C 8221   0.687   4.310  11.844 -0.2830  0.3981  0.1962
  554TMC3     O 8222   0.570   4.286  11.870 -0.3561 -0.4276  0.5965
  554TMC3     H 8223   0.524   4.310  11.642  0.0081  0.5515 -0.8852
  554TMC3    H1 8224   0.928   4.398  11.752 -0.6024  0.1906  0.4841
  554TMC3    H2 8225   0.855   4.229  11.367  2.6299 -1.1338  0.6493
  554TMC3    C7 8226   1.019   4.361  11.502 -0.0955  0.5832 -0.6104
  554TMC3    C8 8227   0.590   4.288  11.374  0.3244  0.1106 -0.0715
  554TMC3    O1 8228   1.024   4.370  11.381  0.5881 -0.5983  0.0237
  554TMC3    O2 8229   0.649   4.305  11.265 -0.6716  0.1686  0.0070
  555TMC3    C1 8230   4.502   3.985  14.558  0.6158 -1.0619  0.2319
  555TMC3    C2 8231   4.401   4.054  14.623 -0.1548 -0.0498  0.0803
  555TMC3    C3 8232   4.408   4.065  14.761  0.0959 -0.0316  0.7725
  555TMC3    C4 8233   4.602   3.928  14.635 -0.6304  0.6779 -0.8085
  555TMC3    C5 8234   4.603   3.941  14.770  0.5117  0.2032  0.1812
  555TMC3    C6 8235   4.503   4.000  14.832 -0.1262  0.3427  0.0446
  555TMC3     C 8236   4.522   4.009  14.410 -0.3940 -0.2779  0.6856
  555TMC3     O 8237   4.614   3.950  14.355  0.1532  0.2086  0.2288
  555TMC3     H 8238   4.321   4.112  14.577  1.8849  3.3323  0.7965
  555TMC3    H1 8239   4.663   3.856  14.582 -1.7348 -1.7592  1.2374
  555TMC3    H2 8240   4.492   3.998  14.940  0.9261 -0.1580  0.1430
  555TMC3    C7 8241   4.682   3.844  14.855 -0.0116 -0.4775 -1.0230
  555TMC3    C8 8242   4.332   4.167  14.831 -0.0869 -0.2533  0.1827
  555TMC3    O1 8243   4.634   3.819  14.963  0.1813 -0.3770 -0.2170
  555TMC3    O2 8244   4.222   4.179  14.781 -0.3598 -0.2021 -0.2163
  556MPD2     C 8245   2.949   1.670  10.314  0.2774  0.9224 -0.3376
  556MPD2    C1 8246   2.854   1.627  10.406 -0.4633  0.3175  0.0843
  556MPD2    C2 8247   2.753   1.542  10.364 -0.4286  0.4221 -0.2141
  556MPD2    C3 8248   2.741   1.502  10.229 -0.6837 -0.0473  0.4701
  556MPD2    C4 8249   2.842   1.546  10.142  0.5362  0.6815 -0.2853
  556MPD2    C5 8250   2.941   1.630  10.188 -0.2379  0.0934  0.0088
  556MPD2     H 8251   2.678   1.517  10.438 -0.5904  4.4782  0.9859
  556MPD2    H1 8252   2.847   1.519  10.037  0.9232  2.0757 -0.6321
  556MPD2    H2 8253   3.031   1.736  10.338  0.4050 -0.0565  1.9615
  556MPD2    H3 8254   3.029   1.661  10.131 -0.2067 -0.5571 -0.2942
  556MPD2     N 8255   2.638   1.411  10.191  0.3699 -0.2292 -0.5248
  556MPD2    H5 8256   2.583   1.370  10.266  0.2813  1.1636  0.1625
  556MPD2    N1 8257   2.849   1.672  10.536 -0.5485 -0.9341  0.7877
  556MPD2    H7 8258   2.764   1.645  10.585 -0.6616  0.1206  1.1891
  557TMC3    C1 8259   2.528   1.255  10.064 -0.9009 -0.4156 -0.4474
  557TMC3    C2 8260   2.456   1.227   9.947 -0.2536  0.5673  0.5917
  557TMC3    C3 8261   2.409   1.096   9.923 -0.3240  0.2526 -0.0080
  557TMC3    C4 8262   2.539   1.156  10.161 -0.8979  0.0112  0.7793
  557TMC3    C5 8263   2.487   1.035  10.142  0.1200 -0.3652 -0.6207
  557TMC3    C6 8264   2.433   0.999  10.021  0.4988  0.3655  0.9058
  557TMC3     C 8265   2.608   1.381  10.064 -0.8273 -0.6578  0.4641
  557TMC3     O 8266   2.649   1.423   9.957 -0.2419  0.0193  0.2360
  557TMC3     H 8267   2.460   1.295   9.862 -1.2281  0.3254  0.3426
  557TMC3    H1 8268   2.594   1.193  10.247 -1.5946  0.2937  1.0952
  557TMC3    H2 8269   2.408   0.894  10.008 -1.2571  0.8780  0.2674
  557TMC3    C7 8270   2.492   0.938  10.247 -0.3334 -0.2685 -0.3419
  557TMC3    C8 8271   2.323   1.066   9.811  0.0603  0.9474 -0.2701
  557TMC3    O1 8272   2.457   0.824  10.215  0.2697  0.0413  0.1797
  557TMC3    O2 8273   2.250   1.158   9.777 -0.2947  0.1995 -0.0410
  558TMC3    C1 8274   0.306   3.719   9.471  0.2057  0.1300 -0.5884
  558TMC3    C2 8275   0.220   3.624   9.525 -0.6667  0.5033 -0.0981
  558TMC3    C3 8276   0.080   3.654   9.507 -0.2345 -0.3917  0.0225
  558TMC3    C4 8277   0.258   3.818   9.395  0.1782 -0.1911  0.3755
  558TMC3    C5 8278   0.127   3.826   9.357  0.3080  0.2000  0.2920
  558TMC3    C6 8279   0.036   3.752   9.421 -0.5427  0.2773 -0.7041
  558TMC3     C 8280   0.445   3.719   9.498 -0.3248  0.2682 -0.0626
  558TMC3     O 8281   0.496   3.828   9.515 -0.1288 -0.0706 -0.5117
  558TMC3     H 8282   0.254   3.544   9.589 -0.5438 -0.4798 -1.3979
  558TMC3    H1 8283   0.331   3.881   9.345 -3.0357  1.2100 -2.5842
  558TMC3    H2 8284   4.657   3.776   9.412 -1.2398 -2.8506 -0.6873
  558TMC3    C7 8285   0.095   3.947   9.289  0.3114  0.5062  0.3209
  558TMC3    C8 8286   4.698   3.557   9.547  0.0236  0.9379  0.2415
  558TMC3    O1 8287   0.181   4.035   9.283  0.4526 -0.1837  0.1130
  558TMC3    O2 8288   4.602   3.544   9.481 -0.5976  0.1747 -0.3324
  559MPD2     C 8289   0.374   4.261  10.462 -0.2559  0.1339  0.1247
  559MPD2    C1 8290   0.323   4.136  10.481  0.5573 -0.0146  0.1284
  559MPD2    C2 8291   0.396   4.038  10.534 -0.2501 -0.9202  0.6000
  559MPD2    C3 8292   0.533   4.057  10.566  0.6998  0.1142 -0.2010
  559MPD2    C4 8293   0.591   4.181  10.542  0.0260 -0.4998 -0.2289
  559MPD2    C5 8294   0.505   4.279  10.493  0.7713 -0.0605  0.2920
  559MPD2     H 8295   0.349   3.942  10.552 -0.7673 -0.4501  1.7761
  559MPD2    H1 8296   0.696   4.197  10.564 -0.4316  1.2966  0.6480
  559MPD2    H2 8297   0.313   4.342  10.423 -0.0711  0.0782 -0.2872
  559MPD2    H3 8298   0.551   4.377  10.493 -1.1910  0.8430 -3.0443
  559MPD2     N 8299   0.610   3.947  10.617  0.4273 -0.2645  0.1088
  559MPD2    H5 8300   0.562   3.859  10.637 -0.0111  0.0167  0.2862
  559MPD2    N1 8301   0.183   4.125  10.454 -0.1879  1.0824  0.2702
  559MPD2    H7 8302   0.146   4.215  10.428  2.0675  1.8804 -0.1699
  560TMC3    C1 8303   0.784   3.812  10.699 -0.0160  0.1600 -0.2633
  560TMC3    C2 8304   0.737   3.701  10.641 -0.4112 -0.2406  0.2020
  560TMC3    C3 8305   0.750   3.583  10.712 -1.1609 -0.4097  0.3324
  560TMC3    C4 8306   0.872   3.806  10.806  0.2018 -0.4338 -0.1227
  560TMC3    C5 8307   0.883   3.688  10.869  0.7656 -0.5616 -0.5581
  560TMC3    C6 8308   0.820   3.576  10.828  0.7508 -0.7352  0.3833
  560TMC3     C 8309   0.746   3.941  10.645  0.2949 -0.2472  0.0894
  560TMC3     O 8310   0.828   4.033  10.653 -0.2473  0.0006  0.0307
  560TMC3     H 8311   0.682   3.712  10.548 -1.4264 -4.3038  0.3449
  560TMC3    H1 8312   0.915   3.893  10.853  0.0319  0.0720 -0.9110
  560TMC3    H2 8313   0.844   3.474  10.855  1.2379 -0.9878 -0.9631
  560TMC3    C7 8314   0.991   3.670  10.963 -0.1204 -0.0223 -0.3542
  560TMC3    C8 8315   0.647   3.482  10.684 -0.6411 -0.1945  0.4078
  560TMC3    O1 8316   1.006   3.557  10.996 -0.7913  0.0001  0.2925
  560TMC3    O2 8317   0.590   3.498  10.578 -0.2012  0.3360 -0.7092
  561TMC3    C1 8318   3.007   2.801  11.282 -0.1821 -0.5763  0.1119
  561TMC3    C2 8319   2.980   2.760  11.408 -0.0900  0.1968  0.3428
  561TMC3    C3 8320   2.958   2.862  11.493 -0.1296  0.1365  0.2231
  561TMC3    C4 8321   3.007   2.933  11.238 -0.0145 -0.0454  0.3903
  561TMC3    C5 8322   2.992   3.029  11.335 -0.5788  0.3361 -0.2920
  561TMC3    C6 8323   2.963   2.995  11.459 -0.4474  0.3320  0.3755
  561TMC3     C 8324   3.061   2.703  11.196  0.3019  0.2695  0.0916
  561TMC3     O 8325   3.009   2.592  11.197  0.4727  0.1393  0.5547
  561TMC3     H 8326   2.977   2.659  11.447  0.6499  0.8073  1.9852
  561TMC3    H1 8327   3.023   2.957  11.134  0.1596 -1.6741  0.0406
  561TMC3    H2 8328   2.979   3.071  11.534  0.5416 -0.0739  0.5739
  561TMC3    C7 8329   2.974   3.172  11.307  0.5047 -0.2359  0.2391
  561TMC3    C8 8330   2.934   2.833  11.633 -0.1759 -0.7088 -0.5786
  561TMC3    O1 8331   2.919   3.237  11.394  0.3386  0.1642  0.2585
  561TMC3    O2 8332   3.000   2.748  11.693  0.1772 -0.9396 -0.4345
  562TMC3    C1 8333   4.649   0.095  16.005 -0.3559 -0.3778  0.4592
  562TMC3    C2 8334   4.524   0.155  16.028  0.3548  0.4353  0.3866
  562TMC3    C3 8335   4.435   0.129  15.921  0.1412  0.5576  0.4252
  562TMC3    C4 8336   4.688   0.021  15.893 -0.1631 -0.3769  0.1291
  562TMC3    C5 8337   4.595   4.720  15.805 -0.2981 -0.6929 -0.5858
  562TMC3    C6 8338   4.472   0.052  15.807 -0.2399  0.5150  0.1648
  562TMC3     C 8339   0.006   0.098  16.123 -0.3087 -0.5586  0.5176
  562TMC3     O 8340   0.125   0.065  16.114  0.5051  0.2394 -0.6987
  562TMC3     H 8341   4.497   0.221  16.110 -1.9216 -0.3316  0.2427
  562TMC3    H1 8342   0.060   4.702  15.887  1.2366  2.6843  0.2247
  562TMC3    H2 8343   4.404   0.038  15.723  0.6552  0.6684 -0.5851
  562TMC3    C7 8344   4.622   4.643  15.685  0.1581  0.2884  0.0264
  562TMC3    C8 8345   4.299   0.155  15.951 -0.3930 -0.5578  0.1250
  562TMC3    O1 8346   4.553   4.656  15.582  0.5797  0.5069  0.3326
  562TMC3    O2 8347   4.269   0.185  16.067  0.4185 -0.5893 -0.2069
  563MPD2     C 8348   1.944   0.844  15.654  0.0630  0.6494 -0.1892
  563MPD2    C1 8349   1.984   0.939  15.749  0.0262 -0.5413 -0.0201
  563MPD2    C2 8350   2.112   0.926  15.800  0.3200 -0.1567 -0.2037
  563MPD2    C3 8351   2.197   0.825  15.756 -0.6468  0.1280  0.2421
  563MPD2    C4 8352   2.159   0.737  15.655  0.6514  0.6413 -0.3759
  563MPD2    C5 8353   2.029   0.750  15.604 -0.1612 -0.0450 -0.2345
  563MPD2     H 8354   2.158   0.998  15.867 -2.1189  1.5390 -0.3593
  563MPD2    H1 8355   2.225   0.668  15.604 -0.3914  0.7250 -1.8418
  563MPD2    H2 8356   1.843   0.852  15.615 -0.5130 -1.1659  0.9463
  563MPD2    H3 8357   1.997   0.678  15.530 -0.5041 -1.0205  0.8723
  563MPD2     N 8358   2.332   0.837  15.801 -0.4980  0.6545  0.1998
  563MPD2    H5 8359   2.356   0.913  15.863 -1.0453  0.0342  1.1746
  563MPD2    N1 8360   1.899   1.052  15.763 -0.6430 -0.3666  0.2838
  563MPD2    H7 8361   1.815   1.051  15.706  1.2817  0.2771 -2.5345
  564TMC3    C1 8362   1.815   1.251  15.849 -0.0731 -0.5004  0.6725
  564TMC3    C2 8363   1.712   1.209  15.765 -0.0393 -0.6880 -0.4412
  564TMC3    C3 8364   1.597   1.168  15.827  0.5594 -0.2044  0.5375
  564TMC3    C4 8365   1.789   1.266  15.982 -0.0537  0.1322 -0.6429
  564TMC3    C5 8366   1.666   1.229  16.040  0.0336 -1.1709 -0.4431
  564TMC3    C6 8367   1.570   1.171  15.963  0.0830 -0.6347 -0.1608
  564TMC3     C 8368   1.928   1.167  15.831  0.4995  0.0805  0.0198
  564TMC3     O 8369   2.025   1.196  15.898 -0.0799 -1.0115 -0.4187
  564TMC3     H 8370   1.713   1.232  15.659 -1.1629  0.6185 -0.1695
  564TMC3    H1 8371   1.871   1.306  16.041 -0.1313 -2.2444  1.0697
  564TMC3    H2 8372   1.470   1.154  16.000  0.8256 -0.7800  1.8200
  564TMC3    C7 8373   1.704   1.139  16.150 -0.5552  0.2955 -0.2220
  564TMC3    C8 8374   1.541   1.045  15.787 -0.4908  0.2083  0.0981
  564TMC3    O1 8375   1.780   1.181  16.237  0.5959 -0.4882 -0.3602
  564TMC3    O2 8376   1.475   0.982  15.869  0.2873  0.2215  0.2658
  565TMC3    C1 8377   2.033   1.920   9.986 -0.3224 -1.3516 -0.3518
  565TMC3    C2 8378   2.021   1.880  10.117  0.0636 -1.0605 -0.1610
  565TMC3    C3 8379   1.913   1.802  10.167  0.7657 -0.0618 -0.3782
  565TMC3    C4 8380   1.944   1.866   9.898  0.0475 -0.4377  0.7550
  565TMC3    C5 8381   1.844   1.780   9.946  0.6044  0.7014 -0.0650
  565TMC3    C6 8382   1.826   1.752  10.077 -0.0592  0.4894  0.6210
  565TMC3     C 8383   2.143   1.998   9.941 -0.1036 -0.5000 -0.3617
  565TMC3     O 8384   2.158   2.013   9.820 -0.2081 -0.0318  0.2384
  565TMC3     H 8385   2.089   1.915  10.194 -0.4258 -2.8023  1.0745
  565TMC3    H1 8386   1.956   1.900   9.796  2.0103 -1.0499  0.7827
  565TMC3    H2 8387   1.775   1.659  10.100 -0.7348  0.8075  0.4176
  565TMC3    C7 8388   1.737   1.735   9.863  0.4580  1.0926  0.3724
  565TMC3    C8 8389   1.909   1.781  10.314  0.1387  0.3959 -0.2019
  565TMC3    O1 8390   1.632   1.699   9.918  0.0824  0.0676 -0.4072
  565TMC3    O2 8391   2.009   1.804  10.380 -0.3275 -0.7181  0.1616
  566MPD2     C 8392   4.085   3.979  14.038  0.1675 -0.1346  0.5413
  566MPD2    C1 8393   4.160   3.934  13.930  0.3450 -0.1290 -0.7818
  566MPD2    C2 8394   4.125   3.965  13.798  0.0343  0.0042  0.3561
  566MPD2    C3 8395   4.027   4.058  13.777  0.3899  0.7166  0.2949
  566MPD2    C4 8396   3.958   4.105  13.886 -0.4158 -0.0377 -0.2003
  566MPD2    C5 8397   3.985   4.061  14.012 -0.6263  0.0760 -0.0973
  566MPD2     H 8398   4.180   3.929  13.712  0.7949 -0.3632  0.9960
  566MPD2    H1 8399   3.869   4.163  13.865 -0.1731 -0.3245 -2.0609
  566MPD2    H2 8400   4.121   3.953  14.137 -0.4553  1.4524  1.1710
  566MPD2    H3 8401   3.933   4.106  14.096 -1.1325 -2.8858  1.1821
  566MPD2     N 8402   4.000   4.105  13.645 -0.3260 -0.3485  0.0943
  566MPD2    H5 8403   3.948   4.192  13.648  1.4074  0.6965 -0.0920
  566MPD2    N1 8404   4.265   3.842  13.956  0.3586  0.3502  0.2991
  566MPD2    H7 8405   4.287   3.823  14.053 -0.2552  0.4438  0.4551
  567TMC3    C1 8406   4.478   3.763  13.941 -0.1086  0.3579  0.2691
  567TMC3    C2 8407   4.602   3.806  13.893  0.7406  0.5659 -0.7721
  567TMC3    C3 8408   4.713   3.784  13.970 -0.4949 -0.2364 -0.3056
  567TMC3    C4 8409   4.461   3.694  14.055 -0.4980  0.0734 -0.7120
  567TMC3    C5 8410   4.580   3.666  14.118  0.5826 -0.2141  0.2688
  567TMC3    C6 8411   4.709   3.712  14.090  0.4045  0.1016 -0.1274
  567TMC3     C 8412   4.362   3.803  13.862  0.6210  0.4814  0.6774
  567TMC3     O 8413   4.380   3.834  13.744 -0.3910  0.1378 -0.1713
  567TMC3     H 8414   4.611   3.866  13.804 -0.8608  0.1464 -1.2122
  567TMC3    H1 8415   4.367   3.645  14.079 -0.7751  1.5574  1.2439
  567TMC3    H2 8416   0.062   3.713  14.164  1.6182 -1.0406 -1.4455
  567TMC3    C7 8417   4.593   3.601  14.250  0.0337  0.2060 -0.8338
  567TMC3    C8 8418   0.087   3.891  13.959  0.0580  0.5160  0.0788
  567TMC3    O1 8419   4.694   3.543  14.273 -0.1157  0.4193 -0.1228
  567TMC3    O2 8420   0.064   3.992  13.893  0.2349  0.4312 -0.7769
  568MPD2     C 8421   2.344   4.712  16.187  0.2201  0.1998 -0.1777
  568MPD2    C1 8422   2.225   4.667  16.241  0.1675 -0.4714  0.0090
  568MPD2    C2 8423   2.107   4.713  16.188  0.7965 -0.0516  0.1590
  568MPD2    C3 8424   2.104   0.073  16.081 -0.0719 -0.1147 -0.1890
  568MPD2    C4 8425   2.228   0.116  16.028 -0.6346  0.5378  0.3000
  568MPD2    C5 8426   2.343   0.067  16.079  0.3191 -0.0976  0.1004
  568MPD2     H 8427   2.009   4.687  16.226  1.1249  1.1432  1.8558
  568MPD2    H1 8428   2.234   0.194  15.952 -1.8315  0.8567  0.5432
  568MPD2    H2 8429   2.440   4.672  16.215 -0.0678  0.3392  1.0089
  568MPD2    H3 8430   2.430   0.098  16.021 -0.4850  1.4470 -0.2892
  568MPD2     N 8431   1.987   0.138  16.056  0.1628 -0.6998  0.2663
  568MPD2    H5 8432   1.903   0.119  16.110 -0.0194  3.2598  1.4393
  568MPD2    N1 8433   2.229   4.564  16.344  0.4319  0.0554 -0.5463
  568MPD2    H7 8434   2.318   4.523  16.370  1.6469  1.9306 -1.7899
  569TMC3    C1 8435   1.826   0.256  15.944 -0.1395  0.2320 -0.3772
  569TMC3    C2 8436   1.762   0.285  16.058 -0.2707  0.4158  0.8830
  569TMC3    C3 8437   1.647   0.357  16.040  0.7505 -0.8851  0.3694
  569TMC3    C4 8438   1.778   0.285  15.819 -0.2334  0.1905 -0.9487
  569TMC3    C5 8439   1.658   0.350  15.805  0.0633  0.2257  0.1052
  569TMC3    C6 8440   1.593   0.383  15.919 -0.0772  0.6035  0.2417
  569TMC3     C 8441   1.960   0.210  15.949  0.4873  0.4571 -0.5192
  569TMC3     O 8442   2.033   0.241  15.854  0.1066 -0.5589  0.6524
  569TMC3     H 8443   1.805   0.265  16.156 -1.6822 -2.8101  0.8725
  569TMC3    H1 8444   1.841   0.275  15.732  2.7076  2.8426  0.8499
  569TMC3    H2 8445   1.496   0.429  15.907 -0.1536  0.8526  1.8833
  569TMC3    C7 8446   1.636   0.408  15.677 -0.4361  0.0421 -0.4774
  569TMC3    C8 8447   1.618   0.462  16.128  0.5505 -0.0110  0.3807
  569TMC3    O1 8448   1.664   0.352  15.571 -0.0738 -0.1949  0.0847
  569TMC3    O2 8449   1.547   0.547  16.075 -0.4899 -0.3958 -0.4316
  570TMC3    C1 8450   1.124   3.867  15.919  0.1722 -0.1109 -0.7226
  570TMC3    C2 8451   1.186   3.907  15.803  1.0411  0.1303 -0.1749
  570TMC3    C3 8452   1.244   4.032  15.806  0.1635  0.2141  0.2836
  570TMC3    C4 8453   1.126   3.947  16.033  0.5723  0.7810 -0.7429
  570TMC3    C5 8454   1.178   4.072  16.026  0.8635  0.2602 -0.5546
  570TMC3    C6 8455   1.239   4.118  15.914 -0.3365 -0.1453  0.5843
  570TMC3     C 8456   1.063   3.731  15.914  0.6427 -0.6434 -0.7571
  570TMC3     O 8457   1.057   3.673  15.808 -0.0940 -0.1300 -0.2618
  570TMC3     H 8458   1.189   3.845  15.714  2.6006  0.0747 -0.0850
  570TMC3    H1 8459   1.075   3.914  16.123 -0.0102 -0.2741 -1.4626
  570TMC3    H2 8460   1.297   4.209  15.921 -1.8277  1.1133 -3.4724
  570TMC3    C7 8461   1.227   4.129  16.151 -0.3394  0.4017 -0.2694
  570TMC3    C8 8462   1.331   4.086  15.700  0.1288 -0.2359 -0.2384
  570TMC3    O1 8463   1.343   4.174  16.159  0.0564 -0.3450  0.1364
  570TMC3    O2 8464   1.406   4.179  15.727 -0.1304  0.1419 -0.2392
  571MPD2     C 8465   3.859   0.355   0.181  0.4785 -0.7725 -0.4889
  571MPD2    C1 8466   3.922   0.468   0.132 -0.0208  0.2208  0.0460
  571MPD2    C2 8467   3.893   0.594   0.186 -0.3620 -0.2988  0.1959
  571MPD2    C3 8468   3.789   0.602   0.282  0.3589  0.1041  0.4113
  571MPD2    C4 8469   3.720   0.488   0.322 -0.3751  0.5521 -0.0020
  571MPD2    C5 8470   3.759   0.367   0.273 -0.4394 -0.6295  0.7081
  571MPD2     H 8471   3.940   0.686   0.153  3.2780 -3.1409 -2.5312
  571MPD2    H1 8472   3.630   0.494   0.382 -0.2763 -0.1859  0.2180
  571MPD2    H2 8473   3.870   0.256   0.139 -1.6988 -0.9237 -0.6717
  571MPD2    H3 8474   3.700   0.280   0.298  3.1326 -3.1717  0.1999
  571MPD2     N 8475   3.752   0.732   0.330 -0.1761  0.2266 -0.2097
  571MPD2    H5 8476   3.811   0.813   0.308  0.5696  0.3686  2.2460
  571MPD2    N1 8477   4.036   0.440   0.052 -0.0519  0.2593  0.1091
  571MPD2    H7 8478   4.061   0.342   0.043 -1.0359 -0.2601  3.0900
  572TMC3    C1 8479   3.674   0.902   0.475 -0.4789  0.0527  0.7864
  572TMC3    C2 8480   3.673   0.926   0.609  0.1721 -0.9276  1.0122
  572TMC3    C3 8481   3.676   1.057   0.635 -0.3231  0.3297 -0.4908
  572TMC3    C4 8482   3.666   0.996   0.380  0.0300 -0.3195  0.6150
  572TMC3    C5 8483   3.668   1.124   0.410  0.1599 -0.2111 -0.6054
  572TMC3    C6 8484   3.677   1.156   0.538  0.0720  0.7979 -0.5570
  572TMC3     C 8485   3.669   0.763   0.435 -0.2257 -0.1973  0.0520
  572TMC3     O 8486   3.588   0.692   0.492 -0.1910 -0.6103 -0.6081
  572TMC3     H 8487   3.693   0.855   0.688  0.2042 -1.2994  0.6700
  572TMC3    H1 8488   3.656   0.962   0.277  0.6344 -2.0624  1.1238
  572TMC3    H2 8489   3.682   1.260   0.569  1.0788  0.4533  0.4552
  572TMC3    C7 8490   3.669   1.231   0.314  0.1131 -0.2403  0.0282
  572TMC3    C8 8491   3.694   1.096   0.769  0.1137  0.4319  0.1802
  572TMC3    O1 8492   3.625   1.224   0.203 -0.3943  0.4221 -0.1363
  572TMC3    O2 8493   3.768   1.020   0.834 -0.1060  0.0488  0.5308
  573MPD2     C 8494   0.655   1.096   0.834 -0.3451  0.1621 -0.2079
  573MPD2    C1 8495   0.589   1.198   0.770  0.6408 -0.2973  0.0070
  573MPD2    C2 8496   0.530   1.179   0.645 -0.7893 -0.0889  0.0979
  573MPD2    C3 8497   0.546   1.061   0.581  0.2155  0.1100 -0.6468
  573MPD2    C4 8498   0.617   0.954   0.639  0.5031  0.1512 -0.0725
  573MPD2    C5 8499   0.667   0.972   0.769 -0.0653 -0.1983  0.6264
  573MPD2     H 8500   0.486   1.262   0.591  0.4069  1.1819  1.0683
  573MPD2    H1 8501   0.633   0.864   0.582  0.2348 -1.0128  1.7012
  573MPD2    H2 8502   0.693   1.111   0.934  1.2432  1.4567 -1.0002
  573MPD2    H3 8503   0.719   0.887   0.813  0.1895  0.3987  1.4841
  573MPD2     N 8504   0.493   1.029   0.453 -0.2617  0.1821 -0.6864
  573MPD2    H5 8505   0.502   0.935   0.414  2.5840  0.0625  0.2625
  573MPD2    N1 8506   0.556   1.307   0.845  0.2834 -0.0871  0.9943
  573MPD2    H7 8507   0.596   1.303   0.938  2.9995  2.7729 -0.0081
  574TMC3    C1 8508   0.389   1.082   0.241 -0.2861  0.1483 -0.3141
  574TMC3    C2 8509   0.287   0.994   0.257 -0.0308 -0.2632  0.4519
  574TMC3    C3 8510   0.197   0.994   0.152 -0.5502 -0.0217 -0.4497
  574TMC3    C4 8511   0.403   1.171   0.138 -0.1706 -0.0911  0.1617
  574TMC3    C5 8512   0.317   1.154   0.032  0.6402 -0.1785  0.3012
  574TMC3    C6 8513   0.206   1.072   0.042 -0.2535 -0.8791 -0.0557
  574TMC3     C 8514   0.443   1.130   0.370  0.3340 -0.9716  0.2906
  574TMC3     O 8515   0.459   1.253   0.377 -0.0881 -0.3499 -0.4240
  574TMC3     H 8516   0.262   0.949   0.353 -0.3713 -2.0826 -0.4792
  574TMC3    H1 8517   0.482   1.245   0.141 -0.9754  0.7904 -0.6201
  574TMC3    H2 8518   0.134   1.067  17.666  0.6304 -0.4108 -0.8602
  574TMC3    C7 8519   0.321   1.251  17.628  0.3538 -0.2852 -0.0596
  574TMC3    C8 8520   0.070   0.943   0.190 -0.0675 -0.7737  0.2504
  574TMC3    O1 8521   0.221   1.262  17.560 -0.1887  0.0365  0.0580
  574TMC3    O2 8522   0.061   0.851   0.270 -0.6416 -0.1259  0.2152
  575TMC3    C1 8523   2.167   1.828  11.143 -0.6116 -0.3648 -0.0342
  575TMC3    C2 8524   2.118   1.737  11.241  0.3857  0.4698 -0.3949
  575TMC3    C3 8525   2.030   1.638  11.200 -0.1379  0.7360  0.4079
  575TMC3    C4 8526   2.121   1.831  11.014  0.7585  0.0441 -0.3419
  575TMC3    C5 8527   2.027   1.737  10.978  0.4498  0.3801 -0.0842
  575TMC3    C6 8528   1.981   1.640  11.071  0.3984 -0.1243 -0.2573
  575TMC3     C 8529   2.278   1.918  11.178 -0.2496  0.1460  0.4400
  575TMC3     O 8530   2.297   1.936  11.297 -0.0084 -0.3348 -0.0238
  575TMC3     H 8531   2.160   1.748  11.341  0.4759 -1.8611 -0.1783
  575TMC3    H1 8532   2.152   1.916  10.955  1.5733 -0.6943 -0.9833
  575TMC3    H2 8533   1.936   1.548  11.035  0.6508  1.3028 -4.2188
  575TMC3    C7 8534   1.970   1.759  10.852 -0.3803  0.5532  0.2011
  575TMC3    C8 8535   2.007   1.526  11.288  0.6308 -0.2427  0.1542
  575TMC3    O1 8536   2.035   1.819  10.764 -0.2782  0.1841  0.1598
  575TMC3    O2 8537   2.047   1.539  11.406 -0.8942 -0.0173 -0.1515
  576MPD2     C 8538   2.108   3.711  12.486  0.2403  0.4201 -0.3056
  576MPD2    C1 8539   2.182   3.792  12.401  0.0720  0.1984  0.4266
  576MPD2    C2 8540   2.164   3.936  12.403 -0.1162 -0.5874 -0.2306
  576MPD2    C3 8541   2.067   3.988  12.480 -0.1060 -0.3881  0.6658
  576MPD2    C4 8542   2.016   3.905  12.578  0.0181 -0.3230 -0.4048
  576MPD2    C5 8543   2.045   3.773  12.585 -0.7122  0.2233 -0.8622
  576MPD2     H 8544   2.231   3.999  12.346 -0.2550  0.1206  0.3772
  576MPD2    H1 8545   1.939   3.936  12.647 -0.2369  1.1526 -1.3719
  576MPD2    H2 8546   2.119   3.604  12.496 -2.3460  0.2027  0.2434
  576MPD2    H3 8547   2.004   3.701  12.655 -2.0608  0.0743 -1.8021
  576MPD2     N 8548   2.023   4.126  12.458  0.6354  0.0500 -0.0148
  576MPD2    H5 8549   2.050   4.167  12.369 -2.1285  2.0127  0.0756
  576MPD2    N1 8550   2.275   3.737  12.304 -0.7693  0.1075 -0.0056
  576MPD2    H7 8551   2.324   3.804  12.245 -0.6566  0.0778  0.0537
  577TMC3    C1 8552   2.399   3.584  12.186 -0.6157 -0.5810  0.0644
  577TMC3    C2 8553   2.461   3.459  12.184 -0.3936  0.0617  0.3532
  577TMC3    C3 8554   2.522   3.419  12.068  0.2557  0.1398  0.1590
  577TMC3    C4 8555   2.393   3.663  12.073  0.1824 -0.2869  0.1768
  577TMC3    C5 8556   2.452   3.613  11.959 -0.7490  0.3126 -0.2990
  577TMC3    C6 8557   2.531   3.501  11.955  0.3478 -0.8151  0.4403
  577TMC3     C 8558   2.321   3.611  12.301  0.2645  0.4867 -0.1746
  577TMC3     O 8559   2.312   3.516  12.378 -0.2793  0.4365 -0.1623
  577TMC3     H 8560   2.489   3.417  12.280 -2.8479  1.2110  1.5671
  577TMC3    H1 8561   2.364   3.767  12.073  2.4780  0.3608  2.9291
  577TMC3    H2 8562   2.588   3.486  11.864  0.2524 -2.3256  0.6310
  577TMC3    C7 8563   2.467   3.697  11.840  0.7786  0.1083 -0.1300
  577TMC3    C8 8564   2.589   3.287  12.084  0.3607  0.1059  0.1662
  577TMC3    O1 8565   2.480   3.818  11.851  0.5569 -0.0970  0.0120
  577TMC3    O2 8566   2.586   3.241  12.199 -0.1484  0.2615  0.2939
  578MPD2     C 8567   0.142   3.270   0.699 -0.0836  0.0568 -0.2316
  578MPD2    C1 8568   0.263   3.252   0.629 -0.3292 -0.1722  0.3514
  578MPD2    C2 8569   0.379   3.295   0.687 -0.2363  0.7719 -0.0380
  578MPD2    C3 8570   0.380   3.361   0.806 -0.1815 -0.0081  0.1345
  578MPD2    C4 8571   0.258   3.386   0.868  0.0281 -0.7136 -0.4218
  578MPD2    C5 8572   0.141   3.333   0.818  0.5066  0.2399  0.0863
  578MPD2     H 8573   0.478   3.282   0.644 -0.0211 -0.8923  0.9517
  578MPD2    H1 8574   0.247   3.446   0.959  0.2867 -1.2906 -0.0140
  578MPD2    H2 8575   0.044   3.239   0.665 -0.9547  0.8457  1.5432
  578MPD2    H3 8576   0.049   3.356   0.872  0.2629 -2.1260  0.6865
  578MPD2     N 8577   0.503   3.400   0.864  0.1821  0.8411  0.3527
  578MPD2    H5 8578   0.593   3.371   0.826  0.3334 -0.7142  1.9120
  578MPD2    N1 8579   0.266   3.183   0.504  0.1255 -0.4989  0.3383
  578MPD2    H7 8580   0.174   3.157   0.469  0.0793  1.6435 -1.1027
  579TMC3    C1 8581   0.646   3.525   0.996 -0.1430 -0.9903 -0.4731
  579TMC3    C2 8582   0.660   3.653   1.039  0.3141 -0.1454  0.1802
  579TMC3    C3 8583   0.787   3.701   1.070 -0.0807 -0.0522  0.6208
  579TMC3    C4 8584   0.749   3.436   0.989  0.5730 -0.1582  0.5389
  579TMC3    C5 8585   0.874   3.488   1.017  0.6198 -0.5212 -0.5801
  579TMC3    C6 8586   0.897   3.619   1.054 -0.6994 -0.2920  0.5018
  579TMC3     C 8587   0.514   3.483   0.970  0.3904 -0.3639 -0.0259
  579TMC3     O 8588   0.429   3.543   1.030  0.8798  0.6609 -0.5408
  579TMC3     H 8589   0.580   3.722   1.011  1.9733  1.6472 -0.1588
  579TMC3    H1 8590   0.724   3.331   0.981  0.4808 -0.1775  1.0802
  579TMC3    H2 8591   0.992   3.646   1.100  0.0953 -1.7046 -0.2996
  579TMC3    C7 8592   0.977   3.398   1.066 -0.5312  0.1706  0.0033
  579TMC3    C8 8593   0.795   3.842   1.097  0.3091 -0.2470  0.2242
  579TMC3    O1 8594   1.048   3.430   1.161  0.0992  0.7921  0.2767
  579TMC3    O2 8595   0.690   3.892   1.132  0.7703 -0.2837 -0.6600
  580TMC3    C1 8596   4.686   2.121  11.405  0.0471  0.0307 -0.0515
  580TMC3    C2 8597   4.720   2.074  11.280  0.8610  0.0209 -0.0596
  580TMC3    C3 8598   0.044   1.946  11.268 -0.1641 -0.3207 -0.2045
  580TMC3    C4 8599   4.688   2.031  11.509  0.4121 -0.1744  0.0610
  580TMC3    C5 8600   0.002   1.903  11.498 -0.8940 -0.6788  0.7572
  580TMC3    C6 8601   0.048   1.863  11.380 -0.6544  0.4299  0.1841
  580TMC3     C 8602   0.027   2.245  11.438  0.0342 -0.0803 -0.1611
  580TMC3     O 8603   4.725   2.339  11.364  0.7426  0.1069 -0.0294
  580TMC3     H 8604   4.722   2.143  11.196  0.2128 -0.6690 -0.6402
  580TMC3    H1 8605   4.666   2.075  11.605 -1.4837 -0.0585 -0.4234
  580TMC3    H2 8606   0.096   1.766  11.375  0.6408  1.0479  0.4918
  580TMC3    C7 8607   0.088   1.869  11.608  1.1520 -0.2144  0.4204
  580TMC3    C8 8608   0.137   1.917  11.157  0.2192 -0.1338  1.1869
  580TMC3    O1 8609   0.134   1.967  11.675  0.5843  0.5926  0.3047
  580TMC3    O2 8610   0.177   1.804  11.141  0.1892  0.6578  0.4750
  581MPD2     C 8611   3.139   2.992  15.175 -0.6149  0.1685 -0.4091
  581MPD2    C1 8612   3.159   2.906  15.073 -0.0339 -0.8784 -0.2114
  581MPD2    C2 8613   3.090   2.919  14.952 -0.5286 -1.0866  0.5983
  581MPD2    C3 8614   2.997   3.019  14.937 -0.6395 -0.2916 -0.5072
  581MPD2    C4 8615   2.980   3.113  15.039  0.4038 -0.0895  0.0711
  581MPD2    C5 8616   3.048   3.102  15.160  0.0748 -0.3790  0.6300
  581MPD2     H 8617   3.102   2.860  14.862  0.6158  1.3057 -0.7964
  581MPD2    H1 8618   2.907   3.193  15.030  0.0919 -0.2020  1.5329
  581MPD2    H2 8619   3.193   2.982  15.268 -0.5043  0.4490 -0.4452
  581MPD2    H3 8620   3.031   3.182  15.231 -0.1190 -0.1570  0.3377
  581MPD2     N 8621   2.915   3.035  14.823 -0.0025  0.0557 -0.7632
  581MPD2    H5 8622   2.867   3.124  14.818  0.6737  0.4519 -0.2333
  581MPD2    N1 8623   3.250   2.797  15.090 -0.1612 -0.3288  0.1699
  581MPD2    H7 8624   3.303   2.812  15.175 -0.1561  0.7905 -0.0222
  582TMC3    C1 8625   3.358   2.589  15.059 -0.0340 -0.0069 -0.1819
  582TMC3    C2 8626   3.395   2.593  15.194 -0.1339  0.0970  0.4487
  582TMC3    C3 8627   3.477   2.487  15.243 -0.3220 -0.8777  0.4861
  582TMC3    C4 8628   3.383   2.483  14.978 -0.7920  0.1469  0.4711
  582TMC3    C5 8629   3.459   2.383  15.029  0.1050 -0.2184 -0.1993
  582TMC3    C6 8630   3.508   2.384  15.158 -0.0835  0.3838  0.4643
  582TMC3     C 8631   3.275   2.690  15.000 -0.3670 -0.1768  0.1932
  582TMC3     O 8632   3.224   2.659  14.891 -0.7864 -0.1483  0.1599
  582TMC3     H 8633   3.368   2.667  15.268 -0.1888  0.2700  0.2536
  582TMC3    H1 8634   3.339   2.460  14.882  0.1558  0.4716 -0.0416
  582TMC3    H2 8635   3.557   2.296  15.197  1.0731  1.5903  1.7163
  582TMC3    C7 8636   3.477   2.268  14.945  0.3191 -0.0166 -0.5103
  582TMC3    C8 8637   3.584   2.513  15.337  0.3001 -0.5897 -0.1240
  582TMC3    O1 8638   3.518   2.300  14.831  0.2002 -0.3817 -0.0890
  582TMC3    O2 8639   3.698   2.484  15.308  0.2060  0.0673  0.5117
  583MPD2     C 8640   3.427   3.926  16.864  0.2125  0.7236 -0.2725
  583MPD2    C1 8641   3.421   4.048  16.796  0.0293 -0.3547  0.4482
  583MPD2    C2 8642   3.341   4.153  16.847  0.2817 -0.4110  0.1794
  583MPD2    C3 8643   3.264   4.131  16.961 -0.2107  0.7881 -0.1369
  583MPD2    C4 8644   3.284   4.016  17.028 -0.0827  0.0011 -0.8538
  583MPD2    C5 8645   3.366   3.917  16.984 -0.5548 -0.2020  0.0353
  583MPD2     H 8646   3.338   4.243  16.788  1.7245  0.8130  1.9402
  583MPD2    H1 8647   3.226   3.997  17.117  2.2213  0.2869  0.7010
  583MPD2    H2 8648   3.484   3.836  16.843  0.4629  0.4161  1.7752
  583MPD2    H3 8649   3.374   3.824  17.040 -2.5063  0.8053  1.9839
  583MPD2     N 8650   3.190   4.235  17.009  0.4865 -0.2740 -0.0122
  583MPD2    H5 8651   3.197   4.316  16.948  0.3636 -0.5047 -0.3261
  583MPD2    N1 8652   3.496   4.077  16.674  0.1226  0.2413  0.6560
  583MPD2    H7 8653   3.457   4.158  16.627 -1.7157 -0.7615  0.4505
  584TMC3    C1 8654   3.045   4.368  17.143  0.0465  0.4342 -0.4547
  584TMC3    C2 8655   3.116   4.480  17.095  0.1653  0.8399  0.1725
  584TMC3    C3 8656   3.082   4.598  17.152 -0.9539 -0.9259 -0.5226
  584TMC3    C4 8657   2.959   4.364  17.243 -0.0349  0.6523  0.1760
  584TMC3    C5 8658   2.943   4.484  17.313 -0.1538  0.6657  0.0583
  584TMC3    C6 8659   2.997   4.601  17.262 -0.6593  0.1240 -0.6181
  584TMC3     C 8660   3.100   4.234  17.118 -0.6405  0.3104  0.5628
  584TMC3     O 8661   3.061   4.140  17.184 -0.0677 -0.3015 -0.1689
  584TMC3     H 8662   3.194   4.482  17.020  0.5967 -1.0709  0.5820
  584TMC3    H1 8663   2.903   4.275  17.271  0.3967  0.6461  1.0309
  584TMC3    H2 8664   2.977   4.699  17.303  0.7209  0.6002 -1.1116
  584TMC3    C7 8665   2.880   4.487  17.448  0.2713 -0.0674  0.2047
  584TMC3    C8 8666   3.098   4.715  17.066 -0.8408  0.2501  0.6201
  584TMC3    O1 8667   2.886   4.584  17.522 -0.1452 -0.3137  0.0978
  584TMC3    O2 8668   3.095   4.706  16.945 -0.2760 -0.1975 -0.4253
  585MPD2     C 8669   2.288   3.136   0.492  0.1987 -1.0134  0.4539
  585MPD2    C1 8670   2.397   3.207   0.453 -0.3575 -0.5290 -0.1020
  585MPD2    C2 8671   2.494   3.144   0.369 -0.3209 -0.3229 -0.2838
  585MPD2    C3 8672   2.474   3.008   0.334 -0.1730 -0.0316 -0.4908
  585MPD2    C4 8673   2.360   2.942   0.382  0.3860 -0.1561  0.2468
  585MPD2    C5 8674   2.272   3.007   0.461  0.0366  0.2447 -0.4395
  585MPD2     H 8675   2.578   3.204   0.337 -1.2892  1.9327  1.3685
  585MPD2    H1 8676   2.332   2.845   0.344  1.3773 -0.8028  1.1681
  585MPD2    H2 8677   2.211   3.187   0.548  1.9620 -0.8964  2.8136
  585MPD2    H3 8678   2.201   2.945   0.514  1.1278  0.5995  1.4642
  585MPD2     N 8679   2.541   2.950   0.231  0.1393 -0.1337  0.0217
  585MPD2    H5 8680   2.489   2.879   0.180 -0.0449  0.0079  0.0085
  585MPD2    N1 8681   2.394   3.346   0.482  0.1044  0.0494 -0.0690
  585MPD2    H7 8682   2.309   3.383   0.525  0.8760  3.2204 -1.2572
  586TMC3    C1 8683   2.705   2.918   0.065 -0.0417  0.0815 -0.1385
  586TMC3    C2 8684   2.834   2.873   0.045 -0.6856  0.1603 -0.0089
  586TMC3    C3 8685   2.871   2.850  17.623 -0.5412 -1.0535  0.2472
  586TMC3    C4 8686   2.606   2.911  17.680 -0.8921  0.7005  0.5271
  586TMC3    C5 8687   2.651   2.883  17.550 -0.1687  0.2142 -1.0257
  586TMC3    C6 8688   2.782   2.870  17.521 -0.4640  0.0126  0.3162
  586TMC3     C 8689   2.663   2.997   0.178 -0.4789 -0.9414 -0.0525
  586TMC3     O 8690   2.752   3.067   0.227  0.3360 -0.1683  0.0199
  586TMC3     H 8691   2.908   2.863   0.124 -0.1822  0.4386 -0.4411
  586TMC3    H1 8692   2.503   2.936  17.704 -0.8928  2.1119 -0.8900
  586TMC3    H2 8693   2.812   2.861  17.418 -0.2520 -0.2542  0.4017
  586TMC3    C7 8694   2.566   2.785  17.486  0.3904  0.6728 -0.0040
  586TMC3    C8 8695   2.935   2.723  17.606 -0.2870  0.0217  0.0881
  586TMC3    O1 8696   2.451   2.776  17.524 -0.2774 -0.5054 -0.6108
  586TMC3    O2 8697   2.908   2.633  17.685 -0.1019  0.5352 -0.1043
  587TMC3    C1 8698   0.176   1.581  16.392  0.0012  0.8874 -0.2676
  587TMC3    C2 8699   0.118   1.707  16.399  0.0694 -0.5336  0.4511
  587TMC3    C3 8700   0.189   1.815  16.358 -0.2516  0.3346  0.3921
  587TMC3    C4 8701   0.309   1.563  16.351 -0.0104 -0.0799 -0.5032
  587TMC3    C5 8702   0.368   1.676  16.301  0.1457 -0.2943  0.3050
  587TMC3    C6 8703   0.310   1.801  16.308  0.1202  0.0066  0.3805
  587TMC3     C 8704   0.090   1.464  16.419 -0.2217  0.1128 -0.3416
  587TMC3     O 8705   0.141   1.351  16.424  0.1168  0.8479  0.3494
  587TMC3     H 8706   0.043   1.722  16.476 -0.8428 -1.2489 -0.2902
  587TMC3    H1 8707   0.360   1.469  16.336 -2.0826 -1.2692 -0.1550
  587TMC3    H2 8708   0.364   1.894  16.296 -0.3409  0.4265  1.5844
  587TMC3    C7 8709   0.511   1.660  16.272  0.4280 -0.4606  0.7858
  587TMC3    C8 8710   0.111   1.915  16.288 -0.2776  0.4928 -0.1838
  587TMC3    O1 8711   0.568   1.554  16.296  0.3884  0.5560 -0.6093
  587TMC3    O2 8712   0.155   1.959  16.182  0.6647 -0.0633 -0.5638
  588TMC3    C1 8713   1.794   4.560   9.848  0.5659 -0.0798  0.0984
  588TMC3    C2 8714   1.813   4.435   9.800 -0.9583  0.0992 -0.2434
  588TMC3    C3 8715   1.868   4.347   9.889 -0.7536  0.2815  0.3373
  588TMC3    C4 8716   1.841   4.598   9.972  0.1223 -0.9141 -0.4861
  588TMC3    C5 8717   1.882   4.502  10.061  0.0226 -0.3946 -0.3346
  588TMC3    C6 8718   1.906   4.378  10.015  0.2891 -0.0458  0.3066
  588TMC3     C 8719   1.793   4.660   9.747 -0.1334 -0.3371  0.6070
  588TMC3     O 8720   1.742   4.646   9.640  0.2509  0.3131  0.7430
  588TMC3     H 8721   1.779   4.402   9.703  0.6823  0.8360 -1.0673
  588TMC3    H1 8722   1.812   4.696  10.008 -0.4347 -0.9869 -0.7395
  588TMC3    H2 8723   1.952   4.303  10.079  0.3261  1.0030  1.4962
  588TMC3    C7 8724   1.986   4.551  10.152  0.0602 -0.3336 -0.0039
  588TMC3    C8 8725   1.835   4.206   9.868 -0.6615  0.4102  0.1846
  588TMC3    O1 8726   2.068   4.472  10.200  0.3272 -0.4429 -0.6458
  588TMC3    O2 8727   1.736   4.185   9.798  0.6988  0.3359  0.2683
  589TMC3    C1 8728   1.099   1.978   1.099  0.0869 -0.1523  0.4680
  589TMC3    C2 8729   1.198   2.018   1.188 -0.3824  0.0939 -0.5928
  589TMC3    C3 8730   1.309   1.933   1.194 -0.0884  0.0408  0.0717
  589TMC3    C4 8731   1.131   1.879   1.005 -0.1492  0.3126  0.0649
  589TMC3    C5 8732   1.251   1.815   1.016 -1.2287 -0.4279  0.6850
  589TMC3    C6 8733   1.339   1.837   1.109 -0.2452  0.4878 -0.8365
  589TMC3     C 8734   0.986   2.064   1.078  0.2340  0.8791  0.4252
  589TMC3     O 8735   0.914   2.030   0.985  0.2615 -0.2675 -0.3708
  589TMC3     H 8736   1.194   2.095   1.264  1.1817  0.1777 -0.5849
  589TMC3    H1 8737   1.054   1.858   0.932 -1.0311  1.0968  0.7682
  589TMC3    H2 8738   1.427   1.775   1.118  0.5503  1.4376 -1.9112
  589TMC3    C7 8739   1.285   1.707   0.924 -0.2982 -0.4031 -0.6959
  589TMC3    C8 8740   1.370   1.933   1.321 -0.9208  0.2160  0.2881
  589TMC3    O1 8741   1.385   1.639   0.946  0.2425 -1.0081 -0.7495
  589TMC3    O2 8742   1.301   1.928   1.417 -0.0946  0.3899  0.3804
  590MPD2     C 8743   0.916   0.461  16.620  0.9111 -0.2188 -0.2137
  590MPD2    C1 8744   0.868   0.574  16.558  0.1906 -0.4536 -0.7578
  590MPD2    C2 8745   0.928   0.625  16.449 -0.2066  0.3871 -0.4378
  590MPD2    C3 8746   1.039   0.560  16.396  0.1605 -0.0885  0.1351
  590MPD2    C4 8747   1.094   0.450  16.462 -0.8409 -0.6617  0.3003
  590MPD2    C5 8748   1.034   0.403  16.577  0.6546  0.0715  0.5327
  590MPD2     H 8749   0.880   0.709  16.400  1.1614  0.2543 -1.9830
  590MPD2    H1 8750   1.175   0.393  16.417 -0.5943 -1.1080  1.3169
  590MPD2    H2 8751   0.877   0.429  16.716  2.7789 -1.1253  0.2435
  590MPD2    H3 8752   1.068   0.311  16.623 -1.2193 -1.5326 -1.2433
  590MPD2     N 8753   1.096   0.611  16.275 -0.0618  0.2927 -0.4054
  590MPD2    H5 8754   1.062   0.698  16.234  2.9675  2.7167  2.1872
  590MPD2    N1 8755   0.745   0.640  16.593 -0.2166 -0.3920  0.4572
  590MPD2    H7 8756   0.708   0.722  16.545 -0.6786 -0.8564  0.0220
  591TMC3    C1 8757   1.201   0.595  16.069 -0.4944 -0.3734 -0.0751
  591TMC3    C2 8758   1.234   0.514  15.963  0.2480 -0.4057 -0.6760
  591TMC3    C3 8759   1.236   0.565  15.832 -0.1383 -0.3826  0.5054
  591TMC3    C4 8760   1.181   0.727  16.052  0.4458 -0.7241 -0.3723
  591TMC3    C5 8761   1.194   0.783  15.928 -0.0737  0.5602  0.7121
  591TMC3    C6 8762   1.212   0.703  15.815  0.0385  0.2457 -0.2474
  591TMC3     C 8763   1.167   0.528  16.192  0.0971  0.5625  0.5297
  591TMC3     O 8764   1.190   0.406  16.201 -0.1108  0.7236 -0.0380
  591TMC3     H 8765   1.263   0.411  15.983 -1.2061 -0.6145  0.3967
  591TMC3    H1 8766   1.167   0.796  16.135  2.7516  0.5070 -1.0054
  591TMC3    H2 8767   1.179   0.745  15.720  0.5479 -2.0900 -1.4672
  591TMC3    C7 8768   1.126   0.910  15.909 -0.4874  0.2276  0.2506
  591TMC3    C8 8769   1.262   0.464  15.724  0.5771 -0.2229  0.4873
  591TMC3    O1 8770   1.014   0.931  15.955  0.1272 -0.0924 -0.1213
  591TMC3    O2 8771   1.279   0.348  15.756  0.2626  0.6905 -0.3484
  592MPD2     C 8772   1.320   2.483  10.903  0.4089 -0.6658 -0.0097
  592MPD2    C1 8773   1.332   2.526  11.033 -0.6489  0.0586 -0.5171
  592MPD2    C2 8774   1.267   2.452  11.133  0.4668 -0.4303  0.4803
  592MPD2    C3 8775   1.202   2.332  11.096  0.3088  0.2521 -0.9958
  592MPD2    C4 8776   1.202   2.293  10.964 -0.1747 -0.0750  0.1692
  592MPD2    C5 8777   1.253   2.370  10.869  1.0447  0.4865 -0.6876
  592MPD2     H 8778   1.253   2.480  11.237  1.6816  2.3741 -0.0990
  592MPD2    H1 8779   1.160   2.197  10.938 -2.0128 -0.3278  4.1511
  592MPD2    H2 8780   1.362   2.547  10.826 -1.9492  0.9712  0.0522
  592MPD2    H3 8781   1.246   2.334  10.767 -1.1564 -0.4832 -0.2014
  592MPD2     N 8782   1.131   2.257  11.194  0.0265  0.2180 -1.1306
  592MPD2    H5 8783   1.130   2.306  11.284 -0.9924  1.0397 -1.5964
  592MPD2    N1 8784   1.412   2.646  11.052  0.4574  0.0766  0.6856
  592MPD2    H7 8785   1.453   2.692  10.971  1.1205  1.6524  1.9294
  593TMC3    C1 8786   1.495   2.829  11.179  0.1769 -0.1667  0.0057
  593TMC3    C2 8787   1.540   2.867  11.301 -0.7163 -0.5156 -0.0593
  593TMC3    C3 8788   1.613   2.977  11.306  1.0255  0.4726 -0.0527
  593TMC3    C4 8789   1.508   2.907  11.071 -0.0317  0.1649 -0.2331
  593TMC3    C5 8790   1.560   3.033  11.082 -0.7866 -0.8558 -0.1440
  593TMC3    C6 8791   1.615   3.071  11.203  0.1491  0.7107 -0.8626
  593TMC3     C 8792   1.436   2.695  11.178  0.0945 -0.0814 -0.1510
  593TMC3     O 8793   1.406   2.642  11.284  0.0618 -0.8089  0.3291
  593TMC3     H 8794   1.543   2.792  11.379 -2.0408  0.0939  0.5673
  593TMC3    H1 8795   1.453   2.881  10.982  1.6015  3.1888 -2.1318
  593TMC3    H2 8796   1.681   3.156  11.210 -0.7256  1.3376 -0.2941
  593TMC3    C7 8797   1.593   3.104  10.961  2.1689  0.9344  0.1458
  593TMC3    C8 8798   1.620   3.059  11.427 -0.0752  0.3286  0.3276
  593TMC3    O1 8799   1.687   3.181  10.974  0.3346  0.3475 -0.4606
  593TMC3    O2 8800   1.550   3.162  11.426  0.1046 -0.2685  0.2958
  594MPD2     C 8801   0.171   1.085  14.710 -0.1388 -0.0035  0.3206
  594MPD2    C1 8802   0.133   1.120  14.584  0.4984  0.0185  0.2284
  594MPD2    C2 8803   0.205   1.218  14.515  0.1943 -0.0506  0.1661
  594MPD2    C3 8804   0.324   1.264  14.569 -0.5705 -0.2617  0.3216
  594MPD2    C4 8805   0.369   1.212  14.687 -0.9842 -1.2879  0.2512
  594MPD2    C5 8806   0.293   1.127  14.761  0.6588 -0.5938  0.3351
  594MPD2     H 8807   0.179   1.239  14.412  0.2180 -2.9746 -0.4272
  594MPD2    H1 8808   0.458   1.242  14.740  0.1942  0.7341 -2.9288
  594MPD2    H2 8809   0.113   1.009  14.761  0.4778 -0.0585  0.9404
  594MPD2    H3 8810   0.323   1.073  14.850  1.7435 -1.0892 -0.3362
  594MPD2     N 8811   0.398   1.366  14.499 -0.7671  0.8395 -0.4209
  594MPD2    H5 8812   0.349   1.397  14.416 -1.7575 -1.1018 -0.5689
  594MPD2    N1 8813   0.015   1.061  14.542 -0.1274  0.1350  0.4382
  594MPD2    H7 8814   4.694   0.998  14.606  0.6292 -0.5186  0.3657
  595TMC3    C1 8815   0.737   1.642  14.419  0.3830  0.2315  0.4422
  595TMC3    C2 8816   0.700   1.519  14.458 -0.7630  0.1485 -0.2248
  595TMC3    C3 8817   0.566   1.504  14.445  0.6748 -0.0957 -0.1068
  595TMC3    C4 8818   0.650   1.731  14.355 -0.0712 -0.3432  0.2680
  595TMC3    C5 8819   0.520   1.707  14.343 -0.3565  0.1379 -0.4635
  595TMC3    C6 8820   0.475   1.587  14.387  0.7231  0.3433 -0.5191
  595TMC3     C 8821   0.873   1.668  14.392 -0.2694 -0.4202  0.1195
  595TMC3     O 8822   0.912   1.782  14.371  0.6372  0.3241 -0.2389
  595TMC3     H 8823   0.755   1.446  14.516  0.6266  0.5555 -1.0240
  595TMC3    H1 8824   0.686   1.827  14.322  2.6185 -1.0212  1.1903
  595TMC3    H2 8825   0.369   1.568  14.373 -0.0406  3.1850  1.5496
  595TMC3    C7 8826   0.431   1.813  14.384  0.3609  0.3751 -0.3624
  595TMC3    C8 8827   0.496   1.438  14.554  0.3268 -0.0156 -0.0894
  595TMC3    O1 8828   0.348   1.791  14.471  0.3992 -0.2392  0.7356
  595TMC3    O2 8829   0.571   1.415  14.653 -0.2739  0.6324  0.1486
  596MPD2     C 8830   4.160   4.251  16.841  0.2611  0.8582 -0.1083
  596MPD2    C1 8831   4.131   4.334  16.736  0.5389 -0.2534 -0.0061
  596MPD2    C2 8832   4.185   4.308  16.610  0.9394 -0.3908  0.2189
  596MPD2    C3 8833   4.257   4.192  16.585  0.5385 -0.1141 -0.0586
  596MPD2    C4 8834   4.273   4.101  16.688  0.0253 -0.4638 -0.6118
  596MPD2    C5 8835   4.229   4.132  16.813 -0.8138 -1.0180 -0.8405
  596MPD2     H 8836   4.168   4.378  16.528  3.1967  0.0204  0.0918
  596MPD2    H1 8837   4.311   4.000  16.677 -0.1232 -0.6573  0.6077
  596MPD2    H2 8838   4.116   4.252  16.940 -2.5009  2.5030 -1.3400
  596MPD2    H3 8839   4.249   4.063  16.894 -2.2770  0.8943  1.1577
  596MPD2     N 8840   4.314   4.161  16.457 -0.6180  1.0520  0.3412
  596MPD2    H5 8841   4.351   4.067  16.450 -0.4834  1.1091  0.2617
  596MPD2    N1 8842   4.053   4.450  16.752  0.1480  0.2024 -0.4030
  596MPD2    H7 8843   4.025   4.499  16.668 -2.2710  2.3522  1.6606
  597TMC3    C1 8844   3.904   4.596  16.854 -0.0105  0.6343 -0.3264
  597TMC3    C2 8845   3.882   4.672  16.735 -0.8166  0.1058 -0.6954
  597TMC3    C3 8846   3.788   0.047  16.733 -0.3056 -0.7279 -0.0676
  597TMC3    C4 8847   3.838   4.641  16.966  0.1051 -0.2368 -0.2143
  597TMC3    C5 8848   3.761   0.024  16.960 -0.1698 -0.3658  0.4738
  597TMC3    C6 8849   3.726   0.091  16.847  0.3515  0.4581 -0.0889
  597TMC3     C 8850   4.005   4.496  16.869  1.1170  0.3486  0.0983
  597TMC3     O 8851   4.017   4.450  16.982 -0.1809 -0.1250 -0.2517
  597TMC3     H 8852   3.922   4.630  16.643  1.6943  1.8814 -0.4246
  597TMC3    H1 8853   3.848   4.573  17.049  1.8075 -0.5518 -0.6762
  597TMC3    H2 8854   3.659   0.176  16.848 -0.7092 -0.3777  0.4500
  597TMC3    C7 8855   3.675   0.062  17.075  0.5050 -0.0724  0.2374
  597TMC3    C8 8856   3.776   0.144  16.623  0.4871 -0.3232  0.2972
  597TMC3    O1 8857   3.653   4.707  17.161 -0.4633 -0.1407 -0.2040
  597TMC3    O2 8858   3.679   0.220  16.633  0.3348 -0.5004  0.4213
  598TMC3    C1 8859   2.042   0.969  15.112  0.1582  0.1567 -0.0395
  598TMC3    C2 8860   1.926   0.901  15.084 -0.7457  0.1208  0.2610
  598TMC3    C3 8861   1.886   0.886  14.953  0.2497 -0.5425  0.6836
  598TMC3    C4 8862   2.111   1.033  15.014  0.1643  0.2892 -0.2383
  598TMC3    C5 8863   2.060   1.025  14.884  0.8736  0.5832  0.0629
  598TMC3    C6 8864   1.948   0.950  14.850 -0.4206  0.0787 -0.7487
  598TMC3     C 8865   2.084   0.981  15.251 -0.5138 -0.1625  0.0697
  598TMC3     O 8866   1.999   0.966  15.335 -0.8919  0.5513  0.3592
  598TMC3     H 8867   1.872   0.855  15.165  0.6809 -0.5526  0.8303
  598TMC3    H1 8868   2.212   1.069  15.027 -0.1238  1.7716 -2.1539
  598TMC3    H2 8869   1.910   0.933  14.750  0.8898 -0.9469 -1.0746
  598TMC3    C7 8870   2.140   1.068  14.771  0.2174 -0.1658  0.2183
  598TMC3    C8 8871   1.789   0.780  14.916 -0.1692 -1.4127 -0.3226
  598TMC3    O1 8872   2.099   1.027  14.661 -0.0111  0.1317 -0.1710
  598TMC3    O2 8873   1.766   0.767  14.798  0.0877  0.2988 -0.1303
  599MPD2     C 8874   2.530   3.145  15.807  0.9153 -0.6975  0.7131
  599MPD2    C1 8875   2.583   3.063  15.907 -0.0912 -0.6296 -0.2869
  599MPD2    C2 8876   2.506   3.051  16.025 -0.7029 -0.6739  0.7370
  599MPD2    C3 8877   2.379   3.102  16.027  0.3855 -0.4440 -0.4010
  599MPD2    C4 8878   2.331   3.197  15.934 -0.2429 -0.1108 -0.0658
  599MPD2    C5 8879   2.413   3.215  15.822  0.7969 -0.1335 -0.1061
  599MPD2     H 8880   2.537   2.984  16.104  1.0804 -0.2757  0.3786
  599MPD2    H1 8881   2.239   3.252  15.950  0.7385  2.2780 -2.4366
  599MPD2    H2 8882   2.594   3.168  15.723 -1.3876  0.8827 -0.6253
  599MPD2    H3 8883   2.389   3.281  15.740  1.2462  0.8158  0.5160
  599MPD2     N 8884   2.294   3.077  16.135  0.1363 -0.6776 -0.0252
  599MPD2    H5 8885   2.228   3.152  16.151  0.7680 -0.4547  1.4565
  599MPD2    N1 8886   2.707   3.001  15.882  0.0385 -0.0423 -0.1554
  599MPD2    H7 8887   2.741   3.023  15.788 -0.1278 -0.4304 -0.3034
  600TMC3    C1 8888   2.160   2.969  16.282  0.6448 -0.2404 -0.1630
  600TMC3    C2 8889   2.052   2.895  16.240  0.1034 -0.1048  0.8442
  600TMC3    C3 8890   1.933   2.948  16.270  0.0151 -0.2393 -0.4712
  600TMC3    C4 8891   2.151   3.074  16.361  0.3070  0.0170 -0.7698
  600TMC3    C5 8892   2.028   3.124  16.386  0.1065  0.5664 -0.5932
  600TMC3    C6 8893   1.911   3.063  16.345 -0.0730 -0.3235  0.4622
  600TMC3     C 8894   2.277   2.952  16.199 -0.3621 -0.5637 -0.1603
  600TMC3     O 8895   2.322   2.848  16.162 -0.3657  0.4450  0.0075
  600TMC3     H 8896   2.061   2.809  16.175  2.2139  0.8994 -0.2027
  600TMC3    H1 8897   2.244   3.126  16.381  0.4351  0.3237 -2.1608
  600TMC3    H2 8898   1.815   3.107  16.366  0.4657  0.7292  0.7063
  600TMC3    C7 8899   2.012   3.259  16.451  0.0978 -0.3675 -0.5298
  600TMC3    C8 8900   1.834   2.848  16.251  1.1051  0.1840  0.2647
  600TMC3    O1 8901   1.900   3.295  16.486  0.0167  0.1277 -0.4684
  600TMC3    O2 8902   1.866   2.733  16.248 -0.6661  0.4878  0.6101
  601MPD2     C 8903   3.808   1.701   0.171  0.2158 -0.7872 -0.0817
  601MPD2    C1 8904   3.707   1.624   0.121 -0.5477 -0.6134  0.5590
  601MPD2    C2 8905   3.679   1.506   0.189  0.5367 -0.1182  0.2986
  601MPD2    C3 8906   3.752   1.470   0.298 -0.6648  0.0742 -0.3562
  601MPD2    C4 8907   3.856   1.541   0.345 -0.6619 -0.1151 -0.2476
  601MPD2    C5 8908   3.884   1.659   0.279 -0.1483  0.6013  0.7605
  601MPD2     H 8909   3.598   1.442   0.157 -0.2918  1.4025 -0.6522
  601MPD2    H1 8910   3.919   1.510   0.429  0.1353 -0.7721 -1.0886
  601MPD2    H2 8911   3.830   1.800   0.131 -0.2340 -0.5117  0.3519
  601MPD2    H3 8912   3.968   1.722   0.306  0.8604 -1.4463  2.4562
  601MPD2     N 8913   3.745   1.338   0.356  0.8892 -0.1735  1.1196
  601MPD2    H5 8914   3.789   1.325   0.446  0.6846  0.6036  1.3296
  601MPD2    N1 8915   3.622   1.664   0.012  0.1664 -0.1072 -0.6059
  601MPD2    H7 8916   3.538   1.610  17.696 -0.1622  0.2379 -0.2046
  602TMC3    C1 8917   3.577   1.754  17.505  0.2951 -0.0851  0.9217
  602TMC3    C2 8918   3.560   1.866  17.442  0.2774 -1.1345 -0.1304
  602TMC3    C3 8919   3.451   1.885  17.364  0.3346  0.0195 -0.3306
  602TMC3    C4 8920   3.501   1.646  17.479 -0.4370  0.3477 -0.4644
  602TMC3    C5 8921   3.398   1.667  17.399 -0.4860  0.5250 -0.1498
  602TMC3    C6 8922   3.366   1.784  17.335  0.3240  1.3223 -0.4781
  602TMC3     C 8923   3.657   1.761  17.628 -0.2093  0.0847  0.5874
  602TMC3     O 8924   3.762   1.827  17.613 -0.5159 -0.0920 -0.1400
  602TMC3     H 8925   3.611   1.960  17.460 -0.6109 -0.6410 -0.1893
  602TMC3    H1 8926   3.512   1.556  17.537 -3.2905  0.2247 -0.1572
  602TMC3    H2 8927   3.317   1.778  17.238  1.5053 -4.4865 -0.7102
  602TMC3    C7 8928   3.369   1.563  17.309  0.6956 -0.6896  0.2846
  602TMC3    C8 8929   3.478   1.962  17.247  0.8227 -0.1285 -0.1043
  602TMC3    O1 8930   3.254   1.530  17.293 -0.7800 -0.7093 -0.4562
  602TMC3    O2 8931   3.395   2.044  17.213  0.1701  0.3219 -0.3241
  603TMC3    C1 8932   1.643   1.995  10.802 -0.3879  0.1950 -0.3506
  603TMC3    C2 8933   1.698   2.031  10.926  0.0479 -0.3321  0.2394
  603TMC3    C3 8934   1.817   2.093  10.918 -0.6059 -0.8920  0.6613
  603TMC3    C4 8935   1.703   2.016  10.685  0.5727  0.1690 -0.5080
  603TMC3    C5 8936   1.820   2.091  10.682 -0.3321  0.1663  0.1248
  603TMC3    C6 8937   1.869   2.146  10.803 -0.8312  0.0539 -0.3684
  603TMC3     C 8938   1.532   1.907  10.794  0.1898 -0.0470  0.1387
  603TMC3     O 8939   1.470   1.898  10.687  0.8097 -0.1869  0.3676
  603TMC3     H 8940   1.641   2.001  11.013 -0.2646 -2.3692 -0.6600
  603TMC3    H1 8941   1.670   1.969  10.593  0.0499  0.0754 -0.2719
  603TMC3    H2 8942   1.968   2.190  10.810 -1.6178  1.8617 -0.4720
  603TMC3    C7 8943   1.871   2.158  10.558  0.4068  0.8380 -0.4852
  603TMC3    C8 8944   1.893   2.100  11.038  0.3747 -0.1466 -0.4183
  603TMC3    O1 8945   1.967   2.233  10.561 -0.4111 -0.0121 -0.1874
  603TMC3    O2 8946   1.862   2.020  11.124  0.2853  0.5068  0.3641
  604MPD2     C 8947   2.635   0.233  16.311  0.0731  0.4710  0.6429
  604MPD2    C1 8948   2.608   0.323  16.215  0.2924  0.5743 -0.0306
  604MPD2    C2 8949   2.663   0.301  16.087 -0.2670  0.3826 -0.1828
  604MPD2    C3 8950   2.750   0.188  16.071  0.5319  0.4772  0.1747
  604MPD2    C4 8951   2.762   0.092  16.167 -0.0264  0.0586 -0.4235
  604MPD2    C5 8952   2.703   0.115  16.286  0.2611 -0.2831 -0.4554
  604MPD2     H 8953   2.643   0.371  16.007 -0.0847 -0.9553 -1.4048
  604MPD2    H1 8954   2.817   0.000  16.152 -0.2828  0.1436 -1.9174
  604MPD2    H2 8955   2.599   0.254  16.411 -0.8790 -0.4507  0.5012
  604MPD2    H3 8956   2.731   0.046  16.365 -2.4038  1.4989  2.0598
  604MPD2     N 8957   2.821   0.180  15.949  0.0084  0.7234  0.3972
  604MPD2    H5 8958   2.799   0.262  15.894 -1.0724  0.1151 -0.0809
  604MPD2    N1 8959   2.536   0.440  16.255 -0.3243  0.2186  0.0242
  604MPD2    H7 8960   2.515   0.443  16.354  0.8443  1.9439  0.2305
  605TMC3    C1 8961   2.438   0.652  16.254  0.2299  0.4405  0.0463
  605TMC3    C2 8962   2.521   0.688  16.363 -0.2731 -0.7560  0.1494
  605TMC3    C3 8963   2.482   0.799  16.434  0.0201  0.0669 -0.1561
  605TMC3    C4 8964   2.338   0.728  16.210 -0.6155  0.0201  0.2447
  605TMC3    C5 8965   2.299   0.830  16.291  0.1756  0.5467 -0.1613
  605TMC3    C6 8966   2.367   0.873  16.403 -0.3977  0.2581 -0.4977
  605TMC3     C 8967   2.486   0.539  16.171  0.4574 -0.5483  0.6643
  605TMC3     O 8968   2.469   0.549  16.051 -0.5155  0.0010  0.0003
  605TMC3     H 8969   2.615   0.641  16.391 -1.1908 -2.5547  0.2577
  605TMC3    H1 8970   2.293   0.698  16.117  0.5639  0.0183 -0.3272
  605TMC3    H2 8971   2.328   0.956  16.461  1.3114  1.3150 -0.8266
  605TMC3    C7 8972   2.164   0.870  16.269 -0.2617  0.2277 -0.4079
  605TMC3    C8 8973   2.561   0.843  16.549 -0.1202 -0.1440  0.6718
  605TMC3    O1 8974   2.137   0.991  16.268  0.1483 -0.8712 -0.3155
  605TMC3    O2 8975   2.629   0.747  16.589 -0.2964  0.1718  0.4935
  606TMC3    C1 8976   3.739   4.712  17.522  0.2938 -0.6522  0.3140
  606TMC3    C2 8977   3.622   4.662  17.578  0.0510  0.2525 -0.3263
  606TMC3    C3 8978   3.584   4.540  17.539  0.1380 -0.1813  0.4118
  606TMC3    C4 8979   3.801   4.657  17.421 -0.4399  0.1488 -0.0328
  606TMC3    C5 8980   3.753   4.536  17.385 -0.1780  0.4715  0.2879
  606TMC3    C6 8981   3.643   4.475  17.434 -0.5326 -0.7759 -0.0354
  606TMC3     C 8982   3.754   0.123  17.542  0.0470 -0.5027  0.2324
  606TMC3     O 8983   3.697   0.160  17.643  0.0569  0.2164 -0.1218
  606TMC3     H 8984   3.567   4.711  17.658  2.2052  0.4364  1.0274
  606TMC3    H1 8985   3.888   4.703  17.376  1.2344 -0.4739  2.5806
  606TMC3    H2 8986   3.611   4.380  17.392  1.6516 -2.4834  2.1758
  606TMC3    C7 8987   3.857   4.457  17.314  0.6740 -0.5549 -0.1732
  606TMC3    C8 8988   3.542   4.453  17.649 -0.3843  0.3834 -0.4114
  606TMC3    O1 8989   3.960   4.503  17.271  0.0366  0.0636  0.0319
  606TMC3    O2 8990   3.456   4.488   0.022  0.2476 -0.0558  0.0040
  607MPD2     C 8991   1.282   1.929  11.390 -0.8116  0.5028  0.5791
  607MPD2    C1 8992   1.321   2.048  11.447  0.0471  0.0846  0.7740
  607MPD2    C2 8993   1.276   2.082  11.576 -0.7960  0.4294 -0.5133
  607MPD2    C3 8994   1.213   1.986  11.653 -0.2405  0.4547 -0.8897
  607MPD2    C4 8995   1.179   1.861  11.599  0.0970  0.1977  0.0682
  607MPD2    C5 8996   1.199   1.843  11.463  0.2407 -0.2521 -0.1308
  607MPD2     H 8997   1.303   2.180  11.614 -1.6086  0.3215  0.3721
  607MPD2    H1 8998   1.131   1.781  11.654  1.0530  0.2025  0.9071
  607MPD2    H2 8999   1.294   1.899  11.286  1.8495  0.8705  0.7895
  607MPD2    H3 9000   1.170   1.749  11.416  0.8282 -0.1991 -0.6054
  607MPD2     N 9001   1.192   2.012  11.787  0.2853 -0.5127  0.1800
  607MPD2    H5 9002   1.231   2.099  11.820  1.1953 -1.1364  0.7624
  607MPD2    N1 9003   1.408   2.145  11.387  0.6385 -0.5360 -0.3449
  607MPD2    H7 9004   1.414   2.234  11.435 -1.5293 -1.1205  1.0486
  608TMC3    C1 9005   1.578   2.240  11.277  0.2282 -1.3274  0.8454
  608TMC3    C2 9006   1.648   2.247  11.390 -0.8105  0.5852  0.0208
  608TMC3    C3 9007   1.741   2.348  11.384  0.2377  0.8505 -0.3965
  608TMC3    C4 9008   1.594   2.317  11.165 -0.2143  0.1327 -0.0724
  608TMC3    C5 9009   1.686   2.418  11.176 -0.1515  0.1404  0.1916
  608TMC3    C6 9010   1.754   2.443  11.290  0.5188  0.8578 -0.2731
  608TMC3     C 9011   1.483   2.134  11.273  0.1283 -0.9762 -0.0102
  608TMC3     O 9012   1.490   2.047  11.186  0.6288 -0.6630  0.1280
  608TMC3     H 9013   1.634   2.174  11.470  0.3182  2.6301  2.0918
  608TMC3    H1 9014   1.548   2.297  11.069  2.3096 -1.3555 -0.9528
  608TMC3    H2 9015   1.848   2.498  11.287  1.2506 -0.4096 -1.0276
  608TMC3    C7 9016   1.735   2.470  11.051 -0.2728 -0.3521  0.2323
  608TMC3    C8 9017   1.789   2.393  11.508 -0.1344  0.2256  0.5889
  608TMC3    O1 9018   1.720   2.387  10.959  0.6107  0.4090 -0.4482
  608TMC3    O2 9019   1.885   2.463  11.518 -0.1597  0.6569 -0.1050
  609TMC3    C1 9020   4.063   0.890   9.281 -0.4446 -0.3508 -0.8251
  609TMC3    C2 9021   3.934   0.908   9.244  0.2160  0.9345 -0.1653
  609TMC3    C3 9022   3.887   0.806   9.160  0.1518  0.0688 -0.4509
  609TMC3    C4 9023   4.143   0.795   9.235 -1.0138  0.1129  0.3990
  609TMC3    C5 9024   4.093   0.700   9.149 -0.1254  0.1451  0.0552
  609TMC3    C6 9025   3.956   0.704   9.114 -0.3390 -0.0570 -0.2511
  609TMC3     C 9026   4.119   0.994   9.366  0.2019  0.0206 -0.1921
  609TMC3     O 9027   4.218   1.054   9.335 -0.0280 -0.4188 -0.0165
  609TMC3     H 9028   3.866   0.982   9.284 -1.0797  0.0849 -0.7853
  609TMC3    H1 9029   4.247   0.790   9.267  0.6467  3.1451 -4.4500
  609TMC3    H2 9030   3.919   0.612   9.070 -3.3116  1.2151 -0.4343
  609TMC3    C7 9031   4.184   0.603   9.093  0.3674 -0.0206  0.4388
  609TMC3    C8 9032   3.743   0.787   9.175 -0.2388 -0.0982  0.3714
  609TMC3    O1 9033   4.301   0.646   9.085  0.2111  0.0245  0.3066
  609TMC3    O2 9034   3.685   0.846   9.265 -0.8671 -0.3860  0.2503
  610TMC3    C1 9035   1.821   1.820  12.508 -0.4435  0.2542  0.8845
  610TMC3    C2 9036   1.912   1.854  12.414  0.5153  0.7329  0.7684
  610TMC3    C3 9037   2.037   1.815  12.452  0.4222 -0.2428 -0.1581
  610TMC3    C4 9038   1.844   1.727  12.607  0.0823  0.2738 -0.4049
  610TMC3    C5 9039   1.967   1.670  12.618  0.4141 -0.2837 -0.2995
  610TMC3    C6 9040   2.076   1.727  12.548  0.0691 -0.9337  0.1419
  610TMC3     C 9041   1.700   1.895  12.530 -0.4937 -0.2882  0.2514
  610TMC3     O 9042   1.606   1.846  12.588  0.1459  0.2025  0.1705
  610TMC3     H 9043   1.904   1.929  12.337  2.1272 -1.2873 -1.3420
  610TMC3    H1 9044   1.759   1.687  12.660 -1.1232  2.2432 -0.8885
  610TMC3    H2 9045   2.175   1.688  12.563 -0.5218 -2.7906 -0.7714
  610TMC3    C7 9046   2.002   1.573  12.722 -0.3079 -0.2569 -0.8292
  610TMC3    C8 9047   2.148   1.845  12.360 -0.6796  0.6713  0.5289
  610TMC3    O1 9048   2.099   1.503  12.698 -0.4769 -0.2535  0.1406
  610TMC3    O2 9049   2.222   1.755  12.318  0.4414  0.3644  0.0625
  611MPD2     C 9050   1.263   1.329   9.998 -0.2187  0.1746  0.4513
  611MPD2    C1 9051   1.172   1.394   9.921  0.7850  0.3644  0.8266
  611MPD2    C2 9052   1.200   1.521   9.886 -0.2041  0.5680  0.1983
  611MPD2    C3 9053   1.317   1.582   9.930  0.0540 -0.5854 -0.1457
  611MPD2    C4 9054   1.398   1.520  10.024  0.1135  0.0111  0.2680
  611MPD2    C5 9055   1.379   1.388  10.048  0.3306 -0.3206  0.0314
  611MPD2     H 9056   1.135   1.572   9.816  0.2207  0.8484  0.0061
  611MPD2    H1 9057   1.475   1.575  10.078 -0.5968  2.5689 -1.3045
  611MPD2    H2 9058   1.262   1.222  10.016  2.4358  0.3331  1.5295
  611MPD2    H3 9059   1.454   1.336  10.106  0.1040  1.2129  1.7067
  611MPD2     N 9060   1.363   1.710   9.890 -0.2367  0.3569  0.0668
  611MPD2    H5 9061   1.462   1.723   9.905 -0.3943  1.2107  0.3718
  611MPD2    N1 9062   1.060   1.316   9.886  0.2856  0.2449 -0.4801
  611MPD2    H7 9063   1.058   1.222   9.924  0.7054  1.0054  1.3874
  612TMC3    C1 9064   1.390   1.908   9.762  0.1110 -0.1170 -0.1755
  612TMC3    C2 9065   1.499   1.946   9.834 -0.1854  0.3647  0.0310
  612TMC3    C3 9066   1.569   2.048   9.772 -0.3985  0.2073  0.2066
  612TMC3    C4 9067   1.359   1.955   9.642 -0.7676 -0.3657 -0.2210
  612TMC3    C5 9068   1.431   2.052   9.580  0.3844 -0.4672  0.2764
  612TMC3    C6 9069   1.541   2.099   9.647  0.2578  0.3726  0.7058
  612TMC3     C 9070   1.301   1.800   9.805 -0.1525 -0.4452  0.0193
  612TMC3     O 9071   1.194   1.791   9.743  0.4465  0.8797 -0.5836
  612TMC3     H 9072   1.517   1.905   9.933  0.6487 -0.3912 -0.4320
  612TMC3    H1 9073   1.282   1.911   9.579  0.5795 -0.8015 -1.5430
  612TMC3    H2 9074   1.599   2.184   9.611 -0.8658  1.7860  2.1858
  612TMC3    C7 9075   1.397   2.095   9.448  0.1591  0.2465  0.3740
  612TMC3    C8 9076   1.682   2.117   9.846 -0.2169  0.0352  0.3458
  612TMC3    O1 9077   1.285   2.067   9.403 -0.2081 -0.7907  0.3371
  612TMC3    O2 9078   1.765   2.184   9.788  0.1702 -0.6096 -0.6799
  613MPD2     C 9079   0.265   0.103  15.758  0.2794  0.7212 -0.0708
  613MPD2    C1 9080   0.282   0.075  15.627 -0.0501  0.0853  0.2758
  613MPD2    C2 9081   0.380   4.709  15.596  0.9903  0.7452 -0.1206
  613MPD2    C3 9082   0.450   4.638  15.689  0.3590  0.0104 -0.0859
  613MPD2    C4 9083   0.430   4.667  15.826 -0.4295 -0.2157 -0.4577
  613MPD2    C5 9084   0.338   0.036  15.857 -0.1531  0.0776 -0.3258
  613MPD2     H 9085   0.389   4.694  15.489  0.4131 -1.0358  0.0773
  613MPD2    H1 9086   0.486   4.624  15.908 -0.2309  0.4492 -0.2441
  613MPD2    H2 9087   0.190   0.173  15.795 -0.9680 -1.9521  2.4809
  613MPD2    H3 9088   0.304   0.057  15.958  2.4010  1.8686  0.1498
  613MPD2     N 9089   0.538   4.544  15.640  0.0365  0.1968  0.5109
  613MPD2    H5 9090   0.534   4.535  15.539  2.8761 -2.1516  0.6199
  613MPD2    N1 9091   0.202   0.125  15.523 -0.4128  0.2423 -0.3543
  613MPD2    H7 9092   0.235   0.108  15.429 -2.3771  0.1919 -1.0266
  614TMC3    C1 9093   0.025   0.224  15.407  0.6981 -0.3684  0.4107
  614TMC3    C2 9094   0.118   0.225  15.308  0.1916  0.2935  0.1549
  614TMC3    C3 9095   0.103   0.148  15.193 -0.3927 -0.2471 -0.1357
  614TMC3    C4 9096   4.638   0.159  15.387  0.9536 -0.1604 -0.3267
  614TMC3    C5 9097   4.634   0.072  15.283  1.1972  0.1112  0.0508
  614TMC3    C6 9098   4.723   0.076  15.183  0.0004  0.0819 -0.0932
  614TMC3     C 9099   0.092   0.209  15.539 -0.3051  0.3234  0.1440
  614TMC3     O 9100   0.030   0.245  15.638 -0.1476  0.2451  0.4914
  614TMC3     H 9101   0.206   0.286  15.326  0.3259  0.1078  0.1286
  614TMC3    H1 9102   4.562   0.155  15.465  1.2972  0.5280  0.0360
  614TMC3    H2 9103   4.708   0.012  15.096 -0.3308  1.2582 -0.9063
  614TMC3    C7 9104   4.505   0.001  15.273 -0.0320 -0.1812  0.2404
  614TMC3    C8 9105   0.228   0.083  15.157 -0.2598 -0.0824 -0.1681
  614TMC3    O1 9106   4.398   0.055  15.312  0.4305 -0.2495 -0.5749
  614TMC3    O2 9107   0.307   0.075  15.251  0.1306 -0.0547 -0.5495
  615MPD2     C 9108   4.659   0.627  16.077  0.1194 -0.6359 -0.2181
  615MPD2    C1 9109   4.538   0.661  16.013  0.5664 -0.2264  0.3853
  615MPD2    C2 9110   4.488   0.587  15.912  0.0873 -0.2738  0.5045
  615MPD2    C3 9111   4.557   0.477  15.862  0.1031 -0.5608  0.9804
  615MPD2    C4 9112   4.668   0.429  15.933  0.1919  0.4456  0.5566
  615MPD2    C5 9113   4.717   0.503  16.040  0.6748  0.1961 -0.0016
  615MPD2     H 9114   4.397   0.630  15.872  0.3749 -2.1054 -2.0575
  615MPD2    H1 9115   4.722   0.339  15.905  1.0976  0.3129  2.6934
  615MPD2    H2 9116   4.689   0.680  16.166 -2.5802 -0.9547  0.8579
  615MPD2    H3 9117   0.082   0.460  16.079 -0.0519 -0.4757  0.9429
  615MPD2     N 9118   4.532   0.409  15.741 -0.1427  0.5362  0.1846
  615MPD2    H5 9119   4.608   0.361  15.694 -2.8234 -2.5792 -1.0472
  615MPD2    N1 9120   4.461   0.773  16.051  0.3129 -0.5287 -0.0449
  615MPD2    H7 9121   4.374   0.783  15.999 -0.0601 -2.2203  0.2688
  616TMC3    C1 9122   4.407   0.995  16.117  0.5192 -0.0068  0.4306
  616TMC3    C2 9123   4.470   1.116  16.108 -0.4272  0.0852 -1.0767
  616TMC3    C3 9124   4.392   1.230  16.083 -0.9794 -0.1293 -0.1431
  616TMC3    C4 9125   4.274   0.972  16.107 -0.0963  0.2135 -0.1904
  616TMC3    C5 9126   4.201   1.098  16.089  0.3319  0.0226  0.1529
  616TMC3    C6 9127   4.263   1.216  16.065 -0.2804  0.1236 -0.1829
  616TMC3     C 9128   4.499   0.886  16.117 -0.1859  0.1205 -0.0433
  616TMC3     O 9129   4.606   0.900  16.175 -0.1046  0.2710  0.3593
  616TMC3     H 9130   4.578   1.123  16.108 -0.4153  0.1139  1.4131
  616TMC3    H1 9131   4.233   0.877  16.140 -1.8453  0.2959 -2.1845
  616TMC3    H2 9132   4.190   1.296  16.060  1.0190  1.2539 -1.2231
  616TMC3    C7 9133   4.053   1.089  16.091 -0.0314  0.2735 -0.4038
  616TMC3    C8 9134   4.451   1.360  16.062 -0.0712 -0.5467  0.5228
  616TMC3    O1 9135   4.001   1.193  16.054  0.0934  0.0400 -0.4427
  616TMC3    O2 9136   4.369   1.439  16.013  0.5201 -0.0148  0.6504
  617MPD2     C 9137   3.084   3.881  13.369 -0.5351 -0.6158 -0.0190
  617MPD2    C1 9138   3.078   3.835  13.499  0.8414 -0.3404 -1.0518
  617MPD2    C2 9139   2.949   3.822  13.554  0.0138  0.4377  0.5528
  617MPD2    C3 9140   2.834   3.850  13.486 -0.1677  0.1776 -1.2277
  617MPD2    C4 9141   2.845   3.914  13.362 -0.5181  0.2028  1.1477
  617MPD2    C5 9142   2.967   3.927  13.309  1.0015  0.9560 -0.0176
  617MPD2     H 9143   2.949   3.769  13.649  0.9161  2.3998  1.6610
  617MPD2    H1 9144   2.758   3.943  13.304  0.0576  0.6111  0.4899
  617MPD2    H2 9145   3.177   3.895  13.315 -0.2684 -0.6650  0.4279
  617MPD2    H3 9146   2.970   3.957  13.205  2.4460 -0.1605 -0.2886
  617MPD2     N 9147   2.709   3.806  13.530 -1.0183  0.4820  0.3940
  617MPD2    H5 9148   2.636   3.808  13.459 -1.9474 -0.7273  1.3322
  617MPD2    N1 9149   3.191   3.805  13.571  0.3374 -0.1533  0.2048
  617MPD2    H7 9150   3.276   3.795  13.517  0.4375 -2.6276  0.8245
  618TMC3    C1 9151   3.321   3.752  13.737  0.3282  0.1829 -0.7452
  618TMC3    C2 9152   3.331   3.623  13.698 -0.3460 -0.6821 -0.1553
  618TMC3    C3 9153   3.453   3.577  13.657  0.3878 -0.4637  0.3400
  618TMC3    C4 9154   3.429   3.841  13.736  0.8222  0.0410 -1.1398
  618TMC3    C5 9155   3.552   3.788  13.707  0.3260 -0.4830  0.1179
  618TMC3    C6 9156   3.562   3.654  13.666  0.1831  0.2692 -0.4950
  618TMC3     C 9157   3.192   3.805  13.708  0.4884  0.4184 -1.0465
  618TMC3     O 9158   3.112   3.833  13.795 -0.0605  0.0819 -0.4711
  618TMC3     H 9159   3.237   3.568  13.698  0.5614 -2.2334 -0.3236
  618TMC3    H1 9160   3.416   3.945  13.763  2.6291 -0.2398  0.7992
  618TMC3    H2 9161   3.655   3.605  13.638 -0.7804 -2.6384  1.5070
  618TMC3    C7 9162   3.659   3.887  13.702 -0.7808 -0.4407  0.0898
  618TMC3    C8 9163   3.452   3.476  13.550  0.1023  0.4576  0.3204
  618TMC3    O1 9164   3.654   3.963  13.795  0.8523  0.2584  0.1602
  618TMC3    O2 9165   3.354   3.400  13.552  0.5870 -0.2514 -0.2716
  619MPD2     C 9166   4.133   0.121  13.660  0.2757  0.6173 -0.0237
  619MPD2    C1 9167   4.066   0.100  13.544 -0.6269 -0.0388 -0.1454
  619MPD2    C2 9168   3.930   0.061  13.553 -0.4407 -0.5736  0.3797
  619MPD2    C3 9169   3.864   0.039  13.674 -0.2272  0.4706  0.7256
  619MPD2    C4 9170   3.932   0.071  13.788 -0.2582 -0.3647  0.6372
  619MPD2    C5 9171   4.068   0.101  13.781 -0.2854  0.1447 -0.4051
  619MPD2     H 9172   3.877   0.061  13.459  1.7984  0.1544 -0.8683
  619MPD2    H1 9173   3.883   0.049  13.882 -2.0077 -0.6489 -0.3338
  619MPD2    H2 9174   4.238   0.149  13.659  0.1407  1.1496  1.2444
  619MPD2    H3 9175   4.121   0.121  13.873  0.4072 -0.1718 -0.7396
  619MPD2     N 9176   3.731   4.719  13.691  0.0476 -0.4927 -0.0432
  619MPD2    H5 9177   3.683   0.024  13.775 -2.3517 -3.1638 -0.4281
  619MPD2    N1 9178   4.112   0.135  13.417  0.4464  0.6134 -0.2169
  619MPD2    H7 9179   4.028   0.142  13.360 -0.7924 -0.0024  1.5097
  620TMC3    C1 9180   4.233   0.229  13.249 -0.2829 -0.1013  0.4622
  620TMC3    C2 9181   4.110   0.231  13.195  0.0123 -0.1706  0.2708
  620TMC3    C3 9182   4.052   0.351  13.164  0.1990 -0.0652 -0.4112
  620TMC3    C4 9183   4.312   0.337  13.252 -0.1718  0.0834 -0.0364
  620TMC3    C5 9184   4.255   0.452  13.203 -0.0563  0.9129 -0.1418
  620TMC3    C6 9185   4.119   0.465  13.172 -0.4284  0.2270 -0.1959
  620TMC3     C 9186   4.230   0.190  13.390  0.2548 -0.2505  0.1213
  620TMC3     O 9187   4.336   0.167  13.446  0.0352 -0.2872 -0.0179
  620TMC3     H 9188   4.053   0.139  13.191 -0.0740 -0.1420  0.8295
  620TMC3    H1 9189   4.408   0.330  13.303 -1.2028 -2.0398  1.5894
  620TMC3    H2 9190   4.087   0.566  13.148 -0.1694  0.0915 -1.1228
  620TMC3    C7 9191   4.323   0.581  13.230 -0.0396 -0.2980 -1.2163
  620TMC3    C8 9192   3.918   0.369  13.215 -0.3244 -1.0265 -0.3182
  620TMC3    O1 9193   4.245   0.679  13.222 -0.1658 -0.4896  0.3275
  620TMC3    O2 9194   3.867   0.273  13.277 -0.6218  0.1110 -0.1604
  621MPD2     C 9195   4.192   4.307  10.653  0.1096  0.3304 -0.8868
  621MPD2    C1 9196   4.177   4.308  10.513  0.6031 -0.3241 -0.3565
  621MPD2    C2 9197   4.180   4.430  10.451  0.2556  0.3839  0.2119
  621MPD2    C3 9198   4.216   4.546  10.516  0.6271  0.4275  0.1683
  621MPD2    C4 9199   4.226   4.539  10.651  0.0442  0.7004  0.2119
  621MPD2    C5 9200   4.206   4.425  10.718 -0.1695 -0.4432 -0.0959
  621MPD2     H 9201   4.164   4.434  10.343 -0.7525  0.5038  0.3639
  621MPD2    H1 9202   4.243   4.629  10.708 -1.2265  0.8282  0.3698
  621MPD2    H2 9203   4.183   4.218  10.715  1.0171  0.4850 -0.5305
  621MPD2    H3 9204   4.211   4.418  10.826 -1.4183  1.1730  0.0852
  621MPD2     N 9205   4.223   4.664  10.441  0.2494 -0.3306 -0.5565
  621MPD2    H5 9206   4.222   4.654  10.340  0.1234  2.3727 -0.8258
  621MPD2    N1 9207   4.154   4.196  10.430 -0.1287 -0.6509  1.2674
  621MPD2    H7 9208   4.136   4.216  10.332  2.4654  0.0341  0.9355
  622TMC3    C1 9209   4.080   3.994  10.375  0.2463 -0.0017 -0.0655
  622TMC3    C2 9210   4.009   3.887  10.424  0.0413  0.5894  0.1606
  622TMC3    C3 9211   3.932   3.807  10.339 -0.3450  0.2503  0.9060
  622TMC3    C4 9212   4.093   4.014  10.244  0.2014  0.2271 -0.9163
  622TMC3    C5 9213   4.031   3.924  10.162 -0.9177  0.2322 -0.0240
  622TMC3    C6 9214   3.940   3.823  10.204  0.2561  0.7797  0.1544
  622TMC3     C 9215   4.148   4.072  10.477 -0.3447 -0.6704  0.7468
  622TMC3     O 9216   4.173   4.020  10.586  1.0820  0.5137  0.5932
  622TMC3     H 9217   4.016   3.874  10.531 -2.5742 -0.2341  0.2257
  622TMC3    H1 9218   4.163   4.087  10.206  3.5346 -2.0764  0.7690
  622TMC3    H2 9219   3.884   3.763  10.134  0.5103  0.0186  0.6017
  622TMC3    C7 9220   4.039   3.940  10.013 -0.6164  0.3748  0.0941
  622TMC3    C8 9221   3.796   3.782  10.389  0.5507  0.5762 -0.1830
  622TMC3    O1 9222   4.011   3.844   9.948 -0.4209 -0.1947  0.1023
  622TMC3    O2 9223   3.710   3.765  10.302 -0.8169 -0.2653  0.2104
  623MPD2     C 9224   3.002   0.431  16.147 -0.4981 -0.0765 -0.3688
  623MPD2    C1 9225   2.959   0.554  16.187 -0.6135  0.1380 -0.3591
  623MPD2    C2 9226   3.000   0.605  16.307 -0.2960  0.0545  0.1728
  623MPD2    C3 9227   3.091   0.536  16.383 -1.0396 -0.7119  0.6591
  623MPD2    C4 9228   3.144   0.415  16.347 -0.3979  0.5508 -0.6810
  623MPD2    C5 9229   3.093   0.363  16.229  0.0917  0.1113  0.1176
  623MPD2     H 9230   2.966   0.705  16.332  0.1127  0.0225  0.8710
  623MPD2    H1 9231   3.223   0.362  16.399  1.6430  1.9219 -2.3454
  623MPD2    H2 9232   2.979   0.392  16.049  0.5064 -0.4400 -0.4665
  623MPD2    H3 9233   3.120   0.260  16.206 -0.2207  0.6450 -2.6077
  623MPD2     N 9234   3.139   0.614  16.492 -0.7621  0.0524  1.1567
  623MPD2    H5 9235   3.102   0.707  16.505  1.1349  0.6693  2.1319
  623MPD2    N1 9236   2.869   0.633  16.112 -0.1753  0.3674 -0.4888
  623MPD2    H7 9237   2.845   0.720  16.159 -1.1195 -1.0396  1.6264
  624TMC3    C1 9238   3.441   0.803  16.784 -1.1330 -0.4126  0.4852
  624TMC3    C2 9239   3.356   0.904  16.814 -1.3032  1.2323 -0.0666
  624TMC3    C3 9240   3.227   0.891  16.780 -0.0022 -0.4313 -0.4620
  624TMC3    C4 9241   3.406   0.688  16.716  0.7174 -0.2638  0.6615
  624TMC3    C5 9242   3.278   0.691  16.672 -0.5766 -0.1574 -0.2724
  624TMC3    C6 9243   3.181   0.782  16.702 -0.1143  0.0934 -0.4126
  624TMC3     C 9244   3.581   0.822  16.821  0.0580  0.8405 -0.7748
  624TMC3     O 9245   3.603   0.905  16.910 -0.0434 -0.7845  0.0978
  624TMC3     H 9246   3.386   0.993  16.868  0.4690  0.0174  0.9667
  624TMC3    H1 9247   3.472   0.608  16.685 -0.1930  0.7237 -3.8649
  624TMC3    H2 9248   3.082   0.771  16.658 -0.2588 -1.5280  0.3147
  624TMC3    C7 9249   3.249   0.583  16.575 -0.2115  0.2584 -0.1084
  624TMC3    C8 9250   3.128   0.996  16.809 -0.2794 -0.1155 -0.1463
  624TMC3    O1 9251   3.322   0.487  16.568 -0.3379 -0.1138 -0.9038
  624TMC3    O2 9252   3.165   1.105  16.851  0.0774 -0.1749  0.0092
  625MPD2     C 9253   3.242   1.681   0.671 -0.8923  0.0186  0.0130
  625MPD2    C1 9254   3.259   1.812   0.632  0.1064  0.0912 -0.0043
  625MPD2    C2 9255   3.342   1.892   0.718  0.5365  0.3255  0.0567
  625MPD2    C3 9256   3.398   1.844   0.839  0.1114 -0.7515 -0.4996
  625MPD2    C4 9257   3.383   1.716   0.866  0.2701  0.3213 -0.5162
  625MPD2    C5 9258   3.309   1.633   0.782  0.8450 -0.3837 -0.3954
  625MPD2     H 9259   3.351   1.998   0.698 -1.0470  1.1327  3.7669
  625MPD2    H1 9260   3.437   1.671   0.949 -0.0608  1.9716  0.5794
  625MPD2    H2 9261   3.185   1.610   0.612  0.6106  0.7794 -2.3826
  625MPD2    H3 9262   3.309   1.526   0.800  1.5871 -0.3406 -0.1291
  625MPD2     N 9263   3.466   1.938   0.923  0.5792  0.2497 -0.2185
  625MPD2    H5 9264   3.475   2.028   0.878  0.3835  0.2727 -0.2122
  625MPD2    N1 9265   3.193   1.868   0.519  0.8019  0.5673 -0.0685
  625MPD2    H7 9266   3.195   1.969   0.507 -0.9260  0.6608  0.4775
  626TMC3    C1 9267   3.037   1.900   0.347  0.2391  0.1595 -0.4959
  626TMC3    C2 9268   3.104   1.988   0.263  1.0445 -0.3489 -0.2189
  626TMC3    C3 9269   3.026   2.067   0.183  0.3048 -0.7442 -0.0902
  626TMC3    C4 9270   2.899   1.894   0.338 -0.3867 -0.5733  0.1970
  626TMC3    C5 9271   2.832   1.962   0.248 -0.3040 -0.2227 -0.2492
  626TMC3    C6 9272   2.893   2.061   0.176  0.3948  0.0545 -0.0002
  626TMC3     C 9273   3.107   1.800   0.429 -0.1935  0.4758  0.1605
  626TMC3     O 9274   3.071   1.683   0.423  0.0205  0.4720 -0.1453
  626TMC3     H 9275   3.212   1.996   0.267  0.7785  2.9084  0.5519
  626TMC3    H1 9276   2.840   1.823   0.395 -0.0030  0.6230  2.0731
  626TMC3    H2 9277   2.835   2.125   0.109  0.2399 -0.4612 -0.3654
  626TMC3    C7 9278   2.695   2.000   0.298  0.7159 -0.1302  0.1017
  626TMC3    C8 9279   3.079   2.189   0.129  0.5900  0.2914  0.1696
  626TMC3    O1 9280   2.638   1.909   0.359 -0.3439  0.0369  0.0922
  626TMC3    O2 9281   3.032   2.228   0.020 -0.4204  0.1743 -0.0186
  627MPD2     C 9282   2.623   2.654  14.133 -0.3753 -0.2033  0.1321
  627MPD2    C1 9283   2.604   2.668  14.274 -0.3905  0.6139 -0.2507
  627MPD2    C2 9284   2.542   2.575  14.350 -0.3485  0.7665 -0.5404
  627MPD2    C3 9285   2.486   2.467  14.284 -0.1083  0.3915 -0.0032
  627MPD2    C4 9286   2.496   2.451  14.143 -0.0830  1.0259 -0.4064
  627MPD2    C5 9287   2.554   2.548  14.072 -0.2172 -0.4851  0.7324
  627MPD2     H 9288   2.522   2.573  14.457  1.3676 -1.1329 -0.2509
  627MPD2    H1 9289   2.452   2.373  14.082  1.1870  0.2741 -0.3779
  627MPD2    H2 9290   2.666   2.732  14.071  0.0990  0.5251  1.3763
  627MPD2    H3 9291   2.551   2.536  13.964 -3.1338  0.0645  0.7614
  627MPD2     N 9292   2.424   2.369  14.362  0.0116 -0.1038 -0.1368
  627MPD2    H5 9293   2.457   2.374  14.458  0.1994  2.4493 -0.3240
  627MPD2    N1 9294   2.666   2.772  14.340  0.2161  0.6096  0.6966
  627MPD2    H7 9295   2.678   2.770  14.441  0.1096  0.5850  0.7093
  628TMC3    C1 9296   2.776   2.977  14.377  0.4092  0.3207  0.2484
  628TMC3    C2 9297   2.813   2.921  14.499 -0.0468  0.6089  0.4552
  628TMC3    C3 9298   2.832   3.009  14.605  0.4448  0.1239 -0.1931
  628TMC3    C4 9299   2.750   3.115  14.367  0.4731  0.1967  0.1361
  628TMC3    C5 9300   2.754   3.184  14.482  0.3101 -0.3170  0.0038
  628TMC3    C6 9301   2.813   3.141  14.594  0.4430 -0.4113  0.9426
  628TMC3     C 9302   2.706   2.896  14.282  0.2329 -0.0369 -0.6217
  628TMC3     O 9303   2.696   2.940  14.170  0.0019  0.5963 -0.0453
  628TMC3     H 9304   2.856   2.822  14.501 -2.0610 -0.3701 -4.0086
  628TMC3    H1 9305   2.709   3.156  14.276 -1.6115 -0.2259  0.8892
  628TMC3    H2 9306   2.800   3.203  14.683 -0.2090 -0.1431  0.6612
  628TMC3    C7 9307   2.746   3.331  14.476 -0.2820 -0.6886 -0.6588
  628TMC3    C8 9308   2.908   2.955  14.711 -0.7473 -0.5007 -0.0778
  628TMC3    O1 9309   2.800   3.400  14.562  0.4075  0.1170  0.0236
  628TMC3    O2 9310   2.958   2.844  14.701  0.5530 -0.1963  0.5642
  629MPD2     C 9311   0.137   1.664  16.003 -0.2691  0.2053 -0.7171
  629MPD2    C1 9312   0.177   1.529  15.996  0.1698 -0.0203 -0.3335
  629MPD2    C2 9313   0.079   1.433  16.005  0.0856 -0.0573  0.3794
  629MPD2    C3 9314   4.673   1.468  16.029  0.0843  0.0420 -0.5601
  629MPD2    C4 9315   4.632   1.599  16.042 -0.4189  0.5616 -0.4350
  629MPD2    C5 9316   0.005   1.693  16.025 -0.3373 -0.1591  0.2886
  629MPD2     H 9317   0.104   1.330  15.982 -2.0287 -0.8416  1.5899
  629MPD2    H1 9318   4.531   1.639  16.049 -0.3791  0.6992 -0.6381
  629MPD2    H2 9319   0.214   1.741  15.996  2.0406 -2.0645 -0.4393
  629MPD2    H3 9320   4.711   1.799  16.023  0.0506 -0.0832  0.3500
  629MPD2     N 9321   4.590   1.357  16.045  0.1012  0.3455  0.5605
  629MPD2    H5 9322   4.639   1.269  16.060 -1.2579 -0.2126  1.7494
  629MPD2    N1 9323   0.313   1.500  16.004 -0.0086  0.3316  0.2234
  629MPD2    H7 9324   0.380   1.576  15.999  0.1948  0.1266 -0.1339
  630TMC3    C1 9325   0.503   1.376  16.064 -0.2965 -0.1582 -0.5465
  630TMC3    C2 9326   0.583   1.397  15.956 -0.1592  0.5371 -0.6958
  630TMC3    C3 9327   0.699   1.336  15.951  0.7008 -0.6554 -0.3184
  630TMC3    C4 9328   0.541   1.298  16.170 -0.0994  0.6766  0.5131
  630TMC3    C5 9329   0.657   1.235  16.163  0.5031  0.2168  0.1032
  630TMC3    C6 9330   0.730   1.244  16.053  0.0903 -0.0996  0.1530
  630TMC3     C 9331   0.355   1.379  16.056 -0.4543  0.1018  0.2056
  630TMC3     O 9332   0.293   1.277  16.095 -0.2504  0.2267  0.1651
  630TMC3     H 9333   0.545   1.448  15.868  1.1562 -0.4803 -1.8464
  630TMC3    H1 9334   0.472   1.253  16.240 -2.0512 -1.9274 -3.0645
  630TMC3    H2 9335   0.826   1.196  16.065 -0.5715 -1.8368 -1.3857
  630TMC3    C7 9336   0.728   1.244  16.291  0.2809  0.2035  0.2365
  630TMC3    C8 9337   0.820   1.415  15.929  0.0786 -0.6543  0.7640
  630TMC3    O1 9338   0.662   1.217  16.392  0.8578  0.4301  0.1923
  630TMC3    O2 9339   0.900   1.417  16.019  0.7768  0.6592 -0.0171
  631MPD2     C 9340   3.777   0.995  15.367 -0.3269 -0.1315  0.2686
  631MPD2    C1 9341   3.888   1.043  15.306  0.2803  0.0647 -0.2460
  631MPD2    C2 9342   4.000   0.956  15.299  0.7100 -0.5227  0.4132
  631MPD2    C3 9343   3.998   0.838  15.365  0.5362 -0.0731  1.1271
  631MPD2    C4 9344   3.883   0.787  15.417 -0.0126 -0.5083 -0.6464
  631MPD2    C5 9345   3.777   0.872  15.427  0.3483 -0.7020 -0.1144
  631MPD2     H 9346   4.093   0.983  15.251  0.4624 -2.9588 -1.4455
  631MPD2    H1 9347   3.877   0.693  15.471  0.5064 -0.7622 -1.0284
  631MPD2    H2 9348   3.688   1.056  15.377  0.4424  0.9753  0.3605
  631MPD2    H3 9349   3.693   0.851  15.493 -1.2271  2.4407 -1.1364
  631MPD2     N 9350   4.130   0.769  15.359  0.6878 -0.2403  0.2986
  631MPD2    H5 9351   4.189   0.807  15.286 -0.7978 -0.9960 -1.2955
  631MPD2    N1 9352   3.885   1.174  15.256 -0.3136  0.4011  0.3807
  631MPD2    H7 9353   3.792   1.212  15.244 -1.3038 -2.0456  0.2187
  632TMC3    C1 9354   3.966   1.386  15.166  0.3915 -0.1359 -0.2914
  632TMC3    C2 9355   3.850   1.449  15.193  0.5300  0.3539  0.2419
  632TMC3    C3 9356   3.830   1.569  15.136 -0.5390  0.7400 -0.0042
  632TMC3    C4 9357   4.065   1.454  15.104  0.5322  0.5118 -0.0964
  632TMC3    C5 9358   4.048   1.575  15.051 -0.4233 -0.7493 -0.0529
  632TMC3    C6 9359   3.919   1.635  15.052  0.3585  1.0679  0.6088
  632TMC3     C 9360   4.000   1.248  15.214 -0.5124 -0.2668  0.0912
  632TMC3     O 9361   4.116   1.219  15.208 -0.1005 -0.3271  0.4311
  632TMC3     H 9362   3.767   1.401  15.245 -0.3677  0.6151 -0.9518
  632TMC3    H1 9363   4.153   1.395  15.083 -1.3454 -2.5841  0.6765
  632TMC3    H2 9364   3.901   1.721  14.989  3.4629  1.4112  0.1896
  632TMC3    C7 9365   4.141   1.619  14.948  0.0350  0.2288 -0.1803
  632TMC3    C8 9366   3.696   1.623  15.160 -0.2749  0.0247 -0.1794
  632TMC3    O1 9367   4.089   1.685  14.857  0.3879  0.7314  0.4466
  632TMC3    O2 9368   3.648   1.593  15.267 -0.1131  0.1283 -0.2675
  633MPD2     C 9369   3.502   4.040  17.420  0.3293  0.0177  0.6957
  633MPD2    C1 9370   3.555   3.952  17.323 -0.1600  0.4213 -0.2183
  633MPD2    C2 9371   3.566   3.817  17.350  0.6022  0.3109  0.0186
  633MPD2    C3 9372   3.528   3.769  17.471 -0.4341  0.2646  0.7593
  633MPD2    C4 9373   3.467   3.857  17.563  0.9907 -0.1604  0.2641
  633MPD2    C5 9374   3.452   3.986  17.536 -0.2267  0.0955  0.3238
  633MPD2     H 9375   3.601   3.745  17.276  1.7760  0.2154  0.6649
  633MPD2    H1 9376   3.442   3.821  17.662  0.9844  2.2988  1.1506
  633MPD2    H2 9377   3.494   4.147  17.408 -1.4357 -0.1325  0.6183
  633MPD2    H3 9378   3.401   4.054  17.604  1.5484  0.4141  1.3332
  633MPD2     N 9379   3.519   3.635  17.511  0.0995  0.1313  0.3886
  633MPD2    H5 9380   3.454   3.616  17.586  0.6078 -1.2752  0.4711
  633MPD2    N1 9381   3.603   3.996  17.198  0.1019  0.0693 -0.1458
  633MPD2    H7 9382   3.640   3.931  17.130  0.0745 -0.7391  0.6075
  634TMC3    C1 9383   3.671   4.150  17.043 -0.1049 -0.2526 -0.1279
  634TMC3    C2 9384   3.781   4.075  17.005 -0.1842 -0.3806 -0.5482
  634TMC3    C3 9385   3.827   4.103  16.882  0.0754  0.3279 -0.0760
  634TMC3    C4 9386   3.620   4.259  16.965 -0.0328 -0.3130  0.0695
  634TMC3    C5 9387   3.685   4.285  16.854 -0.6512  0.7970 -0.6049
  634TMC3    C6 9388   3.782   4.202  16.805 -0.4123 -0.7739  0.0082
  634TMC3     C 9389   3.588   4.121  17.152  0.5313 -0.0844  0.3616
  634TMC3     O 9390   3.529   4.218  17.197  0.3402 -0.3598  0.7421
  634TMC3     H 9391   3.812   3.994  17.070  0.8542 -1.4252 -2.3515
  634TMC3    H1 9392   3.530   4.308  16.999 -0.2786 -2.1366  2.0946
  634TMC3    H2 9393   3.838   4.241  16.720 -0.1860 -1.2656 -0.0717
  634TMC3    C7 9394   3.632   4.391  16.767 -0.7732  0.5116 -0.6181
  634TMC3    C8 9395   3.915   4.000  16.826  0.0535 -0.2356  0.4959
  634TMC3    O1 9396   3.676   4.397  16.651 -0.3893 -0.0084 -0.0540
  634TMC3    O2 9397   3.935   3.898  16.893 -0.3413 -0.0353  0.1491
  635TMC3    C1 9398   4.233   0.464  17.630 -0.2439 -0.3961 -0.0661
  635TMC3    C2 9399   4.352   0.530  17.640  0.4337  0.3039  0.3482
  635TMC3    C3 9400   4.456   0.469  17.587 -0.0055 -1.1698  1.0048
  635TMC3    C4 9401   4.220   0.334  17.585 -0.1221 -0.4609 -0.3216
  635TMC3    C5 9402   4.331   0.274  17.534 -0.2612 -1.2166 -0.2116
  635TMC3    C6 9403   4.446   0.347  17.525 -0.1204 -0.3836 -0.5035
  635TMC3     C 9404   4.120   0.526  17.694 -1.0266  0.2838  0.5468
  635TMC3     O 9405   4.115   0.648  17.684 -0.1563 -0.6572 -0.0865
  635TMC3     H 9406   4.355   0.626  17.692  0.2562  0.6913 -0.3512
  635TMC3    H1 9407   4.121   0.291  17.576 -1.0553  0.9930  2.7330
  635TMC3    H2 9408   4.523   0.306  17.461  0.1188 -1.8178  0.7055
  635TMC3    C7 9409   4.338   0.132  17.493 -0.3118 -0.6817  0.1843
  635TMC3    C8 9410   4.589   0.533  17.583 -0.2949 -0.1093 -0.5464
  635TMC3    O1 9411   4.415   0.105  17.408 -0.1115 -0.2639  0.4790
  635TMC3    O2 9412   4.687   0.461  17.560  0.5064 -0.7644  0.1103
  636MPD2     C 9413   0.004   4.456  15.472 -0.2975 -0.5435  0.1386
  636MPD2    C1 9414   0.061   4.476  15.594 -0.3736 -0.0031  0.5299
  636MPD2    C2 9415   0.180   4.408  15.616  0.2475  0.4645  1.0019
  636MPD2    C3 9416   0.228   4.306  15.532  0.5677 -0.6060 -0.4051
  636MPD2    C4 9417   0.171   4.302  15.408  0.4103 -0.1394  0.7191
  636MPD2    C5 9418   0.057   4.375  15.381  0.3295 -0.0971 -0.2969
  636MPD2     H 9419   0.231   4.439  15.707 -2.1708 -1.3232  2.9409
  636MPD2    H1 9420   0.219   4.251  15.325 -2.7799 -1.6393 -0.2137
  636MPD2    H2 9421   4.640   4.509  15.444  1.2713  1.8391 -0.3747
  636MPD2    H3 9422   0.013   4.373  15.282 -1.4316 -0.2371  0.4959
  636MPD2     N 9423   0.358   4.255  15.568  0.2404  0.3151 -0.2719
  636MPD2    H5 9424   0.416   4.295  15.641  1.3432 -0.4414 -0.7396
  636MPD2    N1 9425   0.011   4.562  15.696 -0.2760 -0.3487 -0.3523
  636MPD2    H7 9426   0.062   4.560  15.783 -2.3837  4.0231  0.9697
  637TMC3    C1 9427   0.559   4.178  15.506  0.3761  0.6282 -0.3705
  637TMC3    C2 9428   0.602   4.238  15.622  0.2113  0.2042  0.0890
  637TMC3    C3 9429   0.665   4.359  15.614 -0.1700  0.1410  0.4143
  637TMC3    C4 9430   0.600   4.224  15.377  0.0158 -0.0388  0.1581
  637TMC3    C5 9431   0.668   4.345  15.371 -0.3149 -0.1098  0.5848
  637TMC3    C6 9432   0.698   4.413  15.492  0.1498 -0.1310  0.1226
  637TMC3     C 9433   0.424   4.161  15.489 -0.4773  0.2127  0.6534
  637TMC3     O 9434   0.385   4.085  15.403  0.4149  0.0543  0.1827
  637TMC3     H 9435   0.556   4.217  15.718 -0.5421  1.4788 -0.0058
  637TMC3    H1 9436   0.569   4.164  15.293 -1.8503  0.3941  0.5331
  637TMC3    H2 9437   0.757   4.504  15.490 -0.1963  0.1082  1.0176
  637TMC3    C7 9438   0.598   4.434  15.284 -0.1260  0.1701 -0.2316
  637TMC3    C8 9439   0.608   4.451  15.710 -0.5525 -0.4022  0.2509
  637TMC3    O1 9440   0.572   4.538  15.345 -0.0686  0.3704 -0.3018
  637TMC3    O2 9441   0.581   4.415  15.825  0.4912 -0.1939  0.1779
  638MPD2     C 9442   4.723   3.239  14.820 -0.4173  0.5006 -0.4127
  638MPD2    C1 9443   4.629   3.171  14.759  0.2256  0.5299  0.1319
  638MPD2    C2 9444   4.574   3.062  14.828  0.1014  0.5426  0.9878
  638MPD2    C3 9445   4.633   3.013  14.943 -0.9322  0.7220 -0.1170
  638MPD2    C4 9446   0.006   3.095  15.004  0.0342 -0.3915 -0.2682
  638MPD2    C5 9447   0.057   3.201  14.940 -0.0093 -0.5929 -0.3203
  638MPD2     H 9448   4.491   3.006  14.786  2.0717 -0.7725 -1.1550
  638MPD2    H1 9449   0.063   3.061  15.090  0.8482  0.8653 -0.3161
  638MPD2    H2 9450   0.052   3.309  14.757  1.1742 -2.3876 -2.2383
  638MPD2    H3 9451   0.151   3.247  14.966 -0.2096  0.9946 -2.3444
  638MPD2     N 9452   4.583   2.892  14.996 -0.1858 -0.4122  0.4065
  638MPD2    H5 9453   4.494   2.862  14.957  0.5098 -1.8639 -0.0853
  638MPD2    N1 9454   4.594   3.219  14.630 -0.3257  0.1989 -0.1147
  638MPD2    H7 9455   4.648   3.297  14.593  0.2740  1.0208  2.5099
  639TMC3    C1 9456   4.566   2.703  15.143 -0.7412 -0.3106  0.1939
  639TMC3    C2 9457   4.461   2.651  15.070 -0.2836  0.4971 -0.3407
  639TMC3    C3 9458   4.401   2.538  15.117 -0.5720 -0.2614 -0.3708
  639TMC3    C4 9459   4.616   2.633  15.248  0.4618  0.3089  0.0070
  639TMC3    C5 9460   4.561   2.521  15.299 -0.4470 -0.5479  1.0114
  639TMC3    C6 9461   4.453   2.476  15.227 -0.2347  0.0585  0.0434
  639TMC3     C 9462   4.631   2.829  15.110 -0.5751  0.3043  0.6854
  639TMC3     O 9463   4.726   2.868  15.180 -0.7298 -0.2803 -0.1706
  639TMC3     H 9464   4.440   2.699  14.975 -2.2471  0.6742  0.1737
  639TMC3    H1 9465   4.710   2.674  15.285  0.5800 -1.2521  1.4549
  639TMC3    H2 9466   4.414   2.379  15.255  1.3026 -0.0684  1.7349
  639TMC3    C7 9467   4.635   2.404  15.327 -0.1319 -0.5124  0.4289
  639TMC3    C8 9468   4.322   2.471  15.020 -0.4001  0.1591 -0.0293
  639TMC3    O1 9469   4.599   2.327  15.419  0.3333 -0.1296 -0.1821
  639TMC3    O2 9470   4.373   2.463  14.908  0.2672 -0.2374  0.1978
  640MPD2     C 9471   4.327   1.453   9.422  0.8875 -0.3120 -0.2379
  640MPD2    C1 9472   4.238   1.443   9.308 -0.4612 -0.0717 -0.2283
  640MPD2    C2 9473   4.151   1.550   9.287 -1.1821 -0.3173 -0.5360
  640MPD2    C3 9474   4.138   1.655   9.375 -0.3595  0.3209  0.4767
  640MPD2    C4 9475   4.226   1.657   9.480  0.0217 -0.7084  0.9723
  640MPD2    C5 9476   4.318   1.559   9.503  0.5938 -0.3165  0.5006
  640MPD2     H 9477   4.088   1.550   9.198 -0.4325  2.1988 -1.0696
  640MPD2    H1 9478   4.218   1.736   9.553 -0.2396 -0.7053  0.9380
  640MPD2    H2 9479   4.404   1.378   9.435  2.5660  0.9477 -2.8928
  640MPD2    H3 9480   4.378   1.564   9.593  2.2778  0.2468 -0.6374
  640MPD2     N 9481   4.057   1.774   9.353  0.5806 -0.1639  0.2345
  640MPD2    H5 9482   4.080   1.848   9.419  0.4763 -1.2582  1.5084
  640MPD2    N1 9483   4.248   1.327   9.224 -0.3428  1.0999  0.1132
  640MPD2    H7 9484   4.312   1.254   9.253 -0.3808  1.2529  0.5852
  641TMC3    C1 9485   4.213   1.180   9.039  1.3891  0.1111  0.9138
  641TMC3    C2 9486   4.329   1.114   9.065  0.2034  0.1604 -0.7014
  641TMC3    C3 9487   4.341   0.992   9.004  0.4323  0.0135  0.6787
  641TMC3    C4 9488   4.116   1.127   8.965 -0.1346  0.1668 -0.0919
  641TMC3    C5 9489   4.137   1.012   8.894 -0.2636 -0.2248  0.2471
  641TMC3    C6 9490   4.250   0.941   8.909  0.0302  0.3146  0.1784
  641TMC3     C 9491   4.179   1.299   9.109  0.7030 -0.3202  0.7930
  641TMC3     O 9492   4.100   1.368   9.046 -0.3242 -0.8016 -0.0232
  641TMC3     H 9493   4.417   1.155   9.114  1.2531 -1.6990 -1.0140
  641TMC3    H1 9494   4.022   1.179   8.950 -0.7836 -1.0748 -0.3169
  641TMC3    H2 9495   4.274   0.853   8.851  1.6668  2.0488 -1.8053
  641TMC3    C7 9496   4.027   0.949   8.823 -0.1568 -0.7967  0.7960
  641TMC3    C8 9497   4.449   0.903   9.033 -0.1402 -0.4626  0.6726
  641TMC3    O1 9498   4.013   0.828   8.833 -0.0273  0.2908  0.3104
  641TMC3    O2 9499   4.488   0.833   8.938 -0.2066  0.7057  0.2941
  642TMC3    C1 9500   1.421   2.966  11.941  0.0874 -0.4183  0.4661
  642TMC3    C2 9501   1.558   2.961  11.925  0.3673  0.3784  0.7966
  642TMC3    C3 9502   1.620   2.845  11.882  0.3703  0.2657  0.1514
  642TMC3    C4 9503   1.337   2.862  11.902  0.4205  0.6062 -1.4174
  642TMC3    C5 9504   1.403   2.759  11.845  0.4959 -0.3726  0.4174
  642TMC3    C6 9505   1.538   2.735  11.845  0.7162  0.0498 -0.0528
  642TMC3     C 9506   1.361   3.095  11.958 -0.4424  0.1241 -0.6184
  642TMC3     O 9507   1.427   3.184  11.910  0.6181  0.2094 -0.2305
  642TMC3     H 9508   1.607   3.048  11.967 -0.1232  0.3456  1.4280
  642TMC3    H1 9509   1.229   2.869  11.893  0.3670 -1.6282 -2.5933
  642TMC3    H2 9510   1.583   2.648  11.799  0.1428 -1.6725  2.6706
  642TMC3    C7 9511   1.320   2.646  11.804 -0.2358 -0.6566 -0.0589
  642TMC3    C8 9512   1.759   2.809  11.903 -1.1372 -0.4643 -0.7233
  642TMC3    O1 9513   1.354   2.571  11.718 -0.4056 -0.1266  0.2272
  642TMC3    O2 9514   1.799   2.733  11.818 -0.0834 -0.0532 -0.4281
  643TMC3    C1 9515   0.667   2.230   0.176 -0.7617  0.0872 -0.6710
  643TMC3    C2 9516   0.553   2.292   0.127 -0.2556 -0.3750 -0.0649
  643TMC3    C3 9517   0.435   2.221   0.120 -0.2566 -0.2841 -0.7077
  643TMC3    C4 9518   0.673   2.097   0.213  0.0637 -0.7898 -1.8287
  643TMC3    C5 9519   0.558   2.027   0.211 -0.7801 -0.9664 -0.7749
  643TMC3    C6 9520   0.441   2.090   0.164  0.1919 -0.6081 -0.7217
  643TMC3     C 9521   0.782   2.305   0.202  0.6325  0.3305 -1.1212
  643TMC3     O 9522   0.807   2.388   0.116 -0.0282  0.3761 -0.5097
  643TMC3     H 9523   0.550   2.396   0.097  0.1292 -0.5913 -0.8341
  643TMC3    H1 9524   0.766   2.050   0.243  0.1875  1.6905  1.6555
  643TMC3    H2 9525   0.352   2.031   0.182  0.4196 -0.0877  2.1296
  643TMC3    C7 9526   0.557   1.886   0.258 -0.8526 -0.7543 -0.6093
  643TMC3    C8 9527   0.382   2.231  17.697  0.2905 -0.1575 -0.4428
  643TMC3    O1 9528   0.615   1.870   0.365 -0.6409  0.1230  0.1482
  643TMC3    O2 9529   0.433   2.306  17.621  0.1404  0.6720 -0.1602
  644MPD2     C 9530   4.202   1.903   9.009 -0.1097  0.2577 -0.1124
  644MPD2    C1 9531   4.316   1.909   9.085  0.1086 -0.3033  0.0020
  644MPD2    C2 9532   4.366   2.033   9.120 -1.1256  0.5575 -0.2986
  644MPD2    C3 9533   4.285   2.142   9.111 -0.3784  0.1274 -0.1171
  644MPD2    C4 9534   4.162   2.137   9.050 -0.3809 -0.2796  0.5410
  644MPD2    C5 9535   4.128   2.018   8.993  0.0732 -0.2793 -0.0278
  644MPD2     H 9536   4.467   2.046   9.159 -1.9125  0.9291  1.6105
  644MPD2    H1 9537   4.094   2.220   9.049 -1.4006 -1.0906  3.9510
  644MPD2    H2 9538   4.163   1.811   8.967  0.3180 -1.0398  2.3257
  644MPD2    H3 9539   4.030   2.012   8.948 -0.2087 -2.8517  0.9203
  644MPD2     N 9540   4.341   2.257   9.164 -0.4252  0.3524  0.1305
  644MPD2    H5 9541   4.415   2.241   9.231 -0.7444  0.6338  0.5501
  644MPD2    N1 9542   4.390   1.789   9.109 -0.0639 -0.0475  0.1680
  644MPD2    H7 9543   4.349   1.706   9.068 -0.4579 -0.2215  0.9316
  645TMC3    C1 9544   4.388   2.479   9.212 -0.3034  0.1611 -0.2512
  645TMC3    C2 9545   4.519   2.444   9.228  0.7812 -0.0692 -0.3325
  645TMC3    C3 9546   4.604   2.544   9.278  0.0143  0.2853  0.8142
  645TMC3    C4 9547   4.333   2.603   9.253  0.6505 -0.1946  0.8237
  645TMC3    C5 9548   4.423   2.692   9.304  0.2211 -0.0919 -0.1574
  645TMC3    C6 9549   4.561   2.669   9.315  0.4870  1.6944 -0.4274
  645TMC3     C 9550   4.292   2.389   9.153  0.6827 -0.4273 -0.2653
  645TMC3     O 9551   4.185   2.435   9.107  0.3816 -0.0027 -0.2990
  645TMC3     H 9552   4.564   2.346   9.218  1.2117  0.1512 -0.5419
  645TMC3    H1 9553   4.227   2.620   9.240  0.6158 -2.0122 -1.3392
  645TMC3    H2 9554   4.633   2.748   9.332 -0.9533  2.8346  0.4836
  645TMC3    C7 9555   4.374   2.821   9.348  0.3209  1.1964 -0.2109
  645TMC3    C8 9556   0.017   2.503   9.307 -0.7340 -0.2423 -0.0171
  645TMC3    O1 9557   4.252   2.814   9.363 -0.5871 -0.3416  0.0457
  645TMC3    O2 9558   0.070   2.406   9.253 -0.1312 -0.6198  0.4582
  646MPD2     C 9559   4.699   1.866  14.454 -0.0768  0.6127  0.0968
  646MPD2    C1 9560   4.610   1.844  14.553  0.5138 -0.8853 -0.3156
  646MPD2    C2 9561   4.485   1.891  14.529  0.6270  0.3191 -0.8232
  646MPD2    C3 9562   4.441   1.956  14.411 -0.4123 -0.3317  0.0749
  646MPD2    C4 9563   4.544   1.976  14.312  0.3813 -0.2319 -0.1854
  646MPD2    C5 9564   4.671   1.935  14.342  0.4856  0.4835 -0.2087
  646MPD2     H 9565   4.402   1.876  14.597  0.1963  0.9477 -1.2082
  646MPD2    H1 9566   4.527   2.026  14.217 -0.4808 -2.1421 -1.0282
  646MPD2    H2 9567   0.074   1.839  14.483  0.1485  1.6918  0.3351
  646MPD2    H3 9568   0.032   1.956  14.282  0.9508 -0.7240  0.0397
  646MPD2     N 9569   4.306   1.990  14.387 -0.2729 -1.3888  0.2884
  646MPD2    H5 9570   4.242   1.959  14.459  0.3658 -0.7580  1.1275
  646MPD2    N1 9571   4.651   1.781  14.672 -0.6708  0.5481 -0.1795
  646MPD2    H7 9572   0.019   1.745  14.687  0.1173  2.7877  0.2311
  647TMC3    C1 9573   4.689   1.771  14.895  0.3969  0.1229 -0.9161
  647TMC3    C2 9574   4.651   1.719  15.016 -0.3413 -0.1848 -0.1625
  647TMC3    C3 9575   0.028   1.684  15.099  0.5217 -0.6585  0.1443
  647TMC3    C4 9576   0.093   1.796  14.865  0.7977 -0.2171 -0.2156
  647TMC3    C5 9577   0.193   1.756  14.947  0.1736 -0.1059 -0.6939
  647TMC3    C6 9578   0.161   1.690  15.059 -0.6205  0.5143 -0.1341
  647TMC3     C 9579   4.589   1.798  14.793  0.7347  0.4216 -0.0761
  647TMC3     O 9580   4.474   1.827  14.821  0.1504  0.4470  0.0136
  647TMC3     H 9581   4.546   1.700  15.034 -0.3186 -1.5560 -1.4490
  647TMC3    H1 9582   0.121   1.864  14.786 -0.0533  1.6082  1.0679
  647TMC3    H2 9583   0.231   1.660  15.136  0.5866 -1.4795 -1.9994
  647TMC3    C7 9584   0.334   1.761  14.910  0.3450 -0.5488  0.5888
  647TMC3    C8 9585   0.015   1.584  15.206 -0.6694 -0.4250  0.3849
  647TMC3    O1 9586   0.408   1.717  14.995 -0.1146  0.1434 -0.2068
  647TMC3    O2 9587   0.085   1.489  15.181 -0.1295 -0.9953  0.1986
  648TMC3    C1 9588   4.320   4.151  16.226  0.5969 -0.1129  0.0145
  648TMC3    C2 9589   4.380   4.026  16.229  0.6595  0.0835 -0.3010
  648TMC3    C3 9590   4.399   3.957  16.112 -0.2833 -0.5505 -0.7561
  648TMC3    C4 9591   4.257   4.192  16.110  0.1277  0.4454 -0.3981
  648TMC3    C5 9592   4.249   4.105  16.008 -0.3415 -0.5360  0.3347
  648TMC3    C6 9593   4.323   3.995  16.002 -0.3890  0.0581 -0.4098
  648TMC3     C 9594   4.300   4.234  16.343 -0.9047 -0.3487 -0.4372
  648TMC3     O 9595   4.248   4.339  16.318  0.1680  0.5949 -0.3613
  648TMC3     H 9596   4.423   3.986  16.320 -1.8387  0.8604  1.2395
  648TMC3    H1 9597   4.198   4.283  16.110 -0.5117  0.0355  0.8883
  648TMC3    H2 9598   4.338   3.934  15.913 -0.5115 -0.0344 -0.3679
  648TMC3    C7 9599   4.159   4.124  15.902 -0.7407  0.6796  0.0074
  648TMC3    C8 9600   4.428   3.817  16.117 -0.2502 -0.2876  0.3524
  648TMC3    O1 9601   4.194   4.086  15.793 -0.5244 -0.3430  0.8251
  648TMC3    O2 9602   4.386   3.763  16.217 -0.4731  0.9326  0.7620
  649TMC3    C1 9603   2.609   0.677  12.775  0.5286 -0.9426 -0.1543
  649TMC3    C2 9604   2.718   0.685  12.692  0.5145 -0.8228  0.7389
  649TMC3    C3 9605   2.829   0.607  12.729  0.3382  0.3024  0.6969
  649TMC3    C4 9606   2.609   0.609  12.892  0.3371 -0.0266  0.5151
  649TMC3    C5 9607   2.719   0.533  12.924 -0.3159 -0.6141 -0.5205
  649TMC3    C6 9608   2.828   0.533  12.843 -0.1025 -0.8143 -0.0663
  649TMC3     C 9609   2.488   0.753  12.764  0.3992  0.1540 -0.7038
  649TMC3     O 9610   2.424   0.782  12.869 -0.2840  0.5909  0.0209
  649TMC3     H 9611   2.718   0.757  12.611  0.0047  0.0554  1.5347
  649TMC3    H1 9612   2.521   0.610  12.956 -0.9317 -1.1625 -1.2038
  649TMC3    H2 9613   2.915   0.472  12.864  0.1106 -0.6617 -0.4986
  649TMC3    C7 9614   2.711   0.447  13.048  0.0386 -0.8130  1.0448
  649TMC3    C8 9615   2.928   0.583  12.626 -0.0709 -0.2550 -0.0005
  649TMC3    O1 9616   2.607   0.456  13.113  0.4073 -0.5442 -0.6283
  649TMC3    O2 9617   3.012   0.501  12.653  0.0429  0.0299 -0.0813
  650TMC3    C1 9618   0.831   1.974  12.188  0.2761 -0.9274  0.0409
  650TMC3    C2 9619   0.785   2.105  12.174  0.1829 -0.3300  0.3596
  650TMC3    C3 9620   0.679   2.121  12.098 -0.6692  0.6520  0.6968
  650TMC3    C4 9621   0.774   1.868  12.127  0.2835 -0.5917  0.3635
  650TMC3    C5 9622   0.655   1.890  12.070 -0.1673  0.3824  0.0767
  650TMC3    C6 9623   0.606   2.013  12.052 -0.1533  0.1552 -0.0050
  650TMC3     C 9624   0.944   1.947  12.279 -0.0782 -0.0999 -0.2341
  650TMC3     O 9625   1.011   2.043  12.310 -0.4025  0.1375 -0.3160
  650TMC3     H 9626   0.837   2.176  12.238 -1.2184 -1.2581  2.5380
  650TMC3    H1 9627   0.812   1.767  12.118 -1.7242 -1.2271 -0.8329
  650TMC3    H2 9628   0.518   2.030  11.991  0.6268  0.7196 -0.9829
  650TMC3    C7 9629   0.563   1.777  12.037  0.3903  0.3775 -0.0529
  650TMC3    C8 9630   0.613   2.247  12.114  0.1652  0.2001  0.2034
  650TMC3    O1 9631   0.566   1.677  12.108 -0.2271 -0.0148 -0.3123
  650TMC3    O2 9632   0.684   2.334  12.168  0.1064 -0.3249 -0.5099
  651MPD2     C 9633   4.007   3.482  10.483 -0.0185  0.2618  0.5970
  651MPD2    C1 9634   4.010   3.569  10.592 -0.4308 -0.4152 -0.3422
  651MPD2    C2 9635   4.123   3.649  10.606  0.3282 -0.3433 -0.3663
  651MPD2    C3 9636   4.230   3.644  10.521 -0.0517 -0.0784  0.1945
  651MPD2    C4 9637   4.231   3.556  10.418  0.2884  0.0578 -0.3269
  651MPD2    C5 9638   4.113   3.482  10.401  0.1183 -0.1505 -0.0082
  651MPD2     H 9639   4.120   3.721  10.687  0.0921 -0.9534  0.1655
  651MPD2    H1 9640   4.310   3.540  10.345  0.7458 -1.1835  0.4384
  651MPD2    H2 9641   3.929   3.410  10.466  0.5759 -0.2157 -0.0958
  651MPD2    H3 9642   4.118   3.410  10.320 -0.8069 -0.7428  0.4544
  651MPD2     N 9643   4.335   3.739  10.550  0.4908  0.2581  0.0322
  651MPD2    H5 9644   4.326   3.789  10.638 -0.9876  1.1966 -0.6624
  651MPD2    N1 9645   3.904   3.592  10.680 -0.0952  0.0480  0.2620
  651MPD2    H7 9646   3.921   3.658  10.755  0.3429  0.2485 -0.0105
  652TMC3    C1 9647   4.696   4.020  10.445 -0.2112  0.4815  0.5763
  652TMC3    C2 9648   4.625   3.904  10.414 -0.4793 -0.1711 -0.5097
  652TMC3    C3 9649   4.521   3.882  10.492  0.1252  0.2071 -0.1778
  652TMC3    C4 9650   4.645   4.119  10.528  0.4306  0.5459 -0.4201
  652TMC3    C5 9651   4.532   4.096  10.599 -0.0938  0.2398 -0.4238
  652TMC3    C6 9652   4.472   3.973  10.592 -0.5742 -0.7028 -0.3692
  652TMC3     C 9653   0.112   4.008  10.449  0.6467 -0.1722  0.5789
  652TMC3     O 9654   0.152   3.893  10.453  0.2058 -0.1548 -0.1811
  652TMC3     H 9655   4.667   3.832  10.345 -1.6435 -0.3511 -1.0353
  652TMC3    H1 9656   4.710   4.198  10.565  0.3528  0.2268  0.4015
  652TMC3    H2 9657   4.386   3.952  10.655 -0.9041 -0.9610 -0.9064
  652TMC3    C7 9658   4.516   4.174  10.727  0.2893 -0.4432  0.2534
  652TMC3    C8 9659   4.437   3.766  10.461 -0.5707  0.6424  0.2218
  652TMC3    O1 9660   4.465   4.120  10.825 -0.0420 -0.5398 -0.0089
  652TMC3    O2 9661   4.468   3.704  10.360  0.0953 -0.0600  0.2920
  653MPD2     C 9662   3.152   4.157   0.056 -0.1444  0.7083 -0.1680
  653MPD2    C1 9663   3.139   4.231  17.638 -0.5839  0.1217 -0.6201
  653MPD2    C2 9664   3.120   4.166  17.520 -0.7847  1.0462  0.3852
  653MPD2    C3 9665   3.113   4.029  17.515  0.2726 -0.5838  0.6166
  653MPD2    C4 9666   3.130   3.960  17.638 -0.1615 -0.1857 -0.0441
  653MPD2    C5 9667   3.147   4.022   0.049 -0.2531 -0.8322 -0.9441
  653MPD2     H 9668   3.102   4.216  17.425 -1.3431 -1.8037 -1.0049
  653MPD2    H1 9669   3.142   3.853  17.639  0.0207 -0.1614  0.5111
  653MPD2    H2 9670   3.166   4.212   0.148 -0.4943  0.2348  0.1693
  653MPD2    H3 9671   3.150   3.966   0.142  3.0303  1.3680  0.2878
  653MPD2     N 9672   3.080   3.965  17.389 -0.2767  0.0139 -0.2014
  653MPD2    H5 9673   3.064   4.025  17.309  1.2912  0.0192 -0.5234
  653MPD2    N1 9674   3.145   4.373  17.633 -0.0502 -0.0431 -0.5416
  653MPD2    H7 9675   3.178   4.409  17.543 -0.7764 -0.4624 -0.9764
  654TMC3    C1 9676   3.033   3.802  17.244  0.5096  0.1553  0.5389
  654TMC3    C2 9677   2.946   3.871  17.163 -0.4454  0.0215  0.9551
  654TMC3    C3 9678   2.949   3.842  17.029  0.0421  0.3964  0.7526
  654TMC3    C4 9679   3.119   3.711  17.194  0.0539  0.2607 -0.3340
  654TMC3    C5 9680   3.117   3.684  17.060 -0.2140  0.2826  0.2775
  654TMC3    C6 9681   3.035   3.751  16.980 -0.0691 -0.4715  0.7150
  654TMC3     C 9682   3.043   3.834  17.380  0.6014 -0.2578  0.0779
  654TMC3     O 9683   3.038   3.742  17.461 -0.3066 -0.1721  0.5001
  654TMC3     H 9684   2.876   3.945  17.199 -0.0009 -0.1450  2.1550
  654TMC3    H1 9685   3.192   3.663  17.258  1.0581  0.6685 -1.1885
  654TMC3    H2 9686   3.048   3.724  16.876 -1.4468  0.7972  0.2109
  654TMC3    C7 9687   3.228   3.604  17.010 -0.3781 -0.2877 -0.4401
  654TMC3    C8 9688   2.840   3.890  16.949  0.1528 -1.2061  0.4101
  654TMC3    O1 9689   3.264   3.612  16.892  0.9549  0.6149  0.2377
  654TMC3    O2 9690   2.736   3.930  17.004 -0.1014 -0.1344 -0.3305
  655MPD2     C 9691   4.436   4.208  15.428 -0.5176 -0.1965  0.0715
  655MPD2    C1 9692   4.311   4.253  15.399  0.1608 -0.4998 -0.0034
  655MPD2    C2 9693   4.236   4.189  15.303  0.1784 -0.6262 -0.0000
  655MPD2    C3 9694   4.290   4.085  15.231  0.9333  0.6652 -0.1347
  655MPD2    C4 9695   4.417   4.052  15.254  0.9761  0.2847 -0.8139
  655MPD2    C5 9696   4.491   4.105  15.355  0.3400 -0.4965  0.3719
  655MPD2     H 9697   4.136   4.228  15.288 -0.7175 -2.3798  1.4761
  655MPD2    H1 9698   4.469   3.982  15.190 -1.2155 -0.3019 -1.9213
  655MPD2    H2 9699   4.506   4.251  15.498  0.1477  0.0548 -0.7376
  655MPD2    H3 9700   4.590   4.063  15.368 -0.8203 -2.6412  2.2768
  655MPD2     N 9701   4.212   4.019  15.135 -0.0150 -0.1215 -0.4512
  655MPD2    H5 9702   4.254   3.934  15.099  1.0028  0.0131  0.4103
  655MPD2    N1 9703   4.254   4.367  15.467  0.0714  0.1032  0.3106
  655MPD2    H7 9704   4.162   4.401  15.439 -0.7064 -2.9968 -0.8724
  656TMC3    C1 9705   4.237   4.545  15.619  0.1974  0.4934  0.2637
  656TMC3    C2 9706   4.222   4.551  15.759 -0.0429  0.4714  0.4637
  656TMC3    C3 9707   4.110   4.611  15.811 -0.2473 -0.3841 -0.0433
  656TMC3    C4 9708   4.148   4.592  15.529 -0.5760  0.4330 -0.3943
  656TMC3    C5 9709   4.032   4.636  15.581 -0.6388  0.4379 -0.0455
  656TMC3    C6 9710   4.010   4.650  15.721 -0.6560 -0.4543  0.2159
  656TMC3     C 9711   4.307   4.422  15.579 -0.5702 -0.6011  0.3478
  656TMC3     O 9712   4.382   4.370  15.658 -0.1689  0.3732 -0.3714
  656TMC3     H 9713   4.282   4.497  15.832  0.1349  0.8017  0.5637
  656TMC3    H1 9714   4.176   4.601  15.425  1.2197 -0.5255  0.0038
  656TMC3    H2 9715   3.908   4.654  15.758 -0.8534 -2.5754 -0.0886
  656TMC3    C7 9716   3.925   4.602  15.493  0.0751  0.5990 -0.4105
  656TMC3    C8 9717   4.078   4.584  15.952 -0.0023 -0.2987 -0.2047
  656TMC3    O1 9718   3.957   4.510  15.418  0.2884  0.1431 -0.6035
  656TMC3    O2 9719   4.143   4.505  16.017 -0.2420 -0.2994 -0.1172
  657TMC3    C1 9720   3.147   3.571  15.268 -1.0412 -0.1081  0.6584
  657TMC3    C2 9721   3.241   3.614  15.350 -0.5732  0.5674  0.3602
  657TMC3    C3 9722   3.229   3.727  15.424 -1.0546 -0.2307 -1.0855
  657TMC3    C4 9723   3.032   3.644  15.252 -0.3031  0.4842 -0.2322
  657TMC3    C5 9724   3.017   3.752  15.331  0.4424 -0.3634  0.1376
  657TMC3    C6 9725   3.115   3.800  15.412 -0.3305 -0.1604  1.0687
  657TMC3     C 9726   3.186   3.494  15.152  0.7372  0.3451 -0.3052
  657TMC3     O 9727   3.099   3.442  15.090 -0.0268  0.2057 -0.3485
  657TMC3     H 9728   3.327   3.551  15.365  0.3338  1.5547 -0.6619
  657TMC3    H1 9729   2.951   3.602  15.193  1.8706 -3.2905 -0.5324
  657TMC3    H2 9730   3.100   3.878  15.485 -0.1510 -0.1819  1.1287
  657TMC3    C7 9731   2.918   3.846  15.310  0.1771 -0.3668 -0.5741
  657TMC3    C8 9732   3.310   3.727  15.542  0.0544 -0.3448  0.2674
  657TMC3    O1 9733   2.948   3.964  15.320  0.9362  0.5759 -0.0240
  657TMC3    O2 9734   3.270   3.796  15.636  0.7532 -0.0485 -0.5699
  658MPD2     C 9735   4.477   3.601  14.747  0.4377  0.1725  0.0300
  658MPD2    C1 9736   4.371   3.663  14.682  0.5036  0.2172  0.4145
  658MPD2    C2 9737   4.383   3.679  14.545 -0.5074 -0.5415 -0.3022
  658MPD2    C3 9738   4.501   3.628  14.479 -0.0181 -0.1647 -0.1709
  658MPD2    C4 9739   4.611   3.578  14.550 -0.3678 -0.8875 -0.5977
  658MPD2    C5 9740   4.593   3.567  14.685  0.3648 -0.0443 -0.1290
  658MPD2     H 9741   4.303   3.718  14.483  2.3210  2.4023 -2.0765
  658MPD2    H1 9742   4.701   3.534  14.507  2.0016  1.7532  1.7305
  658MPD2    H2 9743   4.484   3.592  14.855 -1.0228 -0.3120  0.0820
  658MPD2    H3 9744   4.675   3.532  14.747 -0.2958 -1.9980 -0.3660
  658MPD2     N 9745   4.492   3.637  14.332 -0.3757 -0.6058  0.3539
  658MPD2    H5 9746   4.410   3.687  14.299  0.5885  0.4946 -0.3733
  658MPD2    N1 9747   4.269   3.732  14.750  0.0983 -0.4099  0.3705
  658MPD2    H7 9748   4.288   3.743  14.849 -0.4236 -2.8861  0.7619
  659TMC3    C1 9749   4.066   3.844  14.791 -0.9386  0.3165  0.2085
  659TMC3    C2 9750   4.125   3.917  14.900 -0.1171  0.3965 -0.1702
  659TMC3    C3 9751   4.039   3.976  14.977  0.8872  0.0001  0.5109
  659TMC3    C4 9752   3.931   3.831  14.764 -0.6573  0.2414 -0.3878
  659TMC3    C5 9753   3.849   3.890  14.863 -0.1076  0.4650 -0.0128
  659TMC3    C6 9754   3.903   3.957  14.969 -0.7663 -0.0547  0.9272
  659TMC3     C 9755   4.148   3.774  14.697 -0.1527 -0.1524 -0.2493
  659TMC3     O 9756   4.096   3.755  14.588 -0.3198 -0.3462 -0.0366
  659TMC3     H 9757   4.228   3.947  14.895  0.6115 -1.7603  1.5926
  659TMC3    H1 9758   3.901   3.772  14.678  0.8143 -0.3814 -0.4796
  659TMC3    H2 9759   3.836   3.994  15.045 -1.4323  0.4525  0.0869
  659TMC3    C7 9760   3.711   3.851  14.868 -0.3080  0.2951  0.6898
  659TMC3    C8 9761   4.083   4.042  15.099 -0.3209 -0.5373  0.2398
  659TMC3    O1 9762   3.646   3.931  14.937 -0.4272  0.1724 -0.1909
  659TMC3    O2 9763   4.006   4.127  15.140 -0.0413  0.0672  0.5155
  660MPD2     C 9764   2.497   3.146  12.505 -0.4086  0.4555  0.2498
  660MPD2    C1 9765   2.451   3.030  12.444  0.0078 -0.4960  0.0712
  660MPD2    C2 9766   2.386   2.934  12.520  1.3560  0.1188  0.3048
  660MPD2    C3 9767   2.371   2.954  12.654  0.0003 -0.3982 -0.3356
  660MPD2    C4 9768   2.418   3.075  12.712  0.3456 -0.0485 -0.1012
  660MPD2    C5 9769   2.489   3.168  12.640 -0.7950 -0.0342  0.3690
  660MPD2     H 9770   2.365   2.842  12.466  1.0713 -0.1295  0.8355
  660MPD2    H1 9771   2.401   3.105  12.815 -0.6865 -3.5355  0.7709
  660MPD2    H2 9772   2.548   3.215  12.439 -0.7666  1.3223  0.8926
  660MPD2    H3 9773   2.522   3.265  12.674  2.9995 -0.8644 -0.9220
  660MPD2     N 9774   2.307   2.862  12.742 -0.1704  0.1350 -0.4208
  660MPD2    H5 9775   2.288   2.896  12.836 -1.2781 -0.1716 -0.5315
  660MPD2    N1 9776   2.469   3.010  12.301 -0.2296 -0.4539  0.0600
  660MPD2    H7 9777   2.503   3.093  12.254 -0.0674 -0.6585 -0.1847
  661TMC3    C1 9778   2.443   2.914  12.087 -0.0238 -0.2217 -0.8392
  661TMC3    C2 9779   2.486   2.812  12.004  0.5553  0.3539 -0.8785
  661TMC3    C3 9780   2.427   2.791  11.882  0.0117 -0.6556  0.5403
  661TMC3    C4 9781   2.344   2.997  12.054  0.4211  0.5464  0.4211
  661TMC3    C5 9782   2.280   2.975  11.931 -0.0438  0.4603 -1.1092
  661TMC3    C6 9783   2.313   2.872  11.853 -0.4101 -0.6039 -0.5536
  661TMC3     C 9784   2.469   2.899  12.232 -0.1738  0.3122 -0.1502
  661TMC3     O 9785   2.477   2.787  12.279  0.0029  0.7193  0.1604
  661TMC3     H 9786   2.572   2.754  12.037 -2.0211 -1.3127  2.9527
  661TMC3    H1 9787   2.316   3.087  12.108 -2.2186  1.6987 -2.8185
  661TMC3    H2 9788   2.264   2.860  11.756 -1.7288 -0.0859  0.0507
  661TMC3    C7 9789   2.175   3.071  11.905  0.9945 -0.2197 -0.4457
  661TMC3    C8 9790   2.465   2.694  11.782  0.9549 -0.0051  0.6347
  661TMC3    O1 9791   2.209   3.184  11.930  0.8560  0.2892 -0.3465
  661TMC3    O2 9792   2.391   2.683  11.679  0.2281  0.0058  0.3623
  662MPD2     C 9793   3.061   2.354  17.272  0.0178  0.1229 -0.3663
  662MPD2    C1 9794   3.002   2.344  17.399  0.0988 -0.4595  0.1144
  662MPD2    C2 9795   2.976   2.459  17.467 -1.0114  0.1902 -0.5414
  662MPD2    C3 9796   3.019   2.583  17.421  0.3845 -0.2812  0.6551
  662MPD2    C4 9797   3.074   2.586  17.294  0.9679  0.0403 -1.2065
  662MPD2    C5 9798   3.097   2.471  17.218 -0.2972 -0.0503 -0.3178
  662MPD2     H 9799   2.909   2.449  17.552 -0.0315 -2.0137 -0.0185
  662MPD2    H1 9800   3.095   2.683  17.252 -1.0122  0.9057 -0.1756
  662MPD2    H2 9801   3.089   2.265  17.216 -0.5319 -1.9812  2.7194
  662MPD2    H3 9802   3.149   2.479  17.123 -0.1187  1.3581 -0.1048
  662MPD2     N 9803   2.994   2.710  17.480  0.3602  0.1894  0.4194
  662MPD2    H5 9804   3.025   2.792  17.429  2.5281  0.4011  2.0752
  662MPD2    N1 9805   2.957   2.224  17.451  0.3973 -0.0101 -0.3715
  662MPD2    H7 9806   2.913   2.227  17.542 -0.7871 -0.3310 -0.9377
  663TMC3    C1 9807   2.886   2.009  17.455  0.4814 -0.0123  1.1720
  663TMC3    C2 9808   2.789   2.056  17.545 -0.1858 -0.2355  0.2682
  663TMC3    C3 9809   2.722   1.968  17.627  0.5636 -0.1194 -0.2870
  663TMC3    C4 9810   2.919   1.877  17.438 -0.2420  0.1029  0.4387
  663TMC3    C5 9811   2.846   1.786  17.519 -0.1890 -0.1068  0.0539
  663TMC3    C6 9812   2.760   1.836  17.614 -0.2979  0.7921  0.1854
  663TMC3     C 9813   2.963   2.104  17.380  0.2116  0.7835 -0.1754
  663TMC3     O 9814   3.036   2.065  17.292 -0.2514 -0.2336  0.4132
  663TMC3     H 9815   2.755   2.159  17.546  0.0048 -0.1940  1.7106
  663TMC3    H1 9816   2.965   1.826  17.353 -1.0825  0.9252 -0.5138
  663TMC3    H2 9817   2.697   1.773  17.676  0.4994 -1.0807 -0.8978
  663TMC3    C7 9818   2.823   1.654  17.469 -0.8378 -0.1424  0.1396
  663TMC3    C8 9819   2.576   1.965  17.605  0.1764 -0.1604 -0.2077
  663TMC3    O1 9820   2.912   1.603  17.396  0.2985  0.5740 -0.4293
  663TMC3    O2 9821   2.534   1.860  17.553 -0.1527 -0.0414 -0.2276
  664MPD2     C 9822   0.657   1.014  17.472  0.0170 -0.2139  0.3140
  664MPD2    C1 9823   0.716   1.137  17.481 -0.0795  0.2934 -0.0337
  664MPD2    C2 9824   0.776   1.181  17.595  0.0893  0.2100  0.7771
  664MPD2    C3 9825   0.785   1.103   0.008 -0.4338 -0.6056  0.4442
  664MPD2    C4 9826   0.733   0.977  17.705  0.3004  0.1693 -0.4578
  664MPD2    C5 9827   0.673   0.933  17.589  1.0951  0.1574 -0.3618
  664MPD2     H 9828   0.828   1.276  17.600 -0.0456  0.1918  2.6051
  664MPD2    H1 9829   0.745   0.908   0.082  0.3930  0.4727 -0.2198
  664MPD2    H2 9830   0.618   0.974  17.378 -0.7179 -1.4533  1.1446
  664MPD2    H3 9831   0.636   0.831  17.580  0.5827  0.2345  1.0170
  664MPD2     N 9832   0.847   1.154   0.127  0.4088  0.7106 -0.2579
  664MPD2    H5 9833   0.865   1.254   0.132  4.4890 -0.0715  0.7936
  664MPD2    N1 9834   0.719   1.225  17.372  0.2135 -0.4719 -0.0047
  664MPD2    H7 9835   0.762   1.316  17.387 -0.1769  0.0063 -1.8024
  665TMC3    C1 9836   0.913   1.158   0.357 -1.0920  0.0920 -0.2475
  665TMC3    C2 9837   1.005   1.105   0.442  0.3002 -0.3630  0.3442
  665TMC3    C3 9838   1.012   1.169   0.566  0.2594  0.1087 -0.5847
  665TMC3    C4 9839   0.840   1.271   0.380 -0.2866  0.0466  0.2323
  665TMC3    C5 9840   0.847   1.323   0.510  0.3607 -0.3957  0.2183
  665TMC3    C6 9841   0.929   1.273   0.612 -0.1895 -0.2058 -0.6889
  665TMC3     C 9842   0.877   1.078   0.243  1.0277  0.1520 -0.1433
  665TMC3     O 9843   0.876   0.957   0.251  0.4433 -0.6834 -0.2162
  665TMC3     H 9844   1.059   1.013   0.424  1.1437  0.2088 -0.0866
  665TMC3    H1 9845   0.761   1.309   0.316  0.0243 -0.8447 -0.6734
  665TMC3    H2 9846   0.931   1.304   0.716 -0.2968 -0.3302 -0.6499
  665TMC3    C7 9847   0.785   1.453   0.545 -0.3896  0.4364  0.6460
  665TMC3    C8 9848   1.106   1.121   0.662 -0.5038 -0.2853  0.7971
  665TMC3    O1 9849   0.728   1.510   0.452  0.3003 -0.3953  0.1175
  665TMC3    O2 9850   1.092   1.142   0.782 -0.1136 -0.0164  0.3231
  666TMC3    C1 9851   4.243   0.166  10.389  0.3261 -0.3860 -0.2264
  666TMC3    C2 9852   4.295   0.125  10.273 -0.6759  0.3973  0.5233
  666TMC3    C3 9853   4.304   0.221  10.169  0.0877 -0.1836  0.9036
  666TMC3    C4 9854   4.211   0.295  10.414  0.3954 -0.4278 -1.0598
  666TMC3    C5 9855   4.239   0.393  10.321  0.7282  0.4022  0.1957
  666TMC3    C6 9856   4.283   0.352  10.195 -0.6538 -0.0719  0.1744
  666TMC3     C 9857   4.233   0.064  10.494 -0.5015  1.0107 -0.7846
  666TMC3     O 9858   4.238   0.110  10.607  0.0198  0.1015  0.4694
  666TMC3     H 9859   4.323   0.023  10.249 -0.6702  0.4463  0.3216
  666TMC3    H1 9860   4.160   0.311  10.508  1.7271  0.9804 -0.5734
  666TMC3    H2 9861   4.287   0.416  10.108 -2.2837  1.2423  1.0616
  666TMC3    C7 9862   4.251   0.529  10.376  0.3494  0.3652  1.5781
  666TMC3    C8 9863   4.347   0.180  10.038 -0.0474  0.3223  0.3347
  666TMC3    O1 9864   4.213   0.552  10.493 -0.6348  1.1958 -0.3139
  666TMC3    O2 9865   4.288   0.079  10.002 -0.3249  0.4530  0.6240
  667MPD2     C 9866   1.442   0.715  14.594  0.2055  0.2582 -0.7339
  667MPD2    C1 9867   1.318   0.773  14.636  0.1783 -0.3281  0.3420
  667MPD2    C2 9868   1.205   0.728  14.577  0.5835  0.3260 -0.3066
  667MPD2    C3 9869   1.211   0.648  14.460 -0.2594  0.1566  0.0467
  667MPD2    C4 9870   1.333   0.602  14.413  0.0916  0.4818  0.4356
  667MPD2    C5 9871   1.445   0.635  14.485  0.2098 -0.4037 -0.4770
  667MPD2     H 9872   1.109   0.766  14.607  0.3850 -0.8813  0.5805
  667MPD2    H1 9873   1.337   0.546  14.320  2.4903  3.9340 -1.5381
  667MPD2    H2 9874   1.538   0.732  14.642 -0.3437  1.2729  0.0095
  667MPD2    H3 9875   1.541   0.589  14.465  1.4389  2.4570 -1.1434
  667MPD2     N 9876   1.096   0.630  14.376  0.2752 -0.0815 -0.2846
  667MPD2    H5 9877   1.116   0.588  14.286  0.5913  1.0505 -0.7420
  667MPD2    N1 9878   1.314   0.862  14.745  0.0458  0.4895  0.5119
  667MPD2    H7 9879   1.231   0.877  14.802  0.1894  0.4736  0.7258
  668TMC3    C1 9880   1.417   1.014  14.896  0.4458  0.3521  0.2080
  668TMC3    C2 9881   1.530   1.082  14.934  0.2869 -0.4300  0.8228
  668TMC3    C3 9882   1.540   1.130  15.063  0.5962 -0.4591  0.1194
  668TMC3    C4 9883   1.315   0.984  14.983 -0.0420 -0.6014  0.4900
  668TMC3    C5 9884   1.335   1.022  15.114 -0.2512 -0.6903  0.8513
  668TMC3    C6 9885   1.445   1.097  15.153 -0.1613 -0.2748 -0.2542
  668TMC3     C 9886   1.417   0.945  14.769 -0.3785 -0.2177 -0.1141
  668TMC3     O 9887   1.514   0.976  14.698 -0.0988 -0.0373 -0.4253
  668TMC3     H 9888   1.614   1.090  14.866  2.0834 -1.1921  2.9408
  668TMC3    H1 9889   1.230   0.922  14.958  1.4146 -1.8814 -1.3296
  668TMC3    H2 9890   1.449   1.131  15.256 -0.8118 -0.1246 -0.2795
  668TMC3    C7 9891   1.244   0.983  15.220  0.3258  0.4421  0.0143
  668TMC3    C8 9892   1.668   1.172  15.106 -0.8638  0.1420  0.2648
  668TMC3    O1 9893   1.275   1.024  15.330 -0.1829 -0.2048  0.1213
  668TMC3    O2 9894   1.702   1.166  15.222 -0.3609  0.1184  0.1164
  669TMC3    C1 9895   4.332   0.983  14.583  0.0570  0.3188  0.0041
  669TMC3    C2 9896   4.254   0.979  14.470  0.2452  0.5782 -0.3153
  669TMC3    C3 9897   4.305   1.023  14.354 -0.3385  0.6229  0.1611
  669TMC3    C4 9898   4.467   1.025  14.574  0.0724 -0.6270  0.4487
  669TMC3    C5 9899   4.519   1.058  14.452 -0.7690  0.3818  0.4647
  669TMC3    C6 9900   4.434   1.064  14.343 -0.4784  0.3327 -0.6025
  669TMC3     C 9901   4.302   0.882  14.677 -0.0119 -0.3035 -0.4404
  669TMC3     O 9902   4.197   0.821  14.657 -0.3361  0.1279 -0.3075
  669TMC3     H 9903   4.158   0.930  14.462  0.6414 -0.2484 -0.0602
  669TMC3    H1 9904   4.533   1.024  14.659  0.5485 -0.1773  0.0806
  669TMC3    H2 9905   4.468   1.077  14.241  1.0299  1.6079  0.0636
  669TMC3    C7 9906   4.654   1.103  14.441 -0.2780  0.4815 -0.1631
  669TMC3    C8 9907   4.224   1.004  14.237 -0.2080 -0.0896 -0.6431
  669TMC3    O1 9908   4.675   1.173  14.342  0.1804  0.1254  0.5821
  669TMC3    O2 9909   4.254   0.921  14.155 -0.0270 -0.1961 -0.1832
  670MPD2     C 9910   2.761   3.528  13.141  0.4297 -0.0838 -0.5307
  670MPD2    C1 9911   2.865   3.566  13.219  0.1325 -0.4595 -0.1302
  670MPD2    C2 9912   2.863   3.526  13.351  0.1413 -0.3126  0.3851
  670MPD2    C3 9913   2.762   3.463  13.410  0.1792 -0.7892 -0.1824
  670MPD2    C4 9914   2.661   3.418  13.326  0.7427 -0.4938 -0.4699
  670MPD2    C5 9915   2.658   3.449  13.191  0.3132 -0.0759 -0.1216
  670MPD2     H 9916   2.953   3.557  13.401 -0.3378  1.0539  0.3853
  670MPD2    H1 9917   2.573   3.368  13.366 -0.8279  0.5711 -2.6094
  670MPD2    H2 9918   2.750   3.554  13.036 -1.2504  0.1672 -0.2855
  670MPD2    H3 9919   2.578   3.411  13.129 -0.5931  0.8654  0.4752
  670MPD2     N 9920   2.745   3.444  13.551  0.1157 -0.7999  0.1689
  670MPD2    H5 9921   2.656   3.406  13.581 -1.6590  2.2225 -1.3233
  670MPD2    N1 9922   2.982   3.632  13.172 -0.6080  0.5352 -0.3354
  670MPD2    H7 9923   3.048   3.669  13.240  0.6153 -1.4465 -0.4324
  671TMC3    C1 9924   2.797   3.423  13.778 -0.4253  0.4309 -0.1579
  671TMC3    C2 9925   2.895   3.372  13.857 -0.2798  0.0283  0.1417
  671TMC3    C3 9926   2.853   3.281  13.953  0.7756 -0.2654 -0.3032
  671TMC3    C4 9927   2.663   3.395  13.788  0.3479 -0.2696  0.5957
  671TMC3    C5 9928   2.638   3.291  13.867  0.2161 -0.1959 -0.2042
  671TMC3    C6 9929   2.724   3.243  13.964 -0.1397 -0.6113  0.5499
  671TMC3     C 9930   2.839   3.462  13.646  0.4789  0.2630  0.7352
  671TMC3     O 9931   2.957   3.484  13.643  0.6115  0.6230  0.7207
  671TMC3     H 9932   2.996   3.372  13.819 -0.0227  0.6749  0.8309
  671TMC3    H1 9933   2.583   3.442  13.733  0.3475 -0.6239  0.3000
  671TMC3    H2 9934   2.712   3.145  14.009  1.6587 -1.0928 -0.0162
  671TMC3    C7 9935   2.520   3.216  13.833  0.1891 -0.8874 -0.6866
  671TMC3    C8 9936   2.935   3.168  13.973  0.0844  0.0806 -0.0663
  671TMC3    O1 9937   2.477   3.241  13.725 -0.4286 -0.1723  0.4091
  671TMC3    O2 9938   2.946   3.085  13.884  0.1405 -0.2505  0.2146
  672MPD2     C 9939   2.169   4.187   1.756 -0.0616 -0.0099  0.2984
  672MPD2    C1 9940   2.211   4.237   1.637  0.1739  0.1209 -1.2628
  672MPD2    C2 9941   2.317   4.315   1.629  0.0400  0.3222  0.4211
  672MPD2    C3 9942   2.386   4.360   1.743 -0.1535  0.0893 -0.0219
  672MPD2    C4 9943   2.342   4.314   1.867  0.0876 -0.3389 -0.6698
  672MPD2    C5 9944   2.240   4.231   1.870  0.7365  0.0434  0.3734
  672MPD2     H 9945   2.344   4.365   1.536  0.5675 -1.7164 -0.5301
  672MPD2    H1 9946   2.385   4.354   1.959  0.8381  0.2012 -1.2552
  672MPD2    H2 9947   2.089   4.115   1.766 -2.0433  1.7852 -2.4055
  672MPD2    H3 9948   2.205   4.205   1.969  0.2071 -0.3165  0.0934
  672MPD2     N 9949   2.507   4.434   1.740  0.6117 -0.4693  0.3749
  672MPD2    H5 9950   2.564   4.436   1.824  1.0051 -1.6091  0.1413
  672MPD2    N1 9951   2.144   4.221   1.515 -0.4861  0.4365 -0.2671
  672MPD2    H7 9952   2.182   4.273   1.437 -0.8198  2.8444  1.1728
  673TMC3    C1 9953   2.000   4.127   1.357  0.1358  0.5166  0.3206
  673TMC3    C2 9954   2.031   4.017   1.290  0.6691 -0.2840  0.9362
  673TMC3    C3 9955   2.092   4.028   1.169  0.5531  0.4176 -0.2170
  673TMC3    C4 9956   2.020   4.250   1.297 -0.3616  0.3600 -0.2385
  673TMC3    C5 9957   2.093   4.261   1.180 -0.3158  0.9043  0.0155
  673TMC3    C6 9958   2.135   4.147   1.118 -0.3881  0.2091  0.1730
  673TMC3     C 9959   2.047   4.123   1.495  0.8402  0.6802  0.2964
  673TMC3     O 9960   2.016   4.028   1.562  0.7517  0.2772  0.2123
  673TMC3     H 9961   2.008   3.922   1.335 -1.1849  0.0927  0.7929
  673TMC3    H1 9962   1.987   4.338   1.353  1.1978  0.7790  0.0281
  673TMC3    H2 9963   2.189   4.160   1.024 -1.3294 -3.7055 -0.9248
  673TMC3    C7 9964   2.203   4.352   1.201  0.1939 -0.2749  0.2693
  673TMC3    C8 9965   2.125   3.899   1.108  0.8031  0.6595 -0.1105
  673TMC3    O1 9966   2.193   4.412   1.306  0.2730  0.4986  0.1858
  673TMC3    O2 9967   2.059   3.805   1.143 -0.3383 -0.0209 -0.3200
  674MPD2     C 9968   3.134   3.959   0.749  0.0111  0.9714 -0.2371
  674MPD2    C1 9969   3.124   3.826   0.696  0.8122 -0.2060 -0.1335
  674MPD2    C2 9970   3.005   3.797   0.619  0.1710 -0.1815 -0.0071
  674MPD2    C3 9971   2.892   3.878   0.631 -0.3067 -0.6996  0.3910
  674MPD2    C4 9972   2.910   4.006   0.684 -0.8593  0.0912  0.1967
  674MPD2    C5 9973   3.029   4.040   0.744  0.1552 -0.4858 -0.4810
  674MPD2     H 9974   3.001   3.700   0.570 -0.5002 -0.0955 -0.1230
  674MPD2    H1 9975   2.836   4.085   0.685 -0.6177  0.3399 -0.8128
  674MPD2    H2 9976   3.219   3.988   0.809  1.1166  1.0521 -1.8242
  674MPD2    H3 9977   3.041   4.142   0.778  0.7993 -1.0819  1.0712
  674MPD2     N 9978   2.769   3.832   0.581  0.1035  0.0684 -0.0900
  674MPD2    H5 9979   2.771   3.739   0.539  0.9801  0.4326 -0.8584
  674MPD2    N1 9980   3.238   3.745   0.702  0.4985  0.1683  0.9240
  674MPD2    H7 9981   3.310   3.781   0.764  1.7659 -1.0196  0.1252
  675TMC3    C1 9982   3.385   3.564   0.654 -0.3656  0.1815 -0.2820
  675TMC3    C2 9983   3.359   3.439   0.696  0.3014 -0.7279  0.2029
  675TMC3    C3 9984   3.463   3.353   0.704 -0.1571 -0.1468  0.0238
  675TMC3    C4 9985   3.511   3.609   0.619 -0.5840  0.5749 -0.4001
  675TMC3    C5 9986   3.612   3.513   0.624 -0.0559  0.2285 -0.1372
  675TMC3    C6 9987   3.593   3.387   0.670 -0.3010  0.5067  0.1498
  675TMC3     C 9988   3.266   3.633   0.617 -0.7843  0.4789 -0.6594
  675TMC3     O 9989   3.195   3.588   0.533  0.0675  0.0193 -0.0167
  675TMC3     H 9990   3.256   3.406   0.709 -0.5131  0.9899 -1.8798
  675TMC3    H1 9991   3.522   3.701   0.563 -2.0839  0.6532 -0.5610
  675TMC3    H2 9992   3.674   3.319   0.693 -0.0371  0.6129 -0.4674
  675TMC3    C7 9993   3.745   3.555   0.620  0.2214 -0.0393  0.4940
  675TMC3    C8 9994   3.440   3.211   0.748  0.4792 -0.0212  0.1820
  675TMC3    O1 9995   3.832   3.477   0.658 -0.6261  0.3423  0.5653
  675TMC3    O2 9996   3.533   3.159   0.806 -0.5129  0.0812 -0.5301
  676MPD2     C 9997   0.454   1.441  10.793 -0.2849  0.3513 -0.3930
  676MPD2    C1 9998   0.522   1.389  10.894  0.4912  0.3562  0.2147
  676MPD2    C2 9999   0.576   1.264  10.881  0.7735  0.7250  0.3808
  676MPD2    C310000   0.567   1.194  10.765 -0.3262 -0.7163  0.3982
  676MPD2    C410001   0.491   1.244  10.667 -0.3096 -0.3201 -0.3375
  676MPD2    C510002   0.439   1.369  10.679  0.1625 -0.2503 -0.4648
  676MPD2     H10003   0.623   1.215  10.966  1.6563  1.9737  0.6259
  676MPD2    H110004   0.477   1.190  10.574 -0.7320  2.3271 -1.8168
  676MPD2    H210005   0.399   1.532  10.815  0.5887  1.1989 -1.6959
  676MPD2    H310006   0.385   1.410  10.595  0.1255  1.3058  0.3086
  676MPD2     N10007   0.621   1.059  10.743  0.3764 -0.1889  0.5625
  676MPD2    H510008   0.614   1.013  10.653  0.2245  0.9271  0.0061
  676MPD2    N110009   0.527   1.448  11.022 -0.0457 -0.0610 -0.5436
  676MPD2    H710010   0.558   1.391  11.101  1.3033  0.0630 -0.9829
  677TMC3    C110011   0.473   1.622  11.183  0.2666  0.1669  0.6182
  677TMC3    C210012   0.458   1.517  11.276  0.0811  0.0130 -0.4486
  677TMC3    C310013   0.440   1.553  11.403  0.3094 -0.1098 -0.1669
  677TMC3    C410014   0.460   1.754  11.210  0.4187  0.0955  0.1533
  677TMC3    C510015   0.428   1.779  11.340 -0.0970  0.7185  0.2621
  677TMC3    C610016   0.411   1.684  11.440  0.0611 -0.1807  0.0993
  677TMC3     C10017   0.501   1.585  11.045 -0.3731 -0.1999 -0.4721
  677TMC3     O10018   0.513   1.674  10.963 -0.4323  0.1433 -0.1541
  677TMC3     H10019   0.453   1.413  11.244 -0.2945  0.0990 -0.6770
  677TMC3    H110020   0.470   1.827  11.131  1.3684 -0.5544 -0.3229
  677TMC3    H210021   0.364   1.706  11.535 -1.7512  0.5461 -0.9471
  677TMC3    C710022   0.451   1.920  11.386  0.7037  0.2496  1.7831
  677TMC3    C810023   0.423   1.436  11.492  0.5219  0.6582 -0.7116
  677TMC3    O110024   0.467   1.936  11.502  0.0091 -0.7771 -0.5640
  677TMC3    O210025   0.333   1.354  11.453  0.2399 -0.1029 -0.2742
  678MPD2     C10026   1.801   1.960   1.605  0.2606  0.1418  0.0263
  678MPD2    C110027   1.823   2.006   1.476  0.1719 -0.0516  0.0984
  678MPD2    C210028   1.722   2.008   1.377 -0.2536  0.0056  0.3586
  678MPD2    C310029   1.597   1.969   1.416  0.1580 -0.9246  0.0965
  678MPD2    C410030   1.576   1.916   1.543 -0.5989 -0.6614 -0.1168
  678MPD2    C510031   1.679   1.906   1.631  1.0288  0.1505  0.2944
  678MPD2     H10032   1.740   2.052   1.280  1.3832  0.0944  0.6991
  678MPD2    H110033   1.478   1.878   1.571 -1.0254  0.9626  0.5792
  678MPD2    H210034   1.878   1.937   1.679  0.5205 -0.7047 -0.5174
  678MPD2    H310035   1.658   1.850   1.721 -0.9565 -0.1342 -0.3393
  678MPD2     N10036   1.504   1.973   1.311  0.2837  0.3562 -0.2924
  678MPD2    H510037   1.535   2.006   1.220 -1.0052  0.0565 -0.8432
  678MPD2    N110038   1.951   2.047   1.437 -0.6523  0.2889  0.0508
  678MPD2    H710039   1.960   2.057   1.336  1.7164  1.8874  0.4146
  679TMC3    C110040   2.399   2.008   1.356  0.2517  0.9501 -0.0646
  679TMC3    C210041   2.297   2.003   1.458 -0.2714  0.0655 -0.1476
  679TMC3    C310042   2.181   2.080   1.437 -0.3635  0.4151 -0.1083
  679TMC3    C410043   2.386   2.078   1.245 -0.7555 -0.7766 -0.1111
  679TMC3    C510044   2.285   2.163   1.231 -0.4544 -0.2792 -0.0784
  679TMC3    C610045   2.177   2.157   1.320 -0.1975  0.0639 -0.3042
  679TMC3     C10046   2.477   1.888   1.357 -0.3962 -0.1702  0.0505
  679TMC3     O10047   2.504   1.837   1.465 -0.2978 -0.0110 -0.7634
  679TMC3     H10048   2.293   1.931   1.539 -2.5401  0.0460 -0.2782
  679TMC3    H110049   2.454   2.092   1.162  0.1638  1.5214  1.0348
  679TMC3    H210050   2.089   2.219   1.308  0.5328  1.0326 -0.6802
  679TMC3    C710051   2.273   2.258   1.122  0.2073  0.1298 -0.1656
  679TMC3    C810052   2.062   2.056   1.515  0.2370  0.4932  0.9634
  679TMC3    O110053   2.298   2.236   1.005 -0.0168 -0.7449  0.5376
  679TMC3    O210054   2.073   2.035   1.636 -0.8299  0.1249 -0.8886
  680MPD2     C10055   1.956   0.048  13.462  0.1346  0.2808  0.0164
  680MPD2    C110056   2.094   0.053  13.475  0.4618  0.0177  0.1656
  680MPD2    C210057   2.155   0.150  13.552  0.2190 -0.1459  0.2255
  680MPD2    C310058   2.087   0.233  13.640 -1.1449  0.7982  0.4872
  680MPD2    C410059   1.950   0.235  13.618  0.7260 -0.0525 -0.0689
  680MPD2    C510060   1.883   0.150  13.525  0.7421 -0.1719  0.5310
  680MPD2     H10061   2.264   0.147  13.551  0.1778 -1.5942  0.2936
  680MPD2    H110062   1.895   0.311  13.673  0.4948 -0.2537 -0.0235
  680MPD2    H210063   1.904   4.708  13.394 -0.5337 -0.2563  1.0372
  680MPD2    H310064   1.776   0.141  13.516  0.5091  1.9373  1.1653
  680MPD2     N10065   2.143   0.314  13.735  0.5707  0.2544 -0.0471
  680MPD2    H510066   2.085   0.382  13.782 -1.4874 -1.1916 -0.4675
  680MPD2    N110067   2.179   4.681  13.427 -0.3838  0.3341 -0.3368
  680MPD2    H710068   2.277   4.696  13.450 -1.1871 -0.3644  3.4925
  681TMC3    C110069   2.271   4.483  13.363  1.1185  0.5070  0.3173
  681TMC3    C210070   2.269   4.428  13.488  0.6317 -0.3817  0.1453
  681TMC3    C310071   2.363   4.449  13.585 -0.5337 -0.0626  0.2934
  681TMC3    C410072   2.385   4.553  13.323 -0.1546  0.2002 -0.2965
  681TMC3    C510073   2.486   4.552  13.417 -0.3450 -0.1705 -0.2733
  681TMC3    C610074   2.477   4.510  13.549 -0.2444 -0.4163 -0.3533
  681TMC3     C10075   2.151   4.569  13.356 -0.0994  0.5935 -0.6586
  681TMC3     O10076   2.042   4.523  13.328 -0.5531  0.1146 -0.7280
  681TMC3     H10077   2.167   4.420  13.523  0.9912 -1.6552  0.8732
  681TMC3    H110078   2.394   4.591  13.222  1.1647  0.9128  0.0919
  681TMC3    H210079   2.559   4.526  13.617  1.2236  0.9508 -2.4413
  681TMC3    C710080   2.622   4.603  13.377 -0.1131 -0.6044 -0.4146
  681TMC3    C810081   2.303   4.495  13.705 -0.2564  0.6599  0.0226
  681TMC3    O110082   2.716   4.556  13.442 -0.1990 -0.3003  0.3306
  681TMC3    O210083   2.180   4.488  13.710  0.1714 -0.3372 -0.2138
  682MPD2     C10084   4.455   1.595  11.175 -0.0068 -0.9302  0.6972
  682MPD2    C110085   4.388   1.474  11.189 -0.5423  0.8027 -0.2814
  682MPD2    C210086   4.288   1.466  11.287  0.1028 -0.5602 -0.5864
  682MPD2    C310087   4.260   1.578  11.366  0.3919 -0.1943  0.0832
  682MPD2    C410088   4.329   1.691  11.357  0.1042  0.1275 -0.7611
  682MPD2    C510089   4.418   1.700  11.257 -0.4035 -0.4561  0.1074
  682MPD2     H10090   4.239   1.371  11.306 -0.4283 -0.5267 -1.8363
  682MPD2    H110091   4.302   1.772  11.424  4.0951 -0.8438  2.0465
  682MPD2    H210092   4.527   1.612  11.096 -1.6586 -1.8358 -1.0197
  682MPD2    H310093   4.447   1.800  11.228  0.4975 -0.8805 -0.4463
  682MPD2     N10094   4.172   1.571  11.472  0.0725  0.1493  0.3837
  682MPD2    H510095   4.160   1.659  11.523 -1.1165  0.5937 -0.6504
  682MPD2    N110096   4.422   1.361  11.113 -0.4026 -0.3644 -0.0213
  682MPD2    H710097   4.382   1.271  11.136 -1.1874  0.0277  0.1578
  683TMC3    C110098   3.887   1.656  11.748 -0.3502  0.2445 -0.2612
  683TMC3    C210099   3.815   1.555  11.813  0.4178 -0.5445  0.3131
  683TMC3    C310100   3.833   1.425  11.770  0.5934 -0.1888  0.9184
  683TMC3    C410101   3.979   1.629  11.651 -0.9729  0.3319 -0.5399
  683TMC3    C510102   3.992   1.496  11.606  0.2962  0.7918  0.9508
  683TMC3    C610103   3.919   1.392  11.666 -0.1292 -0.4018  0.1832
  683TMC3     C10104   3.862   1.794  11.780 -0.0419  0.7435 -0.3660
  683TMC3     O10105   3.930   1.880  11.728 -0.3969  0.6836  0.3285
  683TMC3     H10106   3.748   1.582  11.894 -2.1895 -1.5849 -1.5263
  683TMC3    H110107   4.013   1.714  11.594  2.3381 -0.1991  0.6581
  683TMC3    H210108   3.902   1.295  11.622  1.0811 -0.6233  0.2169
  683TMC3    C710109   4.090   1.463  11.502 -0.2957 -0.1094 -0.5399
  683TMC3    C810110   3.823   1.324  11.871 -0.1184 -0.1350  0.2238
  683TMC3    O110111   4.076   1.351  11.452  0.2185 -0.2727 -0.5984
  683TMC3    O210112   3.768   1.351  11.977 -0.3518  0.3516 -0.6625
  684MPD2     C10113   2.759   1.256  16.279 -0.1669  0.0424  1.0064
  684MPD2    C110114   2.774   1.256  16.142 -0.2580 -0.2046  0.3360
  684MPD2    C210115   2.845   1.358  16.082 -0.2445  0.0863 -0.3264
  684MPD2    C310116   2.905   1.459  16.153 -0.9170  0.3939  0.3427
  684MPD2    C410117   2.893   1.455  16.295  1.3987  0.7321 -1.2866
  684MPD2    C510118   2.821   1.356  16.354  0.5907 -0.7149 -0.1507
  684MPD2     H10119   2.867   1.358  15.976  0.1069 -0.8509 -0.2570
  684MPD2    H110120   2.952   1.527  16.351  0.6537  1.4464 -1.4215
  684MPD2    H210121   2.708   1.179  16.336  1.0991  0.3155  2.5253
  684MPD2    H310122   2.813   1.349  16.462  0.1559  3.0312  0.0603
  684MPD2     N10123   2.966   1.562  16.088 -0.0239  0.0854 -0.1277
  684MPD2    H510124   3.017   1.622  16.151  1.8546  0.3337 -1.8915
  684MPD2    N110125   2.720   1.156  16.059  0.7830 -0.6150  0.6168
  684MPD2    H710126   2.735   1.167  15.959 -0.4675 -0.2864  0.4765
  685TMC3    C110127   2.672   0.946  15.993  0.4533 -0.2997 -0.3510
  685TMC3    C210128   2.559   0.924  15.916  0.0669 -0.4272  0.1985
  685TMC3    C310129   2.561   0.812  15.838  0.6499  0.3601  0.2990
  685TMC3    C410130   2.754   0.843  16.013 -0.4869 -0.1502  0.3439
  685TMC3    C510131   2.745   0.730  15.947 -0.2865  0.1405 -0.2746
  685TMC3    C610132   2.649   0.711  15.853  0.1056 -0.4415  0.4347
  685TMC3     C10133   2.667   1.040  16.100 -0.4720 -0.0549  0.2305
  685TMC3     O10134   2.654   0.990  16.211 -0.1064  0.0916  0.2447
  685TMC3     H10135   2.477   0.995  15.915  0.1557 -0.3023  1.2445
  685TMC3    H110136   2.822   0.870  16.093  1.7725  0.0983 -1.6491
  685TMC3    H210137   2.661   0.625  15.788  0.9213 -0.4848  0.6497
  685TMC3    C710138   2.818   0.613  15.989  0.1692  0.3210  1.1081
  685TMC3    C810139   2.443   0.767  15.759 -0.3420 -0.0890 -0.2318
  685TMC3    O110140   2.820   0.515  15.916 -0.1495 -0.3847 -0.1103
  685TMC3    O210141   2.445   0.656  15.707 -0.0204 -0.1859  0.0583
  686MPD2     C10142   4.223   1.179  15.764 -0.0680  0.1909  0.4678
  686MPD2    C110143   4.144   1.070  15.734 -0.4087 -0.6164  0.5872
  686MPD2    C210144   4.199   0.957  15.677  0.0343 -0.7731  0.3853
  686MPD2    C310145   4.338   0.961  15.662 -0.2300  0.0184 -0.1546
  686MPD2    C410146   4.419   1.059  15.708  0.1071  0.1870  0.2536
  686MPD2    C510147   4.359   1.170  15.753 -0.1405 -0.0125  0.4987
  686MPD2     H10148   4.137   0.884  15.627 -2.3781  1.3852  0.2137
  686MPD2    H110149   4.527   1.063  15.700  0.0678  0.4538 -0.1443
  686MPD2    H210150   4.193   1.279  15.790  1.9184  1.4040 -1.9198
  686MPD2    H310151   4.416   1.255  15.790 -1.3333  0.8593  0.3175
  686MPD2     N10152   4.391   0.852  15.588 -0.5710  0.2579  0.6981
  686MPD2    H510153   4.324   0.777  15.569 -0.7055  0.0887  1.8434
  686MPD2    N110154   4.004   1.101  15.740  0.0280 -0.1746  0.5234
  686MPD2    H710155   3.974   1.199  15.735  0.4608 -0.0785 -0.1148
  687TMC3    C110156   4.514   0.712  15.473 -0.7859 -0.1660 -0.0104
  687TMC3    C210157   4.400   0.721  15.403  0.4349  0.1002  0.0169
  687TMC3    C310158   4.309   0.621  15.408  0.1395  0.6915  0.1044
  687TMC3    C410159   4.537   0.592  15.542  0.4054  0.2047  0.0679
  687TMC3    C510160   4.445   0.498  15.544 -0.1657  1.2087 -0.4743
  687TMC3    C610161   4.333   0.503  15.470  0.2913 -0.4065  0.4179
  687TMC3     C10162   4.519   0.838  15.545 -0.1690  1.5735 -0.4476
  687TMC3     O10163   4.617   0.912  15.532  0.4109  0.3023  0.2174
  687TMC3     H10164   4.394   0.805  15.334  1.1394 -2.1626 -2.7663
  687TMC3    H110165   4.623   0.593  15.608  0.1152  2.8420  0.4323
  687TMC3    H210166   4.260   0.424  15.481  1.0223 -1.1238  0.1428
  687TMC3    C710167   4.415   0.434  15.674  0.0143  0.1669  0.4998
  687TMC3    C810168   4.168   0.654  15.426 -0.5128  0.5569 -0.6225
  687TMC3    O110169   4.305   0.454  15.719  0.4519  0.5556 -0.4878
  687TMC3    O210170   4.101   0.592  15.509 -0.0496 -0.6640 -0.0918
  688MPD2     C10171   3.437   0.411  17.337  0.2499 -0.8702 -0.2426
  688MPD2    C110172   3.410   0.273  17.337  0.3541  0.1299  0.0545
  688MPD2    C210173   3.478   0.198  17.246  0.1941  0.1823 -0.1719
  688MPD2    C310174   3.572   0.265  17.161  0.4662 -0.8414 -0.4338
  688MPD2    C410175   3.594   0.397  17.169 -0.0639 -0.6829 -0.2990
  688MPD2    C510176   3.530   0.471  17.259 -0.2026  0.1652  0.4727
  688MPD2     H10177   3.460   0.092  17.237  1.3523 -0.2235  2.3988
  688MPD2    H110178   3.681   0.438  17.119  0.4484  0.0527  1.1645
  688MPD2    H210179   3.388   0.467  17.415  1.3451 -1.6015  0.9603
  688MPD2    H310180   3.560   0.574  17.273  1.9619 -0.2702 -0.8966
  688MPD2     N10181   3.658   0.196  17.072 -0.1468 -0.2530  0.5936
  688MPD2    H510182   3.708   0.255  17.007  1.0289 -0.6324  1.1540
  688MPD2    N110183   3.318   0.220  17.433  1.0773 -0.1404  0.6611
  688MPD2    H710184   3.289   0.280  17.510  1.0310 -0.2006  0.6904
  689TMC3    C110185   3.222   0.055  17.566  0.2329  0.3640 -0.0166
  689TMC3    C210186   3.173   0.146  17.652 -0.6464 -0.4097  0.2843
  689TMC3    C310187   3.110   0.094   0.062  0.0278  0.1137 -0.1475
  689TMC3    C410188   3.228   4.640  17.592  0.1660 -0.0877 -0.8444
  689TMC3    C510189   3.159   4.602   0.003  0.1287  0.0437 -0.2252
  689TMC3    C610190   3.109   4.690   0.094 -0.8640 -1.0091 -0.2570
  689TMC3     C10191   3.282   0.090  17.441  0.5082  0.1378 -0.4041
  689TMC3     O10192   3.285   4.725  17.357  0.0102  0.2638  0.6022
  689TMC3     H10193   3.159   0.252  17.634  0.8756 -0.3683 -0.6342
  689TMC3    H110194   3.266   4.573  17.516  0.0211  0.4367 -1.3777
  689TMC3    H210195   3.060   4.655   0.184  0.0396 -0.8478  0.2993
  689TMC3    C710196   3.145   4.457   0.033  0.1461 -0.5989 -0.1524
  689TMC3    C810197   3.055   0.188   0.160  0.9999  0.2360 -0.7246
  689TMC3    O110198   3.108   4.435   0.146  0.0939  0.2223 -0.4756
  689TMC3    O210199   3.077   0.151   0.274 -0.1224  0.3112 -0.1734
  690MPD2     C10200   1.129   2.099  15.644 -0.9384  0.5020 -0.2936
  690MPD2    C110201   1.143   2.069  15.510 -0.6451 -0.4495  0.2851
  690MPD2    C210202   1.261   2.101  15.445  1.5092  0.0158  1.4751
  690MPD2    C310203   1.345   2.188  15.509  0.9164  0.0952 -0.1233
  690MPD2    C410204   1.334   2.221  15.642  0.6395 -0.6150  0.5272
  690MPD2    C510205   1.221   2.171  15.706 -0.2234 -0.5582  0.3703
  690MPD2     H10206   1.273   2.074  15.340 -2.1943  1.5125  0.6616
  690MPD2    H110207   1.406   2.282  15.694  1.0153 -1.7548  1.3362
  690MPD2    H210208   1.045   2.053  15.695 -2.6365  2.4380 -1.3428
  690MPD2    H310209   1.211   2.192  15.811 -1.8602 -2.0720  0.5144
  690MPD2     N10210   1.456   2.237  15.435  0.5959  0.4824  0.9437
  690MPD2    H510211   1.487   2.179  15.357  0.3650  0.1092  1.1261
  690MPD2    N110212   1.050   1.997  15.437  0.3907 -0.3409 -0.2777
  690MPD2    H710213   1.066   1.959  15.344 -2.5151 -0.5379 -0.7149
  691TMC3    C110214   0.831   1.912  15.389  0.1904 -0.6356  0.0951
  691TMC3    C210215   0.695   1.927  15.410 -0.4228 -0.2577  0.1383
  691TMC3    C310216   0.610   1.856  15.325 -0.0329 -0.3663  0.1080
  691TMC3    C410217   0.887   1.839  15.283 -0.7861 -0.6023 -0.4760
  691TMC3    C510218   0.804   1.762  15.210 -0.3734 -0.0598 -0.5865
  691TMC3    C610219   0.666   1.775  15.225  0.1975  0.1589  0.5654
  691TMC3     C10220   0.920   1.986  15.474  0.3251  0.5574 -0.4958
  691TMC3     O10221   0.864   2.046  15.566  0.1610  0.6573  0.7099
  691TMC3     H10222   0.655   1.983  15.494  0.4689  0.3723  0.1515
  691TMC3    H110223   0.992   1.815  15.275 -0.4374  1.4504 -2.1551
  691TMC3    H210224   0.595   1.715  15.168  2.0498  1.7046 -3.3960
  691TMC3    C710225   0.841   1.624  15.184  0.2161  0.1639  0.4977
  691TMC3    C810226   0.494   1.793  15.384  0.1847  0.5890  0.2896
  691TMC3    O110227   0.956   1.600  15.159  0.3184 -0.2223 -0.4128
  691TMC3    O210228   0.476   1.674  15.355  0.2243  0.1325 -0.4390
  692TMC3    C110229   2.872   2.836  15.891 -0.3443  0.3056  0.4232
  692TMC3    C210230   2.980   2.796  15.959 -0.1053  0.7504  0.5457
  692TMC3    C310231   3.087   2.737  15.897 -0.5059  0.5947  0.1963
  692TMC3    C410232   2.839   2.786  15.772  0.3898  0.6147 -0.0457
  692TMC3    C510233   2.930   2.698  15.711  0.3600 -0.1704 -0.0676
  692TMC3    C610234   3.056   2.683  15.774 -0.9052  0.0493  0.1688
  692TMC3     C10235   2.775   2.917  15.965 -0.1543  0.1473  0.3935
  692TMC3     O10236   2.779   2.906  16.088 -0.5670 -0.1575  0.0093
  692TMC3     H10237   3.013   2.847  16.048 -0.0963  3.2946 -0.9381
  692TMC3    H110238   2.737   2.795  15.736 -0.1318  0.7192  1.4832
  692TMC3    H210239   3.127   2.611  15.733 -0.1828  0.2893  0.9914
  692TMC3    C710240   2.862   2.588  15.647 -0.2029  0.1231  0.3482
  692TMC3    C810241   3.156   2.648  15.987  0.4504 -0.2097 -0.3833
  692TMC3    O110242   2.750   2.607  15.609 -0.1017  0.4068  0.1180
  692TMC3    O210243   3.258   2.594  15.951  0.1848  0.4028 -0.4056
  693MPD2     C10244   1.634   0.467  10.598  0.2663  0.0850 -0.7984
  693MPD2    C110245   1.670   0.410  10.723  0.7075  0.3427  0.1561
  693MPD2    C210246   1.804   0.384  10.745 -0.2862  0.4659  0.0934
  693MPD2    C310247   1.896   0.400  10.641  0.0411  0.0833  0.3474
  693MPD2    C410248   1.860   0.446  10.519 -0.2905 -0.2602 -0.8090
  693MPD2    C510249   1.724   0.471  10.503  0.1079 -0.1015  0.2164
  693MPD2     H10250   1.826   0.340  10.841 -0.8506 -0.2112 -0.0848
  693MPD2    H110251   1.929   0.457  10.437  3.3690 -0.7015  2.1719
  693MPD2    H210252   1.530   0.486  10.573  0.1488  2.1653  1.3807
  693MPD2    H310253   1.700   0.513  10.405 -1.8023  0.7105  1.0248
  693MPD2     N10254   2.031   0.357  10.651 -0.4133  0.2025  0.3855
  693MPD2    H510255   2.092   0.388  10.576  0.7858  1.3408  1.8320
  693MPD2    N110256   1.565   0.385  10.811 -0.0999  0.4703 -0.5817
  693MPD2    H710257   1.470   0.388  10.775 -0.1900  1.5602 -0.2446
  694TMC3    C110258   1.459   0.305  11.015  0.4799  0.2433 -0.3052
  694TMC3    C210259   1.339   0.287  10.943  0.3028 -0.3021  0.2873
  694TMC3    C310260   1.249   0.205  10.997  0.0887  0.0752 -0.1308
  694TMC3    C410261   1.477   0.239  11.136 -0.4763 -0.1768  1.3404
  694TMC3    C510262   1.390   0.148  11.178  0.0791 -0.4021  0.6460
  694TMC3    C610263   1.269   0.137  11.117  0.1968  0.1485  0.6722
  694TMC3     C10264   1.583   0.346  10.942  0.2719  0.4023  0.2129
  694TMC3     O10265   1.686   0.336  11.004 -0.7041 -0.2748  0.2207
  694TMC3     H10266   1.336   0.336  10.846 -2.1997  0.6695  0.8516
  694TMC3    H110267   1.569   0.253  11.190  0.9010 -0.6161 -0.8973
  694TMC3    H210268   1.196   0.063  11.147 -0.5708  0.1492 -1.1540
  694TMC3    C710269   1.429   0.091  11.298  0.8067 -0.8026 -0.3857
  694TMC3    C810270   1.122   0.181  10.921 -0.4032 -0.3561 -0.6141
  694TMC3    O110271   1.499   0.163  11.374 -0.3612 -0.4558  0.2025
  694TMC3    O210272   1.039   0.108  10.976 -0.1909 -0.7627 -0.1747
  695MPD2     C10273   2.839   2.319  13.412  0.4430 -0.2169  1.0211
  695MPD2    C110274   2.765   2.379  13.516  0.3602  0.0347  0.1777
  695MPD2    C210275   2.650   2.452  13.487 -0.9868 -1.0195 -0.2295
  695MPD2    C310276   2.606   2.458  13.350  0.0823  0.0413 -0.3496
  695MPD2    C410277   2.664   2.381  13.249 -0.1174 -0.6715 -0.6250
  695MPD2    C510278   2.778   2.316  13.287 -0.2435  0.0292  0.2656
  695MPD2     H10279   2.592   2.495  13.568  1.0710 -1.4063  1.4516
  695MPD2    H110280   2.637   2.384  13.144 -2.0133  1.3352 -0.0824
  695MPD2    H210281   2.935   2.271  13.426  0.0905 -0.7415  1.6199
  695MPD2    H310282   2.826   2.259  13.209  0.0390  1.6009 -0.7213
  695MPD2     N10283   2.489   2.542  13.332 -0.0566 -0.1559  0.1698
  695MPD2    H510284   2.445   2.578  13.416 -1.5260 -1.2471 -0.1462
  695MPD2    N110285   2.815   2.392  13.643  0.0376 -0.5108 -0.2671
  695MPD2    H710286   2.757   2.451  13.703  1.5697 -1.4493  2.1482
  696TMC3    C110287   2.323   2.675  13.245  0.7485 -0.1306 -1.0940
  696TMC3    C210288   2.279   2.682  13.372  0.3501  0.7001 -0.2594
  696TMC3    C310289   2.203   2.793  13.404 -0.2532 -0.4723  0.8993
  696TMC3    C410290   2.300   2.772  13.150  0.7022  0.1377 -0.3902
  696TMC3    C510291   2.203   2.867  13.181  0.2493 -0.1969  1.5133
  696TMC3    C610292   2.153   2.880  13.306  0.7781 -0.4318 -0.0592
  696TMC3     C10293   2.430   2.580  13.217 -0.0495 -0.1978  0.2521
  696TMC3     O10294   2.448   2.545  13.099  0.1394 -0.3660 -0.3106
  696TMC3     H10295   2.311   2.616  13.452  1.5892  1.0366 -0.4687
  696TMC3    H110296   2.345   2.765  13.051  2.1382  1.9839  0.1259
  696TMC3    H210297   2.065   2.934  13.339  0.8922 -1.3789  1.7851
  696TMC3    C710298   2.200   2.988  13.103  0.5908 -0.1985 -0.4865
  696TMC3    C810299   2.254   2.866  13.512  0.2590 -0.3593  0.0756
  696TMC3    O110300   2.243   2.990  12.991  0.1085 -0.2699  0.5313
  696TMC3    O210301   2.260   2.991  13.506  0.2251  0.5258  0.1992
  697MPD2     C10302   2.002   0.221  15.475 -0.4942 -0.1196 -0.7172
  697MPD2    C110303   2.019   0.143  15.361  0.1300  0.1047 -0.4586
  697MPD2    C210304   2.002   0.197  15.240 -0.3779 -0.5150  0.4333
  697MPD2    C310305   1.997   0.337  15.228 -0.2998  0.0420  0.6233
  697MPD2    C410306   1.989   0.417  15.340  0.8227 -0.2165  0.6677
  697MPD2    C510307   1.971   0.355  15.463  0.0383 -0.6280 -0.2273
  697MPD2     H10308   2.011   0.136  15.151  1.1518  0.8445 -0.3408
  697MPD2    H110309   1.959   0.522  15.335  2.1122  0.0416 -1.4531
  697MPD2    H210310   1.989   0.177  15.573  0.8760  0.6000 -0.2180
  697MPD2    H310311   1.946   0.409  15.554 -0.3664 -0.6832 -0.3099
  697MPD2     N10312   2.012   0.393  15.095 -0.4366 -0.7358  0.1141
  697MPD2    H510313   2.021   0.320  15.026  1.5511 -0.5905  0.2196
  697MPD2    N110314   2.039   0.001  15.368  0.7805  0.6115  0.0736
  697MPD2    H710315   2.041   4.685  15.276 -0.8444  2.4200 -0.8073
  698TMC3    C110316   2.070   0.553  14.927 -0.1439  0.9327  0.7051
  698TMC3    C210317   2.180   0.636  14.926  0.0002  0.4278 -0.5721
  698TMC3    C310318   2.290   0.592  14.862 -0.0479 -0.0261 -0.1299
  698TMC3    C410319   2.064   0.437  14.858 -0.7531 -0.1928 -0.3591
  698TMC3    C510320   2.175   0.401  14.786  0.1174 -0.3639  0.8048
  698TMC3    C610321   2.286   0.478  14.786 -0.6589  0.4921 -0.1620
  698TMC3     C10322   2.021   0.529  15.064 -0.0281  0.0124 -0.1143
  698TMC3     O10323   2.022   0.629  15.134  0.1887  0.4259  0.2705
  698TMC3     H10324   2.187   0.727  14.985  3.1393  1.5228 -2.6253
  698TMC3    H110325   1.976   0.373  14.862 -0.8877  0.1616  2.2661
  698TMC3    H210326   2.353   0.457  14.703 -1.9813 -3.4915 -0.2622
  698TMC3    C710327   2.152   0.295  14.696  0.2859  0.2285  0.0783
  698TMC3    C810328   2.383   0.702  14.839 -0.3646 -0.0551 -0.1122
  698TMC3    O110329   2.032   0.258  14.682 -0.4304  0.2009  0.0066
  698TMC3    O210330   2.337   0.817  14.833  0.6783 -1.1453 -0.1812
  699TMC3    C110331   2.178   2.680  12.805  0.3180  0.3173  0.1534
  699TMC3    C210332   2.183   2.546  12.811  0.0448  0.0428 -0.2060
  699TMC3    C310333   2.070   2.481  12.861 -0.1011  0.0833 -0.4823
  699TMC3    C410334   2.079   2.756  12.861  0.3606 -0.0004 -0.1309
  699TMC3    C510335   1.964   2.685  12.886  0.3388  0.1180 -0.5186
  699TMC3    C610336   1.959   2.546  12.904 -1.2678 -0.6356  0.4063
  699TMC3     C10337   2.264   2.741  12.702 -0.6265 -0.1317  0.2954
  699TMC3     O10338   2.296   2.673  12.605  0.2580 -0.3257  0.1238
  699TMC3     H10339   2.258   2.496  12.752 -0.2411 -0.4871 -0.1209
  699TMC3    H110340   2.071   2.863  12.848 -0.4818 -0.3847 -2.7282
  699TMC3    H210341   1.877   2.498  12.955 -1.8102 -0.8948 -0.7048
  699TMC3    C710342   1.869   2.746  12.986  0.0749 -0.1203  0.0246
  699TMC3    C810343   2.088   2.347  12.912  0.1485 -0.2972  0.1820
  699TMC3    O110344   1.914   2.823  13.069 -0.1506  0.2325 -0.0420
  699TMC3    O210345   1.983   2.283  12.941 -0.0482 -0.4747 -0.2334
  700TMC3    C110346   1.232   4.582  16.780 -0.4175 -0.4703 -0.1171
  700TMC3    C210347   1.316   4.484  16.817  0.7405  0.1262  0.8789
  700TMC3    C310348   1.345   4.469  16.951  0.3710 -0.2334 -0.2468
  700TMC3    C410349   1.167   4.662  16.874 -0.5066  0.7512  0.0771
  700TMC3    C510350   1.191   4.643  17.007 -0.6668  0.1341  0.1620
  700TMC3    C610351   1.287   4.551  17.047  0.1289  0.8087  0.4882
  700TMC3     C10352   1.277   4.642  16.655 -0.2419  0.3253  0.3286
  700TMC3     O10353   1.288   4.561  16.561  0.5074 -0.1307  0.2784
  700TMC3     H10354   1.362   4.415  16.747 -1.1765 -0.1162 -0.1463
  700TMC3    H110355   1.109   0.019  16.836  1.2422  1.9745  0.0786
  700TMC3    H210356   1.306   4.537  17.153 -0.0584  1.6924  0.6393
  700TMC3    C710357   1.140   0.019  17.092 -0.4946 -0.6681  0.1227
  700TMC3    C810358   1.461   4.391  16.968  0.0038 -0.2287 -0.4080
  700TMC3    O110359   1.054   0.088  17.036 -0.7761 -0.2533 -0.0653
  700TMC3    O210360   1.478   4.294  16.895  0.0432  0.6075  0.1503
  701TMC3    C110361   0.684   3.567  15.857 -0.5970  0.8216  0.2988
  701TMC3    C210362   0.741   3.455  15.805  0.2569 -0.6354 -0.3962
  701TMC3    C310363   0.791   3.475  15.673 -0.4407  0.6089  0.1552
  701TMC3    C410364   0.668   3.685  15.792 -0.6537 -0.6247  0.7270
  701TMC3    C510365   0.728   3.702  15.667 -0.2768 -0.8623  0.5178
  701TMC3    C610366   0.789   3.597  15.613  0.5147 -0.5792  0.2079
  701TMC3     C10367   0.675   3.572  16.000 -0.3530  0.4566  0.1073
  701TMC3     O10368   0.642   3.679  16.049  0.6174  0.0016  0.0807
  701TMC3     H10369   0.759   3.358  15.849  0.9010  0.4133  1.6148
  701TMC3    H110370   0.609   3.765  15.835  1.4590  1.9393 -1.1557
  701TMC3    H210371   0.850   3.621  15.526  0.2113  1.3495  0.5203
  701TMC3    C710372   0.791   3.835  15.641  0.9616 -0.0161 -0.4651
  701TMC3    C810373   0.868   3.375  15.612 -0.2040 -0.3590  0.3804
  701TMC3    O110374   0.843   3.858  15.532 -0.2620  0.7329  0.6622
  701TMC3    O210375   0.936   3.300  15.685  0.1423  0.4623  0.0039
  702MPD2     C10376   0.556   0.588  10.238 -0.5977 -0.7485  0.4309
  702MPD2    C110377   0.634   0.687  10.282 -0.2162 -0.0021 -0.9158
  702MPD2    C210378   0.678   0.792  10.199 -0.0583 -0.2510  0.0439
  702MPD2    C310379   0.644   0.784  10.070  0.1831 -0.4955  0.1031
  702MPD2    C410380   0.570   0.680  10.020  0.7568  0.2210 -0.6628
  702MPD2    C510381   0.523   0.580  10.107 -0.4339  0.1930  1.2437
  702MPD2     H10382   0.727   0.874  10.249  2.5999  0.0716 -3.1115
  702MPD2    H110383   0.547   0.685   9.914  1.7004  1.1578 -0.8181
  702MPD2    H210384   0.502   0.518  10.301  1.4017 -1.1740  1.6771
  702MPD2    H310385   0.473   0.489  10.078  2.1173 -0.6202 -0.6812
  702MPD2     N10386   0.668   0.881   9.968 -0.1121  0.7227 -0.0007
  702MPD2    H510387   0.624   0.865   9.878 -1.4233 -0.3151  0.8240
  702MPD2    N110388   0.677   0.702  10.419  0.2146 -0.7519  0.4286
  702MPD2    H710389   0.736   0.780  10.445 -0.4346 -0.2074  0.2869
  703TMC3    C110390   0.739   1.076   9.867  0.3609 -0.0934  0.0386
  703TMC3    C210391   0.618   1.131   9.843 -0.5170  0.0630 -0.1540
  703TMC3    C310392   0.612   1.256   9.787  0.0782 -0.4039 -0.4397
  703TMC3    C410393   0.854   1.145   9.839 -0.4341 -0.4171 -0.7258
  703TMC3    C510394   0.850   1.267   9.781 -0.0173 -0.3581  0.7057
  703TMC3    C610395   0.725   1.324   9.751 -0.3720 -0.3071 -0.3189
  703TMC3     C10396   0.747   0.987   9.979  0.7829  0.1034 -1.0384
  703TMC3     O10397   0.821   1.026  10.067 -0.6883 -0.3672 -0.0825
  703TMC3     H10398   0.529   1.079   9.877 -1.3248  1.7546  0.2898
  703TMC3    H110399   0.943   1.085   9.855 -0.6940 -0.7820 -0.6357
  703TMC3    H210400   0.728   1.429   9.727 -1.8041 -0.4919 -1.2468
  703TMC3    C710401   0.963   1.357   9.797 -0.1319 -0.3718 -0.2242
  703TMC3    C810402   0.485   1.335   9.792  0.4069  0.0603 -0.3293
  703TMC3    O110403   0.962   1.463   9.735  0.0242  0.0598 -0.3638
  703TMC3    O210404   0.481   1.442   9.728 -0.2882 -0.6230 -0.1005
  704TMC3    C110405   3.391   4.325  12.510 -0.0542 -0.1743 -0.6466
  704TMC3    C210406   3.512   4.383  12.470  0.2977 -0.0458  0.6571
  704TMC3    C310407   3.619   4.299  12.462  0.6650  0.8634 -0.0268
  704TMC3    C410408   3.376   4.188  12.522 -0.1357 -0.0807 -0.7843
  704TMC3    C510409   3.482   4.108  12.495 -0.5407  0.1821  0.0683
  704TMC3    C610410   3.604   4.166  12.478 -0.1715  0.2963 -0.5983
  704TMC3     C10411   3.267   4.389  12.476  0.1283  0.1675  0.5098
  704TMC3     O10412   3.163   4.353  12.530  0.0865  0.4823 -0.4984
  704TMC3     H10413   3.528   4.489  12.456  0.6041 -0.5236 -2.4760
  704TMC3    H110414   3.276   4.148  12.539 -0.2238  0.0081 -1.0868
  704TMC3    H210415   3.685   4.096  12.458  0.2375  0.1085  1.6748
  704TMC3    C710416   3.463   3.980  12.430  0.5807 -0.6811  0.2249
  704TMC3    C810417   3.693   4.333  12.346 -0.2088  0.1949  0.6480
  704TMC3    O110418   3.537   3.965  12.334  0.3240  0.2692 -0.2648
  704TMC3    O210419   3.628   4.381  12.252 -0.1946  0.7525  0.6801
  705MPD2     C10420   3.335   2.248  16.698  0.7074  0.0635 -0.2528
  705MPD2    C110421   3.267   2.371  16.672 -0.4322 -0.1288 -0.0485
  705MPD2    C210422   3.149   2.398  16.746  0.6671 -0.4571 -0.0664
  705MPD2    C310423   3.101   2.311  16.841  0.1037  0.0246  0.9787
  705MPD2    C410424   3.167   2.190  16.855 -0.0604  0.4539  0.4635
  705MPD2    C510425   3.270   2.153  16.776  0.4085  0.9001 -0.6209
  705MPD2     H10426   3.084   2.479  16.716  1.8507  0.4499 -0.1785
  705MPD2    H110427   3.137   2.117  16.930 -2.0717  1.5191  0.6984
  705MPD2    H210428   3.424   2.216  16.644  1.5530  1.1484  0.4898
  705MPD2    H310429   3.310   2.055  16.799  1.0176  1.1948 -0.4079
  705MPD2     N10430   2.974   2.320  16.899 -0.2299  0.0468 -0.2786
  705MPD2    H510431   2.938   2.235  16.942  0.8864  0.6640  1.9135
  705MPD2    N110432   3.311   2.468  16.574 -0.2904  0.4760  0.6885
  705MPD2    H710433   3.245   2.545  16.562  3.0044  3.1356 -0.2458
  706TMC3    C110434   3.504   2.608  16.190  0.6325 -0.1207 -0.5134
  706TMC3    C210435   3.436   2.727  16.189  0.3111 -0.2371 -0.0663
  706TMC3    C310436   3.372   2.767  16.305 -0.0663 -0.0942 -0.2174
  706TMC3    C410437   3.519   2.528  16.297  0.9469  0.6951  0.2119
  706TMC3    C510438   3.449   2.566  16.407 -0.1803  0.6879  0.3557
  706TMC3    C610439   3.370   2.679  16.409 -0.3762  0.2809 -0.0579
  706TMC3     C10440   3.587   2.577  16.072  0.1157  0.8803  0.2249
  706TMC3     O10441   3.698   2.530  16.093  0.1240 -0.0902  0.4197
  706TMC3     H10442   3.415   2.778  16.096 -3.2578  0.6302  1.2354
  706TMC3    H110443   3.588   2.446  16.307 -0.3857 -0.5263 -0.6185
  706TMC3    H210444   3.345   2.718  16.507  0.7667 -0.1611  0.4139
  706TMC3    C710445   3.438   2.464  16.511  0.0547  0.6752  0.0225
  706TMC3    C810446   3.276   2.875  16.297  0.1041 -0.6256  0.1093
  706TMC3    O110447   3.535   2.396  16.540 -0.4940  0.2054  0.3479
  706TMC3    O210448   3.292   2.947  16.200  0.2381 -0.0646 -0.7046
  707TMC3    C110449   0.948   1.567   1.815  0.2085 -0.1247  0.1909
  707TMC3    C210450   1.018   1.451   1.816  0.8192 -0.4207 -0.0063
  707TMC3    C310451   1.122   1.435   1.900  0.1012  0.2299 -0.3003
  707TMC3    C410452   0.986   1.668   1.895 -0.2452  0.9387  0.5677
  707TMC3    C510453   1.094   1.648   1.979 -0.0452 -0.8242 -0.3647
  707TMC3    C610454   1.161   1.531   1.986 -0.6893  0.3330  0.1006
  707TMC3     C10455   0.852   1.573   1.699  0.5284  0.4543 -0.1925
  707TMC3     O10456   0.863   1.496   1.602  0.3417  0.1726  0.3606
  707TMC3     H10457   0.969   1.367   1.768  0.3951  1.0048 -2.0539
  707TMC3    H110458   0.930   1.760   1.888 -3.4453 -1.1149 -0.5970
  707TMC3    H210459   1.255   1.521   2.040  0.5455  2.3683 -1.6663
  707TMC3    C710460   1.143   1.754   2.068 -0.5294  0.5676 -0.4230
  707TMC3    C810461   1.146   1.308   1.943  0.0506  0.1708  0.0322
  707TMC3    O110462   1.215   1.718   2.161 -0.2816 -0.5066  0.4105
  707TMC3    O210463   1.174   1.302   2.063 -0.5109 -0.7413  0.8534
  708MPD2     C10464   1.275   0.987  13.770  0.3809  0.6137  0.3114
  708MPD2    C110465   1.186   0.919  13.849 -0.6362 -0.4381  0.1188
  708MPD2    C210466   1.200   0.920  13.987  0.0730 -0.4514  0.5669
  708MPD2    C310467   1.312   0.972  14.046 -0.1915  0.0291 -0.0279
  708MPD2    C410468   1.414   1.025  13.966  0.3067 -0.0110  0.0936
  708MPD2    C510469   1.389   1.032  13.832  0.2261 -0.4064  0.3100
  708MPD2     H10470   1.132   0.863  14.049  0.3786 -0.5395  0.8207
  708MPD2    H110471   1.504   1.071  14.005  0.5555 -1.2804  1.0020
  708MPD2    H210472   1.264   1.000  13.663 -2.5788 -0.8617  0.4488
  708MPD2    H310473   1.466   1.080  13.772  0.5181 -0.4223  0.6658
  708MPD2     N10474   1.329   0.966  14.183 -0.0211 -0.3210 -0.2228
  708MPD2    H510475   1.425   0.981  14.212 -0.0964  0.2594 -0.2783
  708MPD2    N110476   1.072   0.872  13.779 -1.0957 -0.2415 -0.5540
  708MPD2    H710477   1.080   0.878  13.678  0.9358  2.5163 -0.2513
  709TMC3    C110478   0.835   0.818  13.755 -0.2437 -0.1224 -0.0371
  709TMC3    C210479   0.815   0.917  13.661 -0.1402 -0.1430  0.0424
  709TMC3    C310480   0.697   0.970  13.644 -0.7131 -0.0612  0.4368
  709TMC3    C410481   0.730   0.781  13.835 -0.4872 -0.0050 -0.0507
  709TMC3    C510482   0.614   0.855  13.825 -0.0079  0.0935 -0.0983
  709TMC3    C610483   0.589   0.940  13.723 -0.5583 -0.0254  0.2558
  709TMC3     C10484   0.952   0.832  13.841 -0.1402 -0.0933  0.1382
  709TMC3     O10485   0.930   0.826  13.962 -0.3834 -0.6819 -0.1199
  709TMC3     H10486   0.903   0.966  13.622 -0.3547  1.4815  1.5883
  709TMC3    H110487   0.755   0.704  13.907 -0.1124 -1.7796 -2.0477
  709TMC3    H210488   0.492   0.987  13.712 -0.1671  0.6668 -0.2528
  709TMC3    C710489   0.568   0.902  13.948  0.9956 -0.0400 -0.1614
  709TMC3    C810490   0.688   1.088  13.560 -0.0655  0.6302  0.3457
  709TMC3    O110491   0.452   0.941  13.966 -0.1633 -0.3954  0.3949
  709TMC3    O210492   0.596   1.168  13.589  0.5703 -0.1243  0.3949
  710TMC3    C110493   2.058   2.693   0.366  0.1629  0.2643 -0.1868
  710TMC3    C210494   2.152   2.634   0.287 -0.1585  0.1362  0.0345
  710TMC3    C310495   2.183   2.507   0.332  0.1363  0.1860  0.4657
  710TMC3    C410496   2.014   2.652   0.488  0.0854  0.5283 -0.1933
  710TMC3    C510497   2.047   2.517   0.523 -0.4644 -0.3417  0.4493
  710TMC3    C610498   2.130   2.450   0.439  0.2234  0.3508 -0.4030
  710TMC3     C10499   2.005   2.822   0.316  0.0878 -0.2811 -0.1011
  710TMC3     O10500   2.017   2.840   0.195  0.4863  0.0708 -0.0239
  710TMC3     H10501   2.181   2.666   0.187  0.4647  1.0948  0.5170
  710TMC3    H110502   1.936   2.701   0.546 -0.4108 -2.1693  1.3966
  710TMC3    H210503   2.177   2.356   0.465 -0.0604  0.7609  1.6615
  710TMC3    C710504   2.075   2.481   0.663 -0.2713  0.2867 -0.0347
  710TMC3    C810505   2.251   2.421   0.244  0.1619  1.0727 -0.0601
  710TMC3    O110506   2.086   2.363   0.684 -0.4085 -0.5249 -0.0717
  710TMC3    O210507   2.340   2.463   0.170 -0.1837 -0.2643  0.3235
  711TMC3    C110508   2.202   3.290  14.881  0.4947  0.1468  0.2270
  711TMC3    C210509   2.217   3.393  14.968 -0.1239 -0.5220 -0.4984
  711TMC3    C310510   2.277   3.367  15.085 -0.6849 -0.4037  0.5700
  711TMC3    C410511   2.250   3.162  14.901  0.3498 -0.3222  0.1431
  711TMC3    C510512   2.312   3.144  15.021 -0.0341  0.3948 -0.0516
  711TMC3    C610513   2.329   3.246  15.116  0.0722  0.2626  0.2128
  711TMC3     C10514   2.099   3.295  14.773 -0.1840 -1.1321 -0.3319
  711TMC3     O10515   2.066   3.183  14.732 -0.2509  0.0690 -0.3034
  711TMC3     H10516   2.196   3.496  14.941  0.1466 -0.1265  0.7929
  711TMC3    H110517   2.276   3.096  14.819  0.6142 -1.3565  1.0521
  711TMC3    H210518   2.376   3.223  15.211  0.1411  0.2416  0.1737
  711TMC3    C710519   2.374   3.019  15.053  0.5629 -0.5447 -0.5712
  711TMC3    C810520   2.274   3.471  15.177  0.5683  0.2725 -0.3901
  711TMC3    O110521   2.440   3.011  15.152  0.8188  0.1406  0.0464
  711TMC3    O210522   2.176   3.543  15.172  0.3726 -0.5831  0.3591
  712MPD2     C10523   3.173   4.168  13.099  0.4241  0.0033  0.4251
  712MPD2    C110524   3.078   4.245  13.161  0.0228  0.5730  0.3370
  712MPD2    C210525   3.107   4.326  13.271  0.4366  0.8837 -1.1472
  712MPD2    C310526   3.237   4.320  13.314  0.1886  0.5569 -0.1678
  712MPD2    C410527   3.329   4.238  13.258 -0.3965  0.2431 -0.4321
  712MPD2    C510528   3.298   4.171  13.140 -0.0270  0.5710 -0.8610
  712MPD2     H10529   3.033   4.388  13.320 -0.4761 -1.9046  1.0033
  712MPD2    H110530   3.435   4.241  13.278  0.0990 -2.1321 -2.8865
  712MPD2    H210531   3.154   4.100  13.017 -0.7355 -1.0795  1.5893
  712MPD2    H310532   3.378   4.133  13.077 -1.3765 -2.3784 -0.8060
  712MPD2     N10533   3.289   4.400  13.421 -0.5255  0.5800  0.5001
  712MPD2    H510534   3.389   4.396  13.439 -0.2801  1.1801 -0.7116
  712MPD2    N110535   2.947   4.258  13.111  0.0111 -0.1248  0.0790
  712MPD2    H710536   2.885   4.315  13.168 -0.4013 -0.2200 -0.2788
  713TMC3    C110537   3.308   4.584  13.565  0.1291 -0.1750 -0.2634
  713TMC3    C210538   3.445   4.562  13.580  0.4195  0.5927  0.1599
  713TMC3    C310539   3.519   4.659  13.639  0.2961 -0.5901  0.0868
  713TMC3    C410540   3.251   4.700  13.608 -0.2086  0.6038  0.4404
  713TMC3    C510541   3.329   0.067  13.658  0.4480  0.4942 -0.4284
  713TMC3    C610542   3.466   0.058  13.670 -0.0213  0.3978 -0.1022
  713TMC3     C10543   3.224   4.494  13.496  0.2411  0.7503  0.5993
  713TMC3     O10544   3.103   4.507  13.507  0.2186 -0.0877  0.2045
  713TMC3     H10545   3.488   4.462  13.575 -1.1226 -0.1085  0.8481
  713TMC3    H110546   3.148   4.714  13.578 -0.3345 -1.2928 -0.0436
  713TMC3    H210547   3.532   0.143  13.673 -0.4067  0.7491 -1.8521
  713TMC3    C710548   3.274   0.195  13.709 -0.1801 -0.1700 -0.0957
  713TMC3    C810549   3.653   4.656  13.595  0.5778  0.5938 -0.1428
  713TMC3    O110550   3.354   0.282  13.739  0.2500 -1.0082  0.0567
  713TMC3    O210551   3.687   4.592  13.499 -0.0225 -0.2300 -0.3876
  714MPD2     C10552   0.287   2.866   0.645  0.2635  0.6979 -0.2306
  714MPD2    C110553   0.272   2.932   0.764 -0.2709  0.5159  0.3815
  714MPD2    C210554   0.144   2.949   0.809  0.4422 -1.2106 -0.1741
  714MPD2    C310555   0.028   2.917   0.734  0.5564  0.5339  0.0815
  714MPD2    C410556   0.043   2.849   0.613 -0.2144 -0.4507 -0.6822
  714MPD2    C510557   0.176   2.830   0.575 -0.1348 -0.7351 -0.0016
  714MPD2     H10558   0.124   2.992   0.906  0.6024 -0.2513 -0.5670
  714MPD2    H110559   4.690   2.834   0.540  0.1363 -0.7917 -0.9944
  714MPD2    H210560   0.387   2.843   0.610  0.1722 -1.6259  1.0181
  714MPD2    H310561   0.201   2.787   0.478  3.0883  1.2811 -0.0280
  714MPD2     N10562   4.633   2.949   0.792 -0.0968 -0.1813  0.3797
  714MPD2    H510563   4.632   2.981   0.888 -2.0178  0.0237  0.2831
  714MPD2    N110564   0.382   2.970   0.838  0.6919  0.0525  0.1741
  714MPD2    H710565   0.472   2.945   0.796  0.1155 -1.9727  0.1074
  715TMC3    C110566   0.507   3.071   1.014 -0.4383 -0.2302 -0.3469
  715TMC3    C210567   0.614   2.989   0.984 -0.1186 -0.6647  0.5360
  715TMC3    C310568   0.724   3.000   1.068  0.3989 -0.6661  0.0034
  715TMC3    C410569   0.512   3.160   1.115  0.6995 -0.0964 -0.1908
  715TMC3    C510570   0.628   3.181   1.183 -0.0318  0.0986  0.0300
  715TMC3    C610571   0.735   3.100   1.160  0.6798  0.6721 -0.8010
  715TMC3     C10572   0.380   3.029   0.961  0.4895 -0.1164  0.0191
  715TMC3     O10573   0.286   3.065   1.025  0.2838  0.1187 -0.3434
  715TMC3     H10574   0.598   2.893   0.935 -2.9636 -0.3140  0.7730
  715TMC3    H110575   0.422   3.216   1.136 -0.7697 -1.7973 -1.9877
  715TMC3    H210576   0.825   3.114   1.220  0.6218 -1.9835 -0.0811
  715TMC3    C710577   0.645   3.288   1.276  0.0303  0.0925 -0.2797
  715TMC3    C810578   0.796   2.881   1.089 -0.2082 -0.6748  0.0566
  715TMC3    O110579   0.763   3.319   1.298 -0.0624  0.1418 -0.2844
  715TMC3    O210580   0.797   2.786   1.010  0.0969  0.1519 -0.1201
  716MPD2     C10581   4.703   0.892   9.301 -0.4609 -0.3132  0.3482
  716MPD2    C110582   4.632   0.857   9.188 -0.6543 -0.0373  0.1065
  716MPD2    C210583   4.676   0.739   9.123  0.0501 -0.1121 -0.2222
  716MPD2    C310584   0.060   0.670   9.169  0.3384  0.5732 -0.5202
  716MPD2    C410585   0.126   0.701   9.282  0.1070 -0.3643 -0.1355
  716MPD2    C510586   0.084   0.817   9.349 -0.2556 -0.0127 -0.0213
  716MPD2     H10587   4.625   0.702   9.035  0.1506  2.6521 -1.4535
  716MPD2    H110588   0.212   0.643   9.314  0.6426 -0.2075 -1.2863
  716MPD2    H210589   4.669   0.983   9.349  0.8182 -0.2095  1.0496
  716MPD2    H310590   0.135   0.845   9.441 -0.5975  2.2039 -0.5069
  716MPD2     N10591   0.112   0.578   9.077  0.6686  0.1131  0.0551
  716MPD2    H510592   0.064   0.565   8.988  0.8896 -1.5188  0.1633
  716MPD2    N110593   4.523   0.932   9.144 -0.6700  0.5228 -0.1206
  716MPD2    H710594   4.482   1.006   9.201 -2.8662 -0.3849 -0.5159
  717TMC3    C110595   0.201   0.377   8.992  0.1234  0.1427  0.5245
  717TMC3    C210596   0.109   0.396   8.893 -0.7513  0.9865  0.5370
  717TMC3    C310597   0.017   0.296   8.865  0.1351 -0.1866 -0.6902
  717TMC3    C410598   0.213   0.248   9.042 -0.0792  0.4111 -0.4259
  717TMC3    C510599   0.133   0.147   9.003 -0.2168 -0.7849  0.0013
  717TMC3    C610600   0.038   0.170   8.911  0.5787 -0.3204  0.4160
  717TMC3     C10601   0.201   0.478   9.101  0.5865 -0.0293 -0.5167
  717TMC3     O10602   0.253   0.450   9.210  0.5143 -0.1468 -0.8327
  717TMC3     H10603   0.092   0.487   8.837 -1.0764  1.8536  2.0718
  717TMC3    H110604   0.295   0.232   9.110 -0.3921 -3.7520 -1.0572
  717TMC3    H210605   4.700   0.090   8.875  2.5762 -0.8594 -1.9390
  717TMC3    C710606   0.157   0.014   9.051  0.0853 -0.0111  0.9406
  717TMC3    C810607   4.604   0.351   8.879  0.2605  0.6925 -1.3334
  717TMC3    O110608   0.107   4.652   8.984  0.1351 -0.2597 -0.5180
  717TMC3    O210609   4.601   0.472   8.912  0.0913 -0.1489  0.3914
  718MPD2     C10610   0.247   0.214  12.913  0.5839  0.6058  0.1052
  718MPD2    C110611   0.184   0.296  12.824 -0.8458  0.4795 -0.7812
  718MPD2    C210612   0.067   0.248  12.773  0.0932  0.0755 -0.1626
  718MPD2    C310613   0.014   0.126  12.803  1.2561 -0.0216  0.0643
  718MPD2    C410614   0.079   0.041  12.886  0.0865  0.0021  0.0581
  718MPD2    C510615   0.196   0.087  12.939  0.3077 -0.6016 -0.2233
  718MPD2     H10616   4.724   0.306  12.712 -0.2285 -1.0964 -0.9186
  718MPD2    H110617   0.055   4.662  12.898  2.2487 -0.7491 -2.2509
  718MPD2    H210618   0.332   0.242  12.974  0.8544  0.6796 -0.3069
  718MPD2    H310619   0.249   0.019  13.005  0.8280 -0.8270 -0.8789
  718MPD2     N10620   4.621   0.081  12.736 -0.4162 -0.2371  0.4918
  718MPD2    H510621   4.588   0.146  12.665 -1.7747 -2.1175 -0.5727
  718MPD2    N110622   0.242   0.424  12.808 -0.0657 -0.1128  0.1233
  718MPD2    H710623   0.329   0.449  12.854 -0.3926 -0.1775  0.7807
  719TMC3    C110624   0.253   0.630  12.687  0.3944  0.4753 -0.3845
  719TMC3    C210625   0.175   0.694  12.596 -0.3159 -0.6402  0.0516
  719TMC3    C310626   0.234   0.726  12.475  0.4657 -0.5413 -0.9785
  719TMC3    C410627   0.378   0.579  12.653 -0.2716 -1.0146  0.9818
  719TMC3    C510628   0.423   0.601  12.525 -0.0122  0.0672 -0.0618
  719TMC3    C610629   0.360   0.687  12.439 -0.1628 -0.5326 -0.1907
  719TMC3     C10630   0.172   0.523  12.737 -0.0054  0.6881  0.7372
  719TMC3     O10631   0.061   0.514  12.684  0.1800 -0.0358  0.0354
  719TMC3     H10632   0.076   0.732  12.620  0.4175 -0.5558  2.9482
  719TMC3    H110633   0.441   0.521  12.719  1.1430 -0.5734  0.0215
  719TMC3    H210634   0.391   0.711  12.338 -1.0354  2.0842  0.1759
  719TMC3    C710635   0.555   0.550  12.492  0.1633  0.2139  0.0277
  719TMC3    C810636   0.145   0.700  12.365  0.5288 -0.2069  0.2458
  719TMC3    O110637   0.576   0.444  12.545 -0.4130 -0.7243  0.0189
  719TMC3    O210638   0.183   0.726  12.251  0.0971  0.1961  0.7078
  720MPD2     C10639   3.528   1.501  14.047 -0.9372 -0.3026  0.0410
  720MPD2    C110640   3.585   1.571  13.941  0.1945  0.4470 -0.4778
  720MPD2    C210641   3.722   1.606  13.952  0.1202  0.2349  0.8283
  720MPD2    C310642   3.795   1.568  14.067  0.1770  0.4181 -0.2580
  720MPD2    C410643   3.736   1.488  14.165 -0.2702  0.4490  1.1412
  720MPD2    C510644   3.597   1.466  14.161  0.2355  0.2695  0.0271
  720MPD2     H10645   3.763   1.656  13.865  0.8241 -1.4527  0.1802
  720MPD2    H110646   3.785   1.449  14.254 -1.0937 -2.3984  0.3304
  720MPD2    H210647   3.421   1.486  14.037 -0.7147 -1.3513 -0.7863
  720MPD2    H310648   3.545   1.412  14.240  1.0893 -1.6894 -0.7510
  720MPD2     N10649   3.933   1.593  14.073 -1.1851 -0.2690  0.3412
  720MPD2    H510650   3.969   1.648  13.995 -1.1803  0.2350  0.6960
  720MPD2    N110651   3.516   1.622  13.834  0.3186 -0.3350 -0.1468
  720MPD2    H710652   3.561   1.689  13.771  0.0660 -0.4378 -0.4378
  721TMC3    C110653   4.163   1.607  14.163 -0.2878  0.3391 -0.3475
  721TMC3    C210654   4.254   1.536  14.238  0.0552  0.6883  0.4927
  721TMC3    C310655   4.383   1.571  14.232 -0.1447  0.7071  0.0851
  721TMC3    C410656   4.199   1.712  14.079 -0.0814 -0.6757 -0.0031
  721TMC3    C510657   4.336   1.746  14.079 -0.3501  0.2717  0.2170
  721TMC3    C610658   4.423   1.680  14.158 -0.4659 -0.2074 -0.3826
  721TMC3     C10659   4.023   1.551  14.172 -0.2643 -0.0880 -0.3826
  721TMC3     O10660   4.007   1.481  14.269  0.0188  0.6787 -0.3094
  721TMC3     H10661   4.231   1.442  14.288  0.7273  1.0526  1.4642
  721TMC3    H110662   4.129   1.764  14.014 -0.1978 -0.0299  0.6414
  721TMC3    H210663   4.524   1.717  14.166 -0.4294 -0.2022 -0.9193
  721TMC3    C710664   4.394   1.829  13.978 -0.0777 -0.4792  0.0744
  721TMC3    C810665   4.455   1.552  14.358 -0.1675  0.9800  0.9962
  721TMC3    O110666   4.515   1.813  13.954 -0.1315  0.1997 -0.5681
  721TMC3    O210667   4.573   1.512  14.351 -0.3512 -0.0919 -0.0778
  722MPD2     C10668   2.179   0.029  13.080  0.2950  0.1068 -0.2690
  722MPD2    C110669   2.104   0.127  13.149  0.7630  0.0081  0.1169
  722MPD2    C210670   1.969   0.130  13.133 -0.2913 -0.1080  0.2448
  722MPD2    C310671   1.903   0.046  13.044  0.0080 -0.2757  0.2275
  722MPD2    C410672   1.980   4.668  12.985  0.2131  0.1086 -0.0960
  722MPD2    C510673   2.117   4.663  12.999  0.1789 -0.2853  0.4884
  722MPD2     H10674   1.916   0.194  13.202  1.9670  2.2810 -0.2142
  722MPD2    H110675   1.937   4.590  12.923 -1.7130 -0.3351  1.8230
  722MPD2    H210676   2.287   0.016  13.081  0.4808  1.6199 -0.9282
  722MPD2    H310677   2.167   4.576  12.959 -0.3819 -1.1142  1.5778
  722MPD2     N10678   1.766   0.046  13.038 -0.0616 -0.1691  0.5915
  722MPD2    H510679   1.721   0.115  13.097 -3.2093 -0.3119 -1.6551
  722MPD2    N110680   2.172   0.233  13.219  0.3353  0.0695 -0.7530
  722MPD2    H710681   2.119   0.306  13.265  0.0547 -0.5114 -0.1704
  723TMC3    C110682   1.535   4.693  13.008  0.5722  0.1322  0.2887
  723TMC3    C210683   1.473   4.582  12.954  0.0069 -0.3787 -1.4385
  723TMC3    C310684   1.351   4.598  12.889 -0.3203  0.5304 -0.0118
  723TMC3    C410685   1.489   0.089  12.980 -0.3702 -0.4409  0.6155
  723TMC3    C510686   1.375   0.109  12.902  0.4467  0.0046 -0.5925
  723TMC3    C610687   1.303   4.725  12.857 -0.1423  0.2332 -0.0800
  723TMC3     C10688   1.682   4.677  12.987 -0.2883  0.9208  0.0274
  723TMC3     O10689   1.720   4.573  12.933  0.0618  0.3241 -0.2522
  723TMC3     H10690   1.512   4.483  12.976  1.5488  0.2864 -1.1784
  723TMC3    H110691   1.559   0.171  12.992 -0.9704  0.0710  0.6170
  723TMC3    H210692   1.215   0.019  12.797 -0.2369 -1.3687 -0.4806
  723TMC3    C710693   1.354   0.231  12.831 -0.5923 -0.2627 -0.4262
  723TMC3    C810694   1.288   4.482  12.824  0.1912 -0.8963  0.0245
  723TMC3    O110695   1.293   0.221  12.726 -0.4122 -0.0377  0.0528
  723TMC3    O210696   1.182   4.506  12.764 -0.5422 -0.4563 -0.0100
  724TMC3    C110697   2.522   2.845   9.695  0.2915  0.0230  0.2623
  724TMC3    C210698   2.427   2.937   9.695  0.1247 -0.3250 -0.1328
  724TMC3    C310699   2.460   3.066   9.691  0.1388  0.0037  0.7050
  724TMC3    C410700   2.644   2.875   9.660 -0.1104 -0.4743 -0.1645
  724TMC3    C510701   2.682   3.004   9.647  0.6053 -0.4255  0.1835
  724TMC3    C610702   2.588   3.105   9.666 -0.5095  0.0867  0.5001
  724TMC3     C10703   2.487   2.698   9.697  1.0497  0.0282 -0.2669
  724TMC3     O10704   2.580   2.623   9.673  0.0987  0.8947 -0.1332
  724TMC3     H10705   2.323   2.913   9.716  0.2482 -0.8046 -0.0577
  724TMC3    H110706   2.710   2.791   9.639  0.7790 -0.0413  0.8670
  724TMC3    H210707   2.629   3.206   9.666  0.3792 -0.2654  0.0269
  724TMC3    C710708   2.817   3.031   9.595  0.1205  0.3155  0.5420
  724TMC3    C810709   2.346   3.159   9.705 -0.1840  0.1378 -1.0743
  724TMC3    O110710   2.892   2.938   9.598  0.1804  0.4263  0.3757
  724TMC3    O210711   2.238   3.111   9.741  0.2470 -0.1524  0.3579
  725TMC3    C110712   4.170   2.268  12.670  0.5434 -0.0040 -0.1317
  725TMC3    C210713   4.077   2.358  12.722 -0.0981 -0.0617  0.4103
  725TMC3    C310714   4.024   2.327  12.845  0.1690  0.3405  0.1054
  725TMC3    C410715   4.206   2.150  12.740  0.2854 -0.0205 -1.2596
  725TMC3    C510716   4.143   2.123  12.860  0.0954  0.1713  0.3930
  725TMC3    C610717   4.052   2.208  12.912 -0.2542  0.5839  0.2303
  725TMC3     C10718   4.264   2.324  12.569  0.5101 -0.1856 -0.4679
  725TMC3     O10719   4.240   2.440  12.541  0.4508 -0.0075 -0.4648
  725TMC3     H10720   4.070   2.460  12.686  0.5381 -0.1621  0.0009
  725TMC3    H110721   4.281   2.085  12.698  0.1888 -1.2979  0.5303
  725TMC3    H210722   4.002   2.198  13.008 -0.1018 -0.4558  0.1914
  725TMC3    C710723   4.167   1.998  12.917  0.0990 -0.9267  0.6622
  725TMC3    C810724   3.901   2.404  12.886 -0.4945 -0.0329 -0.2490
  725TMC3    O110725   4.258   1.928  12.871  0.0285 -0.4537 -0.2829
  725TMC3    O210726   3.885   2.421  13.006  0.1303 -0.5785  0.3109
  726MPD2     C10727   2.018   3.090  10.657  0.7520 -1.0215  0.3335
  726MPD2    C110728   2.058   3.112  10.523 -0.1243 -0.3230 -0.0062
  726MPD2    C210729   1.965   3.081  10.427 -0.7910 -0.3428  0.6626
  726MPD2    C310730   1.838   3.030  10.456 -0.7644  0.7151  0.1773
  726MPD2    C410731   1.809   3.000  10.586  0.1547 -0.3040 -0.4037
  726MPD2    C510732   1.905   3.026  10.680  0.4398  0.4249  0.2379
  726MPD2     H10733   1.993   3.114  10.328 -1.8162  1.3350  0.9211
  726MPD2    H110734   1.716   2.957  10.620  0.2709  0.5627  1.0123
  726MPD2    H210735   2.073   3.124  10.744  2.1263 -0.2124 -0.8447
  726MPD2    H310736   1.889   2.989  10.781  1.6453  0.3158  0.3881
  726MPD2     N10737   1.736   3.002  10.362 -0.4898  0.1302  0.1938
  726MPD2    H510738   1.643   2.981  10.398 -0.4798 -0.2531  0.0020
  726MPD2    N110739   2.183   3.179  10.492  0.0429  0.9766  0.1644
  726MPD2    H710740   2.193   3.210  10.396 -1.9456 -1.6166 -0.8917
  727TMC3    C110741   2.400   3.272  10.498  0.4516  0.0753 -0.1605
  727TMC3    C210742   2.446   3.204  10.383  0.6583 -0.7334 -0.7031
  727TMC3    C310743   2.559   3.260  10.336  0.0072  0.1322  0.4969
  727TMC3    C410744   2.447   3.388  10.547  0.3743 -0.3075 -0.3586
  727TMC3    C510745   2.546   3.447  10.477  0.2838  0.4521 -0.1025
  727TMC3    C610746   2.610   3.384  10.373  0.5368  0.3128 -0.4866
  727TMC3     C10747   2.287   3.216  10.575  0.6675 -0.0574  0.2576
  727TMC3     O10748   2.294   3.199  10.694  0.7825 -0.3014 -0.1970
  727TMC3     H10749   2.400   3.121  10.329  2.2605 -1.6090 -0.7358
  727TMC3    H110750   2.405   3.433  10.636  0.4766 -1.3763  0.2327
  727TMC3    H210751   2.702   3.428  10.336  1.4483  0.6462  2.1394
  727TMC3    C710752   2.592   3.583  10.511  1.0369 -0.9278  0.2772
  727TMC3    C810753   2.647   3.187  10.245  0.7774  0.3452  0.6263
  727TMC3    O110754   2.699   3.623  10.466  0.2309 -0.3235  0.3546
  727TMC3    O210755   2.742   3.246  10.194  0.1784  0.3634  0.8664
  728TMC3    C110756   1.603   2.400  15.347 -0.0629  0.7664  0.5800
  728TMC3    C210757   1.685   2.506  15.367 -0.2538  0.5812 -0.6113
  728TMC3    C310758   1.726   2.583  15.257 -0.0881 -0.0462 -0.2344
  728TMC3    C410759   1.568   2.365  15.219 -0.5671 -0.1493  0.0721
  728TMC3    C510760   1.617   2.437  15.111 -0.2008 -0.4752  0.6210
  728TMC3    C610761   1.689   2.555  15.122 -0.4597 -0.1852  0.0674
  728TMC3     C10762   1.528   2.345  15.467 -0.2433  0.4070  0.0557
  728TMC3     O10763   1.524   2.422  15.558  0.3378  0.1494 -0.1139
  728TMC3     H10764   1.709   2.546  15.465  0.4588 -1.8633  0.2123
  728TMC3    H110765   1.507   2.278  15.196 -0.5222  0.3630 -1.9965
  728TMC3    H210766   1.724   2.612  15.036 -0.9606  2.3906  1.5535
  728TMC3    C710767   1.548   2.399  14.986  1.0108 -0.2833  0.3393
  728TMC3    C810768   1.802   2.705  15.285 -0.1153 -0.1047  0.6352
  728TMC3    O110769   1.536   2.282  14.964 -0.1303  0.7432 -0.4312
  728TMC3    O210770   1.873   2.702  15.382  0.6721 -0.4949 -0.0981
  729MPD2     C10771   3.952   2.961  16.802 -0.2376 -0.3471 -0.3241
  729MPD2    C110772   4.035   3.063  16.835 -0.9042 -0.5660  0.4279
  729MPD2    C210773   4.008   3.144  16.943  0.3229 -0.5216 -0.4870
  729MPD2    C310774   3.897   3.120  17.026 -0.2235 -0.4197 -0.4628
  729MPD2    C410775   3.828   3.005  17.001 -0.3256  0.2505 -0.2528
  729MPD2    C510776   3.865   2.927  16.895  0.1721  0.2336 -0.0019
  729MPD2     H10777   4.070   3.232  16.952  0.9039 -0.8017 -1.7162
  729MPD2    H110778   3.752   2.965  17.066  2.2145 -1.1694  1.8137
  729MPD2    H210779   3.980   2.892  16.723  0.8295 -1.6937  1.2541
  729MPD2    H310780   3.804   2.837  16.901 -0.6505  0.8140  0.3052
  729MPD2     N10781   3.860   3.208  17.126 -0.3094  0.0693 -0.0283
  729MPD2    H510782   3.769   3.192  17.168 -1.3020  1.1142 -1.7726
  729MPD2    N110783   4.142   3.096  16.745 -0.1148 -0.2377 -0.5564
  729MPD2    H710784   4.125   3.072  16.648 -0.1168 -0.8358 -0.4110
  730TMC3    C110785   3.890   3.413  17.263 -0.3378 -0.6776  0.2408
  730TMC3    C210786   3.981   3.514  17.300  0.7981  0.0421  0.2876
  730TMC3    C310787   3.931   3.621  17.378  0.6365  0.2334 -0.4136
  730TMC3    C410788   3.756   3.421  17.304 -0.1517  0.3411 -0.2364
  730TMC3    C510789   3.711   3.535  17.378  0.4460 -0.0529  0.3021
  730TMC3    C610790   3.800   3.633  17.418 -0.6611 -0.0472 -0.1329
  730TMC3     C10791   3.942   3.309  17.172  0.0744  0.3656  0.2622
  730TMC3     O10792   4.063   3.323  17.153  0.0285 -0.1433 -0.1209
  730TMC3     H10793   4.077   3.527  17.251  1.2814  2.6249  1.9384
  730TMC3    H110794   3.683   3.348  17.271 -1.5161  0.2732  2.9928
  730TMC3    H210795   3.773   3.710  17.489  0.7932  0.9728 -0.6747
  730TMC3    C710796   3.580   3.520  17.452 -0.2293 -0.0593 -0.2424
  730TMC3    C810797   4.012   3.739  17.362  0.6575  0.2539  0.3882
  730TMC3    O110798   3.554   3.406  17.492 -0.5300  0.3620  0.0322
  730TMC3    O210799   4.130   3.731  17.380 -0.3636  0.0056 -0.2077
  731MPD2     C10800   3.314   1.248  12.798  0.5499 -0.1484 -0.0237
  731MPD2    C110801   3.382   1.135  12.846 -0.3924 -0.6255  0.0036
  731MPD2    C210802   3.417   1.139  12.980 -0.1720 -0.1166 -0.4714
  731MPD2    C310803   3.397   1.245  13.065 -0.2733  0.4848 -0.4011
  731MPD2    C410804   3.316   1.353  13.020  0.1076  0.9406 -0.3344
  731MPD2    C510805   3.282   1.354  12.881  0.1092 -0.9028  0.1772
  731MPD2     H10806   3.476   1.059  13.023  0.4266  1.1940  1.1852
  731MPD2    H110807   3.283   1.439  13.077 -2.1067 -0.3804  0.3903
  731MPD2    H210808   3.274   1.249  12.697 -0.3770  0.1573  0.3501
  731MPD2    H310809   3.225   1.438  12.843  1.2199  0.0299  0.5724
  731MPD2     N10810   3.460   1.232  13.192 -0.5125 -0.1759  0.1511
  731MPD2    H510811   3.495   1.143  13.227  1.3666  1.8894  3.5651
  731MPD2    N110812   3.410   1.033  12.755  0.7621  0.3915  0.1196
  731MPD2    H710813   3.396   1.055  12.657 -1.7096 -0.9536  0.1865
  732TMC3    C110814   3.535   0.844  12.680  0.1006  0.1338 -0.0910
  732TMC3    C210815   3.492   0.878  12.551  0.5158 -0.0057  0.2749
  732TMC3    C310816   3.567   0.842  12.443  0.2208 -0.5365 -0.5444
  732TMC3    C410817   3.651   0.775  12.695  0.2150  0.2577  0.7456
  732TMC3    C510818   3.732   0.751  12.588  0.7517 -0.6103 -0.3604
  732TMC3    C610819   3.693   0.789  12.459  0.4890 -0.0625  0.1454
  732TMC3     C10820   3.493   0.924  12.792  0.4041 -0.5090  0.9105
  732TMC3     O10821   3.542   0.887  12.897  0.4442  0.1799 -0.2283
  732TMC3     H10822   3.394   0.925  12.547  0.1687 -0.6542  1.1593
  732TMC3    H110823   3.684   0.749  12.795 -0.7556 -1.6712  0.5511
  732TMC3    H210824   3.767   0.778  12.380  1.0031  0.5986  0.5425
  732TMC3    C710825   3.859   0.802  12.615 -0.5930 -0.0852 -0.3748
  732TMC3    C810826   3.544   0.909  12.317 -0.1377  0.0148 -0.1356
  732TMC3    O110827   3.865   0.889  12.696 -0.2609 -0.2123  0.6553
  732TMC3    O210828   3.642   0.929  12.245  0.5132  0.1141 -0.5468
  733TMC3    C110829   4.205   0.089  12.692  0.4130  0.5459 -0.3948
  733TMC3    C210830   4.310   0.010  12.750 -0.1853 -0.7392 -0.6878
  733TMC3    C310831   4.422   4.712  12.682  0.2261  0.3882 -0.7155
  733TMC3    C410832   4.224   0.159  12.580  0.3286 -0.4769 -0.1535
  733TMC3    C510833   4.343   0.137  12.519 -0.1310 -0.0542 -0.5596
  733TMC3    C610834   4.438   0.044  12.560  0.0319 -0.6401 -0.5373
  733TMC3     C10835   4.079   0.106  12.764  1.0297 -0.3361 -0.0553
  733TMC3     O10836   4.032   0.213  12.729 -0.7679  0.1491  0.5133
  733TMC3     H10837   4.300   4.699  12.851 -1.1643  0.3014 -0.4056
  733TMC3    H110838   4.151   0.224  12.533  0.2290  0.1585  0.8720
  733TMC3    H210839   4.524   0.011  12.502 -0.3895 -1.2318 -0.8252
  733TMC3    C710840   4.416   0.262  12.496  0.3617 -1.1584  0.0529
  733TMC3    C810841   4.539   4.701  12.771 -0.7654  0.3790 -0.4753
  733TMC3    O110842   4.523   0.265  12.561  0.4063  0.2322  0.3254
  733TMC3    O210843   4.533   4.642  12.885 -0.0387  0.3747  0.1019
  734MPD2     C10844   1.700   2.374  12.014 -0.0024 -0.0516  0.6113
  734MPD2    C110845   1.577   2.352  11.955  0.0657  0.6375 -0.5508
  734MPD2    C210846   1.575   2.355  11.820 -0.1749 -0.1708 -0.0307
  734MPD2    C310847   1.688   2.380  11.740  0.5777  0.3878 -0.5403
  734MPD2    C410848   1.808   2.384  11.811  0.1896 -0.0195 -0.1760
  734MPD2    C510849   1.815   2.387  11.945 -0.4369 -0.1473 -0.5072
  734MPD2     H10850   1.483   2.351  11.763  0.9089  0.3449 -1.8261
  734MPD2    H110851   1.901   2.397  11.757  0.3138 -0.8686 -0.1660
  734MPD2    H210852   1.712   2.372  12.122  0.4649 -3.7828  0.4967
  734MPD2    H310853   1.908   2.401  11.999  1.1122 -4.5599 -2.0112
  734MPD2     N10854   1.687   2.378  11.601  0.1508  0.2731 -0.1057
  734MPD2    H510855   1.596   2.343  11.571 -0.0754  2.4364 -1.9077
  734MPD2    N110856   1.457   2.330  12.033  0.9640 -0.0996  0.0384
  734MPD2    H710857   1.468   2.336  12.134  2.8586 -0.0049 -0.1743
  735TMC3    C110858   1.296   2.173  12.082  0.6405 -0.4101  0.0736
  735TMC3    C210859   1.194   2.107  12.008  0.3836 -0.4701 -0.7998
  735TMC3    C310860   1.197   1.966  12.010 -0.0109  0.1052 -0.1009
  735TMC3    C410861   1.390   2.107  12.151  0.4946  0.3227 -0.3630
  735TMC3    C510862   1.401   1.972  12.135 -0.3452 -0.3633 -0.8202
  735TMC3    C610863   1.312   1.899  12.062 -0.4079  0.1267  0.5008
  735TMC3     C10864   1.341   2.273  11.986  0.3295  0.0185 -0.2561
  735TMC3     O10865   1.290   2.260  11.874 -0.2102  0.1657 -0.6413
  735TMC3     H10866   1.108   2.162  11.973  0.6266 -0.6079 -1.5991
  735TMC3    H110867   1.453   2.161  12.221  0.1548 -0.1721  0.3197
  735TMC3    H210868   1.332   1.793  12.053 -0.3454  0.1669  0.1332
  735TMC3    C710869   1.543   1.933  12.112  0.1725 -0.0777 -0.2481
  735TMC3    C810870   1.153   1.919  11.881 -0.9217  0.1833  0.1810
  735TMC3    O110871   1.608   2.016  12.053 -0.6427 -0.5872  0.0110
  735TMC3    O210872   1.123   1.801  11.875  0.2439  0.0820  0.5233
  736MPD2     C10873   1.698   1.613  12.209 -0.9090  0.0436  0.3467
  736MPD2    C110874   1.689   1.734  12.149 -1.0107 -0.4631 -0.6391
  736MPD2    C210875   1.795   1.775  12.075  0.4331 -0.2245 -0.5465
  736MPD2    C310876   1.918   1.713  12.077 -0.5216 -0.0415 -0.3803
  736MPD2    C410877   1.933   1.601  12.155 -0.0458 -0.3761 -0.3083
  736MPD2    C510878   1.817   1.544  12.211 -0.6519 -0.2875  0.1048
  736MPD2     H10879   1.783   1.852  12.000 -0.9512  2.0630  1.9954
  736MPD2    H110880   2.021   1.538  12.164  1.0529  1.5636  2.4177
  736MPD2    H210881   1.620   1.564  12.265 -1.8039  0.7040 -0.3364
  736MPD2    H310882   1.827   1.449  12.261  0.1191 -0.8728 -1.1566
  736MPD2     N10883   2.030   1.760  12.007  0.1419 -0.3143 -0.0105
  736MPD2    H510884   2.121   1.715  12.003  0.8511  1.3444 -2.7278
  736MPD2    N110885   1.568   1.807  12.164  0.3176 -0.0776 -0.6576
  736MPD2    H710886   1.491   1.766  12.216 -0.2400  1.1086 -0.5370
  737TMC3    C110887   2.133   1.899  11.845  0.5069 -0.4548  0.3239
  737TMC3    C210888   2.147   2.024  11.798 -0.1259  0.2019  0.0832
  737TMC3    C310889   2.208   2.040  11.684 -0.2165  0.8866 -0.0237
  737TMC3    C410890   2.196   1.791  11.789  0.3965 -0.0551  0.4712
  737TMC3    C510891   2.274   1.809  11.676 -0.5621 -0.3807 -0.2981
  737TMC3    C610892   2.277   1.937  11.624 -0.1311  0.1387  0.6039
  737TMC3     C10893   2.040   1.884  11.957  0.3140 -0.1326 -0.0916
  737TMC3     O10894   1.965   1.979  11.976  0.0995  0.1125 -0.0769
  737TMC3     H10895   2.093   2.105  11.847 -0.5984 -0.9162  1.4009
  737TMC3    H110896   2.186   1.691  11.830  0.5021 -0.9789 -1.7060
  737TMC3    H210897   2.325   1.950  11.527 -3.1808 -1.0885 -1.0698
  737TMC3    C710898   2.334   1.690  11.603 -0.2880  0.8607  0.0480
  737TMC3    C810899   2.203   2.155  11.602 -0.0958 -1.1249  0.3672
  737TMC3    O110900   2.318   1.582  11.659 -0.3344 -0.1044  0.3917
  737TMC3    O210901   2.211   2.267  11.648  0.7425  0.1282 -0.2487
  738MPD2     C10902   2.595   0.872  14.708  0.9224  0.0724  0.5132
  738MPD2    C110903   2.598   0.739  14.714 -0.1382  0.2282 -0.7073
  738MPD2    C210904   2.709   0.679  14.654  0.7513 -0.8145  0.3274
  738MPD2    C310905   2.817   0.748  14.606 -0.4569  0.4670 -0.0465
  738MPD2    C410906   2.807   0.889  14.604 -0.0683 -0.6670 -1.1105
  738MPD2    C510907   2.692   0.945  14.654  0.4838  0.8569 -0.5077
  738MPD2     H10908   2.707   0.571  14.662 -4.6683 -0.5767  2.2146
  738MPD2    H110909   2.892   0.947  14.570 -0.3340  0.4357  0.1093
  738MPD2    H210910   2.517   0.936  14.749 -0.4591 -1.6116  0.5246
  738MPD2    H310911   2.665   1.050  14.649  3.4253  1.4172 -4.9367
  738MPD2     N10912   2.943   0.693  14.560 -0.1232 -0.5563 -0.0753
  738MPD2    H510913   3.002   0.759  14.511 -2.0304  0.9159 -0.3779
  738MPD2    N110914   2.500   0.656  14.779 -0.1345 -0.6048  0.2683
  738MPD2    H710915   2.511   0.555  14.775 -1.7635 -0.7113 -1.5444
  739TMC3    C110916   3.119   0.532  14.522 -0.0110 -0.0750 -0.5320
  739TMC3    C210917   3.121   0.415  14.446 -0.1859 -0.8318  0.7599
  739TMC3    C310918   3.234   0.399  14.367 -0.8519  0.2293 -0.3037
  739TMC3    C410919   3.222   0.613  14.535  0.5323 -0.1678  0.2774
  739TMC3    C510920   3.323   0.602  14.437  0.2190  0.3312  0.2279
  739TMC3    C610921   3.331   0.491  14.355 -0.2386  0.2820 -0.1140
  739TMC3     C10922   2.984   0.561  14.582  0.3454 -0.0730  0.4801
  739TMC3     O10923   2.918   0.465  14.612 -0.3049  0.0435  0.7351
  739TMC3     H10924   3.049   0.336  14.460 -0.7284 -0.3670  0.5966
  739TMC3    H110925   3.215   0.691  14.609  1.3831 -0.7605  0.9952
  739TMC3    H210926   3.408   0.472  14.281  0.7035  1.8445  0.4893
  739TMC3    C710927   3.438   0.681  14.434 -0.2011 -0.3704  0.7353
  739TMC3    C810928   3.214   0.302  14.266 -0.3426  0.4134  0.4051
  739TMC3    O110929   3.541   0.636  14.387  0.0310 -0.0632 -0.4367
  739TMC3    O210930   3.309   0.255  14.211 -0.1106  0.0048 -0.4953
  740TMC3    C110931   3.632   1.990  14.287 -0.5649 -0.4846 -0.5402
  740TMC3    C210932   3.702   1.905  14.369 -0.7136  0.3922 -0.2574
  740TMC3    C310933   3.816   1.853  14.326 -0.2428 -0.4252  0.3358
  740TMC3    C410934   3.686   2.025  14.163 -0.0979 -0.2328 -0.1158
  740TMC3    C510935   3.805   1.964  14.127  0.3129  0.3894 -0.5059
  740TMC3    C610936   3.877   1.877  14.202 -0.6478  0.2657 -0.4955
  740TMC3     C10937   3.544   2.091  14.347  0.1596 -0.0364  0.7947
  740TMC3     O10938   3.556   2.207  14.305 -0.1017  0.4955  0.5894
  740TMC3     H10939   3.682   1.895  14.475 -0.1752 -1.8682 -0.3740
  740TMC3    H110940   3.637   2.098  14.099  2.5642  0.2027 -1.6867
  740TMC3    H210941   3.974   1.831  14.181 -0.9062 -1.1341  1.3905
  740TMC3    C710942   3.863   1.977  13.993 -0.4463  0.2456  0.0682
  740TMC3    C810943   3.874   1.750  14.407 -0.1552  0.0269 -0.7253
  740TMC3    O110944   3.976   1.930  13.975 -0.2382  0.3007  0.4442
  740TMC3    O210945   3.996   1.735  14.403  0.0159 -0.3438  0.1187
  741TMC3    C110946   2.977   0.953  14.009  0.0854 -0.2483 -0.2405
  741TMC3    C210947   2.876   0.923  14.093 -0.1664 -0.3726  0.2557
  741TMC3    C310948   2.861   0.996  14.207  0.6721  0.2880  0.5338
  741TMC3    C410949   3.056   1.064  14.031 -0.6059  0.0249  0.1681
  741TMC3    C510950   3.024   1.146  14.135  0.7296 -0.1064  0.7261
  741TMC3    C610951   2.931   1.114  14.229 -0.0038 -0.1016  0.5560
  741TMC3     C10952   2.964   0.899  13.875 -0.4012  0.1542 -0.0155
  741TMC3     O10953   2.868   0.825  13.857  0.0225 -0.2639  0.1566
  741TMC3     H10954   2.818   0.833  14.073 -0.5138  0.5774 -2.9315
  741TMC3    H110955   3.123   1.112  13.960 -1.7302 -0.0636 -0.9479
  741TMC3    H210956   2.912   1.175  14.316  2.4589  0.6353  0.5834
  741TMC3    C710957   3.087   1.273  14.133  0.5081  0.8284 -0.3332
  741TMC3    C810958   2.725   0.992  14.257 -0.2641  0.5665  0.4849
  741TMC3    O110959   3.197   1.289  14.081  0.1372 -0.1014 -0.2128
  741TMC3    O210960   2.674   1.095  14.299 -0.0067 -0.1302 -0.1907
  742TMC3    C110961   2.391   4.720  14.995 -0.0354 -0.0464  0.1559
  742TMC3    C210962   2.312   4.678  14.889  0.3028  0.1621  0.8466
  742TMC3    C310963   2.354   4.564  14.822  0.4663  0.8643 -0.2242
  742TMC3    C410964   2.494   4.649  15.048  0.1954  0.6355 -0.3944
  742TMC3    C510965   2.527   4.532  14.980 -0.4007 -0.0211 -0.4548
  742TMC3    C610966   2.469   4.494  14.863  0.3503  0.6179 -0.4116
  742TMC3     C10967   2.340   0.114  15.062 -0.3000  0.0770 -0.1273
  742TMC3     O10968   2.270   0.188  14.995  0.1112  0.4069 -0.3848
  742TMC3     H10969   2.247   0.020  14.836 -0.0994 -2.8500 -2.5914
  742TMC3    H110970   2.560   4.683  15.127  1.8723  4.0469 -3.2414
  742TMC3    H210971   2.504   4.406  14.811 -0.4791 -0.5279  0.9634
  742TMC3    C710972   2.624   4.447  15.040  0.0985  0.1990 -0.0083
  742TMC3    C810973   2.275   4.495  14.726 -0.2720  0.4819  1.3130
  742TMC3    O110974   2.668   4.355  14.967  0.0864  0.0040  0.6261
  742TMC3    O210975   2.336   4.405  14.670 -0.6470 -0.3492  0.3255
  743MPD2     C10976   1.887   0.867   1.710  0.0260  0.4003  0.5488
  743MPD2    C110977   1.873   0.903   1.578  0.2790  0.3079 -0.4195
  743MPD2    C210978   1.962   0.995   1.532 -0.8942 -0.2346  0.2848
  743MPD2    C310979   2.070   1.043   1.609 -0.2031 -0.0816 -0.0070
  743MPD2    C410980   2.086   1.002   1.740  0.0151  0.0176  0.2223
  743MPD2    C510981   1.989   0.919   1.788 -0.3867 -0.2057 -0.2341
  743MPD2     H10982   1.953   1.028   1.429  1.8561 -0.4099 -0.0047
  743MPD2    H110983   2.166   1.041   1.801 -0.4144 -1.3012  1.6391
  743MPD2    H210984   1.817   0.794   1.750 -0.3013  1.5210  2.0349
  743MPD2    H310985   1.992   0.869   1.884 -2.3452 -0.1320 -0.1459
  743MPD2     N10986   2.150   1.139   1.545 -0.1420  0.4435  0.0031
  743MPD2    H510987   2.124   1.168   1.451 -1.6590  1.4039  0.7176
  743MPD2    N110988   1.763   0.855   1.507 -0.4802  0.0153  0.3126
  743MPD2    H710989   1.694   0.796   1.553  0.7245 -0.9400  0.9078
  744TMC3    C110990   1.608   0.841   1.341  0.8742 -0.2859  1.4818
  744TMC3    C210991   1.519   0.821   1.438  0.2003 -0.2230 -0.0153
  744TMC3    C310992   1.388   0.815   1.407 -0.4677 -0.2936 -0.2569
  744TMC3    C410993   1.570   0.837   1.207 -0.1385  0.8244 -0.3720
  744TMC3    C510994   1.435   0.828   1.175  0.3718  0.3467 -0.4129
  744TMC3    C610995   1.345   0.824   1.280 -0.3891 -0.0176 -0.0807
  744TMC3     C10996   1.738   0.883   1.377  0.4292 -0.1169  0.1915
  744TMC3     O10997   1.805   0.943   1.295 -0.4618 -0.2389 -0.0034
  744TMC3     H10998   1.554   0.842   1.539 -2.1256 -2.3896  1.2455
  744TMC3    H110999   1.651   0.859   1.139  0.5398 -1.9859 -0.4668
  744TMC3    H211000   1.238   0.835   1.267 -0.3470 -0.7528 -1.0212
  744TMC3    C711001   1.387   0.869   1.045  0.0760  0.1828 -0.1239
  744TMC3    C811002   1.294   0.842   1.513 -0.3178 -0.6413  0.5655
  744TMC3    O111003   1.265   0.901   1.038 -0.2544  1.0513 -0.0181
  744TMC3    O211004   1.187   0.898   1.479  0.3165  0.1637 -0.5345
  745TMC3    C111005   2.757   4.231  12.990  0.6434 -0.1325  0.2578
  745TMC3    C211006   2.644   4.159  13.029  0.1364 -0.2336  0.6297
  745TMC3    C311007   2.521   4.222  13.024  0.6921  0.4310 -0.3198
  745TMC3    C411008   2.748   4.363  12.977 -0.8893  0.2305  0.5402
  745TMC3    C511009   2.624   4.421  12.968 -0.1739 -0.4775 -0.2804
  745TMC3    C611010   2.507   4.350  12.984  0.3344 -0.8820  0.1251
  745TMC3     C11011   2.891   4.177  13.017 -0.5744 -0.3507  0.0045
  745TMC3     O11012   2.934   4.078  12.959 -0.7766 -0.2562 -0.2222
  745TMC3     H11013   2.667   4.058  13.062 -0.8932 -0.1426  1.6478
  745TMC3    H111014   2.833   4.424  12.946 -1.2879  0.5475  0.0541
  745TMC3    H211015   2.411   4.400  12.984  0.6402 -0.3126 -1.4544
  745TMC3    C711016   2.605   4.554  12.918 -0.1422  0.4924  0.1274
  745TMC3    C811017   2.426   4.169  13.118 -0.7155 -0.2101  0.6169
  745TMC3    O111018   2.499   4.580  12.863  0.2342  0.4233 -0.0245
  745TMC3    O211019   2.312   4.216  13.125 -0.0499  0.3315  0.2792
  746TMC3    C111020   0.711   0.861  10.791  0.0800  0.1057 -0.1538
  746TMC3    C211021   0.684   0.814  10.663 -0.4434 -0.3359 -0.4477
  746TMC3    C311022   0.661   0.679  10.651  0.3088 -0.0523  0.0891
  746TMC3    C411023   0.727   0.777  10.898 -0.1215 -0.0085  0.2625
  746TMC3    C511024   0.712   0.641  10.884 -0.2073 -0.3811 -0.3086
  746TMC3    C611025   0.661   0.594  10.762  0.2005 -1.1308  0.1523
  746TMC3     C11026   0.697   0.992  10.826 -0.0835 -0.6828  0.2626
  746TMC3     O11027   0.728   1.010  10.945  0.0208  0.9951 -0.3602
  746TMC3     H11028   0.673   0.884  10.581 -0.2143  0.2763  0.0365
  746TMC3    H111029   0.769   0.795  10.996 -2.2575 -1.9715  1.5370
  746TMC3    H211030   0.623   0.492  10.765  1.0580 -1.4683 -0.5371
  746TMC3    C711031   0.635   0.582  10.993  0.8433 -0.3367 -0.6303
  746TMC3    C811032   0.621   0.634  10.522  0.6739 -0.9907  0.2653
  746TMC3    O111033   0.514   0.568  10.967  0.2797 -0.1222 -0.0752
  746TMC3    O211034   0.570   0.524  10.516 -0.2816 -0.3415 -0.3683
  747TMC3    C111035   2.924   1.773  10.738  0.0365 -0.1046  0.5581
  747TMC3    C211036   2.850   1.689  10.817  0.1753  0.6601 -0.1270
  747TMC3    C311037   2.857   1.717  10.948 -0.4606 -0.2977  0.3701
  747TMC3    C411038   3.015   1.868  10.779 -0.0186  0.6191  0.1748
  747TMC3    C511039   3.027   1.878  10.916 -0.1020  0.0673  0.5822
  747TMC3    C611040   2.946   1.806  11.000 -0.6283  0.1027  0.6560
  747TMC3     C11041   2.943   1.745  10.598  0.3306 -0.2668  0.0898
  747TMC3     O11042   3.051   1.781  10.556 -0.9358 -0.1312 -0.5917
  747TMC3     H11043   2.786   1.616  10.768 -1.9729  1.9169  0.8042
  747TMC3    H111044   3.041   1.941  10.704  1.8478 -0.3034 -0.0734
  747TMC3    H211045   2.965   1.808  11.107  1.7501  1.8263  0.2053
  747TMC3    C711046   3.112   1.980  10.977 -0.2691  0.0825 -0.8189
  747TMC3    C811047   2.796   1.627  11.038 -0.6889 -0.8977  0.4544
  747TMC3    O111048   3.080   2.015  11.089  0.0023  0.3409  0.8161
  747TMC3    O211049   2.847   1.514  11.041  0.3077  0.6865  0.4593
  748MPD2     C11050   4.175   2.900   1.485 -0.8758 -0.1487  0.0365
  748MPD2    C111051   4.220   2.797   1.566 -0.1428  0.5902  0.2234
  748MPD2    C211052   4.351   2.768   1.564 -0.5947 -0.3723 -0.1662
  748MPD2    C311053   4.443   2.840   1.482  0.3161 -0.8505  0.1552
  748MPD2    C411054   4.389   2.941   1.406 -0.2919 -0.6131  0.0379
  748MPD2    C511055   4.260   2.965   1.400  0.3999 -0.3724 -0.1895
  748MPD2     H11056   4.390   2.676   1.608  2.0883  1.3458  1.0688
  748MPD2    H111057   4.446   3.008   1.343 -1.7613 -0.1633 -0.8106
  748MPD2    H211058   4.070   2.924   1.480 -1.0605 -0.9068  0.3158
  748MPD2    H311059   4.220   3.045   1.338  2.5009  1.4726  0.8233
  748MPD2     N11060   4.579   2.796   1.493  0.0990 -0.3146 -0.3009
  748MPD2    H511061   4.594   2.727   1.566  0.5217  0.6071  0.4890
  748MPD2    N111062   4.119   2.720   1.634  0.0940 -0.0645 -0.3435
  748MPD2    H711063   4.024   2.754   1.621  0.2509  0.1724 -0.8959
  749TMC3    C111064   0.084   2.785   1.423  1.0536  0.2346 -0.4057
  749TMC3    C211065   0.115   2.691   1.525  0.4606 -0.5263 -0.4759
  749TMC3    C311066   0.235   2.630   1.520 -0.0262 -0.0043  0.0586
  749TMC3    C411067   0.177   2.816   1.328 -0.0495 -0.1704  0.0741
  749TMC3    C511068   0.302   2.758   1.337  0.3609  0.2875 -0.0199
  749TMC3    C611069   0.336   2.662   1.429  0.1092 -0.1043 -0.2672
  749TMC3     C11070   4.678   2.844   1.414 -0.0272  0.1606  0.0078
  749TMC3     O11071   4.673   2.950   1.351  0.8304  0.6454 -0.3551
  749TMC3     H11072   0.035   2.654   1.589 -0.0399  0.7184 -0.3832
  749TMC3    H111073   0.155   2.889   1.251 -0.2015  1.2978  1.5090
  749TMC3    H211074   0.432   2.613   1.422 -0.8524 -1.6716 -2.4653
  749TMC3    C711075   0.372   2.740   1.221  0.5210  0.7042  0.3061
  749TMC3    C811076   0.260   2.530   1.621  0.2045 -0.3437 -0.2239
  749TMC3    O111077   0.494   2.723   1.237 -0.2626  0.0905 -0.4798
  749TMC3    O211078   0.201   2.543   1.728 -0.6181  0.0521 -0.0307
  750MPD2     C11079   0.652   2.979  10.744 -0.9164  0.3936  0.8313
  750MPD2    C111080   0.587   2.873  10.815  1.3586 -0.4343  0.1816
  750MPD2    C211081   0.514   2.768  10.750  0.1661  0.2945  0.3262
  750MPD2    C311082   0.502   2.781  10.613  0.4142  0.4777 -0.5616
  750MPD2    C411083   0.565   2.882  10.541  0.3622 -0.0405 -0.2386
  750MPD2    C511084   0.642   2.981  10.605 -0.0664 -0.1220  0.4456
  750MPD2     H11085   0.471   2.689  10.810 -2.0807  2.4097  1.4879
  750MPD2    H111086   0.570   2.890  10.433 -0.5490 -1.5604 -0.4108
  750MPD2    H211087   0.699   3.056  10.805 -2.2210  1.4909  0.4465
  750MPD2    H311088   0.687   3.072  10.566  0.1173 -0.6922 -0.6659
  750MPD2     N11089   0.442   2.679  10.534 -0.1056  0.3162  0.2542
  750MPD2    H511090   0.456   2.678  10.434 -0.9741 -0.3041  0.1356
  750MPD2    N111091   0.601   2.878  10.952 -0.0524 -0.4124 -0.5637
  750MPD2    H711092   0.684   2.929  10.979  0.6799 -1.9945  0.1786
  751TMC3    C111093   0.356   2.450  10.520 -0.6728  0.0531  0.3086
  751TMC3    C211094   0.290   2.351  10.587  0.0932 -0.1545  0.1218
  751TMC3    C311095   0.282   2.232  10.517 -0.2219 -0.1024 -0.4846
  751TMC3    C411096   0.416   2.433  10.394  0.4332 -0.3526 -0.1148
  751TMC3    C511097   0.386   2.325  10.324  0.1072 -0.4226 -0.2406
  751TMC3    C611098   0.324   2.217  10.390  0.5455  0.2441 -0.2652
  751TMC3     C11099   0.378   2.577  10.596 -0.0471 -0.5339 -0.3198
  751TMC3     O11100   0.333   2.567  10.710 -0.3350 -0.6927 -0.4043
  751TMC3     H11101   0.224   2.361  10.673  0.8685  0.9508  0.5870
  751TMC3    H111102   0.456   2.520  10.343  1.3717  0.2362  1.6338
  751TMC3    H211103   0.330   2.116  10.351  1.0954  0.3226 -0.3928
  751TMC3    C711104   0.460   2.311  10.199 -1.2031  0.3911  0.0804
  751TMC3    C811105   0.216   2.117  10.580  0.9423 -0.2263  0.1016
  751TMC3    O111106   0.554   2.388  10.188 -0.2083  0.2504 -0.5810
  751TMC3    O211107   0.261   2.014  10.536  0.6205  0.4775  0.2388
  752TMC3    C111108   4.118   3.272  17.555  0.5865 -0.0899  0.0921
  752TMC3    C211109   4.103   3.153  17.493  0.2668 -1.1137  0.8704
  752TMC3    C311110   3.979   3.095  17.499  0.3804  0.0666  0.1998
  752TMC3    C411111   4.007   3.335  17.604  0.5393 -0.0437 -0.8686
  752TMC3    C511112   3.890   3.274  17.617 -0.8408  0.3172  0.0735
  752TMC3    C611113   3.876   3.146  17.568  0.6890 -0.3413 -0.4696
  752TMC3     C11114   4.224   3.358  17.510 -1.0908  0.1752 -0.5835
  752TMC3     O11115   4.263   3.435  17.597 -0.1949  0.0601  0.4615
  752TMC3     H11116   4.186   3.089  17.465 -1.2500 -3.0092  0.6718
  752TMC3    H111117   4.011   3.439  17.637  0.8566  0.1868 -1.6509
  752TMC3    H211118   3.787   3.083  17.575  0.4162  0.3318  2.3329
  752TMC3    C711119   3.795   3.325   0.009 -0.0876  0.3467  0.4091
  752TMC3    C811120   3.975   2.959  17.454 -0.4119 -0.5771 -0.5052
  752TMC3    O111121   3.799   3.444   0.035 -0.0341 -0.3527 -0.3969
  752TMC3    O211122   4.040   2.933  17.352  0.5536  0.5544 -0.1191
  753TMC3    C111123   1.393   4.073  13.220 -0.3269  0.3357  0.0203
  753TMC3    C211124   1.457   4.088  13.344  0.4038  0.0705  0.1217
  753TMC3    C311125   1.538   3.984  13.384 -0.3276  0.1393 -0.0842
  753TMC3    C411126   1.415   3.965  13.136 -0.0431 -0.0340  0.5895
  753TMC3    C511127   1.495   3.870  13.181 -0.6735  0.4560  0.0310
  753TMC3    C611128   1.569   3.883  13.303 -0.1297  0.0128 -0.0526
  753TMC3     C11129   1.289   4.173  13.181 -0.5346 -0.6208  0.6921
  753TMC3     O11130   1.212   4.143  13.088  0.7148 -0.3165  0.5284
  753TMC3     H11131   1.414   4.161  13.411  0.8512  0.2449  0.2201
  753TMC3    H111132   1.352   3.957  13.048 -0.5199  0.0808  0.9210
  753TMC3    H211133   1.633   3.800  13.331 -0.7627 -0.2733  0.5277
  753TMC3    C711134   1.483   3.730  13.142  0.4338 -0.2809  0.3813
  753TMC3    C811135   1.559   3.951  13.522  0.0302 -0.2205  0.3474
  753TMC3    O111136   1.582   3.661  13.169 -0.0551 -0.4024  0.1635
  753TMC3    O211137   1.577   3.832  13.545  0.3161  0.1372 -0.2607
  754MPD2     C11138   0.494   3.227  12.278  0.6519  0.6830 -1.0854
  754MPD2    C111139   0.471   3.094  12.308 -0.0716  1.0832 -0.3533
  754MPD2    C211140   0.353   3.028  12.277 -0.5186  0.1141  0.4975
  754MPD2    C311141   0.261   3.097  12.200  0.0442  0.4208 -0.4778
  754MPD2    C411142   0.282   3.231  12.165 -0.6920 -0.4157 -0.3773
  754MPD2    C511143   0.400   3.293  12.201  0.4685 -0.4638 -0.2310
  754MPD2     H11144   0.325   2.936  12.326 -4.0041  0.2675 -1.2083
  754MPD2    H111145   0.206   3.288  12.114  0.6857  0.0045 -1.9481
  754MPD2    H211146   0.589   3.269  12.309  0.7304  0.4000 -0.9355
  754MPD2    H311147   0.429   3.393  12.173 -0.5683  0.1817  0.9930
  754MPD2     N11148   0.134   3.046  12.165  0.1906  0.0272 -0.0825
  754MPD2    H511149   0.075   3.107  12.108  0.8530 -0.3520 -1.1661
  754MPD2    N111150   0.559   3.027  12.395  0.7017 -0.2422 -0.9242
  754MPD2    H711151   0.630   3.078  12.446  1.0083 -0.4635 -1.1285
  755MPD2     C11152   3.953   3.345  12.360  0.1848 -0.1508 -0.3813
  755MPD2    C111153   4.079   3.340  12.417 -0.0541 -0.1518 -0.5361
  755MPD2    C211154   4.173   3.255  12.362 -0.0354  0.1851 -0.3714
  755MPD2    C311155   4.151   3.187  12.244 -0.7139 -0.3279  0.3293
  755MPD2    C411156   4.018   3.191  12.190 -0.4146  0.0333  0.3224
  755MPD2    C511157   3.922   3.270  12.251  0.3090 -0.1536 -0.8366
  755MPD2     H11158   4.269   3.251  12.411 -0.1153  0.9458 -0.1474
  755MPD2    H111159   3.990   3.137  12.101  1.5509 -0.5183  0.0366
  755MPD2    H211160   3.873   3.409  12.395  2.3686  1.1318  2.1787
  755MPD2    H311161   3.821   3.278  12.214  0.8075  0.9228 -2.0036
  755MPD2     N11162   4.251   3.117  12.174 -0.7260 -0.4290 -0.2773
  755MPD2    H511163   4.221   3.069  12.089 -0.4846  0.3001 -0.7733
  755MPD2    N111164   4.105   3.406  12.537 -0.0036  0.4482 -0.3626
  755MPD2    H711165   4.200   3.407  12.572  0.0555  0.8139 -0.5271
  756MPD2     C11166   4.670   4.182   9.171 -0.8961  0.0560 -0.5725
  756MPD2    C111167   4.613   4.059   9.185 -0.0762  1.3585 -0.2674
  756MPD2    C211168   4.491   4.028   9.127  0.2957 -0.1753 -0.5266
  756MPD2    C311169   4.424   4.131   9.070  0.1902  0.2875  0.4895
  756MPD2    C411170   4.487   4.251   9.038  0.0283 -0.0718 -0.0840
  756MPD2    C511171   4.609   4.277   9.098 -0.3530  0.0389  0.4185
  756MPD2     H11172   4.453   3.927   9.141  0.6670 -0.1979  0.3214
  756MPD2    H111173   4.444   4.338   8.989  0.2603 -0.6195 -1.2522
  756MPD2    H211174   0.040   4.205   9.215 -1.7208  0.2484  1.1084
  756MPD2    H311175   4.667   4.367   9.081 -0.8570  0.1423 -0.7660
  756MPD2     N11176   4.296   4.101   9.023 -0.3997  0.4857 -0.2808
  756MPD2    H511177   4.258   4.011   9.047 -1.0553  0.7068 -0.4991
  756MPD2    N111178   4.691   3.953   9.241  0.0632  0.4049  0.2139
  756MPD2    H711179   4.645   3.866   9.266 -0.3063  0.1872 -1.2669
  757MPD2     C11180   3.799   3.530   9.458 -0.3558  0.2565 -0.1140
  757MPD2    C111181   3.869   3.515   9.347 -0.0932  1.0546  0.4436
  757MPD2    C211182   3.889   3.623   9.257  0.0616 -0.2955  0.5418
  757MPD2    C311183   3.845   3.753   9.293  0.2919  0.1061  0.1303
  757MPD2    C411184   3.788   3.768   9.416 -0.0680 -0.6011  0.7425
  757MPD2    C511185   3.764   3.660   9.495 -0.1483 -0.5110  0.1121
  757MPD2     H11186   3.941   3.607   9.164  1.3914  0.3211  1.1649
  757MPD2    H111187   3.751   3.870   9.426  0.2914 -0.1442 -2.4287
  757MPD2    H211188   3.766   3.443   9.514  3.1927 -1.2142 -0.2808
  757MPD2    H311189   3.713   3.683   9.588 -1.6031 -0.4695 -0.7146
  757MPD2     N11190   3.888   3.858   9.207  0.5583  0.3187  0.1442
  757MPD2    H511191   3.929   3.836   9.117  1.2220  1.4432  0.1645
  757MPD2    N111192   3.916   3.383   9.327 -0.2444 -0.8667 -0.3207
  757MPD2    H711193   3.887   3.313   9.396  0.4143  0.5224  1.3689
  758MPD2     C11194   0.309   2.763  15.843  0.4508  0.0005 -0.3962
  758MPD2    C111195   0.389   2.664  15.904 -0.3446  0.4978 -0.0408
  758MPD2    C211196   0.319   2.571  15.987 -0.7283 -0.3023 -0.8683
  758MPD2    C311197   0.178   2.575  16.001 -0.1701 -0.4885 -0.6791
  758MPD2    C411198   0.104   2.674  15.943 -0.3291  0.1902  0.4881
  758MPD2    C511199   0.175   2.766  15.873 -0.0191  0.3260 -0.1997
  758MPD2     H11200   0.374   2.490  16.034  0.5824  1.7130  1.0666
  758MPD2    H111201   4.726   2.694  15.963 -0.6906  0.4908 -1.7628
  758MPD2    H211202   0.353   2.832  15.772  0.0352  0.0530 -0.6004
  758MPD2    H311203   0.123   2.852  15.831 -0.8454  0.0670  0.3065
  758MPD2     N11204   0.111   2.491  16.097 -0.0006  0.0508  0.1826
  758MPD2    H511205   0.015   2.517  16.118 -0.3494 -0.0007 -1.3422
  758MPD2    N111206   0.522   2.652  15.876  0.1467  0.8276 -0.3497
  758MPD2    H711207   0.557   2.692  15.790 -0.9645  0.5925 -0.9079
  759MPD2     C11208   3.915   0.162  10.274  0.9267  1.0243  0.6272
  759MPD2    C111209   3.893   0.218  10.399 -0.6045  0.2306  0.3481
  759MPD2    C211210   3.890   0.359  10.400  0.1403 -0.6079 -0.1688
  759MPD2    C311211   3.901   0.436  10.284 -0.1360  0.2195 -0.6389
  759MPD2    C411212   3.921   0.377  10.159  0.1963  0.3413  0.5168
  759MPD2    C511213   3.929   0.238  10.158  0.0705 -0.2890  0.2321
  759MPD2     H11214   3.871   0.414  10.492 -2.4178 -0.1154 -1.0068
  759MPD2    H111215   3.932   0.433  10.067  2.8828  2.0143  1.8305
  759MPD2    H211216   3.921   0.055  10.255 -0.5048  1.2409 -1.1568
  759MPD2    H311217   3.950   0.197  10.060 -0.0797 -0.3023  0.2063
  759MPD2     N11218   3.891   0.573  10.289  0.1151 -0.1635  0.6863
  759MPD2    H511219   3.866   0.610  10.380  1.3745  0.9687  0.5754
  759MPD2    N111220   3.870   0.144  10.519 -0.8610  0.9458  0.8401
  759MPD2    H711221   3.836   0.196  10.599 -0.1171  0.8724  1.2057
  760MPD2     C11222   3.133   3.254  11.754 -0.2583 -0.5952  0.2404
  760MPD2    C111223   3.239   3.180  11.707 -0.3850 -0.0785 -0.0700
  760MPD2    C211224   3.283   3.070  11.776  0.0387  0.3466 -0.3065
  760MPD2    C311225   3.254   3.051  11.909  0.5255  0.3080  0.3212
  760MPD2    C411226   3.164   3.141  11.966  0.4404  0.8379  0.3923
  760MPD2    C511227   3.103   3.239  11.892  0.1792  0.2863  0.1270
  760MPD2     H11228   3.354   3.005  11.726 -0.4476 -1.2550  1.1238
  760MPD2    H111229   3.132   3.142  12.069 -0.4482 -0.6737  0.1381
  760MPD2    H211230   3.085   3.331  11.694  1.1540  1.0436  1.2054
  760MPD2    H311231   3.029   3.297  11.946  0.3395  1.5850 -1.0463
  760MPD2     N11232   3.307   2.949  11.991 -0.8871 -1.2133 -0.7875
  760MPD2    H511233   3.270   2.954  12.086 -0.0292  0.9695 -0.5566
  760MPD2    N111234   3.297   3.198  11.579  0.1726 -0.4313  0.3253
  760MPD2    H711235   3.365   3.131  11.546  0.5837  0.4955 -0.6931
  761MPD2     C11236   4.627   1.842  10.890  0.6103 -0.0468 -0.7767
  761MPD2    C111237   4.713   1.804  10.787  0.0419  0.0381  0.0972
  761MPD2    C211238   0.052   1.901  10.717  0.5538  0.7911  0.1206
  761MPD2    C311239   0.032   2.034  10.737 -0.9754  0.2608 -0.1092
  761MPD2    C411240   4.674   2.071  10.837 -0.6929 -0.7881  0.7172
  761MPD2    C511241   4.617   1.978  10.918  0.2481 -0.2830 -0.2093
  761MPD2     H11242   0.108   1.873  10.629 -1.3294 -1.0725 -0.4898
  761MPD2    H111243   4.653   2.175  10.861 -1.8780 -0.8740  0.0318
  761MPD2    H211244   4.557   1.782  10.947  1.2370 -1.1095 -1.1166
  761MPD2    H311245   4.553   2.009  11.000  0.3924 -0.2039 -0.1265
  761MPD2     N11246   0.104   2.141  10.665 -0.4506  0.4492 -0.2622
  761MPD2    H511247   0.070   2.235  10.680 -0.3897  0.4940 -0.3967
  761MPD2    N111248   4.721   1.662  10.763  0.0174 -0.3524 -0.7901
  761MPD2    H711249   4.660   1.600  10.814 -0.4408  0.2937 -0.5535
  762MPD2     C11250   0.083   1.528  10.047  0.0959  0.5138  0.0250
  762MPD2    C111251   0.125   1.414  10.107 -0.3268  0.4696  0.2273
  762MPD2    C211252   0.220   1.325  10.048 -0.1200  0.2691 -0.3139
  762MPD2    C311253   0.285   1.368   9.932  0.1775 -0.1286  0.1900
  762MPD2    C411254   0.256   1.497   9.884  0.4657  0.4231 -0.3086
  762MPD2    C511255   0.152   1.571   9.941 -0.3829  0.7119  0.7657
  762MPD2     H11256   0.233   1.225  10.086 -0.2935  0.2448 -0.3191
  762MPD2    H111257   0.308   1.554   9.808 -0.7588  1.9578 -0.0100
  762MPD2    H211258   0.007   1.592  10.089 -0.2188 -1.3282  2.3102
  762MPD2    H311259   0.129   1.668   9.898 -0.5100 -0.1079 -1.0164
  762MPD2     N11260   0.400   1.293   9.887 -0.7482 -0.3721 -0.1791
  762MPD2    H511261   0.430   1.210   9.937 -1.1610  0.1281  0.8907
  762MPD2    N111262   0.056   1.384  10.227 -0.1519  0.3365 -0.4455
  762MPD2    H711263   4.699   1.437  10.249 -1.0117 -0.7466 -1.0428
  763MPD2     C11264   2.470   1.840  16.199  0.1790  0.0976  0.8567
  763MPD2    C111265   2.402   1.957  16.169  0.6316 -0.6717  0.2639
  763MPD2    C211266   2.416   2.073  16.245  0.0250 -0.2374 -0.4478
  763MPD2    C311267   2.484   2.057  16.368 -0.4152  0.7426  0.7342
  763MPD2    C411268   2.552   1.943  16.396  0.0973 -0.6459  0.0459
  763MPD2    C511269   2.553   1.842  16.306 -0.3326 -0.3542  0.0143
  763MPD2     H11270   2.378   2.170  16.216 -0.5247 -0.3624 -0.1360
  763MPD2    H111271   2.624   1.937  16.478  0.7720 -1.2597 -0.5870
  763MPD2    H211272   2.470   1.749  16.141  2.3071  0.0312  0.9342
  763MPD2    H311273   2.599   1.746  16.324 -0.1398  0.0587  1.6619
  763MPD2     N11274   2.500   2.167  16.454  0.4336  0.8804 -0.7599
  763MPD2    H511275   2.566   2.156  16.531 -2.5092 -1.7208  1.3703
  763MPD2    N111276   2.332   1.970  16.048 -0.1507 -0.1267 -0.4484
  763MPD2    H711277   2.290   2.062  16.035  1.3126  0.8073  1.4846
  764MPD2     C11278   4.563   4.175  17.393  0.4319  0.3567  0.6602
  764MPD2    C111279   4.492   4.091  17.301 -0.4722  0.4777  0.6695
  764MPD2    C211280   4.423   3.983  17.355  0.1927  0.9126  0.2464
  764MPD2    C311281   4.434   3.946  17.489  0.0482 -0.7360  0.7269
  764MPD2    C411282   4.501   4.023  17.574 -0.2961 -1.3786 -0.2951
  764MPD2    C511283   4.567   4.135  17.530 -0.3388 -0.4311  0.0208
  764MPD2     H11284   4.377   3.912  17.288  2.4307 -1.6154  1.3862
  764MPD2    H111285   4.511   4.010  17.682  0.1883  0.9127 -0.0548
  764MPD2    H211286   4.616   4.264  17.362  0.8145 -0.7249 -1.7375
  764MPD2    H311287   4.625   4.196  17.598  2.0323 -1.5821 -0.9639
  764MPD2     N11288   4.345   3.849  17.532  0.0956  0.2861  0.7216
  764MPD2    H511289   4.281   3.800  17.471  0.6848  1.2801 -0.7042
  764MPD2    N111290   4.488   4.124  17.163 -0.2077  0.4850  0.5400
  764MPD2    H711291   4.443   4.052  17.106  1.1281  0.1169 -0.0625
  765MPD2     C11292   0.082   1.780  15.680  0.3590  0.1950  0.3370
  765MPD2    C111293   0.107   1.914  15.657 -0.3946 -0.5051 -0.0628
  765MPD2    C211294   0.222   1.946  15.586 -0.0491  0.2390  0.3944
  765MPD2    C311295   0.311   1.845  15.544 -0.1919 -0.1216  0.5546
  765MPD2    C411296   0.285   1.716  15.582  0.5668  0.0554 -0.2054
  765MPD2    C511297   0.164   1.683  15.645 -0.2377 -0.1244  0.1871
  765MPD2     H11298   0.238   2.048  15.552  0.1831 -0.6047 -2.0093
  765MPD2    H111299   0.357   1.641  15.551  1.2329 -0.3745  2.3478
  765MPD2    H211300   4.714   1.749  15.724 -0.0248 -0.3481 -0.8828
  765MPD2    H311301   0.126   1.582  15.658  1.4309 -0.6831  0.6269
  765MPD2     N11302   0.424   1.883  15.466  0.1546 -0.6436  0.0249
  765MPD2    H511303   0.437   1.982  15.447 -0.4105 -0.4226  0.7861
  765MPD2    N111304   0.016   2.006  15.706 -0.0975  0.9376  0.1786
  765MPD2    H711305   4.667   1.970  15.764  1.4033 -0.8215  1.0245
  766MPD2     C11306   4.182   2.074  15.375 -0.3333 -0.0403  0.1830
  766MPD2    C111307   4.301   2.137  15.362 -0.1001  0.8149  0.0226
  766MPD2    C211308   4.363   2.137  15.242  0.1450 -0.0436  0.4962
  766MPD2    C311309   4.296   2.088  15.129  0.8881  1.1717  0.4160
  766MPD2    C411310   4.165   2.041  15.139  0.0479  0.8042 -0.3527
  766MPD2    C511311   4.112   2.026  15.266 -0.0118 -0.1913  0.6804
  766MPD2     H11312   4.456   2.192  15.235 -0.0123  0.2740  0.8764
  766MPD2    H111313   4.115   1.993  15.056 -1.1245  0.0449  0.7961
  766MPD2    H211314   4.138   2.065  15.473 -0.7104 -0.0648  0.0119
  766MPD2    H311315   4.021   1.966  15.266 -0.3676  0.3449 -0.1969
  766MPD2     N11316   4.349   2.094  15.002 -0.3174  0.4991  0.3625
  766MPD2    H511317   4.286   2.080  14.924 -0.6326  2.1935  0.2964
  766MPD2    N111318   4.378   2.180  15.474 -0.1542 -0.0692  0.4385
  766MPD2    H711319   4.473   2.190  15.439  0.3516 -1.1732  1.4956
  767MPD2     C11320   3.980   2.365  15.071  0.0171 -0.2176 -0.0046
  767MPD2    C111321   4.096   2.392  14.999  0.1213  0.1281  0.9282
  767MPD2    C211322   4.106   2.370  14.859  0.4954 -0.0505 -0.4687
  767MPD2    C311323   3.993   2.313  14.794  0.3647  0.1722 -0.1592
  767MPD2    C411324   3.881   2.281  14.863 -0.0387 -0.1218 -0.0666
  767MPD2    C511325   3.874   2.313  14.997  0.9277  0.1732  0.7268
  767MPD2     H11326   4.193   2.384  14.796 -0.1415  2.1046 -0.8820
  767MPD2    H111327   3.794   2.234  14.819  0.1495  0.2509 -0.8543
  767MPD2    H211328   3.977   2.370  15.179 -0.1712  1.5118 -0.0883
  767MPD2    H311329   3.775   2.310  15.041  1.6132  0.8709  2.3132
  767MPD2     N11330   4.012   2.277  14.661 -0.2351 -0.3642  0.0143
  767MPD2    H511331   4.106   2.285  14.624 -0.0260  0.5124  0.7348
  767MPD2    N111332   4.204   2.441  15.077 -0.4694  0.5800 -0.0001
  767MPD2    H711333   4.203   2.460  15.177  1.2086 -1.3526  0.3924
  768MPD2     C11334   0.371   0.188  11.033 -0.1874 -0.6805  0.3439
  768MPD2    C111335   0.393   0.113  11.142 -0.0738 -0.1839 -0.0768
  768MPD2    C211336   0.522   0.091  11.184  0.6207 -1.0158  0.1465
  768MPD2    C311337   0.631   0.129  11.111  0.2575 -0.8553  0.2930
  768MPD2    C411338   0.610   0.195  10.995  0.4906 -0.3094 -0.2248
  768MPD2    C511339   0.482   0.221  10.957  0.0779  0.1860  0.5785
  768MPD2     H11340   0.526   0.021  11.266 -0.5064  0.5062  1.5113
  768MPD2    H111341   0.688   0.228  10.927  0.8323 -2.1980 -0.7557
  768MPD2    H211342   0.274   0.217  10.995  1.8148  2.8774 -2.0859
  768MPD2    H311343   0.469   0.269  10.861  1.8123  1.4332  0.9567
  768MPD2     N11344   0.759   0.100  11.145  0.8266 -0.3138 -0.1555
  768MPD2    H511345   0.830   0.135  11.081  0.2973  0.0960 -0.5143
  768MPD2    N111346   0.288   0.086  11.224  0.6811 -0.6450  0.3961
  768MPD2    H711347   0.317   0.062  11.318  0.4995  0.7545  0.8107
  769MPD2     C11348   0.991   3.066  15.207 -0.5182  0.4669 -0.2757
  769MPD2    C111349   0.940   3.181  15.156 -0.1687  0.2036 -0.5194
  769MPD2    C211350   0.899   3.280  15.246  0.7273 -0.7287 -0.1884
  769MPD2    C311351   0.921   3.271  15.385  0.1722 -0.4171  0.1020
  769MPD2    C411352   0.985   3.157  15.428 -0.9826 -0.1011 -0.1079
  769MPD2    C511353   1.017   3.065  15.339  0.3415 -0.2500  0.1086
  769MPD2     H11354   0.848   3.369  15.209 -0.8964 -0.6770  2.1407
  769MPD2    H111355   1.000   3.134  15.533 -1.4062 -3.5296 -0.7976
  769MPD2    H211356   1.017   2.974  15.155  1.4062  0.5419  0.5817
  769MPD2    H311357   1.055   2.971  15.379 -1.1799 -1.1302 -0.4841
  769MPD2     N11358   0.864   3.370  15.474 -0.3237 -0.1346  0.3691
  769MPD2    H511359   0.797   3.437  15.435  0.9255  0.3659 -0.9206
  769MPD2    N111360   0.908   3.182  15.019  0.3909 -0.5913 -0.0137
  769MPD2    H711361   0.926   3.092  14.975  2.7341 -0.3993  0.5379
  770MPD2     C11362   0.413   2.634  14.548 -0.3253 -0.0008 -0.6290
  770MPD2    C111363   0.535   2.597  14.594 -0.5602 -0.6845 -0.1190
  770MPD2    C211364   0.630   2.696  14.604  0.3555  0.4933  0.1020
  770MPD2    C311365   0.604   2.831  14.588  0.0219  0.0993 -0.2857
  770MPD2    C411366   0.478   2.859  14.542  0.4614 -0.0568  0.2565
  770MPD2    C511367   0.392   2.759  14.519 -0.4781  0.2157 -0.0211
  770MPD2     H11368   0.718   2.674  14.663  0.5637  0.0234 -0.3939
  770MPD2    H111369   0.445   2.961  14.527  2.0832  0.3456 -0.5393
  770MPD2    H211370   0.336   2.565  14.516 -0.6351 -0.7019  1.6318
  770MPD2    H311371   0.301   2.788  14.468 -0.5365 -0.8498 -0.5303
  770MPD2     N11372   0.699   2.929  14.610 -0.4590  0.0153  0.2097
  770MPD2    H511373   0.789   2.900  14.646  1.2003  1.2169 -2.9450
  770MPD2    N111374   0.562   2.461  14.624 -0.1163  0.0758  0.0934
  770MPD2    H711375   0.486   2.394  14.627 -0.3497  0.2992 -0.8428
  771MPD2     C11376   1.845   1.281  13.666  0.1523  0.1195 -0.1332
  771MPD2    C111377   1.780   1.371  13.586  0.3561 -0.6444  0.1339
  771MPD2    C211378   1.663   1.329  13.539  0.2069  0.2283  0.4360
  771MPD2    C311379   1.624   1.196  13.536  0.2146 -0.5232  0.2920
  771MPD2    C411380   1.690   1.103  13.609  0.3093  0.2032  0.3486
  771MPD2    C511381   1.805   1.148  13.671 -0.5334  0.7017  0.7962
  771MPD2     H11382   1.590   1.394  13.493 -0.7932 -1.5475 -0.5008
  771MPD2    H111383   1.662   0.998  13.617  1.3228  0.0154  1.3266
  771MPD2    H211384   1.936   1.314  13.715  0.4979 -1.5340  0.3421
  771MPD2    H311385   1.851   1.081  13.743 -1.9820  0.1698  1.2205
  771MPD2     N11386   1.502   1.172  13.474  0.1954 -0.2143  0.3610
  771MPD2    H511387   1.470   1.255  13.426  0.5706  1.0764  2.3694
  771MPD2    N111388   1.824   1.504  13.562 -0.3801 -0.4912 -0.1211
  771MPD2    H711389   1.757   1.569  13.521  0.0148  0.2271  0.3723
  772MPD2     C11390   1.633   2.069  13.897 -0.3151  0.1477  0.0903
  772MPD2    C111391   1.590   1.965  13.810  0.2127  0.1914  0.5711
  772MPD2    C211392   1.461   1.921  13.826  0.7401  0.2557 -0.1337
  772MPD2    C311393   1.370   1.973  13.910  0.4294 -0.0663 -0.4682
  772MPD2    C411394   1.410   2.084  13.978 -0.3096 -0.1333 -0.3332
  772MPD2    C511395   1.539   2.127  13.974 -0.8884 -0.0432  0.0558
  772MPD2     H11396   1.447   1.828  13.773 -1.0962 -0.3874  1.4643
  772MPD2    H111397   1.338   2.130  14.045  0.9799  1.5583 -0.1211
  772MPD2    H211398   1.728   2.122  13.890 -1.1812  1.6500 -0.4281
  772MPD2    H311399   1.574   2.211  14.032 -1.4836 -0.6400  1.2593
  772MPD2     N11400   1.234   1.917  13.918  0.2461  0.2801 -0.0730
  772MPD2    H511401   1.175   1.970  13.982 -0.7638  1.1182 -1.7083
  772MPD2    N111402   1.668   1.918  13.704  0.6747  0.0394 -0.1142
  772MPD2    H711403   1.629   1.835  13.660 -1.1026  0.4163  0.7636
  773MPD2     C11404   0.725   2.691  16.990  0.3723 -0.1166  0.6247
  773MPD2    C111405   0.649   2.625  17.088 -0.3475 -0.6722  0.1079
  773MPD2    C211406   0.714   2.584  17.203  0.1300  0.2732  0.5219
  773MPD2    C311407   0.854   2.609  17.219 -0.3115 -0.3789  0.4150
  773MPD2    C411408   0.925   2.689  17.126 -0.5208 -0.2794 -0.3022
  773MPD2    C511409   0.855   2.736  17.015  0.3883 -0.5267  0.3904
  773MPD2     H11410   0.658   2.535  17.282  2.8156 -0.6805  1.8525
  773MPD2    H111411   1.024   2.728  17.144 -1.0467  1.8042 -1.8514
  773MPD2    H211412   0.686   2.711  16.891 -0.8177  0.5169  1.2140
  773MPD2    H311413   0.907   2.800  16.944 -1.1610  0.4847  0.1672
  773MPD2     N11414   0.915   2.567  17.336 -0.3567  0.4157 -0.6859
  773MPD2    H511415   0.855   2.523  17.406  2.0881 -1.7733  0.0607
  773MPD2    N111416   0.513   2.596  17.066  0.3158  0.0236 -0.5935
  773MPD2    H711417   0.468   2.543  17.140  3.6489 -1.2251  0.5316
  774MPD2     C11418   0.635   2.184  13.078  0.5667  0.3340 -0.2365
  774MPD2    C111419   0.538   2.276  13.110  0.0475  0.8258 -0.5524
  774MPD2    C211420   0.521   2.388  13.037 -0.2949  0.6423 -0.5865
  774MPD2    C311421   0.605   2.418  12.936  0.1897 -0.2150  0.4319
  774MPD2    C411422   0.714   2.338  12.915 -0.3642  0.0024 -0.0504
  774MPD2    C511423   0.724   2.217  12.983  0.2082  0.0425  0.3352
  774MPD2     H11424   0.454   2.469  13.064  0.6256  1.6843 -1.4343
  774MPD2    H111425   0.797   2.363  12.850  0.0653  1.0452  0.8933
  774MPD2    H211426   0.645   2.087  13.125 -4.1826  0.9461  2.0273
  774MPD2    H311427   0.804   2.147  12.966 -0.8228 -0.9059 -0.6434
  774MPD2     N11428   0.597   2.542  12.870 -0.3535 -0.1112 -0.2772
  774MPD2    H511429   0.513   2.595  12.893  0.4554  0.0394  2.4009
  774MPD2    N111430   0.452   2.241  13.216 -0.0423  0.1321 -0.1451
  774MPD2    H711431   0.473   2.162  13.276  2.2755  1.5240  0.8971
  775MPD2     C11432   1.379   3.984  15.353 -0.4769  0.4669  0.1773
  775MPD2    C111433   1.411   4.035  15.477  0.4837 -0.4548 -0.2852
  775MPD2    C211434   1.532   4.094  15.489 -0.3838 -0.3428  0.1319
  775MPD2    C311435   1.617   4.109  15.379  0.3614  0.2549 -0.0483
  775MPD2    C411436   1.578   4.055  15.263 -0.5815 -0.3047 -0.4817
  775MPD2    C511437   1.461   3.991  15.243  0.2447  0.2739 -0.6871
  775MPD2     H11438   1.566   4.150  15.575  0.4177  1.2313 -1.1956
  775MPD2    H111439   1.646   4.058  15.179  0.5586 -1.0232  0.4045
  775MPD2    H211440   1.282   3.939  15.340  0.4232 -0.8067 -1.9634
  775MPD2    H311441   1.432   3.960  15.143 -1.4676  1.2405 -0.4876
  775MPD2     N11442   1.736   4.182  15.376  0.5355  0.1724 -0.4145
  775MPD2    H511443   1.786   4.166  15.290 -0.6606 -1.0663 -0.8714
  775MPD2    N111444   1.321   4.021  15.582 -0.0089  0.6665  0.3299
  775MPD2    H711445   1.241   3.959  15.568  0.0369  0.2416  1.9363
  776MPD2     C11446   1.009   3.158  11.603 -0.2090  0.1865 -0.8390
  776MPD2    C111447   0.900   3.196  11.521  0.4421  0.6577 -0.1614
  776MPD2    C211448   0.890   3.334  11.493 -0.1677 -0.6946  0.6970
  776MPD2    C311449   0.981   3.429  11.536  0.1962 -0.7155 -0.8166
  776MPD2    C411450   1.075   3.390  11.627  0.2762  0.3185  0.0486
  776MPD2    C511451   1.087   3.257  11.652  0.1129  0.2155  0.0982
  776MPD2     H11452   0.805   3.365  11.433  1.0173  1.9978  0.4213
  776MPD2    H111453   1.148   3.456  11.671  0.8081 -0.4597  0.3370
  776MPD2    H211454   1.032   3.056  11.633 -0.5506  0.1829 -0.5818
  776MPD2    H311455   1.165   3.215  11.714 -0.0903 -3.3598 -2.1159
  776MPD2     N11456   0.984   3.561  11.497  0.5473 -0.4265 -0.2096
  776MPD2    H511457   1.036   3.625  11.556 -1.8032 -0.0482  1.4654
  776MPD2    N111458   0.819   3.094  11.459  0.0373 -0.2650 -0.5515
  776MPD2    H711459   0.838   2.998  11.484 -0.9888 -0.9126 -2.2078
  777MPD2     C11460   0.697   1.858   0.840  0.5193  0.1584  0.0890
  777MPD2    C111461   0.751   1.765   0.922 -0.6821  0.5536 -0.2337
  777MPD2    C211462   0.787   1.645   0.865  0.8996 -0.1634  0.3761
  777MPD2    C311463   0.756   1.618   0.730 -0.1284 -0.5003  0.7827
  777MPD2    C411464   0.688   1.718   0.659  0.1206 -0.2908 -0.0654
  777MPD2    C511465   0.660   1.838   0.717  0.4554 -0.2841  0.2634
  777MPD2     H11466   0.838   1.570   0.925  0.1502  1.5284  3.1147
  777MPD2    H111467   0.651   1.707   0.558 -3.0297 -0.7930  1.1474
  777MPD2    H211468   0.679   1.960   0.873 -2.2283 -0.3148  0.0260
  777MPD2    H311469   0.609   1.913   0.657  1.1367 -0.5579 -0.6723
  777MPD2     N11470   0.792   1.496   0.674  0.0306 -0.8450 -0.7518
  777MPD2    H511471   0.836   1.433   0.740 -2.6455 -0.7001  1.1879
  777MPD2    N111472   0.759   1.789   1.061  0.5152  0.0374 -0.4174
  777MPD2    H711473   0.709   1.874   1.084  1.5899  0.5644 -0.0656
  778MPD2     C11474   1.946   1.292  15.146 -0.0804 -0.4464 -0.2482
  778MPD2    C111475   1.868   1.313  15.033 -0.6268 -1.0636  0.1738
  778MPD2    C211476   1.931   1.372  14.925 -0.4020  0.9293 -0.5943
  778MPD2    C311477   2.052   1.441  14.935 -0.0154 -0.3521  0.7308
  778MPD2    C411478   2.111   1.438  15.060  0.4829  0.5867 -0.2337
  778MPD2    C511479   2.062   1.358  15.163  0.1281  0.4254 -0.4100
  778MPD2     H11480   1.864   1.385  14.841 -1.2904  0.9050  0.1117
  778MPD2    H111481   2.199   1.494  15.087  0.1808  0.8285  0.2552
  778MPD2    H211482   1.914   1.247  15.239 -1.0430  1.8279  0.5228
  778MPD2    H311483   2.114   1.347  15.258 -0.0809 -0.7793 -0.4397
  778MPD2     N11484   2.112   1.510  14.830 -0.6010 -0.0328  0.3182
  778MPD2    H511485   2.060   1.510  14.742  0.2166  0.4385 -0.1704
  778MPD2    N111486   1.743   1.248  15.010  0.0186  0.1819  0.6499
  778MPD2    H711487   1.701   1.259  14.918 -0.8955 -3.1630  0.6893
  779MPD2     C11488   1.502   0.447  14.089 -0.4577  0.4002  0.3603
  779MPD2    C111489   1.632   0.425  14.142  0.2470 -0.1120 -0.5129
  779MPD2    C211490   1.713   0.528  14.173  0.3841 -0.1046 -0.0435
  779MPD2    C311491   1.667   0.657  14.163  0.7009 -0.4206 -0.1017
  779MPD2    C411492   1.536   0.677  14.116 -0.1619 -0.0756 -0.0234
  779MPD2    C511493   1.455   0.573  14.082  0.5881 -0.0289 -0.5055
  779MPD2     H11494   1.815   0.513  14.206 -0.1451  1.2295  2.1489
  779MPD2    H111495   1.496   0.776  14.101  0.3549  0.2277  0.6296
  779MPD2    H211496   1.441   0.363  14.058  1.4241 -1.2652  1.1776
  779MPD2    H311497   1.355   0.591  14.043  0.3641 -1.5002 -0.6107
  779MPD2     N11498   1.752   0.765  14.199  0.1442 -0.2993  0.0390
  779MPD2    H511499   1.850   0.746  14.214 -0.1597 -1.6959  0.2828
  779MPD2    N111500   1.688   0.292  14.138 -0.1787 -0.1117  0.3584
  779MPD2    H711501   1.787   0.284  14.158 -0.3930  0.0066  1.4450
  780MPD2     C11502   0.414   4.576   0.693 -0.5007 -0.3213  0.0450
  780MPD2    C111503   0.453   4.493   0.595 -0.0604  0.1956  0.2120
  780MPD2    C211504   0.571   4.510   0.525  0.0771 -0.5078 -0.4249
  780MPD2    C311505   0.661   4.609   0.572 -0.1349  0.4046  0.2850
  780MPD2    C411506   0.630   4.686   0.681 -0.2244  0.5252  0.5274
  780MPD2    C511507   0.499   4.677   0.731 -0.2881  0.0335  0.1917
  780MPD2     H11508   0.603   4.444   0.446  1.5083 -0.0844 -0.2113
  780MPD2    H111509   0.696   0.042   0.704 -0.0669  0.4189  0.4527
  780MPD2    H211510   0.321   4.556   0.745 -1.5625  1.0840 -1.3200
  780MPD2    H311511   0.453   0.018   0.804 -0.2440 -0.8519  1.0356
  780MPD2     N11512   0.792   4.598   0.516  0.4974 -0.1364 -0.4920
  780MPD2    H511513   0.803   4.530   0.441  1.9713 -0.0183 -0.3856
  780MPD2    N111514   0.359   4.393   0.560 -0.6462  0.0612 -0.1930
  780MPD2    H711515   0.301   4.355   0.634  1.2547 -0.3427  1.0833
  781MPD2     C11516   2.975   2.023  11.874 -0.3252 -0.6778  0.2587
  781MPD2    C111517   3.020   2.136  11.937  0.1246 -0.4697  0.1497
  781MPD2    C211518   3.094   2.224  11.862  1.2551 -0.3298  0.4008
  781MPD2    C311519   3.111   2.212  11.726  0.4433  0.1597  0.0324
  781MPD2    C411520   3.058   2.095  11.663 -0.7202 -0.7412  0.2404
  781MPD2    C511521   2.991   2.004  11.738  0.0165  0.3598 -0.0595
  781MPD2     H11522   3.134   2.310  11.915 -1.1000  0.4911  0.8921
  781MPD2    H111523   3.073   2.072  11.559  1.0199  2.2878 -0.1715
  781MPD2    H211524   2.911   1.948  11.919  0.6312 -2.6358 -1.6402
  781MPD2    H311525   2.943   1.920  11.689 -1.3870  0.5310  0.9991
  781MPD2     N11526   3.193   2.293  11.646  0.4794  0.4094 -0.2796
  781MPD2    H511527   3.210   2.266  11.550 -1.5324  1.1389 -0.8349
  781MPD2    N111528   2.988   2.176  12.070 -0.1158  0.4779  0.2003
  781MPD2    H711529   3.027   2.265  12.098  0.6655  0.1346  0.2036
  782MPD2     C11530   1.392   2.728   9.358  0.0537 -0.0479  0.2372
  782MPD2    C111531   1.293   2.698   9.445  0.3589  0.4600  0.1663
  782MPD2    C211532   1.303   2.732   9.574 -0.4560  0.6547  0.1326
  782MPD2    C311533   1.416   2.804   9.622 -0.1703 -0.1087  0.1314
  782MPD2    C411534   1.513   2.840   9.535 -0.5510  0.4366  0.4359
  782MPD2    C511535   1.495   2.809   9.406  0.2448  0.7883  0.2337
  782MPD2     H11536   1.232   2.698   9.648 -1.3519 -1.8494 -1.8845
  782MPD2    H111537   1.592   2.910   9.561 -0.0822 -0.1337  0.5670
  782MPD2    H211538   1.396   2.703   9.253  1.8322 -1.1201  0.5637
  782MPD2    H311539   1.582   2.835   9.347  2.1808  0.7917  3.1197
  782MPD2     N11540   1.428   2.819   9.761 -0.5832  0.4501  0.0945
  782MPD2    H511541   1.341   2.815   9.814  0.9953 -0.9548  2.5563
  782MPD2    N111542   1.189   2.621   9.398  0.4507  0.1422  0.0907
  782MPD2    H711543   1.201   2.568   9.313 -0.8588  1.5784 -1.0031
  783MPD2     C11544   0.352   2.135   9.892  0.6343  0.0241 -0.5333
  783MPD2    C111545   0.435   2.203   9.979 -0.4777  0.4081 -0.2374
  783MPD2    C211546   0.547   2.255   9.927  0.2655 -0.1792  0.3917
  783MPD2    C311547   0.578   2.253   9.793 -0.5272 -0.2115 -0.1187
  783MPD2    C411548   0.495   2.180   9.706 -0.0478 -0.5313 -0.3785
  783MPD2    C511549   0.385   2.125   9.759  0.3693  0.9391 -0.2734
  783MPD2     H11550   0.612   2.313   9.991  1.3598 -0.2953 -0.6151
  783MPD2    H111551   0.519   2.159   9.602 -1.7734 -0.9317 -0.6865
  783MPD2    H211552   0.257   2.091   9.923  0.7104  1.1617  1.3129
  783MPD2    H311553   0.322   2.064   9.695 -1.8937  1.0594  1.8356
  783MPD2     N11554   0.700   2.312   9.745  0.2536 -0.1018 -0.1666
  783MPD2    H511555   0.755   2.361   9.815 -0.9688  1.6799 -0.4545
  783MPD2    N111556   0.400   2.223  10.112  0.2878 -0.2492  0.1900
  783MPD2    H711557   0.315   2.177  10.142  0.0794 -2.2668 -3.4095
  784MPD2     C11558   2.436   3.601   0.856 -0.3889 -0.1010  0.8128
  784MPD2    C111559   2.509   3.710   0.902 -0.2070 -0.0699 -0.1944
  784MPD2    C211560   2.441   3.814   0.961 -0.6562 -0.0575 -0.3372
  784MPD2    C311561   2.308   3.807   0.974 -0.4723 -0.4894 -0.2159
  784MPD2    C411562   2.234   3.696   0.933 -1.0241 -0.1861 -0.9754
  784MPD2    C511563   2.302   3.595   0.881  0.1292 -0.4060  0.0490
  784MPD2     H11564   2.490   3.903   0.999 -0.0197  0.1227 -1.5842
  784MPD2    H111565   2.126   3.696   0.941 -0.8616 -0.1490  1.0533
  784MPD2    H211566   2.482   3.518   0.803  1.6556  1.6236 -0.0830
  784MPD2    H311567   2.257   3.504   0.844  0.2680 -0.3359 -0.2961
  784MPD2     N11568   2.249   3.905   1.051 -0.2178 -0.3804  0.4952
  784MPD2    H511569   2.307   3.982   1.083 -1.4146  1.0443 -0.7723
  784MPD2    N111570   2.650   3.720   0.908 -0.6369 -0.1851 -0.2610
  784MPD2    H711571   2.685   3.784   0.979  0.5859 -0.8386 -0.2690
  785MPD2     C11572   3.731   1.306   9.021 -0.5261 -0.2196  0.1271
  785MPD2    C111573   3.710   1.248   9.144 -0.5978  0.1827  0.4081
  785MPD2    C211574   3.613   1.144   9.155 -0.2576 -0.1647 -0.2184
  785MPD2    C311575   3.534   1.107   9.040 -0.0697 -0.7698 -0.6034
  785MPD2    C411576   3.563   1.167   8.919  0.1504 -0.4256  0.1686
  785MPD2    C511577   3.655   1.268   8.914  0.0283  0.1421  0.2656
  785MPD2     H11578   3.596   1.092   9.249 -0.2819 -1.1938 -0.7963
  785MPD2    H111579   3.516   1.135   8.826  1.6301 -0.8945 -0.4174
  785MPD2    H211580   3.805   1.385   9.022 -0.2441 -0.4897  0.3217
  785MPD2    H311581   3.657   1.328   8.823  1.8574  0.8075  0.7528
  785MPD2     N11582   3.418   1.021   9.057 -0.1117  0.0383 -0.1769
  785MPD2    H511583   3.392   0.989   9.150  0.3034 -1.2365 -0.4952
  785MPD2    N111584   3.788   1.298   9.259  0.3720  0.7656 -0.0812
  785MPD2    H711585   3.852   1.375   9.246  1.0453 -0.3608 -3.2890
  786MPD2     C11586   1.869   4.414  14.429 -0.3910  0.2677  0.1646
  786MPD2    C111587   1.987   4.348  14.432 -0.1287  0.5806 -0.5050
  786MPD2    C211588   2.076   4.379  14.530  0.4111  0.6468  0.3224
  786MPD2    C311589   2.057   4.482  14.620  0.6419 -0.5061  0.8380
  786MPD2    C411590   1.938   4.550  14.612 -0.7510 -0.4309  0.0162
  786MPD2    C511591   1.834   4.510  14.525 -0.1864 -0.5606  0.8031
  786MPD2     H11592   2.165   4.319  14.544  0.2820  0.3040 -0.3342
  786MPD2    H111593   1.908   4.620  14.689  0.5094 -1.1233  1.1321
  786MPD2    H211594   1.796   4.383  14.355  0.4962  0.0551 -0.6231
  786MPD2    H311595   1.739   4.563  14.530 -0.2724 -0.9190  3.1340
  786MPD2     N11596   2.148   4.538  14.712  0.4072  0.3075  0.0569
  786MPD2    H511597   2.120   4.624  14.759 -0.6724 -0.9371  1.6942
  786MPD2    N111598   2.019   4.241  14.354 -0.3475 -0.4026  0.5777
  786MPD2    H711599   2.109   4.197  14.372  0.7071  1.2708 -0.5784
  787MPD2     C11600   2.156   3.443  14.305 -0.0871  0.6020 -0.0710
  787MPD2    C111601   2.205   3.569  14.333 -0.0569 -0.1360 -0.2643
  787MPD2    C211602   2.301   3.581  14.435 -0.3264  0.0701  0.0119
  787MPD2    C311603   2.345   3.476  14.515  0.4480  0.6305 -0.0257
  787MPD2    C411604   2.296   3.349  14.484  0.6044  0.5819 -0.7434
  787MPD2    C511605   2.203   3.338  14.381 -0.4788  0.8573 -0.3128
  787MPD2     H11606   2.342   3.674  14.471 -2.4465  0.2518  1.9590
  787MPD2    H111607   2.320   3.255  14.533 -1.0124 -0.4408 -1.9283
  787MPD2    H211608   2.091   3.423  14.221 -0.5002 -1.6621  0.8031
  787MPD2    H311609   2.153   3.244  14.358  3.2017 -1.1165 -0.1938
  787MPD2     N11610   2.438   3.504  14.619  0.5859 -0.3957 -0.6040
  787MPD2    H511611   2.460   3.602  14.633  1.5055 -0.5625 -0.8857
  787MPD2    N111612   2.155   3.673  14.250  0.3313 -0.2107 -0.8192
  787MPD2    H711613   2.069   3.658  14.199  0.4512 -1.1653 -0.7344
  788MPD2     C11614   3.635   2.750   1.006 -0.0421 -0.0742  0.1694
  788MPD2    C111615   3.602   2.629   0.948  0.4206  1.3468  0.1716
  788MPD2    C211616   3.582   2.628   0.811  0.1448 -0.0844 -0.3232
  788MPD2    C311617   3.591   2.741   0.737 -0.4562  0.4484 -0.5566
  788MPD2    C411618   3.618   2.861   0.793  0.2944  0.6014 -0.1206
  788MPD2    C511619   3.642   2.858   0.930 -0.5466 -0.4630  0.5774
  788MPD2     H11620   3.570   2.535   0.757  0.3983 -0.1487 -0.2727
  788MPD2    H111621   3.636   2.956   0.745  1.7998  0.2450 -0.2784
  788MPD2    H211622   3.664   2.753   1.111  0.2933  3.3667 -0.0229
  788MPD2    H311623   3.657   2.949   0.987 -1.9363  0.1593 -0.0632
  788MPD2     N11624   3.576   2.741   0.598  0.0371  0.4041 -0.2407
  788MPD2    H511625   3.567   2.827   0.545 -0.0198  0.9181  0.6058
  788MPD2    N111626   3.592   2.512   1.024 -0.1733  0.1802  0.4230
  788MPD2    H711627   3.615   2.512   1.123 -2.7480 -1.6958  1.0278
  789MPD2     C11628   4.627   2.106  16.191 -0.5096  0.0445 -0.0603
  789MPD2    C111629   4.626   2.044  16.314 -0.3874 -0.4302  0.6220
  789MPD2    C211630   4.510   2.047  16.381 -0.1103  0.4707  0.7863
  789MPD2    C311631   4.396   2.114  16.340 -0.3917  0.5177 -0.1252
  789MPD2    C411632   4.404   2.178  16.223 -0.0957 -0.3420 -0.0322
  789MPD2    C511633   4.517   2.171  16.143 -0.8313 -0.0736  0.1326
  789MPD2     H11634   4.499   1.991  16.473 -0.6154 -1.0469 -0.1958
  789MPD2    H111635   4.316   2.223  16.177  0.9393 -1.4045 -3.0670
  789MPD2    H211636   4.718   2.103  16.133 -0.5170 -0.5693 -0.0406
  789MPD2    H311637   4.531   2.209  16.042  2.6777 -0.1717  0.6041
  789MPD2     N11638   4.276   2.134  16.422 -0.4253  0.1543  0.0624
  789MPD2    H511639   4.197   2.189  16.389 -1.5571 -0.7539  1.2756
  789MPD2    N111640   0.004   1.960  16.360 -0.4272  0.5449 -0.1584
  789MPD2    H711641   4.709   1.924  16.453  1.8915 -1.3106 -0.3530
  790MPD2     C11642   0.976   3.714  13.347 -0.2075 -0.3223  0.1332
  790MPD2    C111643   0.932   3.584  13.377  0.2367  0.9111 -0.1357
  790MPD2    C211644   0.853   3.519  13.282 -0.0759 -0.3008  0.3246
  790MPD2    C311645   0.806   3.581  13.171  0.2336 -0.3441 -0.3669
  790MPD2    C411646   0.853   3.708  13.142  0.1596 -0.1051  0.2832
  790MPD2    C511647   0.938   3.771  13.229  0.2855  0.5841  0.6233
  790MPD2     H11648   0.820   3.416  13.294 -2.1739  0.3846  0.3140
  790MPD2    H111649   0.828   3.762  13.050 -0.2161 -1.6863 -0.5364
  790MPD2    H211650   1.050   3.766  13.406  1.7153 -2.4449 -0.4383
  790MPD2    H311651   0.980   3.865  13.195 -1.9933  1.1958 -0.4986
  790MPD2     N11652   0.716   3.513  13.076 -0.3267 -0.0349 -0.4417
  790MPD2    H511653   0.708   3.412  13.080  2.9210 -0.3058 -0.7604
  790MPD2    N111654   0.979   3.517  13.495 -0.1257 -0.4808 -0.3822
  790MPD2    H711655   1.022   3.577  13.564  1.5427 -1.7161 -0.3487
  791MPD2     C11656   0.222   3.826  12.502  0.4010 -0.3481 -0.0974
  791MPD2    C111657   0.244   3.683  12.499 -1.0797  0.2370  0.3830
  791MPD2    C211658   0.165   3.599  12.422 -0.6335 -0.8359  0.6961
  791MPD2    C311659   0.067   3.654  12.348  0.1293  0.2606  0.2699
  791MPD2    C411660   0.041   3.791  12.365  0.2799  0.1590 -0.2214
  791MPD2    C511661   0.118   3.873  12.438  0.7314  0.5501 -0.2489
  791MPD2     H11662   0.178   3.492  12.410  1.4647 -0.4368 -0.6652
  791MPD2    H111663   4.678   3.836  12.323 -1.6674 -3.1762  0.2534
  791MPD2    H211664   0.272   3.888  12.575  0.3530  2.6905 -2.6449
  791MPD2    H311665   0.093   3.978  12.449  0.0131  0.1874  1.4761
  791MPD2     N11666   4.711   3.571  12.275  0.0265  0.2348 -0.3541
  791MPD2    H511667   0.017   3.476  12.266 -2.9650 -0.8282  0.0520
  791MPD2    N111668   0.348   3.637  12.579 -0.2274  0.7688 -0.3447
  791MPD2    H711669   0.403   3.697  12.640  1.3306 -0.1287 -0.8458
  792MPD2     C11670   0.459   3.277  10.929  0.7760  0.2980  0.0848
  792MPD2    C111671   0.491   3.319  10.804  0.7956 -0.1564 -0.9563
  792MPD2    C211672   0.427   3.261  10.694  0.3938 -0.0349 -0.0381
  792MPD2    C311673   0.320   3.171  10.715 -0.4736 -0.3899 -0.0356
  792MPD2    C411674   0.285   3.130  10.841 -1.0812 -0.3190 -0.3383
  792MPD2    C511675   0.355   3.185  10.949  0.4858  0.0976  0.0375
  792MPD2     H11676   0.456   3.288  10.594  0.4700  1.4996  0.3993
  792MPD2    H111677   0.206   3.059  10.861 -0.7297 -0.9055 -1.0502
  792MPD2    H211678   0.508   3.316  11.018  3.2522  0.6625 -1.4241
  792MPD2    H311679   0.323   3.151  11.047  1.4541 -2.0238 -0.3948
  792MPD2     N11680   0.245   3.114  10.609 -0.7300 -0.2699 -0.6323
  792MPD2    H511681   0.171   3.049  10.635  0.5247 -0.2706  3.0068
  792MPD2    N111682   0.594   3.414  10.790 -0.3178  0.2343  0.1127
  792MPD2    H711683   0.648   3.424  10.876  0.9399 -0.6689 -0.5816
  793MPD2     C11684   4.541   3.352   9.679 -0.2701 -0.1843  0.5572
  793MPD2    C111685   4.653   3.403   9.733 -0.9403  0.1855  0.0862
  793MPD2    C211686   4.699   3.355   9.853 -0.7875  0.8256 -0.2548
  793MPD2    C311687   4.642   3.245   9.921 -0.3656  0.1358 -0.3176
  793MPD2    C411688   4.524   3.197   9.865 -0.3496 -0.2007 -0.2276
  793MPD2    C511689   4.469   3.258   9.753 -0.5778 -0.3800 -0.2749
  793MPD2     H11690   0.067   3.393   9.892  0.1991  0.3379 -2.1925
  793MPD2    H111691   4.475   3.110   9.907  2.2921 -0.9605  1.2630
  793MPD2    H211692   4.497   3.371   9.582 -0.4261 -2.6301  0.1324
  793MPD2    H311693   4.380   3.221   9.702  0.4247  0.4903 -2.6381
  793MPD2     N11694   4.710   3.198  10.030 -0.2853 -0.4146 -0.2196
  793MPD2    H511695   0.058   3.253  10.073 -0.1441  0.8103 -2.0306
  793MPD2    N111696   0.001   3.503   9.671 -0.1159  0.0807 -0.0749
  793MPD2    H711697   0.078   3.542   9.724 -0.0240  1.7899 -1.4850
  794MPD2     C11698   4.527   2.841  16.639  0.4856 -0.2375 -1.0825
  794MPD2    C111699   4.664   2.849  16.642  0.2819  0.1399 -0.6220
  794MPD2    C211700   4.725   2.933  16.553 -0.6513  0.1890 -0.3385
  794MPD2    C311701   4.649   3.009  16.460  0.3371 -0.5742  0.6126
  794MPD2    C411702   4.513   3.000  16.459 -0.0952  0.0314  0.3179
  794MPD2    C511703   4.454   2.915  16.548  0.1641  0.1945  0.3868
  794MPD2     H11704   0.105   2.941  16.569 -0.4690 -1.3446 -0.7925
  794MPD2    H111705   4.445   3.042  16.386  1.3926  1.5749 -0.1824
  794MPD2    H211706   4.468   2.769  16.694 -0.5439  0.1899 -1.6452
  794MPD2    H311707   4.347   2.899  16.553  0.3951 -0.9999  1.5442
  794MPD2     N11708   4.720   3.117  16.398 -0.0922 -0.0709 -0.3188
  794MPD2    H511709   0.094   3.124  16.413 -0.0350 -0.1530 -0.6719
  794MPD2    N111710   0.024   2.769  16.719 -0.5282 -0.2019 -0.1591
  794MPD2    H711711   0.122   2.781  16.694 -0.7813  0.0981 -1.0086
  795MPD2     C11712   2.902   0.543  13.723 -0.3792 -0.0239  0.1536
  795MPD2    C111713   2.860   0.437  13.649 -0.2086  0.2804 -0.7622
  795MPD2    C211714   2.942   0.325  13.632 -0.7979  0.1963  0.0567
  795MPD2    C311715   3.063   0.320  13.696 -1.0920 -0.5580 -0.0248
  795MPD2    C411716   3.101   0.428  13.768  0.7175  0.0154  0.3378
  795MPD2    C511717   3.017   0.538  13.787 -0.2942 -0.3603  0.2217
  795MPD2     H11718   2.912   0.238  13.575 -0.4797 -0.5511  1.0496
  795MPD2    H111719   3.187   0.434  13.834  1.7487 -0.6062 -0.9513
  795MPD2    H211720   2.821   0.611  13.749  0.7065  1.9128 -1.5679
  795MPD2    H311721   3.042   0.623  13.850  1.3842  0.7700 -1.9609
  795MPD2     N11722   3.142   0.207  13.679 -0.0363 -0.3499  0.0433
  795MPD2    H511723   3.102   0.135  13.620 -1.5288  0.0102  0.6191
  795MPD2    N111724   2.731   0.458  13.581 -0.1703  0.1672 -0.5961
  795MPD2    H711725   2.697   0.553  13.582  1.4753  0.7437  1.9579
  796MPD2     C11726   2.838   2.097  15.502  0.4125  0.4017 -0.5798
  796MPD2    C111727   2.934   2.111  15.600 -0.2072 -0.1451  0.0435
  796MPD2    C211728   2.957   2.237  15.647 -0.3199 -0.2749  0.1415
  796MPD2    C311729   2.899   2.349  15.592  0.3960  0.2932 -0.0568
  796MPD2    C411730   2.809   2.340  15.494 -0.5984 -0.1345 -0.5421
  796MPD2    C511731   2.780   2.210  15.451  0.7650  0.2128  0.1148
  796MPD2     H11732   3.015   2.244  15.739  0.5627  0.1497 -0.4471
  796MPD2    H111733   2.754   2.421  15.447  1.4122  1.2898 -0.4616
  796MPD2    H211734   2.813   2.000  15.460  0.8271 -0.8950  2.1990
  796MPD2    H311735   2.697   2.200  15.382 -0.3943 -1.4980  1.7336
  796MPD2     N11736   2.945   2.473  15.643  0.1308  0.4002 -0.3440
  796MPD2    H511737   3.037   2.483  15.686 -0.4915  1.2195  0.8134
  796MPD2    N111738   2.996   1.990  15.648  0.3342 -0.0712 -0.0462
  796MPD2    H711739   2.976   1.899  15.608  1.0276  0.1267 -0.8154
  797MPD2     C11740   3.377   1.405  17.046  0.4890 -0.4303 -0.5019
  797MPD2    C111741   3.485   1.477  17.101 -0.2325  0.0893  0.3168
  797MPD2    C211742   3.598   1.499  17.031  0.0206  0.5004 -0.4088
  797MPD2    C311743   3.611   1.439  16.907  0.2554  0.0723  0.6260
  797MPD2    C411744   3.515   1.353  16.858 -0.3736 -0.4461  0.1475
  797MPD2    C511745   3.400   1.343  16.929  0.1098 -0.6568 -0.4436
  797MPD2     H11746   3.685   1.553  17.066  0.8361 -0.1831 -1.3925
  797MPD2    H111747   3.533   1.294  16.769  1.4575  1.8931 -0.9990
  797MPD2    H211748   3.279   1.392  17.091  0.5239 -0.6809 -0.4992
  797MPD2    H311749   3.321   1.287  16.881  0.1625 -1.6864  0.6769
  797MPD2     N11750   3.728   1.470  16.840 -0.7352 -0.4046 -0.0324
  797MPD2    H511751   3.778   1.539  16.895 -1.4009  0.0087  0.0598
  797MPD2    N111752   3.475   1.549  17.226 -0.0709 -0.0698 -0.0484
  797MPD2    H711753   3.561   1.600  17.247 -1.0698  1.9305 -0.7898
  798MPD2     C11754   3.722   2.036  16.811 -0.7683  0.2322 -0.0664
  798MPD2    C111755   3.800   1.940  16.883  0.6536  0.3593  0.0681
  798MPD2    C211756   3.760   1.909  17.014 -0.2854 -0.0963 -0.3417
  798MPD2    C311757   3.641   1.968  17.064  0.1991 -0.7243  0.5269
  798MPD2    C411758   3.572   2.055  16.986 -0.2225 -0.2057 -0.1871
  798MPD2    C511759   3.610   2.093  16.866  0.0821 -0.3625 -0.3322
  798MPD2     H11760   3.809   1.832  17.073 -1.6309  0.6945  1.8129
  798MPD2    H111761   3.478   2.099  17.018  0.5143  0.5352  0.9467
  798MPD2    H211762   3.744   2.070  16.711 -0.9590  2.8426  0.7793
  798MPD2    H311763   3.566   2.175  16.811 -0.0890 -0.1503  0.1232
  798MPD2     N11764   3.590   1.919  17.188  0.3179  0.3425 -0.3644
  798MPD2    H511765   3.651   1.851  17.231 -0.2298  0.8009  1.1528
  798MPD2    N111766   3.907   1.884  16.814  0.1012  0.3504  0.4133
  798MPD2    H711767   3.913   1.904  16.714  0.8500  3.4366  1.0613
  799MPD2     C11768   2.699   3.611  14.396 -0.8198  0.3551 -0.4854
  799MPD2    C111769   2.645   3.502  14.333  0.0479 -0.1003  0.6008
  799MPD2    C211770   2.571   3.528  14.215 -0.3225 -0.2267  1.1172
  799MPD2    C311771   2.549   3.656  14.164 -0.1025 -1.1134 -0.4823
  799MPD2    C411772   2.626   3.754  14.222  0.0484  0.0176 -0.3256
  799MPD2    C511773   2.696   3.729  14.333 -0.6009 -0.1666  0.2769
  799MPD2     H11774   2.529   3.440  14.168 -0.7882  0.6797 -0.1373
  799MPD2    H111775   2.624   3.855  14.184  0.8111  0.8388  1.8105
  799MPD2    H211776   2.738   3.603  14.497  0.1535 -0.9964 -0.9605
  799MPD2    H311777   2.755   3.806  14.381  1.9067 -1.8006 -0.2064
  799MPD2     N11778   2.485   3.685  14.045 -0.3781  0.3016 -0.1988
  799MPD2    H511779   2.499   3.781  14.016 -0.8358  0.8213  1.3265
  799MPD2    N111780   2.663   3.372  14.376  1.0346  0.2479 -0.2687
  799MPD2    H711781   2.600   3.308  14.328 -0.1312  2.1078 -1.2193
  800MPD2     C11782   2.385   4.082  13.632  0.0899 -0.0603 -0.1970
  800MPD2    C111783   2.513   4.100  13.600  0.0894  0.1248  0.3085
  800MPD2    C211784   2.550   4.123  13.470  0.1062 -0.3324  0.2437
  800MPD2    C311785   2.459   4.123  13.360 -0.2590  0.5307 -0.6924
  800MPD2    C411786   2.329   4.111  13.398 -0.1555 -0.1966  0.2186
  800MPD2    C511787   2.291   4.082  13.530  0.2722 -0.4028 -0.0612
  800MPD2     H11788   2.655   4.124  13.444 -0.1339 -2.3917 -0.8620
  800MPD2    H111789   2.248   4.121  13.326  0.3329 -0.7617 -0.4068
  800MPD2    H211790   2.356   4.078  13.737 -1.2600 -0.3351 -0.5845
  800MPD2    H311791   2.183   4.084  13.541  0.3866 -1.3827  1.2307
  800MPD2     N11792   2.503   4.129  13.225 -0.5759  0.3238 -0.0241
  800MPD2    H511793   2.602   4.143  13.208 -1.1020  2.5895 -1.1622
  800MPD2    N111794   2.608   4.098  13.703  0.7076  0.0982 -0.1394
  800MPD2    H711795   2.579   4.056  13.791 -2.1531  2.0777 -0.1442
  801MPD2     C11796   2.734   4.248  14.415 -0.7265  0.0753  0.4253
  801MPD2    C111797   2.826   4.308  14.332  0.8508  0.2015 -0.0118
  801MPD2    C211798   2.874   4.436  14.362 -0.3006  0.2591 -0.3054
  801MPD2    C311799   2.819   4.509  14.472 -0.2079  0.0084 -0.0079
  801MPD2    C411800   2.724   4.442  14.549 -0.5523  0.3314  0.1404
  801MPD2    C511801   2.691   4.311  14.523  0.4651 -0.0270  0.0909
  801MPD2     H11802   2.956   4.475  14.302 -0.4780 -0.8353 -1.2574
  801MPD2    H111803   2.689   4.489  14.640 -0.2705  2.1923 -0.6963
  801MPD2    H211804   2.706   4.143  14.407  0.9491 -0.4103  0.8177
  801MPD2    H311805   2.620   4.255  14.584 -0.1732 -0.5993 -1.1815
  801MPD2     N11806   2.848   4.645  14.514  0.1566  0.0339  0.0636
  801MPD2    H511807   2.784   4.679  14.585 -0.0058  0.2127 -0.1679
  801MPD2    N111808   2.861   4.244  14.208 -0.0350 -0.0391  0.2277
  801MPD2    H711809   2.926   4.285  14.142  1.3348 -2.0664  0.2886
  802MPD2     C11810   1.648   4.710  16.839 -0.6595 -0.0992 -0.4774
  802MPD2    C111811   1.704   0.037  16.949  0.3357  0.5016  0.3311
  802MPD2    C211812   1.838   0.019  16.985 -0.5450 -0.7690 -0.0001
  802MPD2    C311813   1.922   4.701  16.893  0.4058  1.2184 -0.6791
  802MPD2    C411814   1.869   4.655  16.773 -0.1972  0.4521  0.3896
  802MPD2    C511815   1.737   4.658  16.748 -0.0506 -0.3984 -0.4831
  802MPD2     H11816   1.877   0.060  17.077  1.0894  2.4305 -2.0979
  802MPD2    H111817   1.933   4.620  16.693 -0.9334 -0.6843  0.3021
  802MPD2    H211818   1.543   4.719  16.816 -0.8789  0.3142  0.6682
  802MPD2    H311819   1.705   4.631  16.648  0.1689 -0.5897 -0.4997
  802MPD2     N11820   2.058   4.705  16.922  0.0363  0.7398 -0.0140
  802MPD2    H511821   2.077   0.005  17.018 -0.1438 -0.4646  0.3543
  802MPD2    N111822   1.623   0.105  17.047  0.3853  0.3697  0.7583
  802MPD2    H711823   1.663   0.118  17.139  2.6544 -0.1615 -0.1665
  803MPD2     C11824   3.343   4.236  11.503 -0.1008  0.1705  0.4994
  803MPD2    C111825   3.458   4.177  11.555  0.1851  0.2882  0.4565
  803MPD2    C211826   3.460   4.047  11.584 -0.6585 -0.5761  0.0283
  803MPD2    C311827   3.349   3.971  11.557  0.2331 -0.0414 -0.2891
  803MPD2    C411828   3.234   4.031  11.507 -0.4957 -0.1750  0.2405
  803MPD2    C511829   3.234   4.160  11.475  0.6543 -0.6264 -0.0921
  803MPD2     H11830   3.552   3.998  11.612  1.2692  0.8630 -3.9225
  803MPD2    H111831   3.151   3.964  11.486 -0.3150 -0.2360 -0.2909
  803MPD2    H211832   3.341   4.338  11.467  2.6274  0.0944  0.1339
  803MPD2    H311833   3.142   4.206  11.442  1.2880  0.9022  0.2502
  803MPD2     N11834   3.346   3.830  11.581  0.2333  0.1843  0.2521
  803MPD2    H511835   3.268   3.785  11.534 -2.0305  3.0051  1.3611
  803MPD2    N111836   3.575   4.243  11.585 -0.2871  0.6962 -0.1297
  803MPD2    H711837   3.658   4.191  11.610  0.9373  4.0550  2.7508
  804MPD2     C11838   3.049   0.260  16.952  0.3645  0.1415 -0.4223
  804MPD2    C111839   3.060   0.235  17.088 -0.0912  0.7055  0.7191
  804MPD2    C211840   3.068   0.342  17.171  0.5536 -0.1873 -0.2817
  804MPD2    C311841   3.077   0.468  17.115  0.4432  0.8449  0.2584
  804MPD2    C411842   3.058   0.496  16.983  0.8257 -0.4930  0.0007
  804MPD2    C511843   3.044   0.384  16.901  1.6254  0.7629  0.5628
  804MPD2     H11844   3.078   0.331  17.278  0.8968 -3.6526 -0.6619
  804MPD2    H111845   3.046   0.592  16.935 -0.2015 -0.0925  1.0681
  804MPD2    H211846   3.048   0.182  16.876  1.5227  0.4387 -0.7442
  804MPD2    H311847   3.033   0.383  16.794 -0.0061  0.0317  0.7306
  804MPD2     N11848   3.104   0.578  17.200 -0.0143  0.1675  0.2040
  804MPD2    H511849   3.093   0.563  17.300  0.6806 -1.8307 -0.0138
  804MPD2    N111850   3.085   0.106  17.143  0.5371 -0.6349  0.3856
  804MPD2    H711851   3.074   0.083  17.241 -0.0345 -2.6818 -0.1583
  805MPD2     C11852   2.285   3.634  15.415 -0.5721 -0.0460  0.3289
  805MPD2    C111853   2.379   3.535  15.390 -0.0512  1.1829 -0.0465
  805MPD2    C211854   2.485   3.515  15.466  0.0123 -0.1488 -0.0676
  805MPD2    C311855   2.488   3.576  15.591 -0.2570  0.7837  0.0869
  805MPD2    C411856   2.397   3.672  15.618 -0.1044  0.6440 -0.4076
  805MPD2    C511857   2.292   3.693  15.537  0.1048  0.0069  0.1374
  805MPD2     H11858   2.555   3.435  15.444 -0.6530 -0.6013 -0.5466
  805MPD2    H111859   2.412   3.730  15.708 -1.5305 -0.6767  0.6765
  805MPD2    H211860   2.196   3.657  15.359 -0.0438 -0.2420 -0.5893
  805MPD2    H311861   2.219   3.770  15.562  1.2252  1.3655 -0.7308
  805MPD2     N11862   2.589   3.531  15.674  0.0010  0.5052  0.2302
  805MPD2    H511863   2.656   3.467  15.633 -0.3573  0.2291  0.0758
  805MPD2    N111864   2.372   3.460  15.272 -0.1479 -0.1754 -0.4901
  805MPD2    H711865   2.445   3.394  15.249  0.6652  1.3714 -2.3197
  806MPD2     C11866   3.132   2.797   0.823 -1.2561  0.3551 -0.5944
  806MPD2    C111867   3.077   2.880   0.732 -0.5815  0.0872  0.4045
  806MPD2    C211868   3.147   2.987   0.684  0.6821 -0.5032 -0.0389
  806MPD2    C311869   3.256   3.040   0.756 -0.4506  0.4500  0.0751
  806MPD2    C411870   3.296   2.967   0.865 -0.8695 -0.0045  0.1384
  806MPD2    C511871   3.248   2.837   0.887 -0.3108 -0.4296  0.4294
  806MPD2     H11872   3.109   3.049   0.604  1.1373  0.3044  0.3607
  806MPD2    H111873   3.379   3.002   0.925 -0.9670  1.5301 -0.6318
  806MPD2    H211874   3.079   2.710   0.861 -1.5937  0.4081 -0.9467
  806MPD2    H311875   3.281   2.778   0.972  1.0074  0.2504  0.3865
  806MPD2     N11876   3.321   3.156   0.703  0.6298 -0.1033  1.0379
  806MPD2    H511877   3.267   3.213   0.639  0.4819 -0.9608  0.3947
  806MPD2    N111878   2.949   2.857   0.685  0.6980  0.3734  1.3928
  806MPD2    H711879   2.892   2.793   0.739  2.3424 -1.2607  1.2022
  807MPD2     C11880   2.300   3.200   1.013 -0.2027 -0.2146  0.3075
  807MPD2    C111881   2.338   3.066   1.002  0.2535 -0.4549 -0.1703
  807MPD2    C211882   2.307   2.983   1.108 -0.3080  0.1002 -0.1844
  807MPD2    C311883   2.249   3.030   1.224 -0.5466 -0.4321 -0.4873
  807MPD2    C411884   2.228   3.163   1.247 -0.1354  0.4197  0.0034
  807MPD2    C511885   2.257   3.244   1.135  0.1545 -0.0409  0.2580
  807MPD2     H11886   2.327   2.878   1.096  1.3048  0.3300  0.5625
  807MPD2    H111887   2.170   3.205   1.328  2.3698 -1.0672  2.5575
  807MPD2    H211888   2.304   3.269   0.930  0.6870  1.6968  1.9654
  807MPD2    H311889   2.225   3.347   1.147 -1.7414 -0.8610  2.3140
  807MPD2     N11890   2.214   2.926   1.314 -1.1411 -0.2951 -0.2125
  807MPD2    H511891   2.235   2.830   1.287  2.3575  0.2618  0.5435
  807MPD2    N111892   2.400   3.011   0.883  0.3680 -0.0617  0.4581
  807MPD2    H711893   2.418   2.912   0.895  0.5392 -0.1573 -0.6114
  808MPD2     C11894   2.441   4.435  10.081  0.3644 -0.3084  0.4289
  808MPD2    C111895   2.553   4.425   9.988  0.1781  0.1308  0.1983
  808MPD2    C211896   2.659   4.517  10.004 -0.6052  0.6023  0.4612
  808MPD2    C311897   2.639   4.628  10.093 -0.3895 -0.6023  0.0082
  808MPD2    C411898   2.530   4.634  10.167  0.1402 -0.7404 -0.5146
  808MPD2    C511899   2.433   4.544  10.173  0.2611 -0.1689  0.5086
  808MPD2     H11900   2.758   4.508   9.962 -1.0309 -0.4015 -0.3304
  808MPD2    H111901   2.527   4.713  10.241 -0.5394 -2.6526  1.5175
  808MPD2    H211902   2.363   4.360  10.071 -0.5041  0.7137 -0.3570
  808MPD2    H311903   2.342   4.560  10.231  0.0312  3.2573 -0.8272
  808MPD2     N11904   2.721   0.013  10.107  0.1116  0.6666 -0.3018
  808MPD2    H511905   2.698   0.078  10.182 -0.2021  0.0262  0.1606
  808MPD2    N111906   2.566   4.323   9.894 -0.3322  0.6494 -0.1551
  808MPD2    H711907   2.639   4.332   9.824 -1.0711  0.1974 -0.9816
  809MPD2     C11908   3.705   0.486   9.884 -0.6212 -0.4130  0.4991
  809MPD2    C111909   3.639   0.376   9.831 -0.2706 -0.8048 -0.2121
  809MPD2    C211910   3.507   0.358   9.858  0.3823  0.6200  0.2851
  809MPD2    C311911   3.441   0.429   9.956 -0.2829  0.1203 -0.7742
  809MPD2    C411912   3.506   0.543  10.009  0.4114  0.4913  0.1249
  809MPD2    C511913   3.635   0.569   9.971  0.3757  0.0913 -0.7224
  809MPD2     H11914   3.472   0.270   9.805 -1.8888  1.4189  0.4450
  809MPD2    H111915   3.446   0.618  10.059 -1.8928 -0.9745 -0.4324
  809MPD2    H211916   3.811   0.501   9.868 -1.1520  1.5947 -1.1898
  809MPD2    H311917   3.682   0.657  10.012  0.5314 -1.5803  2.7406
  809MPD2     N11918   3.300   0.419   9.983  0.5875  0.2021  0.4439
  809MPD2    H511919   3.269   0.490  10.048  0.1674  1.9733 -1.6993
  809MPD2    N111920   3.712   0.282   9.747 -0.0356  0.0603  0.0531
  809MPD2    H711921   3.655   0.222   9.689 -0.3183  0.9579 -0.6062
  810MPD2     C11922   2.916   3.719   9.788 -0.3759 -0.1056  0.1616
  810MPD2    C111923   2.845   3.610   9.829  0.6202 -0.0023 -0.3737
  810MPD2    C211924   2.915   3.493   9.830  0.6271  0.0805  1.1736
  810MPD2    C311925   3.045   3.489   9.776  0.2939  0.6559 -0.3355
  810MPD2    C411926   3.110   3.605   9.726  0.9683  0.3319 -0.8091
  810MPD2    C511927   3.039   3.720   9.734  0.1731  0.9849  0.2459
  810MPD2     H11928   2.877   3.402   9.875  0.7439 -1.1714 -1.2729
  810MPD2    H111929   3.202   3.607   9.670  1.1410 -3.3418 -0.6281
  810MPD2    H211930   2.868   3.817   9.788  0.1045  0.1341  1.4091
  810MPD2    H311931   3.079   3.810   9.687 -0.6366  0.0264 -2.2414
  810MPD2     N11932   3.102   3.366   9.785 -0.0986  0.7812 -0.1600
  810MPD2    H511933   3.070   3.301   9.856 -1.0593 -0.8027 -2.0472
  810MPD2    N111934   2.713   3.613   9.886  0.2952 -0.2890 -0.0180
  810MPD2    H711935   2.687   3.700   9.932  1.6054 -0.7543  1.6255
  811MPD2     C11936   1.908   3.712   9.962 -0.1080 -0.7531  0.3141
  811MPD2    C111937   2.026   3.785   9.991 -0.2510 -0.2590  0.2360
  811MPD2    C211938   2.031   3.916   9.964 -0.6514  0.3684  0.3565
  811MPD2    C311939   1.923   3.982   9.920 -0.1014  0.5791  0.5242
  811MPD2    C411940   1.803   3.921   9.896  0.3253 -0.2678 -0.0667
  811MPD2    C511941   1.798   3.782   9.913  0.2169  0.5650 -0.1435
  811MPD2     H11942   2.119   3.976   9.987 -1.2002  2.0550 -1.9059
  811MPD2    H111943   1.710   3.967   9.865  0.0950  0.5757  1.8971
  811MPD2    H211944   1.910   3.605   9.976  1.1497 -1.0226 -1.8857
  811MPD2    H311945   1.705   3.730   9.894  0.1082  0.2376  1.3189
  811MPD2     N11946   1.929   4.125   9.920 -0.3978  0.0033 -0.1507
  811MPD2    H511947   2.010   4.177   9.953 -0.0512 -1.5132  1.3759
  811MPD2    N111948   2.136   3.708  10.041 -0.0090  0.3964 -0.1384
  811MPD2    H711949   2.120   3.609  10.061 -1.3114  0.8095  0.8554
  812MPD2     C11950   1.608   3.414  12.074 -0.0907 -0.1751 -0.4289
  812MPD2    C111951   1.537   3.439  12.187  0.6387  0.3345 -0.0566
  812MPD2    C211952   1.528   3.345  12.287  0.8375 -0.0003  0.2687
  812MPD2    C311953   1.600   3.224  12.267  0.2931 -0.3401 -0.2472
  812MPD2    C411954   1.689   3.210  12.157  0.6247 -0.5246  0.5971
  812MPD2    C511955   1.698   3.306  12.063  0.1127  0.0713  0.2433
  812MPD2     H11956   1.469   3.358  12.377  0.4567 -2.5028  0.3865
  812MPD2    H111957   1.755   3.126  12.144  0.5726  0.0408 -3.1807
  812MPD2    H211958   1.611   3.487  11.994  1.0716  0.1825 -0.0577
  812MPD2    H311959   1.770   3.299  11.983 -0.5751  1.8625 -0.5240
  812MPD2     N11960   1.587   3.118  12.356  0.5947  0.1069  0.4071
  812MPD2    H511961   1.555   3.136  12.450  1.3892  0.3018  0.6385
  812MPD2    N111962   1.476   3.565  12.187 -0.8144 -0.0803  0.3167
  812MPD2    H711963   1.482   3.622  12.103 -3.5621  1.5066  1.1777
  813MPD2     C11964   1.073   0.580  12.657  0.6369 -0.6011  0.7946
  813MPD2    C111965   1.013   0.700  12.635 -0.5718 -0.0637 -0.0603
  813MPD2    C211966   0.904   0.737  12.705 -0.1030 -1.0296 -0.2715
  813MPD2    C311967   0.858   0.652  12.810 -0.6123  0.4475 -0.4416
  813MPD2    C411968   0.932   0.538  12.843 -0.2948 -0.0453 -0.1190
  813MPD2    C511969   1.032   0.504  12.763 -0.0134 -0.0734 -0.4459
  813MPD2     H11970   0.856   0.833  12.687  1.2002 -0.5918 -1.4071
  813MPD2    H111971   0.909   0.465  12.919  0.6817 -0.9813 -0.7251
  813MPD2    H211972   1.147   0.537  12.591  0.7176 -0.0209  0.5140
  813MPD2    H311973   1.089   0.423  12.807  1.1095  0.0416 -1.6953
  813MPD2     N11974   0.750   0.701  12.884  0.5864 -0.0064 -0.7433
  813MPD2    H511975   0.702   0.786  12.858  2.1000  1.2757  0.6351
  813MPD2    N111976   1.074   0.774  12.529  0.2862  0.5583 -0.7552
  813MPD2    H711977   1.141   0.717  12.478 -0.3773  0.2468 -1.2612
  814MPD2     C11978   0.888   2.369  11.858 -0.3718  0.5122  0.3173
  814MPD2    C111979   0.982   2.369  11.765 -0.6579 -0.2813 -0.0164
  814MPD2    C211980   1.092   2.462  11.771  0.8042 -0.1450  0.2550
  814MPD2    C311981   1.103   2.541  11.880 -0.5239 -0.3748  0.3083
  814MPD2    C411982   1.008   2.542  11.981  0.3027  0.4539 -0.0362
  814MPD2    C511983   0.902   2.459  11.969  0.2422  0.4364  0.0592
  814MPD2     H11984   1.159   2.465  11.686  1.5297  1.5496  0.8668
  814MPD2    H111985   1.006   2.609  12.066  1.6226 -0.4044  0.6738
  814MPD2    H211986   0.800   2.305  11.858 -0.2368  0.3260  0.4590
  814MPD2    H311987   0.825   2.459  12.045  1.0711 -0.5798  0.8928
  814MPD2     N11988   1.208   2.640  11.895 -0.5161 -0.2266 -0.2366
  814MPD2    H511989   1.212   2.702  11.975 -1.7660  0.1399 -0.4564
  814MPD2    N111990   0.983   2.279  11.656  0.3915 -0.2461 -0.0560
  814MPD2    H711991   1.065   2.287  11.598  0.7886  1.0287  0.6988
  815MPD2     C11992   1.849   0.097  11.937 -0.0469 -0.6012  0.1794
  815MPD2    C111993   1.778   4.700  11.929  0.1625 -0.5027  0.1997
  815MPD2    C211994   1.685   4.672  12.020  0.4467 -0.2596 -0.1358
  815MPD2    C311995   1.663   0.039  12.121  0.8677  0.3233 -0.3487
  815MPD2    C411996   1.728   0.158  12.122  0.0118  0.4363  0.5693
  815MPD2    C511997   1.829   0.185  12.034 -0.0442 -0.4893  0.1916
  815MPD2     H11998   1.619   4.587  12.006  0.2724  0.1217 -1.6850
  815MPD2    H111999   1.712   0.239  12.193 -2.0541 -0.1744  0.8067
  815MPD2    H212000   1.925   0.121  11.864  0.5641  0.6169  1.2041
  815MPD2    H312001   1.876   0.283  12.035 -0.9410 -0.0516  0.2670
  815MPD2     N12002   1.552   0.014  12.207  0.0398 -0.0240  0.0482
  815MPD2    H512003   1.493   4.662  12.181  0.9389 -0.9369  0.7097
  815MPD2    N112004   1.805   4.610  11.822  0.2709 -0.5141 -0.4810
  815MPD2    H712005   1.866   4.640  11.746 -1.1760 -0.1363 -1.4766
  816MPD2     C12006   1.761   4.461  17.163 -0.6460 -0.0958  0.0414
  816MPD2    C112007   1.688   4.419  17.063 -0.1469 -0.6378  0.3836
  816MPD2    C212008   1.759   4.376  16.951  0.2003 -0.2384 -0.7302
  816MPD2    C312009   1.899   4.361  16.949  0.6474 -0.4055 -0.8205
  816MPD2    C412010   1.972   4.403  17.062  0.0899  0.4472 -0.2716
  816MPD2    C512011   1.899   4.453  17.165  0.1683 -0.4395  0.2078
  816MPD2     H12012   1.715   4.339  16.859 -1.1907 -1.4716  0.4225
  816MPD2    H112013   2.079   4.420  17.059  0.3320 -1.7515 -4.2801
  816MPD2    H212014   1.717   4.491  17.258 -0.5201 -0.6549  0.2798
  816MPD2    H312015   1.957   4.476  17.254  1.4982  2.0434 -1.3247
  816MPD2     N12016   1.968   4.314  16.831  0.0209 -0.7095  0.5172
  816MPD2    H512017   1.913   4.306  16.746  1.5463 -2.0131 -0.3451
  816MPD2    N112018   1.547   4.440  17.066 -0.3852  0.2717 -0.3337
  816MPD2    H712019   1.512   4.499  17.141  0.8285 -0.9039  1.1694
  817MPD2     C12020   0.267   1.068   9.658  0.2096 -0.3115 -0.1657
  817MPD2    C112021   0.303   1.062   9.526 -0.7913 -0.1938  1.2568
  817MPD2    C212022   0.228   1.130   9.431  0.4055  0.5440 -0.1411
  817MPD2    C312023   0.127   1.218   9.473 -0.0587 -0.3748  0.2183
  817MPD2    C412024   0.101   1.233   9.606 -0.0885 -0.2247  0.5758
  817MPD2    C512025   0.166   1.150   9.694  0.3260  0.6986 -0.3630
  817MPD2     H12026   0.253   1.116   9.327 -0.8519 -1.3920 -0.1971
  817MPD2    H112027   0.017   1.292   9.643 -0.0782 -0.0691  0.3537
  817MPD2    H212028   0.302   1.008   9.742 -3.0391 -0.8916  0.7763
  817MPD2    H312029   0.143   1.151   9.800 -0.6554  1.0512 -0.5774
  817MPD2     N12030   0.067   1.304   9.375  0.0337  0.2634 -0.2210
  817MPD2    H512031   0.076   1.267   9.281 -2.1288 -0.5365 -0.1061
  817MPD2    N112032   0.406   0.970   9.478 -0.0049 -0.1933  0.6857
  817MPD2    H712033   0.423   0.963   9.378  1.6847  2.3771  0.7753
  818MPD2     C12034   4.421   1.008  10.329  0.2485  0.1281 -0.6313
  818MPD2    C112035   4.388   0.939  10.443  0.3779 -0.2689  0.1878
  818MPD2    C212036   4.340   0.804  10.432 -0.6294  0.2216  0.2950
  818MPD2    C312037   4.334   0.750  10.307  0.9904  0.1829  0.9758
  818MPD2    C412038   4.370   0.818  10.197  0.7972  0.3209  0.1113
  818MPD2    C512039   4.406   0.952  10.206  0.3762  0.9260 -0.4530
  818MPD2     H12040   4.328   0.748  10.524  4.0958  0.0937  0.8181
  818MPD2    H112041   4.353   0.769  10.103 -0.8403 -0.1258  0.6279
  818MPD2    H212042   4.467   1.106  10.328  1.3122 -0.3741  0.0301
  818MPD2    H312043   4.434   1.008  10.118  0.7886  2.3893  0.5948
  818MPD2     N12044   4.298   0.616  10.278  1.0292 -0.4550  0.6987
  818MPD2    H512045   4.307   0.571  10.188 -0.6868 -0.0939  0.3352
  818MPD2    N112046   4.405   0.989  10.574  0.3314  0.1002  0.0648
  818MPD2    H712047   4.367   0.929  10.647 -1.6639  1.9976  0.5595
  819MPD2     C12048   3.082   2.967  15.589  0.2048 -0.3980 -0.3775
  819MPD2    C112049   3.158   2.860  15.554 -0.5573 -0.0275 -0.8044
  819MPD2    C212050   3.283   2.841  15.603  0.2530  0.6202  0.2235
  819MPD2    C312051   3.335   2.924  15.700 -0.3715 -0.0216  0.8498
  819MPD2    C412052   3.257   3.035  15.734  0.5333 -0.0506 -0.1236
  819MPD2    C512053   3.137   3.056  15.673  0.0933 -0.0315  0.8120
  819MPD2     H12054   3.342   2.756  15.572 -0.7623 -0.6331  1.7870
  819MPD2    H112055   3.292   3.114  15.799  0.6075 -1.5617  1.6947
  819MPD2    H212056   2.981   2.987  15.557  0.2146 -2.9649 -1.9808
  819MPD2    H312057   3.076   3.134  15.719 -0.4214  0.5450 -0.8453
  819MPD2     N12058   3.470   2.901  15.745  0.0218  0.0471 -0.2950
  819MPD2    H512059   3.522   2.826  15.700  1.6720  2.1458 -1.8767
  819MPD2    N112060   3.098   2.780  15.453  0.0204 -0.1689  0.2450
  819MPD2    H712061   3.005   2.807  15.421  0.1097 -0.9189 -0.6517
  820MPD2     C12062   2.303   2.697  14.887  0.2475  0.4718  0.6797
  820MPD2    C112063   2.382   2.795  14.962  0.6536 -0.7765  0.1966
  820MPD2    C212064   2.507   2.773  15.008  0.6202  0.0057  0.7299
  820MPD2    C312065   2.559   2.647  14.979  0.5040 -0.0641 -0.2784
  820MPD2    C412066   2.489   2.557  14.905  0.0475 -0.4449 -0.3202
  820MPD2    C512067   2.363   2.583  14.857 -0.3530 -0.4180 -0.5646
  820MPD2     H12068   2.564   2.846  15.065  2.2601 -0.5494 -0.2066
  820MPD2    H112069   2.531   2.459  14.886 -0.9545 -0.6738 -1.3426
  820MPD2    H212070   2.205   2.726  14.851  1.0980  1.2199 -1.0293
  820MPD2    H312071   2.309   2.515  14.793 -0.6769  0.4548 -1.2048
  820MPD2     N12072   2.694   2.606  15.021  0.3720 -0.4355 -0.2605
  820MPD2    H512073   2.720   2.514  14.987 -1.9290 -0.5188 -1.8189
  820MPD2    N112074   2.320   2.918  14.983  0.3232 -0.0384  0.5591
  820MPD2    H712075   2.227   2.942  14.950  1.3651  1.5885 -1.2095
  821MPD2     C12076   2.665   0.080  12.775  0.0104 -0.4217  0.5077
  821MPD2    C112077   2.757   0.015  12.857  0.1376  0.6564 -0.2809
  821MPD2    C212078   2.886   0.076  12.864 -0.4898 -0.0474  0.5771
  821MPD2    C312079   2.924   0.188  12.783 -0.6594 -0.2048  0.3730
  821MPD2    C412080   2.828   0.239  12.695 -0.4931  0.5110  0.5160
  821MPD2    C512081   2.699   0.186  12.697  0.0005 -0.3959  0.3267
  821MPD2     H12082   2.956   0.038  12.937  2.2165 -0.4516 -2.2212
  821MPD2    H112083   2.843   0.315  12.620 -1.6431 -0.2801 -0.5250
  821MPD2    H212084   2.562   0.051  12.760  0.2657 -0.2999 -1.5029
  821MPD2    H312085   2.622   0.224  12.630  0.3575 -0.1630  0.0455
  821MPD2     N12086   3.052   0.255  12.789  0.2162  0.4989 -0.3654
  821MPD2    H512087   3.055   0.349  12.753 -0.1318 -0.2157 -2.2846
  821MPD2    N112088   2.725   4.627  12.927 -0.0281  0.0479 -0.2946
  821MPD2    H712089   2.804   4.584  12.976 -1.9198 -2.2433  0.7182
  822MPD2     C12090   3.952   4.245  15.744  0.7183  0.0997  0.7693
  822MPD2    C112091   3.945   4.238  15.878 -0.4650  0.2978 -0.0652
  822MPD2    C212092   3.855   4.319  15.937 -0.1207  0.0109  0.4944
  822MPD2    C312093   3.775   4.405  15.869  0.3682  0.4767 -0.0527
  822MPD2    C412094   3.778   4.398  15.733  0.4635  0.8211  0.3497
  822MPD2    C512095   3.857   4.310  15.665 -0.5485 -0.0315 -0.0637
  822MPD2     H12096   3.852   4.325  16.045  0.8603 -0.1488  0.5294
  822MPD2    H112097   3.718   4.466  15.674 -2.0865 -2.3563 -0.7044
  822MPD2    H212098   4.029   4.196  15.684  0.2398  0.5518 -0.2186
  822MPD2    H312099   3.884   4.322  15.561  0.9607 -0.0319  0.3210
  822MPD2     N12100   3.686   4.490  15.953 -0.6774  0.0633  0.2306
  822MPD2    H512101   3.671   4.471  16.051  0.2543  2.3692  0.8223
  822MPD2    N112102   4.049   4.184  15.952  0.2704 -0.3928  0.1145
  822MPD2    H712103   4.045   4.204  16.051  0.9865  1.3952 -0.2316
  823MPD2     C12104   3.351   0.079  16.644  0.5147 -0.0300 -0.1420
  823MPD2    C112105   3.398   4.701  16.562 -0.3536  0.2657  0.1367
  823MPD2    C212106   3.465   4.592  16.618  0.1833 -0.2485 -0.3856
  823MPD2    C312107   3.479   4.582  16.760 -0.2732  0.2740 -0.2779
  823MPD2    C412108   3.420   4.676  16.838  0.2821 -0.6548 -0.1223
  823MPD2    C512109   3.376   0.068  16.779  0.4124  0.6516 -0.6119
  823MPD2     H12110   3.516   4.523  16.552  0.5205  0.7805 -1.2034
  823MPD2    H112111   3.443   4.671  16.944 -0.0202 -0.0860 -0.0360
  823MPD2    H212112   3.314   0.170  16.598  0.5902  0.9163  1.6844
  823MPD2    H312113   3.363   0.155  16.841 -0.2522 -0.4529  0.7788
  823MPD2     N12114   3.535   4.472  16.825  0.1883 -0.0111 -0.5154
  823MPD2    H512115   3.521   4.458  16.925  1.0714 -0.4320 -0.4550
  823MPD2    N112116   3.393   4.718  16.425  0.3580 -0.3363  0.2187
  823MPD2    H712117   3.373   0.087  16.395 -3.0144 -1.6343 -1.7205
  824MPD2     C12118   4.500   3.535  16.081 -0.4019 -0.1013 -0.3796
  824MPD2    C112119   4.541   3.635  16.001  0.4003  0.7270 -0.1664
  824MPD2    C212120   4.614   3.602  15.885 -0.4623  0.0612  0.2868
  824MPD2    C312121   4.645   3.472  15.847  0.4245  0.2425 -0.7901
  824MPD2    C412122   4.591   3.369  15.924  0.3089 -0.0031 -0.1529
  824MPD2    C512123   4.523   3.404  16.037 -0.2663  0.3344 -0.2692
  824MPD2     H12124   4.622   3.680  15.811  2.0277  0.0971  0.5902
  824MPD2    H112125   4.613   3.263  15.912 -0.9563 -0.2087 -0.6348
  824MPD2    H212126   4.448   3.558  16.173 -0.8144 -0.9708 -0.3983
  824MPD2    H312127   4.488   3.323  16.100 -2.4379  3.0614  2.0067
  824MPD2     N12128   4.710   3.444  15.721  0.2877  0.0671  0.3427
  824MPD2    H512129   0.024   3.524  15.673 -0.2223  0.2524  0.2239
  824MPD2    N112130   4.512   3.774  16.018 -0.2372  0.1810  0.2001
  824MPD2    H712131   4.551   3.851  15.964 -0.3705  0.5212  0.5883
  825MPD2     C12132   0.331   3.491  14.922 -0.1802 -0.9283 -0.4875
  825MPD2    C112133   0.231   3.526  15.010  0.4581  0.2797  0.0417
  825MPD2    C212134   0.136   3.623  14.968 -0.5898  0.3194 -0.3720
  825MPD2    C312135   0.157   3.694  14.845 -0.4924  0.4595 -0.1431
  825MPD2    C412136   0.269   3.663  14.766  0.0529 -0.3493 -0.4047
  825MPD2    C512137   0.356   3.563  14.808  0.1593  0.3115  0.0215
  825MPD2     H12138   0.056   3.654  15.034 -2.1706 -2.1036 -1.1681
  825MPD2    H112139   0.295   3.715  14.674  0.9099  1.1094  0.6553
  825MPD2    H212140   0.403   3.414  14.947  0.9088  0.2903  0.1060
  825MPD2    H312141   0.440   3.542  14.743 -2.4102 -0.6934 -2.9675
  825MPD2     N12142   0.070   3.790  14.794 -0.2783 -0.1268 -0.5553
  825MPD2    H512143   0.098   3.839  14.709  0.5723  1.1701  0.4638
  825MPD2    N112144   0.227   3.460  15.131  0.2784  0.6613  0.6660
  825MPD2    H712145   0.297   3.388  15.144 -0.1757  0.2828  1.0693
  826MPD2     C12146   0.134   3.996  13.090 -0.0624 -0.5390 -0.7383
  826MPD2    C112147   0.008   4.005  13.036 -0.3817 -0.4656 -0.2400
  826MPD2    C212148   4.633   4.067  13.106 -0.7378  0.0736  0.2430
  826MPD2    C312149   4.652   4.131  13.233 -0.5323  0.3623 -0.7354
  826MPD2    C412150   0.052   4.107  13.286 -0.0165 -0.5750  0.0509
  826MPD2    C512151   0.149   4.054  13.216 -0.1144  0.4239 -0.6107
  826MPD2     H12152   4.536   4.073  13.059 -1.3746 -1.9548  1.2969
  826MPD2    H112153   0.082   4.148  13.382  0.3454  0.1592 -0.3751
  826MPD2    H212154   0.224   3.950  13.050 -0.5256 -0.4056 -1.9441
  826MPD2    H312155   0.246   4.041  13.260  0.2160 -2.9876 -2.3356
  826MPD2     N12156   4.554   4.205  13.306  0.3062 -0.2556  0.5819
  826MPD2    H512157   4.580   4.226  13.402  2.3370  0.2350 -0.0709
  826MPD2    N112158   4.715   3.921  12.925 -0.4318  0.3103  0.5754
  826MPD2    H712159   0.078   3.905  12.880 -0.1531 -0.2109  1.3144
  827MPD2     C12160   0.259   0.186  10.129 -0.1535  0.0347  0.4159
  827MPD2    C112161   0.218   0.074  10.203  0.2917  0.4480  0.2898
  827MPD2    C212162   0.124   4.720  10.141 -0.6368 -0.3820 -0.0402
  827MPD2    C312163   0.055   0.035  10.026 -0.3175  0.0753  0.4307
  827MPD2    C412164   0.084   0.153   9.965 -0.1625  0.7796  1.0170
  827MPD2    C512165   0.189   0.228  10.013  0.3383 -0.3126 -0.0467
  827MPD2     H12166   0.101   4.625  10.189  1.5152 -1.3287 -0.8824
  827MPD2    H112167   0.036   0.192   9.876 -0.6059  0.6282  1.1890
  827MPD2    H212168   0.349   0.242  10.152  0.8689 -2.5415  2.6591
  827MPD2    H312169   0.216   0.318   9.960 -1.2015  0.2532  0.1486
  827MPD2     N12170   4.687   4.668   9.963 -0.1440 -1.1577 -0.0206
  827MPD2    H512171   4.667   4.575   9.999 -0.5521 -1.0627  0.0006
  827MPD2    N112172   0.277   0.049  10.333 -0.1675 -0.3543 -0.4395
  827MPD2    H712173   0.362   0.100  10.351 -0.0654 -0.6154 -0.1925
  828MPD2     C12174   3.559   4.695  12.690 -0.7877  0.4664 -0.1530
  828MPD2    C112175   3.595   0.010  12.565 -0.0237 -0.0606 -0.5367
  828MPD2    C212176   3.721   4.718  12.511  0.3382  0.0728  0.7702
  828MPD2    C312177   3.812   4.648  12.588 -0.7270  0.0843 -0.3727
  828MPD2    C412178   3.765   4.589  12.704 -0.4395  0.9416  0.1530
  828MPD2    C512179   3.638   4.605  12.747 -0.5938 -1.3029 -0.1788
  828MPD2     H12180   3.749   0.040  12.419  0.1419 -2.6753 -0.7177
  828MPD2    H112181   3.831   4.535  12.771 -1.8660 -1.2185 -0.1826
  828MPD2    H212182   3.472   0.009  12.740 -1.0349 -0.1832 -0.0617
  828MPD2    H312183   3.599   4.555  12.835  0.2699 -2.5801 -0.5171
  828MPD2     N12184   3.943   4.616  12.540  0.1876  0.5630  0.4595
  828MPD2    H512185   3.996   4.545  12.590  2.1830  0.3792 -1.8785
  828MPD2    N112186   3.513   0.098  12.487 -0.1789 -0.7556  0.2816
  828MPD2    H712187   3.552   0.149  12.409 -1.0307 -0.1637  0.2489
  829MPD2     C12188   3.688   0.353  11.660  0.5741  0.3820  0.2106
  829MPD2    C112189   3.553   0.329  11.651 -0.0102 -0.4111 -0.1218
  829MPD2    C212190   3.475   0.308  11.768 -0.5479  0.4313 -0.1800
  829MPD2    C312191   3.532   0.300  11.889  0.0375  0.0340 -0.5956
  829MPD2    C412192   3.667   0.321  11.897  0.0149 -0.1612 -0.4880
  829MPD2    C512193   3.743   0.343  11.787  0.1697  0.1423  0.0028
  829MPD2     H12194   3.367   0.311  11.760 -0.3036 -0.1934 -3.7502
  829MPD2    H112195   3.717   0.315  11.993  0.5342 -2.0193 -0.8748
  829MPD2    H212196   3.758   0.350  11.576  0.6686  3.0551  0.1995
  829MPD2    H312197   3.850   0.354  11.800 -0.1638 -1.3084  3.8709
  829MPD2     N12198   3.465   0.284  12.017 -0.1602 -0.2245  0.1119
  829MPD2    H512199   3.520   0.270  12.100  0.7188 -1.2765 -0.6570
  829MPD2    N112200   3.500   0.314  11.517  0.4716  0.5250  0.3766
  829MPD2    H712201   3.561   0.337  11.439 -2.9066  2.7844 -1.5897
  830MPD2     C12202   4.304   3.082  15.753  0.0421  0.2349 -0.8637
  830MPD2    C112203   4.189   3.051  15.684  0.3464  0.3379 -0.0730
  830MPD2    C212204   4.167   3.095  15.555  0.0345  0.3565 -0.2998
  830MPD2    C312205   4.259   3.183  15.495 -0.1170  0.0529 -0.4863
  830MPD2    C412206   4.374   3.211  15.566  0.2519 -0.0583  0.0723
  830MPD2    C512207   4.398   3.154  15.692  0.3700 -0.0626  0.6373
  830MPD2     H12208   4.088   3.060  15.489 -0.0052  2.2705 -1.2600
  830MPD2    H112209   4.456   3.269  15.526 -0.4971  0.5954 -0.5181
  830MPD2    H212210   4.312   3.054  15.857  1.8893 -1.8335 -1.5527
  830MPD2    H312211   4.480   3.185  15.755  1.2123 -0.1715 -0.4232
  830MPD2     N12212   4.247   3.241  15.363  0.0595  0.2858  0.2454
  830MPD2    H512213   4.327   3.293  15.327  0.6498 -0.4526  0.4745
  830MPD2    N112214   4.083   2.997  15.764 -0.2914 -0.8104 -0.5446
  830MPD2    H712215   4.100   2.979  15.863  0.9087 -3.6346 -1.2782
  831MPD2     C12216   3.851   0.044  16.176 -0.5234 -0.2692  0.4568
  831MPD2    C112217   3.916   4.663  16.121  0.2919  0.9206  0.1828
  831MPD2    C212218   3.902   4.538  16.184 -0.0218 -0.3515  0.6023
  831MPD2    C312219   3.808   4.524  16.284  0.1482  0.2995 -0.0544
  831MPD2    C412220   3.747   4.637  16.340  0.3410  0.4711  0.4854
  831MPD2    C512221   3.768   0.032  16.284 -0.3536  0.7034  0.6344
  831MPD2     H12222   3.954   4.449  16.151 -0.6459  0.2330 -1.9614
  831MPD2    H112223   3.677   4.635  16.422 -2.1631 -0.0951 -1.6619
  831MPD2    H212224   3.866   0.140  16.129  1.4680 -0.9685 -0.3334
  831MPD2    H312225   3.712   0.116  16.323 -2.1247  0.4833 -1.3889
  831MPD2     N12226   3.769   4.400  16.342  0.2635  0.9474 -0.1381
  831MPD2    H512227   3.680   4.397  16.391  0.3729 -1.1918 -0.0610
  831MPD2    N112228   3.989   4.673  16.001 -0.0375  0.0662  0.0947
  831MPD2    H712229   3.963   0.023  15.940 -1.0899  0.4075  0.9730
  832MPD2     C12230   2.016   0.914  17.140  0.0889 -0.1078  0.3879
  832MPD2    C112231   1.911   0.997  17.151  0.0397  0.1472 -0.1967
  832MPD2    C212232   1.810   0.993  17.061 -0.3397 -1.0038 -0.0767
  832MPD2    C312233   1.809   0.881  16.970  0.0679 -0.9201  0.3502
  832MPD2    C412234   1.912   0.793  16.964  0.0182 -0.2904  1.1379
  832MPD2    C512235   2.017   0.809  17.047  0.1966 -0.3292 -0.2612
  832MPD2     H12236   1.717   1.044  17.081 -0.0284 -0.0676 -1.0523
  832MPD2    H112237   1.917   0.721  16.883 -2.7097 -0.7250  1.3632
  832MPD2    H212238   2.097   0.926  17.211  0.1820 -2.2755  0.6350
  832MPD2    H312239   2.103   0.744  17.040 -1.5050 -2.6004 -0.2734
  832MPD2     N12240   1.708   0.862  16.875  0.2295 -0.1704  0.0582
  832MPD2    H512241   1.711   0.783  16.811 -1.4351  0.1560 -0.4212
  832MPD2    N112242   1.920   1.089  17.260  0.2943  0.9562  0.2395
  832MPD2    H712243   2.002   1.076  17.318  1.1035 -1.4435 -1.4046
  833MPD2     C12244   3.961   2.897  12.798  0.5593  0.7629  0.3041
  833MPD2    C112245   3.920   2.944  12.680  0.2683 -0.1777  0.0317
  833MPD2    C212246   3.968   2.885  12.568  0.2916  0.1645 -0.1880
  833MPD2    C312247   4.052   2.773  12.573 -0.1342 -0.7746 -0.2926
  833MPD2    C412248   4.090   2.725  12.693 -0.1873  0.0588 -0.1860
  833MPD2    C512249   4.044   2.789  12.808 -0.5720  0.3791  0.7127
  833MPD2     H12250   3.951   2.934  12.473  0.2854 -1.1006 -0.8453
  833MPD2    H112251   4.160   2.642  12.707  0.7447  0.9602  0.5101
  833MPD2    H212252   3.930   2.940  12.893 -0.0334  0.7104  0.1336
  833MPD2    H312253   4.056   2.756  12.910  0.6603 -0.6620  0.2252
  833MPD2     N12254   4.089   2.697  12.464  0.7382 -0.0095 -0.2000
  833MPD2    H512255   4.139   2.612  12.486 -0.7810 -1.0590 -0.8398
  833MPD2    N112256   3.831   3.049  12.662 -0.3002 -0.1658  0.0283
  833MPD2    H712257   3.812   3.079  12.567 -1.2694  2.7229  1.1084
  834MPD2     C12258   3.630   1.890  12.038 -0.4013  0.3020  0.2329
  834MPD2    C112259   3.722   1.911  11.939  0.4717  0.0255 -0.3452
  834MPD2    C212260   3.803   2.026  11.950 -0.2366  0.8706 -0.3554
  834MPD2    C312261   3.796   2.117  12.055  0.1884  0.0387 -0.5580
  834MPD2    C412262   3.696   2.095  12.149 -0.3544 -0.4445  0.5277
  834MPD2    C512263   3.614   1.983  12.140  0.5783  0.0603  0.4742
  834MPD2     H12264   3.893   2.033  11.890  0.5964  0.5038  0.8543
  834MPD2    H112265   3.678   2.167  12.227 -0.8420 -1.1988  1.1147
  834MPD2    H212266   3.559   1.809  12.028 -1.4452  0.8023  3.6945
  834MPD2    H312267   3.539   1.969  12.217  0.8145 -0.5627  0.5994
  834MPD2     N12268   3.878   2.229  12.062  0.3471  0.0321  0.2875
  834MPD2    H512269   3.943   2.239  11.985 -0.4148  2.2231 -0.0924
  834MPD2    N112270   3.745   1.805  11.859  0.0647  0.2293  0.0025
  834MPD2    H712271   3.684   1.725  11.871 -1.8193  1.4008 -1.8350
  835MPD2     C12272   4.416   4.300  11.301 -0.0030  0.0098  1.0334
  835MPD2    C112273   4.356   4.425  11.312 -0.3222 -0.2431  0.1357
  835MPD2    C212274   4.398   4.510  11.410 -0.7454  0.0170 -0.1427
  835MPD2    C312275   4.488   4.471  11.509  0.1456  0.7362  0.1487
  835MPD2    C412276   4.542   4.342  11.500  0.1494  0.6427 -0.8097
  835MPD2    C512277   4.510   4.264  11.394 -0.1188 -0.9465 -0.0050
  835MPD2     H12278   4.347   4.606  11.412 -0.3917  0.1432  2.8614
  835MPD2    H112279   4.612   4.309  11.576  0.0036 -0.6220 -1.2355
  835MPD2    H212280   4.391   4.232  11.220  0.5713 -1.7756  2.3604
  835MPD2    H312281   4.565   4.171  11.378  3.5363  1.2093 -0.0424
  835MPD2     N12282   4.530   4.562  11.611  0.7909  0.7592  0.0823
  835MPD2    H512283   4.591   4.528  11.685  0.9037 -0.3659 -0.5240
  835MPD2    N112284   4.265   4.487  11.220  0.1032 -0.4898  0.0967
  835MPD2    H712285   4.243   4.585  11.231  0.0843 -0.2484 -2.0055
  836MPD2     C12286   4.349   0.602  11.629 -0.2109 -0.0449  0.0262
  836MPD2    C112287   4.287   0.531  11.731 -0.2895  0.4048 -0.4575
  836MPD2    C212288   4.154   0.566  11.762 -0.4368  0.1731 -0.7918
  836MPD2    C312289   4.104   0.685  11.713  0.7272 -0.2775  0.0287
  836MPD2    C412290   4.179   0.760  11.622 -0.2651 -0.7818 -0.0544
  836MPD2    C512291   4.307   0.719  11.580 -0.6493 -0.2997  0.0308
  836MPD2     H12292   4.100   0.506  11.834 -0.8909  0.2508 -1.0697
  836MPD2    H112293   4.158   0.860  11.587 -1.4971 -1.0292 -0.0483
  836MPD2    H212294   4.448   0.580  11.590  0.5103  2.0396  0.6540
  836MPD2    H312295   4.376   0.765  11.511 -2.1314  0.4265 -0.9657
  836MPD2     N12296   3.977   0.726  11.748 -0.4733 -0.8246 -0.5632
  836MPD2    H512297   3.938   0.809  11.704 -1.4088 -1.4787 -0.9590
  836MPD2    N112298   4.355   0.419  11.785 -0.6476  0.5777 -0.0780
  836MPD2    H712299   4.450   0.403  11.755 -0.6987  2.1875 -1.0826
  837MPD2     C12300   2.153   4.714  10.344 -0.7681  0.1806  0.0866
  837MPD2    C112301   2.048   0.036  10.272  1.0200  0.2158 -0.0986
  837MPD2    C212302   2.038   0.170  10.266 -0.6909  0.2099  0.2173
  837MPD2    C312303   2.138   0.256  10.315  0.0112  0.1990  0.3043
  837MPD2    C412304   2.249   0.207  10.388  0.4187  0.0591 -0.0039
  837MPD2    C512305   2.252   0.068  10.400 -0.2939  0.3145 -0.0470
  837MPD2     H12306   1.956   0.216  10.212  0.4000 -0.7556 -2.2920
  837MPD2    H112307   2.324   0.267  10.438  2.5297 -2.7368  0.1934
  837MPD2    H212308   2.159   4.608  10.362 -0.4274  0.0123 -1.0331
  837MPD2    H312309   2.330   0.025  10.462  0.4761 -0.3468 -1.4811
  837MPD2     N12310   2.125   0.393  10.281  0.6706 -0.6873  0.7218
  837MPD2    H512311   2.047   0.419  10.222 -0.8926 -0.2028  3.0130
  837MPD2    N112312   1.963   4.680  10.192 -0.2601 -0.0340 -0.8472
  837MPD2    H712313   1.886   0.006  10.152 -1.6967 -0.2195  1.6769
  838MPD2     C12314   0.464   2.049  10.802 -0.5306  0.5263  0.8033
  838MPD2    C112315   0.433   2.162  10.878 -0.6187 -0.4376  1.0610
  838MPD2    C212316   0.344   2.159  10.983  0.9907 -0.7736 -0.6809
  838MPD2    C312317   0.289   2.033  11.012  0.3388 -0.6741  0.3270
  838MPD2    C412318   0.324   1.925  10.929  0.3705 -0.4807  0.0092
  838MPD2    C512319   0.404   1.933  10.825  1.1792  0.4492 -0.2171
  838MPD2     H12320   0.326   2.253  11.035 -0.8927 -0.7575 -1.3584
  838MPD2    H112321   0.282   1.826  10.941 -0.4535 -0.1748 -0.3762
  838MPD2    H212322   0.543   2.053  10.728 -1.2280  0.0541  0.0331
  838MPD2    H312323   0.433   1.841  10.776  3.6108  0.1969  1.6659
  838MPD2     N12324   0.201   2.029  11.118 -0.1312 -0.6722  0.3510
  838MPD2    H512325   0.175   2.112  11.170  1.4040 -1.1768  1.9475
  838MPD2    N112326   0.486   2.292  10.852 -0.2865 -0.1489  0.4248
  838MPD2    H712327   0.453   2.370  10.908 -1.0161 -0.2049  0.0794
  839MPD2     C12328   0.562   2.205  11.417  0.3576  0.5483 -0.1991
  839MPD2    C112329   0.559   2.130  11.300  0.1278 -0.5255 -0.3281
  839MPD2    C212330   0.615   2.189  11.191 -0.1536 -0.4705  0.0969
  839MPD2    C312331   0.678   2.314  11.202 -0.2762 -0.0457  0.2494
  839MPD2    C412332   0.676   2.388  11.317 -0.1909  0.4007 -0.3099
  839MPD2    C512333   0.615   2.329  11.426 -0.1741 -0.7703 -0.1123
  839MPD2     H12334   0.609   2.149  11.090 -1.5306 -1.2957  0.5108
  839MPD2    H112335   0.724   2.484  11.332  0.5867 -0.0054 -0.2395
  839MPD2    H212336   0.521   2.159  11.506  2.5479  0.1592  0.6038
  839MPD2    H312337   0.619   2.384  11.519 -0.9432 -0.7077 -0.1141
  839MPD2     N12338   0.745   2.360  11.088 -0.4279  0.0333  0.2996
  839MPD2    H512339   0.731   2.306  11.004  2.3125  0.4119 -0.4188
  839MPD2    N112340   0.499   2.003  11.285 -0.5470 -0.4753  0.1437
  839MPD2    H712341   0.497   1.975  11.187 -0.6151 -2.8329  0.8176
  840MPD2     C12342   0.793   0.292  10.535 -0.3213  0.7630  0.1162
  840MPD2    C112343   0.784   0.198  10.630  0.3590  0.4030  0.1009
  840MPD2    C212344   0.885   0.177  10.721  0.2956 -0.6002  0.2222
  840MPD2    C312345   0.996   0.266  10.728 -0.1093  0.6573 -0.1335
  840MPD2    C412346   1.010   0.352  10.621 -0.0895 -0.0125 -0.8611
  840MPD2    C512347   0.907   0.370  10.530  0.4513 -0.1166  0.1109
  840MPD2     H12348   0.875   0.098  10.795 -1.6423  0.7280  1.3571
  840MPD2    H112349   1.098   0.413  10.602 -0.6943  1.2956  0.5376
  840MPD2    H212350   0.708   0.313  10.471 -0.1102 -1.0576 -0.7413
  840MPD2    H312351   0.920   0.433  10.443 -1.2696  0.5155  0.3125
  840MPD2     N12352   1.105   0.258  10.814  0.1832 -0.2550  0.1326
  840MPD2    H512353   1.182   0.323  10.798  0.4193 -0.5701 -0.0101
  840MPD2    N112354   0.659   0.136  10.632 -0.4645  0.3207  0.5324
  840MPD2    H712355   0.595   0.173  10.563 -1.8504 -3.8031 -0.4428
  841MPD2     C12356   0.118   0.371  14.429  0.8862 -0.4517 -0.0272
  841MPD2    C112357   0.198   0.273  14.376  0.2667 -0.7078 -0.1226
  841MPD2    C212358   0.314   0.315  14.306  0.1068 -0.4178  0.2695
  841MPD2    C312359   0.350   0.450  14.292  0.2408  0.1050 -0.0549
  841MPD2    C412360   0.266   0.545  14.355  0.4330  0.0305  0.4142
  841MPD2    C512361   0.157   0.503  14.424 -0.2814 -0.0195 -0.0743
  841MPD2     H12362   0.372   0.232  14.267  1.6118  0.8966 -0.3138
  841MPD2    H112363   0.276   0.651  14.334  2.4384  0.1228  1.8154
  841MPD2    H212364   0.023   0.351  14.477  0.1639  1.5147 -0.6654
  841MPD2    H312365   0.098   0.586  14.460  0.5206  0.5722 -0.1177
  841MPD2     N12366   0.476   0.481  14.228 -0.1453  0.5947  0.0640
  841MPD2    H512367   0.529   0.405  14.186 -1.6915 -1.4633  1.8634
  841MPD2    N112368   0.173   0.134  14.406 -0.4980  0.2964 -0.5940
  841MPD2    H712369   0.231   0.074  14.348  1.4206  0.2971  1.3182
  842MPD2     C12370   1.044   1.426  16.356 -0.1723  0.1792  0.9803
  842MPD2    C112371   0.925   1.356  16.382  0.0766 -0.3991 -0.0629
  842MPD2    C212372   0.916   1.305  16.506 -0.4857  0.0531  0.2400
  842MPD2    C312373   0.997   1.344  16.609  0.0929 -0.1708 -0.4951
  842MPD2    C412374   1.101   1.431  16.584  0.3389 -0.0611  0.2263
  842MPD2    C512375   1.124   1.467  16.452  0.3271  0.7783 -0.3816
  842MPD2     H12376   0.830   1.248  16.540  0.4924  0.9108  4.1661
  842MPD2    H112377   1.172   1.454  16.663  0.2281  1.8808 -0.2319
  842MPD2    H212378   1.076   1.458  16.257 -2.1453 -0.5161  0.1030
  842MPD2    H312379   1.218   1.514  16.424  0.8075  0.6057  0.9098
  842MPD2     N12380   0.987   1.307  16.742 -0.7528  0.5829 -0.7203
  842MPD2    H512381   1.067   1.322  16.803  0.8025 -1.0475 -2.3884
  842MPD2    N112382   0.845   1.305  16.276  0.2841 -0.0940  0.6719
  842MPD2    H712383   0.877   1.336  16.184 -0.5440 -2.1173 -0.3002
  843MPD2     C12384   3.294   0.941   0.373 -0.8260 -0.4859  0.3315
  843MPD2    C112385   3.329   0.991   0.496 -0.1861  0.7485  0.2293
  843MPD2    C212386   3.343   1.124   0.518  0.0067  0.0039  0.3080
  843MPD2    C312387   3.320   1.217   0.414 -0.3325 -0.0918  0.1798
  843MPD2    C412388   3.279   1.162   0.290 -0.3699 -0.0289 -0.1438
  843MPD2    C512389   3.271   1.028   0.268  0.8895 -0.6933 -0.2004
  843MPD2     H12390   3.397   1.159   0.606 -0.0015  0.0825  0.2820
  843MPD2    H112391   3.262   1.227   0.205  0.5967 -0.4246 -0.6407
  843MPD2    H212392   3.292   0.835   0.351 -1.1057 -0.8312  2.0284
  843MPD2    H312393   3.243   0.989   0.171 -3.3642 -1.9751  1.5470
  843MPD2     N12394   3.354   1.351   0.421  0.4134 -0.0778  0.0533
  843MPD2    H512395   3.328   1.408   0.341  0.4935  1.7795  1.3412
  843MPD2    N112396   3.336   0.892   0.605  0.4145 -0.6849 -0.0162
  843MPD2    H712397   3.314   0.795   0.584 -0.5200 -0.9852  2.2886
  844MPD2     C12398   1.598   0.688  16.307 -0.3542 -0.3648  0.2675
  844MPD2    C112399   1.699   0.597  16.318 -0.4825 -0.4305  0.4543
  844MPD2    C212400   1.799   0.622  16.407 -0.5209 -0.6635 -0.1581
  844MPD2    C312401   1.814   0.752  16.452 -0.1181 -0.3557 -0.2067
  844MPD2    C412402   1.714   0.845  16.442 -0.1349  0.1814 -0.9757
  844MPD2    C512403   1.605   0.810  16.368  0.1578  0.1225  0.1775
  844MPD2     H12404   1.875   0.548  16.427  0.5235  0.2634 -0.7155
  844MPD2    H112405   1.716   0.947  16.481  2.4303 -0.6369  1.0249
  844MPD2    H212406   1.508   0.671  16.248  1.1188 -4.2958 -0.8854
  844MPD2    H312407   1.531   0.889  16.362 -0.8387 -1.0690 -3.2807
  844MPD2     N12408   1.926   0.776  16.541 -0.1048 -0.1881 -0.5574
  844MPD2    H512409   1.997   0.703  16.540  1.0524  0.9237  1.2628
  844MPD2    N112410   1.702   0.477  16.242 -0.1927  0.3964  0.4887
  844MPD2    H712411   1.777   0.413  16.264 -1.5678 -1.5805 -0.5149
  845MPD2     C12412   2.069   1.535  17.189  1.4400 -0.1937  0.3165
  845MPD2    C112413   1.967   1.486  17.108 -0.2101  0.0361  0.0792
  845MPD2    C212414   2.005   1.396  17.011  0.4346 -0.0042  0.1489
  845MPD2    C312415   2.131   1.334  17.002 -1.0302 -0.0260 -0.1024
  845MPD2    C412416   2.228   1.386  17.086  0.0382  0.5704  0.3814
  845MPD2    C512417   2.201   1.494  17.163 -0.4927 -0.2787 -0.0959
  845MPD2     H12418   1.925   1.358  16.949  0.7887 -0.7708  0.1646
  845MPD2    H112419   2.335   1.366  17.084 -0.0128  0.0979  3.4238
  845MPD2    H212420   2.046   1.611  17.263  0.8784  0.8921 -0.9771
  845MPD2    H312421   2.284   1.538  17.217 -1.3914 -0.9335  1.7916
  845MPD2     N12422   2.150   1.236  16.904  0.0161 -0.1792 -0.1484
  845MPD2    H512423   2.073   1.209  16.843  0.2830  1.4672 -1.1893
  845MPD2    N112424   1.832   1.527  17.118  0.0485  0.1703 -0.6454
  845MPD2    H712425   1.764   1.511  17.044 -2.7384  0.8563  1.7476
  846MPD2     C12426   3.816   2.081  13.494  0.2298  0.3028 -0.4677
  846MPD2    C112427   3.693   2.112  13.552  0.5686 -0.5430  0.2874
  846MPD2    C212428   3.676   2.084  13.688  0.6998 -0.0231 -0.0604
  846MPD2    C312429   3.789   2.045  13.761  0.2287  0.3586 -1.0499
  846MPD2    C412430   3.910   2.028  13.705 -0.0963 -0.5972 -0.2751
  846MPD2    C512431   3.922   2.045  13.571  0.2087 -0.6754  0.7281
  846MPD2     H12432   3.584   2.095  13.744  0.2925 -2.0478 -0.3508
  846MPD2    H112433   4.002   2.004  13.757  0.0637 -0.5374 -0.5303
  846MPD2    H212434   3.832   2.078  13.387 -0.2407 -0.8255 -0.5078
  846MPD2    H312435   4.016   2.028  13.520  1.5693  0.8082  2.7339
  846MPD2     N12436   3.771   2.025  13.897  0.7783 -0.2570 -0.5155
  846MPD2    H512437   3.687   2.067  13.934  2.2775  0.1057  2.5018
  846MPD2    N112438   3.580   2.161  13.485 -0.2753  0.0241  0.2651
  846MPD2    H712439   3.505   2.203  13.539  0.3870 -0.0887  1.2618
  847MPD2     C12440   3.400   3.004  14.645 -0.5477  0.4403 -0.1179
  847MPD2    C112441   3.493   3.029  14.550  0.5609 -0.5670  0.6290
  847MPD2    C212442   3.605   2.950  14.543 -1.0595 -0.2890 -0.2011
  847MPD2    C312443   3.639   2.857  14.641  0.1936  0.1313  0.7996
  847MPD2    C412444   3.549   2.842  14.743 -0.4952  0.1139 -0.0599
  847MPD2    C512445   3.429   2.910  14.740  0.1051 -0.1280  0.1437
  847MPD2     H12446   3.685   2.969  14.472  0.1449  2.0046  1.7883
  847MPD2    H112447   3.577   2.779  14.827  1.4616 -1.8430 -2.1935
  847MPD2    H212448   3.306   3.059  14.646 -0.4361  0.6497 -1.0452
  847MPD2    H312449   3.353   2.900  14.816  0.3504 -0.0964  0.3953
  847MPD2     N12450   3.763   2.799  14.633  0.0509  0.0950  0.4277
  847MPD2    H512451   3.814   2.810  14.546 -0.0334  0.7734  0.4632
  847MPD2    N112452   3.474   3.125  14.448  0.3062 -0.5440  1.2182
  847MPD2    H712453   3.548   3.130  14.379 -0.2109 -0.2425  0.6772
  848MPD2     C12454   1.232   1.113  16.199 -0.1597 -0.0010 -0.0377
  848MPD2    C112455   1.322   1.158  16.291  0.4511  0.1124 -0.6216
  848MPD2    C212456   1.386   1.277  16.265  0.3297 -0.3560 -0.4234
  848MPD2    C312457   1.353   1.351  16.147  0.1050  0.3533  0.5169
  848MPD2    C412458   1.243   1.311  16.072  0.5952 -0.3968  0.2576
  848MPD2    C512459   1.185   1.192  16.098 -0.3560  0.2667 -0.0536
  848MPD2     H12460   1.459   1.307  16.338 -0.1858  1.8616 -0.8148
  848MPD2    H112461   1.213   1.370  15.986 -1.6884 -1.5995  0.2281
  848MPD2    H212462   1.172   1.024  16.218  0.2657 -0.4071 -0.5946
  848MPD2    H312463   1.087   1.167  16.057  0.1934 -1.3233 -0.3997
  848MPD2     N12464   1.419   1.472  16.109 -0.0237 -0.5957  0.2248
  848MPD2    H512465   1.401   1.507  16.015  0.9679 -1.7944 -0.4190
  848MPD2    N112466   1.352   1.079  16.406  0.0726 -0.6419  0.4111
  848MPD2    H712467   1.423   1.119  16.467 -1.3105 -1.6677  2.7069
  849MPD2     C12468   0.564   1.080  14.198 -0.4909  0.5537  0.0500
  849MPD2    C112469   0.677   1.017  14.150 -0.2514  0.5330 -0.2331
  849MPD2    C212470   0.790   1.021  14.215 -0.3717 -0.0856 -0.5478
  849MPD2    C312471   0.804   1.096  14.331  0.0710 -0.2798  0.1988
  849MPD2    C412472   0.695   1.160  14.378  0.3227  0.1413  0.0984
  849MPD2    C512473   0.576   1.147  14.314 -1.2145  0.0323  0.4358
  849MPD2     H12474   0.872   0.964  14.173  0.6255 -0.3748  1.7903
  849MPD2    H112475   0.699   1.215  14.471 -1.4283 -0.2269  0.3886
  849MPD2    H212476   0.469   1.080  14.146 -0.8840  0.3847  0.7785
  849MPD2    H312477   0.487   1.180  14.365 -0.0248 -2.2167  3.9916
  849MPD2     N12478   0.924   1.098  14.398 -0.6487  0.0291  0.7070
  849MPD2    H512479   0.998   1.039  14.361 -0.8865 -0.4127  0.9422
  849MPD2    N112480   0.674   0.927  14.035 -0.3707  0.0399 -0.1394
  849MPD2    H712481   0.762   0.883  14.008 -0.4523  0.7698 -1.5888
  850MPD2     C12482   3.286   3.569  14.808  1.0508 -0.2886  0.5281
  850MPD2    C112483   3.299   3.698  14.836 -0.2195  0.0790  0.2590
  850MPD2    C212484   3.424   3.756  14.835 -0.2132 -0.1401 -0.7241
  850MPD2    C312485   3.537   3.684  14.798 -0.0622  0.3603 -0.2054
  850MPD2    C412486   3.516   3.557  14.751  0.2620 -0.3246  0.5092
  850MPD2    C512487   3.398   3.500  14.765  0.1042 -0.2395  0.4525
  850MPD2     H12488   3.432   3.864  14.847  2.0440 -0.4238  0.2815
  850MPD2    H112489   3.607   3.507  14.721  0.3106  0.8197 -1.2935
  850MPD2    H212490   3.190   3.518  14.807  0.3639  0.9845  3.1355
  850MPD2    H312491   3.388   3.401  14.721  1.9461 -0.3297  0.1929
  850MPD2     N12492   3.672   3.740  14.790 -0.5974 -0.0974  0.7093
  850MPD2    H512493   3.739   3.674  14.751  0.0584  1.3280 -0.5643
  850MPD2    N112494   3.175   3.750  14.889  0.0153  0.1809 -0.1469
  850MPD2    H712495   3.088   3.702  14.869  0.9265 -1.0027 -1.2580
  851MPD2     C12496   3.815   3.977  15.426 -0.4032 -0.0722  0.0121
  851MPD2    C112497   3.742   3.893  15.345  0.0056  0.3538  0.8237
  851MPD2    C212498   3.806   3.784  15.288  0.0584  0.5710  0.0127
  851MPD2    C312499   3.945   3.775  15.293  0.1481  0.3055 -0.0355
  851MPD2    C412500   4.016   3.845  15.376 -0.2857 -0.0701 -0.0436
  851MPD2    C512501   3.947   3.941  15.447  0.5102  0.7111 -0.9283
  851MPD2     H12502   3.747   3.734  15.213  0.1495 -0.1612  0.4280
  851MPD2    H112503   4.124   3.844  15.392 -0.0017  2.0240 -1.7677
  851MPD2    H212504   3.770   4.059  15.481 -0.7381 -0.3057  0.0869
  851MPD2    H312505   4.010   3.996  15.516 -0.1188  0.1870  0.0633
  851MPD2     N12506   4.011   3.695  15.199 -0.1867 -0.3371  0.2151
  851MPD2    H512507   3.953   3.634  15.142 -0.6939  0.5812 -0.2469
  851MPD2    N112508   3.605   3.930  15.321 -0.4308 -0.0438  0.0079
  851MPD2    H712509   3.590   4.025  15.354 -0.1960  0.9186 -2.6154
  852MPD2     C12510   2.866   1.566   8.986  0.1502  0.8172  0.0725
  852MPD2    C112511   2.966   1.535   9.073 -0.1805 -0.0854 -0.1343
  852MPD2    C212512   3.014   1.647   9.142 -0.0874 -0.4788  0.2536
  852MPD2    C312513   2.968   1.780   9.126  0.0070 -0.1718 -0.0470
  852MPD2    C412514   2.857   1.799   9.047 -0.2754  0.1983 -0.0095
  852MPD2    C512515   2.815   1.691   8.973  0.2715 -0.1169  0.7425
  852MPD2     H12516   3.103   1.631   9.203  1.1012 -0.3789 -1.4548
  852MPD2    H112517   2.806   1.893   9.030 -1.1822 -0.2509  0.1764
  852MPD2    H212518   2.811   1.493   8.927 -1.1342  2.4723 -0.8063
  852MPD2    H312519   2.733   1.702   8.903  0.7799  0.9589  0.3166
  852MPD2     N12520   3.029   1.890   9.198 -0.1922 -0.9615 -0.1508
  852MPD2    H512521   3.108   1.864   9.255 -0.5377 -1.0280  0.2956
  852MPD2    N112522   3.014   1.403   9.102  0.1958  0.2265  0.3226
  852MPD2    H712523   3.082   1.402   9.178 -0.1401 -0.8213  0.6098
  853MPD2     C12524   0.969   1.368  12.127  0.1095  0.3677  0.2382
  853MPD2    C112525   0.839   1.321  12.096 -0.3268 -0.1781 -0.3217
  853MPD2    C212526   0.817   1.269  11.971  0.6816  0.2010 -0.2209
  853MPD2    C312527   0.922   1.247  11.884 -0.3981  0.5665  0.1473
  853MPD2    C412528   1.046   1.290  11.914 -1.0187 -0.3693 -0.0244
  853MPD2    C512529   1.069   1.350  12.037  0.7838  0.4552 -0.4846
  853MPD2     H12530   0.718   1.241  11.938  0.7582 -0.0207 -0.2570
  853MPD2    H112531   1.119   1.278  11.835 -1.0025 -3.8195  0.5006
  853MPD2    H212532   0.985   1.416  12.223 -2.5262  2.9489 -0.6206
  853MPD2    H312533   1.169   1.385  12.060  0.6361  0.9508 -0.5977
  853MPD2     N12534   0.913   1.196  11.751 -0.1268  0.6464  0.2339
  853MPD2    H512535   0.995   1.191  11.692  1.3454  0.7719  2.2867
  853MPD2    N112536   0.733   1.354  12.184 -0.3728  0.1932 -0.0017
  853MPD2    H712537   0.759   1.409  12.265  1.6789 -1.8441  0.7164
  854MPD2     C12538   1.843   1.547  13.045  0.2705 -0.6780 -0.2404
  854MPD2    C112539   1.940   1.516  12.952  0.2089 -0.5574 -0.3992
  854MPD2    C212540   2.042   1.422  12.976  1.1031 -0.1780  0.6678
  854MPD2    C312541   2.061   1.375  13.104 -0.1585  0.7287 -0.3724
  854MPD2    C412542   1.970   1.419  13.200  0.0953  0.9850 -0.3274
  854MPD2    C512543   1.860   1.496  13.177 -0.0007  0.4746  0.2696
  854MPD2     H12544   2.116   1.392  12.903  0.8628 -1.0867  0.7893
  854MPD2    H112545   1.968   1.378  13.301 -1.6157  1.2967 -0.2205
  854MPD2    H212546   1.760   1.611  13.018 -0.1598 -1.0085  0.3164
  854MPD2    H312547   1.787   1.516  13.255  3.0220  0.2453  3.1322
  854MPD2     N12548   2.163   1.283  13.142  0.2428 -0.3761  0.0953
  854MPD2    H512549   2.179   1.277  13.242 -1.1649  2.4369  0.5028
  854MPD2    N112550   1.921   1.583  12.831  0.1914 -0.7775  1.2016
  854MPD2    H712551   1.862   1.665  12.840  2.0906  0.8203 -0.8277
  855MPD2     C12552   2.275   1.034  13.919  0.0448  0.8283 -0.3793
  855MPD2    C112553   2.355   0.949  13.857  0.4794  0.3813 -0.4341
  855MPD2    C212554   2.394   0.976  13.727  0.5618  0.3209 -0.1524
  855MPD2    C312555   2.350   1.092  13.667  0.8062 -1.2941 -0.0405
  855MPD2    C412556   2.262   1.177  13.727  0.1844  0.0971 -0.0856
  855MPD2    C512557   2.225   1.142  13.858  0.2558  0.2992  0.2914
  855MPD2     H12558   2.453   0.901  13.676 -1.4414  0.0908 -2.1463
  855MPD2    H112559   2.223   1.270  13.688 -1.5378 -0.2326  0.8343
  855MPD2    H212560   2.250   1.027  14.024  0.4753  1.1422 -0.2555
  855MPD2    H312561   2.158   1.215  13.902 -1.8675 -0.5379 -1.5261
  855MPD2     N12562   2.373   1.117  13.527  0.0022  0.1015  0.5852
  855MPD2    H512563   2.316   1.189  13.485  0.4144 -0.2436 -0.5699
  855MPD2    N112564   2.385   0.825  13.911 -0.1341 -0.1768 -0.2338
  855MPD2    H712565   2.467   0.776  13.875  0.9138 -0.2003  2.1257
  856MPD2     C12566   4.516   2.321  14.036 -0.1566 -0.8898 -1.1320
  856MPD2    C112567   4.617   2.363  13.950 -0.4079 -0.4234  0.2159
  856MPD2    C212568   4.580   2.472  13.871  0.5212 -0.1698 -0.2805
  856MPD2    C312569   4.453   2.535  13.880  0.5276  0.0427 -0.7017
  856MPD2    C412570   4.359   2.478  13.963  0.3259 -0.7081  0.4750
  856MPD2    C512571   4.393   2.372  14.042  0.3487  0.3521 -0.5059
  856MPD2     H12572   4.661   2.509  13.808  0.4637  0.3631 -0.0395
  856MPD2    H112573   4.259   2.519  13.978  0.3755 -0.9099  1.3986
  856MPD2    H212574   4.527   2.221  14.077 -0.0606 -0.5265 -0.2919
  856MPD2    H312575   4.319   2.311  14.092 -0.0439  0.2395 -1.2260
  856MPD2     N12576   4.423   2.643  13.791 -0.1347  0.0386 -0.2053
  856MPD2    H512577   4.327   2.675  13.802 -0.0693 -0.3407  1.5054
  856MPD2    N112578   0.019   2.303  13.941 -0.3536 -0.1436  0.7026
  856MPD2    H712579   0.075   2.328  13.860 -1.3155  1.4221  0.5180
  857MPD2     C12580   1.227   3.996  12.701  0.5665 -0.9444 -0.4573
  857MPD2    C112581   1.361   4.019  12.709  0.3701  0.8481 -0.1792
  857MPD2    C212582   1.408   4.150  12.732 -0.0923 -1.0446 -0.8536
  857MPD2    C312583   1.324   4.254  12.762 -0.3889  0.3927 -0.0023
  857MPD2    C412584   1.187   4.225  12.751  0.2364  0.1410 -0.7072
  857MPD2    C512585   1.144   4.098  12.711 -0.0149  0.4289  0.7393
  857MPD2     H12586   1.513   4.164  12.753 -0.1456 -1.8789 -0.0365
  857MPD2    H112587   1.106   4.293  12.776 -0.3927 -0.2646 -1.6470
  857MPD2    H212588   1.176   3.904  12.674 -0.1743 -1.0861  1.4486
  857MPD2    H312589   1.038   4.078  12.698 -0.0372  0.4846  0.8332
  857MPD2     N12590   1.366   4.373  12.821 -0.4647 -0.4743 -0.2307
  857MPD2    H512591   1.462   4.378  12.854 -1.4206  0.1972  2.4487
  857MPD2    N112592   1.456   3.915  12.695  0.1589  0.4028  0.3873
  857MPD2    H712593   1.551   3.950  12.690  0.7736 -1.6834 -2.3963
  858MPD2     C12594   2.026   2.760  16.655 -0.2088  0.6133 -0.3053
  858MPD2    C112595   2.157   2.807  16.652 -0.6014 -0.2745  0.3723
  858MPD2    C212596   2.188   2.940  16.684  0.5545 -0.5419 -0.3073
  858MPD2    C312597   2.084   3.029  16.713 -0.5849  0.5577  0.1230
  858MPD2    C412598   1.952   2.983  16.712  0.5451 -0.2017  0.7333
  858MPD2    C512599   1.929   2.848  16.693  0.0291  0.6198  0.4806
  858MPD2     H12600   2.291   2.967  16.705 -0.2369  0.5954  2.0660
  858MPD2    H112601   1.870   3.051  16.733  0.4196 -0.5196  1.2732
  858MPD2    H212602   1.992   2.659  16.637  2.6790 -0.4254 -0.0098
  858MPD2    H312603   1.830   2.811  16.713 -0.2906  2.0704  1.5960
  858MPD2     N12604   2.098   3.163  16.750  0.1497  0.0237  0.1477
  858MPD2    H512605   2.029   3.225  16.791 -1.5331 -1.5873 -0.2373
  858MPD2    N112606   2.258   2.716  16.627  0.2237 -0.3327 -0.1133
  858MPD2    H712607   2.232   2.618  16.627 -0.2372 -0.2160  2.1681
  859MPD2     C12608   0.667   1.123  14.962  0.0737  0.5557 -0.6519
  859MPD2    C112609   0.794   1.103  14.916  0.5101 -0.1704  0.5941
  859MPD2    C212610   0.849   0.974  14.901 -0.1224 -0.1166 -0.3576
  859MPD2    C312611   0.764   0.867  14.942 -0.4856  0.4029 -0.2048
  859MPD2    C412612   0.642   0.889  15.003  0.0591  0.6407  0.5342
  859MPD2    C512613   0.596   1.020  15.016  0.9328 -0.4567 -0.2289
  859MPD2     H12614   0.949   0.962  14.863 -0.0131  3.6146 -1.1966
  859MPD2    H112615   0.583   0.807  15.042 -0.2392  1.4673  1.8409
  859MPD2    H212616   0.626   1.222  14.976  0.4384  0.6137  0.0016
  859MPD2    H312617   0.501   1.054  15.055  0.5030 -0.1368 -1.5444
  859MPD2     N12618   0.795   0.729  14.919  0.4836 -0.2288 -0.5603
  859MPD2    H512619   0.727   0.663  14.956  1.1477  0.2260  1.4755
  859MPD2    N112620   0.866   1.221  14.885  0.0118 -0.0761 -0.6084
  859MPD2    H712621   0.813   1.306  14.878 -2.1379 -1.4404 -0.7976
  860MPD2     C12622   3.450   1.048  12.071  0.0129  0.4515  0.3459
  860MPD2    C112623   3.365   1.011  12.170 -0.5587  0.5848 -0.1974
  860MPD2    C212624   3.225   1.035  12.164 -0.2494  0.4211  0.1914
  860MPD2    C312625   3.177   1.087  12.048  0.1100  0.2273 -0.0374
  860MPD2    C412626   3.259   1.116  11.940  0.3496  0.4138  0.1139
  860MPD2    C512627   3.395   1.099  11.961 -0.4288  0.1816 -0.5146
  860MPD2     H12628   3.155   1.006  12.242  1.3482 -0.5586  1.2445
  860MPD2    H112629   3.239   1.160  11.843  2.1757 -1.9453 -1.3358
  860MPD2    H212630   3.555   1.022  12.062 -0.3644 -1.4202  1.3207
  860MPD2    H312631   3.460   1.111  11.876  1.1035  0.1824  0.6592
  860MPD2     N12632   3.040   1.103  12.048 -0.3400 -0.4914 -0.3047
  860MPD2    H512633   2.995   1.065  12.131 -0.6215 -2.4744 -1.3756
  860MPD2    N112634   3.411   0.947  12.292 -0.2014 -0.4920  0.6354
  860MPD2    H712635   3.341   0.922  12.361 -1.9875  0.6258 -0.7666
  861MPD2     C12636   1.994   3.918  10.697 -0.2612  0.7500 -0.0242
  861MPD2    C112637   1.880   3.847  10.738  0.9595 -0.4752  0.0269
  861MPD2    C212638   1.755   3.884  10.684  0.2286 -0.0364 -0.6438
  861MPD2    C312639   1.740   3.980  10.580  0.2035 -0.0135 -1.0244
  861MPD2    C412640   1.854   4.051  10.540  0.4285  0.9903 -0.6356
  861MPD2    C512641   1.969   4.019  10.608 -0.0097  0.8392 -0.8614
  861MPD2     H12642   1.668   3.831  10.719 -0.6461  2.9165  1.7011
  861MPD2    H112643   1.844   4.137  10.476  0.6413  0.2848 -1.6152
  861MPD2    H212644   2.094   3.893  10.729  0.2114 -0.4916 -2.5323
  861MPD2    H312645   2.059   4.078  10.593 -0.4568  1.7620  0.2025
  861MPD2     N12646   1.617   4.022  10.541 -0.0550 -0.1585  0.1627
  861MPD2    H512647   1.622   4.104  10.482  0.2358  0.7948  1.5300
  861MPD2    N112648   1.877   3.759  10.843 -0.2480  0.2117 -0.5904
  861MPD2    H712649   1.787   3.716  10.865 -0.0048 -1.2068 -2.3146
  862MPD2     C12650   1.104   4.519  10.206 -0.2981 -0.5240 -0.3738
  862MPD2    C112651   1.141   4.383  10.190  0.1589  0.0611 -0.2840
  862MPD2    C212652   1.097   4.299  10.086 -0.4914 -0.1339 -0.5118
  862MPD2    C312653   1.016   4.357   9.986 -0.2390  0.1803 -0.4103
  862MPD2    C412654   0.978   4.487  10.005  0.4568 -0.6063 -0.4824
  862MPD2    C512655   1.014   4.563  10.114 -0.1218  0.5075  0.1387
  862MPD2     H12656   1.122   4.194  10.094 -1.2811 -0.3247 -0.5429
  862MPD2    H112657   0.919   4.529   9.925 -0.7661 -3.1413 -0.8874
  862MPD2    H212658   1.143   4.574  10.291  0.6894  1.4982 -2.1337
  862MPD2    H312659   0.975   4.662  10.137  0.3307  0.5264  0.8449
  862MPD2     N12660   0.947   4.288   9.882 -0.5779  0.3314  0.2816
  862MPD2    H512661   0.890   4.352   9.827  0.9074  2.2130  0.9091
  862MPD2    N112662   1.221   4.315  10.283  0.5777  0.1162 -0.4869
  862MPD2    H712663   1.229   4.215  10.271 -0.0604  0.1218 -0.9428
  863MPD2     C12664   0.536   2.417  16.579  0.2441  0.2364  0.5077
  863MPD2    C112665   0.436   2.349  16.644 -0.2349  0.2763 -0.0102
  863MPD2    C212666   0.452   2.300  16.775 -0.7710 -0.0946 -0.0826
  863MPD2    C312667   0.579   2.318  16.837 -0.1905 -0.3225 -0.6975
  863MPD2    C412668   0.681   2.390  16.771  0.2578 -0.3373 -0.2326
  863MPD2    C512669   0.655   2.448  16.649  0.6343 -0.1512  0.3368
  863MPD2     H12670   0.377   2.240  16.825  0.6946 -0.7033  1.3998
  863MPD2    H112671   0.772   2.420  16.821 -0.3870 -1.0024  1.3625
  863MPD2    H212672   0.520   2.449  16.477  0.6642  0.1949  0.4273
  863MPD2    H312673   0.727   2.514  16.601 -0.4852 -0.6784 -2.0202
  863MPD2     N12674   0.611   2.288  16.971 -0.1646  0.0715  0.1408
  863MPD2    H512675   0.708   2.305  16.995  0.5659  0.0628 -2.7349
  863MPD2    N112676   0.319   2.322  16.562 -0.3841 -0.2724  0.3987
  863MPD2    H712677   0.320   2.341  16.462  0.7243  1.1512  0.6874
  864MPD2     C12678   1.098   3.709  17.071  0.2015  0.3385 -0.4427
  864MPD2    C112679   1.173   3.632  16.989 -0.2551 -0.0755  0.2668
  864MPD2    C212680   1.301   3.671  16.975 -0.1222 -0.4143  0.5728
  864MPD2    C312681   1.343   3.792  17.019  0.2208 -0.6492  0.4388
  864MPD2    C412682   1.251   3.877  17.088 -0.4419 -0.1489 -0.5711
  864MPD2    C512683   1.128   3.830  17.115  0.8201  0.1512 -0.3676
  864MPD2     H12684   1.375   3.602  16.935 -0.4130  0.5801 -1.6633
  864MPD2    H112685   1.280   3.973  17.129  1.4070 -1.6449  1.5953
  864MPD2    H212686   0.996   3.685  17.097  0.9136 -0.5860  1.4541
  864MPD2    H312687   1.056   3.887  17.173 -0.1528 -0.7743 -0.6810
  864MPD2     N12688   1.466   3.850  16.975  0.3025 -0.8188 -0.1669
  864MPD2    H512689   1.487   3.944  17.007  1.2070 -1.0386 -0.1126
  864MPD2    N112690   1.115   3.516  16.933  0.2261  0.0754  0.2695
  864MPD2    H712691   1.014   3.515  16.947  0.3826  0.3792  1.4440
  865MPD2     C12692   1.064   4.159  16.481 -0.0442  0.8336 -1.0182
  865MPD2    C112693   1.168   4.146  16.391 -0.4547  0.4071  0.7521
  865MPD2    C212694   1.296   4.156  16.439  0.2107 -0.2259  0.3156
  865MPD2    C312695   1.322   4.173  16.573  0.1898 -0.0594  0.6743
  865MPD2    C412696   1.216   4.178  16.662 -0.5536  0.8078  0.0237
  865MPD2    C512697   1.090   4.171  16.611 -0.6418 -0.4204 -0.6138
  865MPD2     H12698   1.381   4.144  16.371  1.2191  0.1523  1.5152
  865MPD2    H112699   1.234   4.178  16.769 -2.4646  0.7623  0.3468
  865MPD2    H212700   0.958   4.158  16.456 -0.4831 -0.8338  0.9081
  865MPD2    H312701   1.003   4.173  16.676  0.0058 -2.2241  0.2950
  865MPD2     N12702   1.452   4.167  16.628 -0.1708  0.0733  0.5108
  865MPD2    H512703   1.458   4.193  16.725  0.5802  0.7734  0.2789
  865MPD2    N112704   1.139   4.119  16.258 -0.1783  0.0486  0.1884
  865MPD2    H712705   1.042   4.099  16.234  0.2051 -0.4346 -0.9515
  866MPD2     C12706   2.544   4.040  11.075 -0.1486 -0.2594 -0.0209
  866MPD2    C112707   2.480   3.930  11.039  0.1403  0.0367  0.0797
  866MPD2    C212708   2.345   3.931  11.029 -0.1848  0.3788  0.5332
  866MPD2    C312709   2.280   4.048  11.052  0.3582  0.0224  0.5109
  866MPD2    C412710   2.345   4.158  11.105 -0.5069  0.4262 -0.4115
  866MPD2    C512711   2.479   4.150  11.123  0.3622  0.1324 -0.6834
  866MPD2     H12712   2.293   3.850  10.978 -0.1694 -0.1908  1.4348
  866MPD2    H112713   2.292   4.249  11.130  1.4898  0.8349  2.3583
  866MPD2    H212714   2.651   4.033  11.092 -0.1399  0.4436  0.2384
  866MPD2    H312715   2.537   4.234  11.160 -0.2706  0.0123  0.5585
  866MPD2     N12716   2.150   4.061  11.007 -0.5953  0.5724  0.1164
  866MPD2    H512717   2.096   3.976  10.994  0.1818  0.0375  0.3986
  866MPD2    N112718   2.557   3.821  10.994  0.1045  0.3239  0.1628
  866MPD2    H712719   2.656   3.843  10.987 -0.3149  2.4645  0.9851
  867MPD2     C12720   0.015   4.001  16.167 -0.1381  0.8564 -0.1518
  867MPD2    C112721   0.007   3.918  16.280  0.9518  0.5749  0.2313
  867MPD2    C212722   4.704   3.980  16.406 -0.2664  0.0802  0.2749
  867MPD2    C312723   4.669   4.111  16.413 -0.3316 -0.2045  0.1200
  867MPD2    C412724   4.670   4.183  16.297  0.3351 -0.5819  0.7149
  867MPD2    C512725   4.716   4.132  16.180 -0.1310 -0.2110 -0.3318
  867MPD2     H12726   4.702   3.918  16.495  1.9686 -0.8213 -0.3088
  867MPD2    H112727   4.632   4.285  16.299 -0.4462 -0.8866  1.1854
  867MPD2    H212728   0.039   3.969  16.067 -1.4185  1.9086 -0.8038
  867MPD2    H312729   4.725   4.199  16.095 -1.8321 -2.0589 -1.9473
  867MPD2     N12730   4.624   4.178  16.529 -0.0376 -0.5454 -0.5847
  867MPD2    H512731   4.589   4.270  16.501  1.7222  0.1460 -0.4823
  867MPD2    N112732   0.047   3.789  16.269  0.4665 -0.0980  0.2461
  867MPD2    H712733   0.071   3.757  16.176 -0.0610 -0.3974  0.2097
  868MPD2     C12734   1.521   2.639  13.042  0.1710  0.3853 -0.2834
  868MPD2    C112735   1.648   2.688  13.077  0.3976 -0.4895  0.1041
  868MPD2    C212736   1.684   2.713  13.211 -0.2389 -0.0821 -0.5065
  868MPD2    C312737   1.586   2.706  13.305 -0.2563  0.2157 -0.3561
  868MPD2    C412738   1.460   2.669  13.264 -0.1923 -0.6594  0.0838
  868MPD2    C512739   1.422   2.639  13.136  1.0954  0.2961  0.2978
  868MPD2     H12740   1.786   2.745  13.227 -0.6356  1.4942 -1.2183
  868MPD2    H112741   1.384   2.669  13.342 -0.3733  0.9067 -0.0882
  868MPD2    H212742   1.492   2.616  12.940 -3.2114  1.7501  0.3665
  868MPD2    H312743   1.318   2.616  13.114  0.8334 -0.4902  2.3644
  868MPD2     N12744   1.621   2.718  13.445 -0.0083  0.3919  0.0986
  868MPD2    H512745   1.719   2.724  13.469  0.3603 -0.2937 -1.2529
  868MPD2    N112746   1.747   2.685  12.978 -0.2302 -0.1008 -0.1986
  868MPD2    H712747   1.725   2.637  12.892  1.5383 -1.4912  0.1294
  869MPD2     C12748   2.690   1.206   2.325 -0.6098 -0.1352 -0.1471
  869MPD2    C112749   2.663   1.090   2.261  0.2822  0.0050 -0.1878
  869MPD2    C212750   2.650   1.093   2.124  0.6636  0.1275 -0.0645
  869MPD2    C312751   2.687   1.198   2.045  0.4184  0.1327 -0.3295
  869MPD2    C412752   2.721   1.312   2.115  0.2445  0.2291 -0.1224
  869MPD2    C512753   2.722   1.319   2.250  0.5971  0.0549 -0.6474
  869MPD2     H12754   2.628   0.998   2.075 -1.6515  0.6633 -0.0550
  869MPD2    H112755   2.754   1.403   2.066  1.6218 -0.0913  0.1848
  869MPD2    H212756   2.703   1.202   2.432 -2.3225  0.8957  0.0911
  869MPD2    H312757   2.768   1.403   2.300  0.1804  0.0894 -0.3206
  869MPD2     N12758   2.686   1.202   1.906 -0.1461 -0.1747  0.1814
  869MPD2    H512759   2.710   1.281   1.847  0.3423 -1.1651 -0.9288
  869MPD2    N112760   2.614   0.982   2.340 -0.3486 -0.0162  0.4188
  869MPD2    H712761   2.630   1.002   2.438  1.5216 -0.1998  0.1572
  870MPD2     C12762   2.001   0.242   1.266  0.1156 -0.3548 -0.0637
  870MPD2    C112763   2.122   0.281   1.321  0.0041  0.0651 -0.3875
  870MPD2    C212764   2.191   0.387   1.266 -0.7788 -0.4763  0.0059
  870MPD2    C312765   2.142   0.439   1.145  0.3828  0.1879 -0.2049
  870MPD2    C412766   2.024   0.395   1.089  0.1733  0.2728  0.2718
  870MPD2    C512767   1.955   0.295   1.152 -0.3661 -0.5753  0.1248
  870MPD2     H12768   2.289   0.414   1.306 -0.7617  1.9191 -1.6743
  870MPD2    H112769   1.987   0.435   0.995 -0.9519 -0.1679  0.5249
  870MPD2    H212770   1.945   0.160   1.308 -0.7367 -1.0301 -2.5186
  870MPD2    H312771   1.860   0.261   1.111  0.0592  0.9763 -2.1664
  870MPD2     N12772   2.217   0.540   1.083  0.4691  0.4570 -0.0617
  870MPD2    H512773   2.310   0.558   1.121 -0.7540  1.5151  2.4268
  870MPD2    N112774   2.155   0.220   1.448  0.2570  0.0818  0.3301
  870MPD2    H712775   2.091   0.146   1.476 -0.6219  1.1762  1.1667
  871MPD2     C12776   4.017   3.979  16.472 -0.2720  0.2301  0.3080
  871MPD2    C112777   4.004   3.927  16.601 -0.2043  0.4828 -0.2182
  871MPD2    C212778   4.061   3.806  16.630  0.0344  0.3660  0.0624
  871MPD2    C312779   4.125   3.730  16.529 -0.5801  0.2437  0.6254
  871MPD2    C412780   4.125   3.775  16.398 -0.3484  0.8832  0.1923
  871MPD2    C512781   4.071   3.901  16.372  0.1607  0.3176  0.2538
  871MPD2     H12782   4.050   3.780  16.735  0.6353  0.7581  0.2196
  871MPD2    H112783   4.164   3.719  16.314 -0.4302 -1.1629  1.5297
  871MPD2    H212784   3.989   4.078  16.436 -1.2698  0.2891  1.2323
  871MPD2    H312785   4.070   3.936  16.269 -0.8479 -0.0235  0.1407
  871MPD2     N12786   4.177   3.608  16.576 -0.0134 -0.1525 -0.0573
  871MPD2    H512787   4.179   3.599  16.677 -1.2086 -1.3135 -0.1345
  871MPD2    N112788   3.942   4.021  16.694  0.5326  0.1566  0.1301
  871MPD2    H712789   3.901   4.097  16.641 -2.3830 -1.3372  0.2933
  872MPD2     C12790   4.432   2.218  13.649 -0.6192  0.6145 -0.3340
  872MPD2    C112791   4.507   2.104  13.662 -0.2135  0.1538  0.1644
  872MPD2    C212792   4.465   2.004  13.748  0.4107 -0.3320  0.4359
  872MPD2    C312793   4.351   2.018  13.824  0.6236 -0.6776 -0.4356
  872MPD2    C412794   4.283   2.131  13.807 -0.1970  0.1656  0.1215
  872MPD2    C512795   4.329   2.235  13.728 -0.1436 -0.2549  0.4802
  872MPD2     H12796   4.517   1.909  13.752  2.0773  0.4859 -1.9728
  872MPD2    H112797   4.192   2.151  13.861 -0.1242 -1.6603  0.8925
  872MPD2    H212798   4.469   2.302  13.591  0.6861  0.1264 -0.2169
  872MPD2    H312799   4.272   2.325  13.709  1.5003  0.9536  1.2750
  872MPD2     N12800   4.304   1.922  13.913  0.2168  0.1295 -0.4510
  872MPD2    H512801   4.218   1.935  13.966 -1.3092 -2.3164 -2.2885
  872MPD2    N112802   4.628   2.083  13.590 -0.1134 -0.3113  0.3155
  872MPD2    H712803   4.695   2.011  13.616 -0.6216 -0.5169  1.0803
  873MPD2     C12804   1.120   1.615   0.608 -0.6708 -0.4002  0.1073
  873MPD2    C112805   1.212   1.605   0.708 -0.4009  0.5035 -0.1431
  873MPD2    C212806   1.317   1.510   0.697  0.0942  0.3357  0.2012
  873MPD2    C312807   1.326   1.434   0.582 -0.4635 -0.5517  0.2694
  873MPD2    C412808   1.229   1.446   0.487 -0.1821 -0.0796 -0.0435
  873MPD2    C512809   1.124   1.532   0.499 -0.4156 -0.3014  0.1414
  873MPD2     H12810   1.391   1.492   0.774 -1.2981 -0.2971  1.3906
  873MPD2    H112811   1.241   1.398   0.390  0.5105 -0.5706  0.2824
  873MPD2    H212812   1.046   1.694   0.617 -0.2878  0.2375 -2.1245
  873MPD2    H312813   1.055   1.537   0.416  0.3558 -1.7261 -0.5779
  873MPD2     N12814   1.433   1.353   0.548 -0.0257  0.3199 -0.2412
  873MPD2    H512815   1.430   1.301   0.460 -0.2997  1.4749 -0.9130
  873MPD2    N112816   1.193   1.695   0.818 -0.2971  0.2632  0.2764
  873MPD2    H712817   1.119   1.765   0.817  0.0792  0.6234 -1.0523
  874MPD2     C12818   0.932   1.596  15.618  0.1496  0.1808  0.2962
  874MPD2    C112819   0.933   1.554  15.755  0.1501 -0.5444  0.0019
  874MPD2    C212820   1.036   1.601  15.831  1.0277  0.9074  0.6267
  874MPD2    C312821   1.135   1.686  15.784  0.1832  1.0582 -0.2374
  874MPD2    C412822   1.138   1.717  15.653  0.6252 -0.8833 -0.3572
  874MPD2    C512823   1.031   1.678  15.571  0.4812 -0.1572  0.2544
  874MPD2     H12824   1.042   1.574  15.936 -0.9248 -2.9437 -0.2453
  874MPD2    H112825   1.213   1.777  15.603  0.1348  0.4981  0.5759
  874MPD2    H212826   0.864   1.553  15.545  0.2473 -0.2331  0.4507
  874MPD2    H312827   1.026   1.697  15.464 -2.0921  0.7537  0.5248
  874MPD2     N12828   1.239   1.735  15.872  1.0422 -0.0444 -0.2165
  874MPD2    H512829   1.227   1.726  15.972  2.2743  0.1897 -0.0411
  874MPD2    N112830   0.830   1.468  15.802 -0.1532 -0.3254 -0.1947
  874MPD2    H712831   0.755   1.441  15.740 -0.8611 -0.7063  0.8207
  875MPD2     C12832   2.274   4.667  14.368  0.1512 -0.1897 -0.1912
  875MPD2    C112833   2.157   0.021  14.380 -0.5824 -0.2264  0.0681
  875MPD2    C212834   2.164   0.127  14.466 -0.5876  0.3727 -0.6051
  875MPD2    C312835   2.271   0.136  14.551 -0.6761  0.2758  0.0935
  875MPD2    C412836   2.375   0.043  14.554 -1.0136  0.6081 -0.1408
  875MPD2    C512837   2.381   4.677  14.451 -0.4606  0.1064 -0.0735
  875MPD2     H12838   2.083   0.199  14.461 -2.4535 -1.6792  0.4441
  875MPD2    H112839   2.462   0.048  14.619 -0.4703  3.1089 -1.0565
  875MPD2    H212840   2.275   4.582  14.301  1.7139 -0.7261  0.5177
  875MPD2    H312841   2.455   4.598  14.456 -1.9060 -1.3019 -0.9467
  875MPD2     N12842   2.271   0.235  14.656  0.0951 -0.1491 -0.4385
  875MPD2    H512843   2.357   0.248  14.709  0.1818 -0.3708 -0.5259
  875MPD2    N112844   2.033   4.725  14.315  0.2877  0.1844 -0.1114
  875MPD2    H712845   1.960   0.067  14.334  0.6978  0.2957  1.0596
  876MPD2     C12846   1.063   1.277  15.541  0.8752 -0.1765  0.3381
  876MPD2    C112847   1.198   1.257  15.555  0.3233  0.0521  0.0880
  876MPD2    C212848   1.243   1.165  15.649 -0.0994  0.4067 -0.1855
  876MPD2    C312849   1.153   1.090  15.728 -0.4232 -0.0016 -0.4347
  876MPD2    C412850   1.015   1.116  15.710 -0.4459 -0.1938 -0.2287
  876MPD2    C512851   0.976   1.212  15.622  0.2064 -0.5220 -0.2338
  876MPD2     H12852   1.348   1.163  15.673 -0.6121 -0.4337  1.9824
  876MPD2    H112853   0.936   1.071  15.769 -0.6337 -0.7242 -0.8878
  876MPD2    H212854   1.024   1.363  15.487 -1.5887 -0.3477  1.8318
  876MPD2    H312855   0.870   1.226  15.602 -0.3159 -2.9957  0.7951
  876MPD2     N12856   1.197   0.983  15.814 -0.2532  0.5664  0.1783
  876MPD2    H512857   1.297   0.968  15.803 -0.2816 -0.7134  1.5827
  876MPD2    N112858   1.279   1.340  15.470 -0.8501 -0.1656  0.1324
  876MPD2    H712859   1.230   1.394  15.399 -0.8045  0.4926  0.6028
  877MPD2     C12860   1.219   1.926  15.057 -0.4301 -1.2013 -0.6066
  877MPD2    C112861   1.351   1.888  15.038 -0.5755  0.1171  0.6917
  877MPD2    C212862   1.410   1.917  14.919  0.3425  0.6445 -0.3980
  877MPD2    C312863   1.344   1.978  14.821 -0.1889  0.8889  0.0747
  877MPD2    C412864   1.210   2.016  14.840  0.5536  0.2227  0.1960
  877MPD2    C512865   1.149   1.992  14.956 -0.2890  1.0952 -0.2090
  877MPD2     H12866   1.512   1.885  14.899  0.8016  0.2108  2.7320
  877MPD2    H112867   1.153   2.078  14.772 -0.5897  0.0374  0.9708
  877MPD2    H212868   1.157   1.902  15.142  0.8851  0.2267  0.7546
  877MPD2    H312869   1.047   2.027  14.962 -0.1787  1.5726 -1.0554
  877MPD2     N12870   1.397   1.992  14.690  0.0428 -0.6442 -1.0787
  877MPD2    H512871   1.325   2.003  14.619 -0.4058  1.3787 -0.2926
  877MPD2    N112872   1.415   1.818  15.144  0.1719 -0.6455 -0.1987
  877MPD2    H712873   1.505   1.777  15.121 -0.7555 -1.9515 -1.4921
  878MPD2     C12874   0.800   1.354  13.132  0.3892  0.2496 -0.1897
  878MPD2    C112875   0.849   1.225  13.116 -0.8750  0.1663  0.7723
  878MPD2    C212876   0.839   1.129  13.219 -1.1892  0.3445 -0.3487
  878MPD2    C312877   0.774   1.174  13.338 -0.4388  0.0044 -0.3432
  878MPD2    C412878   0.733   1.299  13.352 -0.6355 -0.7102 -0.0079
  878MPD2    C512879   0.748   1.387  13.253 -0.2122  0.0445 -0.3419
  878MPD2     H12880   0.860   1.023  13.215 -3.9368 -0.2616  1.5589
  878MPD2    H112881   0.699   1.338  13.447  0.4823  2.1086 -0.7549
  878MPD2    H212882   0.813   1.427  13.054 -1.2853  0.5027 -0.2440
  878MPD2    H312883   0.738   1.492  13.280  1.3543  0.3035 -0.7995
  878MPD2     N12884   0.763   1.081  13.444 -0.0077  0.7774 -0.2098
  878MPD2    H512885   0.812   0.994  13.428 -1.2822 -0.1802  1.1178
  878MPD2    N112886   0.891   1.196  12.980  1.0428 -0.4323  0.4330
  878MPD2    H712887   0.899   1.282  12.926  2.9585 -1.1909 -0.4769
  879MPD2     C12888   1.941   1.826  16.963  0.0947 -0.3710 -0.2027
  879MPD2    C112889   1.861   1.905  17.040 -0.3835 -0.2205 -0.6241
  879MPD2    C212890   1.751   1.968  16.984 -0.5929  0.6106 -0.2842
  879MPD2    C312891   1.712   1.950  16.854  0.9539  0.7076  0.1044
  879MPD2    C412892   1.779   1.866  16.775 -0.0701 -0.7478 -0.5261
  879MPD2    C512893   1.894   1.801  16.832 -0.2340  0.2012  0.6138
  879MPD2     H12894   1.702   2.049  17.037 -0.7149 -0.2101  0.8652
  879MPD2    H112895   1.755   1.836  16.673 -0.6987 -0.1990 -0.5372
  879MPD2    H212896   2.040   1.793  16.991  1.7183  2.3991 -2.6466
  879MPD2    H312897   1.960   1.737  16.775  0.7265  3.1811 -1.6329
  879MPD2     N12898   1.594   2.011  16.806 -0.0638  0.7201 -0.6589
  879MPD2    H512899   1.571   1.988  16.710 -1.0011 -1.2453  0.0392
  879MPD2    N112900   1.911   1.945  17.162  0.5667  0.3719 -0.2894
  879MPD2    H712901   2.001   1.907  17.189  0.1980 -1.9499 -2.3471
  880MPD2     C12902   2.586   4.659   1.074  0.0157 -0.9852  0.0897
  880MPD2    C112903   2.557   4.583   0.965 -0.1515 -0.5268 -0.0167
  880MPD2    C212904   2.467   4.476   0.981 -1.1669  0.1630 -0.2898
  880MPD2    C312905   2.388   4.472   1.097 -0.0204  0.3400 -0.2118
  880MPD2    C412906   2.421   4.552   1.209 -0.3686  0.3791  0.0106
  880MPD2    C512907   2.515   4.650   1.191 -0.0678 -0.6050 -0.4329
  880MPD2     H12908   2.458   4.399   0.906 -1.6175  0.9383 -1.0463
  880MPD2    H112909   2.380   4.540   1.308 -2.4027 -1.7851 -1.0868
  880MPD2    H212910   2.651   0.019   1.062 -0.0609 -0.7644  1.2999
  880MPD2    H312911   2.539   4.714   1.275 -2.2145  0.4732 -0.6683
  880MPD2     N12912   2.286   4.377   1.101  0.7615  0.3223  0.1426
  880MPD2    H512913   2.273   4.318   1.019  1.1423 -2.9336  2.4007
  880MPD2    N112914   2.628   4.614   0.855 -0.0575 -0.1023  0.0366
  880MPD2    H712915   2.701   4.683   0.871  0.3564 -1.5981  4.5242
  881MPD2     C12916   2.776   4.174  17.634  0.2714  0.1067 -0.1555
  881MPD2    C112917   2.791   4.312  17.608  0.0284  0.3579  0.6116
  881MPD2    C212918   2.787   4.394   0.019 -0.2968 -0.3763 -0.0946
  881MPD2    C312919   2.745   4.346   0.142  0.2384 -0.2499 -0.3100
  881MPD2    C412920   2.736   4.205   0.159  0.4639  1.2457 -0.4263
  881MPD2    C512921   2.752   4.122   0.050 -0.2643  0.0009 -0.1390
  881MPD2     H12922   2.815   4.499   0.010  0.5322 -0.5306  0.7259
  881MPD2    H112923   2.702   4.155   0.249  1.2553 -0.3106 -0.9946
  881MPD2    H212924   2.808   4.114  17.550 -1.5098 -0.6540 -0.3015
  881MPD2    H312925   2.750   4.015   0.067 -2.9343 -0.0671 -0.8869
  881MPD2     N12926   2.733   4.420   0.262  0.8375  0.0303 -0.6826
  881MPD2    H512927   2.709   4.366   0.344  1.4845  2.2587  0.9572
  881MPD2    N112928   2.849   4.356  17.486  0.1557  0.9578 -0.4744
  881MPD2    H712929   2.853   4.289  17.409  0.5537  0.0471  0.3295
  882MPD2     C12930   1.322   1.503  14.215 -0.5541  0.5152 -0.9831
  882MPD2    C112931   1.277   1.633  14.245 -0.6031  1.0778  0.1459
  882MPD2    C212932   1.143   1.650  14.278 -0.2384  0.2592 -0.4158
  882MPD2    C312933   1.057   1.547  14.296  0.1287 -0.2249 -0.0908
  882MPD2    C412934   1.105   1.419  14.262 -0.8384  0.4157  0.5187
  882MPD2    C512935   1.228   1.405  14.221  0.5010  0.2340  0.1952
  882MPD2     H12936   1.110   1.753  14.288  1.0175  0.5235  1.1190
  882MPD2    H112937   1.044   1.330  14.272 -2.2595  1.1235 -1.7534
  882MPD2    H212938   1.423   1.490  14.179 -0.0105  1.5978  0.1507
  882MPD2    H312939   1.256   1.312  14.172 -0.9699 -0.2888  0.3591
  882MPD2     N12940   0.931   1.551  14.354  0.6975  0.3385 -0.7220
  882MPD2    H512941   0.882   1.462  14.354 -1.2357  1.3868 -1.0536
  882MPD2    N112942   1.364   1.747  14.221 -0.2106  0.7777 -0.2179
  882MPD2    H712943   1.458   1.709  14.222 -0.2659  0.6367 -0.4140
  883MPD2     C12944   3.187   1.306  16.004 -0.2727 -0.3890 -0.5255
  883MPD2    C112945   3.254   1.376  15.904  0.2940  0.9334  0.8659
  883MPD2    C212946   3.383   1.425  15.934  0.3849  0.4117  0.2666
  883MPD2    C312947   3.438   1.410  16.061  0.5422  0.6170 -0.7230
  883MPD2    C412948   3.358   1.362  16.164 -0.1452  0.7822 -0.6420
  883MPD2    C512949   3.237   1.310  16.137 -0.4064  0.5702 -0.6048
  883MPD2     H12950   3.445   1.468  15.856  0.1995  2.1341  1.0552
  883MPD2    H112951   3.395   1.349  16.265  1.2830  1.3420 -1.0862
  883MPD2    H212952   3.088   1.261  15.997 -0.8649  0.5104  2.0555
  883MPD2    H312953   3.180   1.260  16.214  1.0516  1.3150  0.9487
  883MPD2     N12954   3.572   1.463  16.078  0.0833 -0.4905 -0.0636
  883MPD2    H512955   3.611   1.517  16.001  2.2978  0.1319  1.5162
  883MPD2    N112956   3.217   1.368  15.773 -0.7341 -0.3868 -0.7110
  883MPD2    H712957   3.283   1.414  15.711  0.3064  1.1285  1.5298
  884MPD2     C12958   0.246   2.067  15.166  0.5735  0.0368 -0.4470
  884MPD2    C112959   0.275   2.190  15.115  0.0615 -0.0319  0.5377
  884MPD2    C212960   0.198   2.294  15.147  0.8595 -0.0458  0.2722
  884MPD2    C312961   0.099   2.284  15.234 -0.3215  0.1554  0.1724
  884MPD2    C412962   0.084   2.168  15.305  0.4366  0.7569 -0.1171
  884MPD2    C512963   0.154   2.057  15.267 -0.5888  0.4602 -0.3239
  884MPD2     H12964   0.211   2.384  15.088 -1.2507  0.0127 -0.1248
  884MPD2    H112965   0.013   2.161  15.387 -0.4692 -2.3967 -1.1817
  884MPD2    H212966   0.309   1.983  15.141 -0.9682 -1.4337  0.6484
  884MPD2    H312967   0.126   1.960  15.305 -1.1869  0.4244 -0.8647
  884MPD2     N12968   0.009   2.392  15.243 -0.0352  0.1958  0.8920
  884MPD2    H512969   0.008   2.466  15.174 -1.8217 -0.0550  0.6633
  884MPD2    N112970   0.376   2.214  15.013  0.1582  1.0610  0.2394
  884MPD2    H712971   0.381   2.309  14.976 -1.8701  1.0521 -0.0588
  885MPD2     C12972   3.223   2.460   0.323 -0.3127  0.1061 -0.7469
  885MPD2    C112973   3.184   2.395   0.211 -0.2468 -0.2314 -0.3564
  885MPD2    C212974   3.183   2.462   0.090 -0.3224 -0.2724  0.1836
  885MPD2    C312975   3.231   2.595   0.080  0.6067 -0.6367  0.0272
  885MPD2    C412976   3.264   2.663   0.193  0.5466 -0.4825 -0.3480
  885MPD2    C512977   3.255   2.597   0.311  0.0962  0.6852  0.0830
  885MPD2     H12978   3.159   2.412  17.703 -2.4427 -0.5843  0.9074
  885MPD2    H112979   3.310   2.762   0.198 -2.9508  0.9988  2.7541
  885MPD2    H212980   3.224   2.422   0.425  0.2837  4.7544  0.9495
  885MPD2    H312981   3.281   2.649   0.403 -1.2350 -1.3435  1.6185
  885MPD2     N12982   3.255   2.655  17.656 -0.3270  0.2765 -1.2388
  885MPD2    H512983   3.228   2.604  17.572  0.2568 -0.7894 -0.7854
  885MPD2    N112984   3.147   2.261   0.227  0.4067 -0.0437 -0.2155
  885MPD2    H712985   3.155   2.219   0.318 -1.8900 -1.2768 -0.5707
  886MPD2     C12986   4.631   1.416  15.674 -0.3296  0.4727  0.6297
  886MPD2    C112987   4.700   1.358  15.568  0.2695 -0.3434 -0.4193
  886MPD2    C212988   4.698   1.414  15.443  0.6341  0.2348 -0.7829
  886MPD2    C312989   4.635   1.536  15.417  0.3585 -0.1446  0.0145
  886MPD2    C412990   4.565   1.598  15.522  0.0252 -0.4767  0.0887
  886MPD2    C512991   4.560   1.538  15.647 -0.2652  0.0250 -0.7412
  886MPD2     H12992   0.022   1.358  15.365  2.0309  3.0551 -1.9222
  886MPD2    H112993   4.510   1.691  15.511 -0.6202 -0.9028 -0.2614
  886MPD2    H212994   4.656   1.391  15.776 -1.0249 -1.5673  0.2914
  886MPD2    H312995   4.513   1.583  15.734  1.5932  1.0376 -0.2635
  886MPD2     N12996   4.661   1.617  15.308 -0.6557  0.0617  0.4427
  886MPD2    H512997   4.614   1.706  15.319 -0.4201 -0.0605  2.3641
  886MPD2    N112998   0.058   1.240  15.582 -0.2616  0.2192  0.4131
  886MPD2    H712999   0.102   1.198  15.500 -0.3659  1.5119 -0.3185
  887MPD2     C13000   0.712   1.123  15.293  0.1607 -0.0473 -0.6885
  887MPD2    C113001   0.611   1.208  15.331  0.0126  0.4647  0.2494
  887MPD2    C213002   0.626   1.343  15.305 -0.1842  0.0486  0.1809
  887MPD2    C313003   0.736   1.404  15.248  0.0720 -0.5108  0.6643
  887MPD2    C413004   0.839   1.316  15.211 -0.1140  0.0514  0.0202
  887MPD2    C513005   0.825   1.180  15.234 -0.3492  0.0840  0.2243
  887MPD2     H13006   0.541   1.403  15.334 -0.9662 -1.1139  0.3181
  887MPD2    H113007   0.926   1.356  15.160  0.9988 -1.2790  0.8817
  887MPD2    H213008   0.715   1.015  15.296  2.6390  0.0814  1.5462
  887MPD2    H313009   0.906   1.124  15.187  0.2322  1.3891 -0.3259
  887MPD2     N13010   0.739   1.544  15.240 -0.1765  0.4030  0.5069
  887MPD2    H513011   0.664   1.595  15.284  0.7353 -0.0129  2.5223
  887MPD2    N113012   0.483   1.171  15.386 -0.4378  0.0918  0.0907
  887MPD2    H713013   0.423   1.247  15.414 -0.1617 -0.4680  2.1448
  888MPD2     C13014   2.358   1.188  14.603 -0.9383 -1.0952  0.3944
  888MPD2    C113015   2.340   1.221  14.733 -1.0689 -0.2337 -0.0792
  888MPD2    C213016   2.412   1.328  14.778  0.5353  0.1187 -0.6509
  888MPD2    C313017   2.514   1.384  14.704 -0.4429 -0.1466 -0.0407
  888MPD2    C413018   2.545   1.334  14.583 -0.1997 -1.0032 -0.8584
  888MPD2    C513019   2.462   1.240  14.530 -0.4735  0.6531 -0.2847
  888MPD2     H13020   2.399   1.354  14.883 -0.5003  0.7332 -0.9369
  888MPD2    H113021   2.625   1.358  14.514 -0.1184  0.4291 -0.2654
  888MPD2    H213022   2.307   1.104  14.558 -0.2653 -0.2721 -1.9057
  888MPD2    H313023   2.475   1.205  14.428 -0.6732  0.8124 -0.3647
  888MPD2     N13024   2.600   1.479  14.767  0.2905 -0.4477  0.7098
  888MPD2    H513025   2.581   1.512  14.861 -0.1319 -0.2325  0.5462
  888MPD2    N113026   2.236   1.164  14.808 -0.0476  0.2147  0.1929
  888MPD2    H713027   2.229   1.189  14.906  1.7547  3.3535 -0.4556
  889MPD2     C13028   1.404   0.499  12.735 -0.1772 -0.2805 -0.1806
  889MPD2    C113029   1.367   0.471  12.864 -0.2585  0.4969 -0.0392
  889MPD2    C213030   1.365   0.574  12.959 -0.1175  0.7432  0.3512
  889MPD2    C313031   1.385   0.711  12.920 -0.9126  0.0406 -0.1307
  889MPD2    C413032   1.409   0.737  12.784  0.4668 -0.3180 -0.3174
  889MPD2    C513033   1.417   0.630  12.697  0.3896  0.3122 -0.1788
  889MPD2     H13034   1.364   0.545  13.063 -0.1046  0.0270  0.1499
  889MPD2    H113035   1.418   0.839  12.751 -0.4412  0.0856  0.6836
  889MPD2    H213036   1.417   0.425  12.657 -1.6815 -0.3234 -0.3746
  889MPD2    H313037   1.447   0.649  12.595 -0.8282 -1.6174 -0.8960
  889MPD2     N13038   1.363   0.807  13.018  0.7380  0.3548  0.0643
  889MPD2    H513039   1.348   0.775  13.113 -0.8408 -0.4819 -0.4790
  889MPD2    N113040   1.373   0.343  12.913 -0.5812  0.3940 -0.7018
  889MPD2    H713041   1.392   0.337  13.012 -0.9739 -1.9430 -0.7769
  890MPD2     C13042   1.283   2.533  14.561 -0.8293  0.3428 -0.0587
  890MPD2    C113043   1.376   2.636  14.592  0.5610 -0.4127 -0.1735
  890MPD2    C213044   1.450   2.615  14.705  0.0251 -0.1870  0.2781
  890MPD2    C313045   1.449   2.497  14.777 -1.0624  0.4128 -0.1620
  890MPD2    C413046   1.362   2.399  14.739 -0.2133  0.7563  0.1549
  890MPD2    C513047   1.279   2.416  14.632  0.0600  0.0839 -0.1908
  890MPD2     H13048   1.520   2.694  14.729  0.3806 -0.7658  1.1213
  890MPD2    H113049   1.345   2.308  14.795 -3.2514  0.8209 -0.6623
  890MPD2    H213050   1.230   2.542  14.468 -0.0944  0.5900 -0.4561
  890MPD2    H313051   1.214   2.335  14.600 -2.0016  1.0150  1.5491
  890MPD2     N13052   1.519   2.501  14.900 -0.0181 -0.4316  0.2063
  890MPD2    H513053   1.556   2.592  14.924 -2.0103  0.3622  0.2268
  890MPD2    N113054   1.390   2.753  14.507  0.9391  0.2940  0.1332
  890MPD2    H713055   1.334   2.771  14.424 -1.3839  1.7898  2.0283
  891MPD2     C13056   3.874   0.648  16.674 -0.5044 -0.5815  0.0474
  891MPD2    C113057   3.803   0.740  16.752  0.4828 -0.2581 -0.4349
  891MPD2    C213058   3.873   0.823  16.845 -0.8637  0.3861 -0.9301
  891MPD2    C313059   4.007   0.799  16.861  0.5496  0.6394  0.7554
  891MPD2    C413060   4.071   0.704  16.784 -0.3087 -0.1126  0.0961
  891MPD2    C513061   4.003   0.627  16.698 -0.3111 -0.1417  0.7278
  891MPD2     H13062   3.824   0.898  16.907  0.3475  0.6142 -0.2489
  891MPD2    H113063   4.178   0.687  16.785 -0.1725  0.7037 -0.7964
  891MPD2    H213064   3.831   0.597  16.589 -1.1296 -0.3649  0.2389
  891MPD2    H313065   4.043   0.544  16.641  1.4556  0.7546  0.6733
  891MPD2     N13066   4.075   0.885  16.950 -0.1154 -0.6281 -0.4354
  891MPD2    H513067   4.014   0.953  16.994  0.2819 -0.7269  0.2699
  891MPD2    N113068   3.663   0.743  16.741 -0.0498 -0.1527  0.2837
  891MPD2    H713069   3.621   0.681  16.672  0.8588 -2.2838  1.6536
  892MPD2     C13070   0.293   2.311  14.361 -0.2561  0.7975 -0.0028
  892MPD2    C113071   0.245   2.203  14.443 -0.3199  0.1681 -0.0048
  892MPD2    C213072   0.298   2.074  14.427  0.1818 -0.4402 -0.0869
  892MPD2    C313073   0.404   2.057  14.338 -0.0760  0.2727 -0.1159
  892MPD2    C413074   0.459   2.162  14.272  0.3033 -0.5244 -0.5071
  892MPD2    C513075   0.393   2.281  14.274 -0.8006 -0.1188 -0.5591
  892MPD2     H13076   0.267   1.996  14.495  0.2596 -0.7182 -0.3714
  892MPD2    H113077   0.546   2.156  14.208 -1.5188  0.5132 -3.0654
  892MPD2    H213078   0.235   2.403  14.368 -1.9031 -0.5210  3.7727
  892MPD2    H313079   0.420   2.365  14.211  2.7351 -0.6339  0.2373
  892MPD2     N13080   0.458   1.930  14.313  0.2918 -1.0276 -0.3081
  892MPD2    H513081   0.535   1.927  14.247  0.3387  1.5358 -0.3833
  892MPD2    N113082   0.136   2.238  14.523  0.0943 -1.2378 -0.0179
  892MPD2    H713083   0.089   2.328  14.514  2.1280 -0.2132 -0.2265
  893MPD2     C13084   1.651   0.510   1.110  0.3523  0.2207  0.5301
  893MPD2    C113085   1.646   0.518   1.246 -0.8513  0.2905 -0.3320
  893MPD2    C213086   1.532   0.494   1.320 -0.4686 -0.0812  1.0190
  893MPD2    C313087   1.410   0.469   1.252  1.1438 -0.4391 -0.3222
  893MPD2    C413088   1.414   0.457   1.112  0.8099 -0.4251 -0.3483
  893MPD2    C513089   1.530   0.484   1.046  0.2231  0.3561  0.0583
  893MPD2     H13090   1.531   0.511   1.428 -1.1772 -0.3291  1.0479
  893MPD2    H113091   1.320   0.439   1.060  0.8984 -1.6943 -0.0794
  893MPD2    H213092   1.732   0.552   1.051 -1.2830  2.5321 -0.0619
  893MPD2    H313093   1.533   0.503   0.940 -4.5359 -1.3890 -0.3926
  893MPD2     N13094   1.284   0.462   1.311 -0.2443  0.4312 -0.0853
  893MPD2    H513095   1.200   0.452   1.255 -0.1161 -1.4415  0.0702
  893MPD2    N113096   1.772   0.545   1.304  0.4098  0.6787 -0.0739
  893MPD2    H713097   1.849   0.558   1.239  0.2452 -2.3881 -0.8763
  894MPD2     C13098   3.907   2.507   1.335 -0.2237 -0.2833  0.4584
  894MPD2    C113099   3.842   2.628   1.304 -0.0637 -0.7002  0.2771
  894MPD2    C213100   3.918   2.735   1.250  0.1182  0.7008  0.3003
  894MPD2    C313101   4.047   2.713   1.220 -0.0062  0.5841 -0.1178
  894MPD2    C413102   4.112   2.596   1.259 -0.0449  0.7971  0.3874
  894MPD2    C513103   4.041   2.497   1.326  0.1866  0.1667  0.9553
  894MPD2     H13104   3.865   2.827   1.228  1.1338  1.0670 -0.6745
  894MPD2    H113105   4.220   2.594   1.246  0.1129 -1.3439  2.1048
  894MPD2    H213106   3.854   2.421   1.373  0.6581 -1.6699 -1.4777
  894MPD2    H313107   4.096   2.413   1.365  0.8305  0.8507  1.5161
  894MPD2     N13108   4.110   2.811   1.136  0.1702  0.4449  0.4655
  894MPD2    H513109   4.057   2.897   1.126 -0.0391  0.1577 -0.8818
  894MPD2    N113110   3.711   2.651   1.330  0.0499 -0.9452  0.2117
  894MPD2    H713111   3.688   2.750   1.334  0.5981 -0.7574 -1.7730
  895MPD2     C13112   4.694   0.829  13.493  0.3715  1.0235 -0.4091
  895MPD2    C113113   4.559   0.843  13.489 -0.4473 -0.5937 -0.4631
  895MPD2    C213114   4.480   0.768  13.408 -0.1306 -0.1284  0.2326
  895MPD2    C313115   4.529   0.658  13.345 -0.1636  0.2246  0.8363
  895MPD2    C413116   4.663   0.627  13.365  1.6688  0.0362  0.1972
  895MPD2    C513117   0.016   0.717  13.434 -0.0186  0.0975 -0.5091
  895MPD2     H13118   4.375   0.792  13.395 -0.3352 -0.4724  1.2864
  895MPD2    H113119   4.718   0.537  13.337 -1.0417 -1.2752 -0.8834
  895MPD2    H213120   0.033   0.893  13.552 -2.4976  0.9149  2.8676
  895MPD2    H313121   0.120   0.691  13.447  0.2864  1.5708 -0.0036
  895MPD2     N13122   4.454   0.561  13.268  0.2024  0.4867  0.2457
  895MPD2    H513123   4.502   0.480  13.230  0.1235  1.3723 -1.7553
  895MPD2    N113124   4.497   0.948  13.565  0.1706 -0.5961 -0.1642
  895MPD2    H713125   4.399   0.963  13.543  0.5672  1.1343 -0.7685
  896MPD2     C13126   1.048   4.279   1.172  0.2060 -0.5431 -0.0956
  896MPD2    C113127   1.143   4.177   1.141  0.1731  0.3933 -0.2982
  896MPD2    C213128   1.093   4.051   1.109  0.0053 -0.3014  0.0819
  896MPD2    C313129   0.957   4.031   1.114  0.5362 -0.2891  0.2065
  896MPD2    C413130   0.867   4.135   1.143 -0.5364  0.1409 -0.4533
  896MPD2    C513131   0.916   4.256   1.157 -0.1695 -0.8012 -0.4631
  896MPD2     H13132   1.159   3.970   1.082 -1.2608 -1.2452 -0.1737
  896MPD2    H113133   0.759   4.123   1.145 -0.4396 -1.0410 -2.2564
  896MPD2    H213134   1.084   4.379   1.190  0.6662 -0.3378 -2.0758
  896MPD2    H313135   0.850   4.342   1.163  0.1374 -0.5747 -0.3544
  896MPD2     N13136   0.921   3.896   1.082  0.3826 -0.4236 -0.4206
  896MPD2    H513137   0.993   3.828   1.059  0.8145  0.1850 -0.8726
  896MPD2    N113138   1.281   4.198   1.161 -0.0661  0.1740  0.1189
  896MPD2    H713139   1.301   4.288   1.203  1.5993  0.7722 -1.9399
  897MPD2     C13140   2.658   0.943  10.562  0.7565 -0.5980  0.6040
  897MPD2    C113141   2.571   0.900  10.472  0.1804  0.5458 -0.1136
  897MPD2    C213142   2.498   0.777  10.493  0.2361 -0.6333 -0.3120
  897MPD2    C313143   2.539   0.688  10.591  0.7173  0.3810  0.0852
  897MPD2    C413144   2.648   0.730  10.670  0.0345 -0.2683  0.0001
  897MPD2    C513145   2.703   0.859  10.662 -0.1905  0.6820  0.6525
  897MPD2     H13146   2.433   0.745  10.413 -1.1982  0.9660  0.2182
  897MPD2    H113147   2.693   0.665  10.744  0.9004 -1.9344 -1.9875
  897MPD2    H213148   2.694   1.045  10.561  0.6726 -0.5865 -0.5245
  897MPD2    H313149   2.774   0.890  10.737  0.1676 -0.3380  0.7295
  897MPD2     N13150   2.483   0.563  10.599 -0.0449 -0.2205  0.5330
  897MPD2    H513151   2.395   0.546  10.552  1.4594 -0.3795 -2.2000
  897MPD2    N113152   2.545   0.988  10.366  0.1155  0.3806 -0.2025
  897MPD2    H713153   2.591   1.078  10.372  0.4767  0.2581 -1.1756
  898MPD2     C13154   4.505   0.882   0.228  0.1134 -0.4784  0.3477
  898MPD2    C113155   4.556   0.999   0.172  0.4772 -0.0887  0.5828
  898MPD2    C213156   4.465   1.097   0.125 -0.1900 -0.1448  0.2698
  898MPD2    C313157   4.326   1.087   0.149 -0.1263 -0.3144 -0.3218
  898MPD2    C413158   4.280   0.972   0.210  0.0773  0.5785 -0.1550
  898MPD2    C513159   4.366   0.874   0.240  0.1379  0.9540 -0.1031
  898MPD2     H13160   4.500   1.191   0.084  3.3851 -1.1606  0.9249
  898MPD2    H113161   4.172   0.957   0.212  0.2316 -0.3900  0.8223
  898MPD2    H213162   4.557   0.787   0.235  1.2839  0.0767 -0.8030
  898MPD2    H313163   4.329   0.783   0.286  0.6019 -0.1990 -2.0513
  898MPD2     N13164   4.244   1.192   0.108  0.0028  0.3221  0.4281
  898MPD2    H513165   4.295   1.264   0.057  1.3892  0.0672  1.4412
  898MPD2    N113166   4.693   1.023   0.148  0.1268  0.4155 -0.1349
  898MPD2    H713167   4.709   1.114   0.105  0.1108  0.7812  0.6427
  899MPD2     C13168   0.309   1.759  17.515 -0.3999 -0.3337 -0.1565
  899MPD2    C113169   0.426   1.834  17.538 -0.2224  0.2509 -0.4017
  899MPD2    C213170   0.471   1.845  17.670 -0.2542 -0.0382  0.3582
  899MPD2    C313171   0.405   1.797   0.075 -0.4441 -0.4149  0.1071
  899MPD2    C413172   0.295   1.721   0.051  0.5274 -0.3367 -0.1995
  899MPD2    C513173   0.250   1.701  17.632  0.2923  0.4526 -0.6235
  899MPD2     H13174   0.566   1.895  17.690  0.4393 -0.5087 -1.7721
  899MPD2    H113175   0.237   1.669   0.126  0.6392  0.4186  0.4173
  899MPD2    H213176   0.276   1.736  17.415 -1.1369  0.5647 -0.1181
  899MPD2    H313177   0.168   1.633  17.611 -0.2889  1.0153 -0.1526
  899MPD2     N13178   0.462   1.803   0.203  0.1351 -0.4813 -0.0083
  899MPD2    H513179   0.420   1.737   0.268  1.8426 -0.6073  0.9703
  899MPD2    N113180   0.502   1.889  17.434  0.0219 -0.2719  0.1363
  899MPD2    H713181   0.463   1.898  17.340  0.4082  1.1667  0.1173
  900MPD2     C13182   0.252   3.572  11.933  0.3855 -0.1475  0.4928
  900MPD2    C113183   0.227   3.468  11.849 -0.2300 -0.5715 -0.3269
  900MPD2    C213184   0.106   3.465  11.783 -0.5099  0.5210 -0.3567
  900MPD2    C313185   0.006   3.558  11.802 -0.0356 -0.4858 -0.1697
  900MPD2    C413186   0.024   3.655  11.898  0.1499 -0.5364 -0.0532
  900MPD2    C513187   0.153   3.666  11.953 -0.5026  0.8610 -0.4486
  900MPD2     H13188   0.096   3.379  11.718  0.4192  1.6852 -2.0352
  900MPD2    H113189   4.673   3.725  11.928  1.7823  0.9182  0.7779
  900MPD2    H213190   0.346   3.579  11.987  1.8886 -0.6258 -2.0862
  900MPD2    H313191   0.178   3.741  12.026 -3.1386  0.8909  0.4351
  900MPD2     N13192   4.611   3.527  11.737 -0.0944  0.0660 -0.4250
  900MPD2    H513193   4.613   3.460  11.661 -1.3606 -0.8990  0.3960
  900MPD2    N113194   0.326   3.366  11.848 -0.1015  0.6070 -0.4285
  900MPD2    H713195   0.414   3.395  11.889 -0.1051  1.2211 -0.8510
  901MPD2     C13196   0.267   2.343  12.102 -0.0836  0.3535  0.2133
  901MPD2    C113197   0.399   2.359  12.094  0.8190 -0.0193 -0.4166
  901MPD2    C213198   0.452   2.484  12.064 -0.0421  0.8425 -0.1861
  901MPD2    C313199   0.366   2.590  12.035 -0.0630  0.3089 -0.2101
  901MPD2    C413200   0.224   2.566  12.047 -0.2155  0.3996 -0.0669
  901MPD2    C513201   0.177   2.441  12.077  0.4335 -0.2365  0.0331
  901MPD2     H13202   0.560   2.489  12.055  0.3671 -3.6634  1.9828
  901MPD2    H113203   0.153   2.645  12.024 -1.2934 -0.1462  1.3176
  901MPD2    H213204   0.229   2.242  12.111 -1.5444  0.7487 -1.4151
  901MPD2    H313205   0.070   2.426  12.083  0.4270 -0.0387  0.4620
  901MPD2     N13206   0.418   2.712  11.982  0.3858 -0.2031 -0.1857
  901MPD2    H513207   0.519   2.717  11.972  0.5819 -0.9690  1.4656
  901MPD2    N113208   0.475   2.246  12.111  0.3404 -0.0277 -0.4055
  901MPD2    H713209   0.428   2.156  12.119 -0.2257  0.1447 -1.6560
  902MPD2     C13210   3.923   1.792  13.083 -0.3631  0.1304 -0.2866
  902MPD2    C113211   4.050   1.824  13.040 -0.1959  0.3241 -0.6126
  902MPD2    C213212   4.148   1.731  13.053  0.2715  0.6345  0.4212
  902MPD2    C313213   4.119   1.601  13.088 -0.0727 -0.6371 -0.0015
  902MPD2    C413214   3.991   1.565  13.124 -0.0828  0.1463  0.6777
  902MPD2    C513215   3.896   1.664  13.127  0.3797  0.0587 -0.2979
  902MPD2     H13216   4.248   1.748  13.013  0.6200 -0.1018  0.9715
  902MPD2    H113217   3.969   1.464  13.158  1.2335 -0.2134  0.4572
  902MPD2    H213218   3.851   1.870  13.061 -1.0113 -0.1857  0.7493
  902MPD2    H313219   3.795   1.627  13.146  0.4489 -0.8459 -1.6503
  902MPD2     N13220   4.202   1.494  13.087 -0.9089  0.6275  0.1642
  902MPD2    H513221   4.176   1.398  13.104  0.2862  0.4104  0.7747
  902MPD2    N113222   4.064   1.957  12.996 -0.0342  0.1528 -0.1653
  902MPD2    H713223   3.980   2.012  13.007 -0.6884 -0.7330 -0.7571
  903MPD2     C13224   4.366   0.815  12.544  0.2490 -0.1886 -0.4744
  903MPD2    C113225   4.283   0.897  12.619 -0.1766  0.6998 -0.2135
  903MPD2    C213226   4.147   0.880  12.610 -0.8113  0.4990  0.1816
  903MPD2    C313227   4.093   0.776  12.530 -0.3586 -1.0329 -0.0976
  903MPD2    C413228   4.178   0.692  12.461  0.1893  0.5103  1.0566
  903MPD2    C513229   4.317   0.710  12.474  0.1789  0.9522 -0.1991
  903MPD2     H13230   4.088   0.952  12.666 -0.4313  0.5645  0.5053
  903MPD2    H113231   4.126   0.622  12.395  0.9118  0.5381  0.4550
  903MPD2    H213232   4.474   0.827  12.541  0.0184  1.9420 -0.3539
  903MPD2    H313233   4.385   0.658  12.407 -1.2950 -0.8495 -0.3126
  903MPD2     N13234   3.960   0.748  12.534  0.0757  0.0661 -0.4964
  903MPD2    H513235   3.936   0.661  12.487  2.5318 -0.0093 -1.6246
  903MPD2    N113236   4.342   0.998  12.701  0.5586  0.2908 -0.3005
  903MPD2    H713237   4.440   1.025  12.693  1.0656 -1.4304  0.1140
  904MPD2     C13238   4.066   0.159  14.141  0.0889 -0.6367 -0.2628
  904MPD2    C113239   4.074   0.289  14.108 -0.4014 -0.3738 -0.4979
  904MPD2    C213240   4.193   0.366  14.116 -0.4973 -0.0883 -0.6484
  904MPD2    C313241   4.306   0.300  14.147 -0.6793  0.4551 -0.3154
  904MPD2    C413242   4.298   0.169  14.189 -0.1795  0.0914  0.7334
  904MPD2    C513243   4.180   0.099  14.181  0.2867 -0.5007 -0.6881
  904MPD2     H13244   4.201   0.470  14.087  2.8090 -0.3179 -0.5541
  904MPD2    H113245   4.376   0.112  14.238 -1.0604 -1.1368  0.7361
  904MPD2    H213246   3.975   0.100  14.142 -1.0860  1.1441 -2.1376
  904MPD2    H313247   4.188   0.001  14.227 -1.9933  0.0520  0.9062
  904MPD2     N13248   4.426   0.378  14.143 -0.1203  0.6915  0.2324
  904MPD2    H513249   4.405   0.471  14.108 -0.0423  0.9377  0.8358
  904MPD2    N113250   3.962   0.360  14.059  0.0912 -0.4092 -0.0724
  904MPD2    H713251   3.976   0.459  14.040  1.5655 -0.6120 -0.0917
  905MPD2     C13252   3.532   0.670  13.361  0.4887  0.6247 -0.2979
  905MPD2    C113253   3.598   0.566  13.419 -0.2262 -0.0640  0.1352
  905MPD2    C213254   3.711   0.511  13.364  0.2260  0.3535 -0.1649
  905MPD2    C313255   3.748   0.548  13.235 -0.2496 -0.6555 -0.3414
  905MPD2    C413256   3.671   0.635  13.169 -0.4215 -0.1010 -0.8093
  905MPD2    C513257   3.563   0.700  13.227  0.2092 -0.3053 -0.3204
  905MPD2     H13258   3.773   0.439  13.417  0.1447  0.6628  0.3488
  905MPD2    H113259   3.686   0.647  13.063 -1.6783  1.6339 -0.7923
  905MPD2    H213260   3.452   0.718  13.417 -1.0823 -1.9745 -0.3093
  905MPD2    H313261   3.515   0.777  13.167 -2.1050 -0.3581  1.4619
  905MPD2     N13262   3.863   0.490  13.174  0.2950 -0.1830 -0.4950
  905MPD2    H513263   3.888   0.516  13.079 -0.9829 -1.1340 -1.0938
  905MPD2    N113264   3.551   0.525  13.549  0.1201 -0.5449 -0.4627
  905MPD2    H713265   3.473   0.578  13.588 -0.4221 -0.4136 -1.7360
  906MPD2     C13266   1.435   4.658  11.548  0.1264 -0.3672  0.1375
  906MPD2    C113267   1.350   4.638  11.445 -0.5181  0.5194 -0.4640
  906MPD2    C213268   1.252   4.542  11.461 -0.2024  0.0803  0.0233
  906MPD2    C313269   1.234   4.470  11.574  0.1655  0.2775  0.2645
  906MPD2    C413270   1.305   4.502  11.686 -0.1131  0.4311 -0.2221
  906MPD2    C513271   1.414   4.589  11.669  0.9143 -0.1056 -0.0468
  906MPD2     H13272   1.190   4.530  11.373 -1.2751 -0.3367  0.8290
  906MPD2    H113273   1.273   4.468  11.785 -1.7956  2.6694  0.0016
  906MPD2    H213274   1.508   0.011  11.539 -0.5889  0.3056  0.2657
  906MPD2    H313275   1.470   4.620  11.757 -0.4187  0.6577  0.5324
  906MPD2     N13276   1.124   4.389  11.592  0.1083  0.9424  0.4234
  906MPD2    H513277   1.123   4.344  11.683 -1.6586  2.2318  1.0523
  906MPD2    N113278   1.355   4.698  11.321  0.2535 -0.3705  0.1306
  906MPD2    H713279   1.298   4.659  11.246  1.6257  0.5014 -1.3710
  907MPD2     C13280   4.225   4.374  15.017  0.1523  0.5961 -0.5719
  907MPD2    C113281   4.360   4.344  15.005 -0.0238  0.3494  0.5283
  907MPD2    C213282   4.447   4.419  15.080 -0.3798  0.2785  0.1074
  907MPD2    C313283   4.405   4.525  15.164  0.6326 -0.7928 -0.5228
  907MPD2    C413284   4.270   4.552  15.168  0.4860  0.1887 -0.1602
  907MPD2    C513285   4.180   4.472  15.100  0.0337 -0.0716  0.0764
  907MPD2     H13286   4.552   4.392  15.080 -0.4837 -0.1246 -0.3484
  907MPD2    H113287   4.237   4.637  15.228 -0.4289 -0.3625  0.1151
  907MPD2    H213288   4.145   4.326  14.961  0.7754 -1.4354  0.2673
  907MPD2    H313289   4.073   4.488  15.110  0.3572  1.1389  1.6516
  907MPD2     N13290   4.510   4.609  15.206  0.7275 -0.2292  0.0357
  907MPD2    H513291   4.601   4.584  15.168 -0.4417 -2.8992 -0.9989
  907MPD2    N113292   4.407   4.242  14.920 -0.0429  0.5814  0.3248
  907MPD2    H713293   4.506   4.223  14.928 -0.1778 -0.8369 -1.5736
  908MPD2     C13294   2.071   0.763   9.486  0.0286  0.0625  0.0446
  908MPD2    C113295   2.179   0.697   9.527 -0.6012 -0.3787 -0.7525
  908MPD2    C213296   2.263   0.762   9.616  0.0930 -0.5225  0.1176
  908MPD2    C313297   2.246   0.887   9.661 -0.7769 -0.1840  0.5465
  908MPD2    C413298   2.134   0.950   9.623  0.3012  0.7119  0.2480
  908MPD2    C513299   2.052   0.890   9.529  0.0678  0.5213  0.0504
  908MPD2     H13300   2.347   0.706   9.656 -0.0646  0.1599  1.3937
  908MPD2    H113301   2.095   1.048   9.647 -1.6235 -0.0363  0.1155
  908MPD2    H213302   1.997   0.717   9.421  0.4183  0.8413 -0.9396
  908MPD2    H313303   1.957   0.938   9.506 -1.2986 -0.7248  2.9620
  908MPD2     N13304   2.333   0.940   9.763  0.3096  0.4102  0.2135
  908MPD2    H513305   2.417   0.891   9.792 -0.1893  0.2030  1.3371
  908MPD2    N113306   2.200   0.566   9.498 -0.4736 -0.6524  0.2551
  908MPD2    H713307   2.272   0.520   9.552  0.7140  1.6107  0.5960
  909MPD2     C13308   2.879   2.891  11.930 -0.6682  0.1589 -0.0839
  909MPD2    C113309   2.826   2.960  11.820  0.0627 -0.4225 -1.5821
  909MPD2    C213310   2.747   3.069  11.839  0.3337  0.3069 -1.0400
  909MPD2    C313311   2.706   3.107  11.962  1.3449  0.3404  0.2626
  909MPD2    C413312   2.747   3.036  12.078 -0.4259 -0.1157  0.1050
  909MPD2    C513313   2.827   2.924  12.055  0.5381  0.1705 -0.3042
  909MPD2     H13314   2.704   3.119  11.752  0.3028  0.7803 -0.7538
  909MPD2    H113315   2.718   3.062  12.179 -0.6200 -0.4438  0.1366
  909MPD2    H213316   2.944   2.805  11.913 -1.0530 -0.4861  1.7355
  909MPD2    H313317   2.864   2.872  12.143 -1.1660 -1.7265 -0.7151
  909MPD2     N13318   2.640   3.231  11.972  0.3704 -0.4327 -0.1795
  909MPD2    H513319   2.627   3.278  11.883 -2.0883  0.4831  0.6626
  909MPD2    N113320   2.854   2.924  11.687 -0.1227  0.5239 -0.3333
  909MPD2    H713321   2.813   2.977  11.611 -1.6026 -0.7703 -0.4263
  910MPD2     C13322   4.013   0.247  15.939  0.0858 -0.0339  0.2173
  910MPD2    C113323   4.099   0.231  15.835  0.5557 -1.1563 -0.9035
  910MPD2    C213324   4.050   0.263  15.710  0.6337 -0.4549  0.2915
  910MPD2    C313325   3.926   0.307  15.680  0.3283 -0.2578  0.4217
  910MPD2    C413326   3.842   0.327  15.787  0.7030 -0.5663  0.4723
  910MPD2    C513327   3.883   0.293  15.915  0.2116 -0.2186  0.5374
  910MPD2     H13328   4.129   0.265  15.636  1.0196  1.4269  0.7369
  910MPD2    H113329   3.742   0.366  15.767  0.3955  0.2315  3.5298
  910MPD2    H213330   4.058   0.228  16.036 -1.0379  0.8337  0.9265
  910MPD2    H313331   3.810   0.306  15.995 -0.5311  0.6612 -0.2811
  910MPD2     N13332   3.885   0.340  15.547 -0.1413 -0.6026  0.0921
  910MPD2    H513333   3.801   0.396  15.535 -1.5244 -2.2911  1.9787
  910MPD2    N113334   4.231   0.177  15.837 -0.0201  0.2796  0.2019
  910MPD2    H713335   4.272   0.164  15.745 -0.2774  1.1389 -0.0288
  911MPD2     C13336   1.929   0.685  16.069 -0.0731  0.3962 -0.2095
  911MPD2    C113337   1.967   0.787  16.151  0.6930  0.2085  0.2022
  911MPD2    C213338   1.884   0.893  16.173 -0.6585 -0.1103  0.1277
  911MPD2    C313339   1.762   0.897  16.110  0.1507 -0.2519 -0.6502
  911MPD2    C413340   1.728   0.795  16.021 -0.0572  0.6262  0.3213
  911MPD2    C513341   1.810   0.687  16.003  0.2469 -0.5644  0.4560
  911MPD2     H13342   1.918   0.982  16.225  2.1764 -0.5038 -1.0522
  911MPD2    H113343   1.634   0.797  15.967  0.1370  0.7464 -0.0159
  911MPD2    H213344   1.992   0.599  16.047  2.8347  2.3514  0.4899
  911MPD2    H313345   1.780   0.612  15.931 -0.7720  1.4807 -1.2474
  911MPD2     N13346   1.681   1.015  16.102 -0.2795 -0.4042  0.4339
  911MPD2    H513347   1.606   1.012  16.034 -1.5437  0.6500  1.8013
  911MPD2    N113348   2.090   0.769  16.217  0.2701 -0.7239 -0.9735
  911MPD2    H713349   2.131   0.676  16.217  1.0851 -0.3558 -0.4485
  912MPD2     C13350   1.590   0.871  15.464  0.8165 -0.0359 -0.8284
  912MPD2    C113351   1.565   0.885  15.602 -0.2148 -0.7713  0.0829
  912MPD2    C213352   1.561   0.773  15.671 -0.3926  0.9611 -0.5152
  912MPD2    C313353   1.584   0.640  15.616 -0.7393 -0.2683  0.3436
  912MPD2    C413354   1.605   0.627  15.478  0.3328 -0.3434  0.1592
  912MPD2    C513355   1.609   0.748  15.406 -0.0878  0.1597 -0.0338
  912MPD2     H13356   1.555   0.779  15.779 -1.8126  0.7023 -0.5808
  912MPD2    H113357   1.614   0.535  15.421  3.1137  1.5800 -2.5682
  912MPD2    H213358   1.595   0.964  15.408  0.5366  0.1547 -0.5345
  912MPD2    H313359   1.634   0.744  15.301  2.1787 -0.5311  0.5336
  912MPD2     N13360   1.587   0.535  15.702  0.5129 -0.5318  0.0690
  912MPD2    H513361   1.556   0.552  15.797  1.0535  2.7276 -0.3542
  912MPD2    N113362   1.573   1.013  15.656 -0.2046  0.5052 -0.3948
  912MPD2    H713363   1.606   1.088  15.595  0.7737  1.3895  1.2206
  913MPD2     C13364   1.663   1.591  10.719 -0.0021  0.0541 -1.0766
  913MPD2    C113365   1.782   1.658  10.710  0.2911  0.5405  0.0924
  913MPD2    C213366   1.827   1.695  10.587  0.0898  0.1716 -0.2451
  913MPD2    C313367   1.750   1.685  10.479  0.1243  0.2320 -0.0747
  913MPD2    C413368   1.634   1.619  10.491  0.1384  0.1485  0.3881
  913MPD2    C513369   1.589   1.571  10.607 -0.0537  0.5093 -1.0150
  913MPD2     H13370   1.920   1.748  10.573 -0.3555  0.8027 -0.8732
  913MPD2    H113371   1.576   1.611  10.400 -0.5845  0.5075  0.8178
  913MPD2    H213372   1.631   1.565  10.819  0.3926  2.4171 -0.3263
  913MPD2    H313373   1.492   1.523  10.613  2.2545 -3.9393  0.4862
  913MPD2     N13374   1.787   1.727  10.349 -0.1189 -0.2446 -0.0189
  913MPD2    H513375   1.721   1.710  10.274 -0.5841 -2.6793  0.9370
  913MPD2    N113376   1.849   1.688  10.833 -0.1074  0.0027  0.5614
  913MPD2    H713377   1.801   1.647  10.913 -0.6510  1.4201  0.9506
  914MPD2     C13378   0.174   1.580  11.783 -0.4071 -0.6906 -0.3905
  914MPD2    C113379   0.200   1.700  11.725  0.2144  0.8190  0.2371
  914MPD2    C213380   0.305   1.774  11.770 -0.2527 -0.7777 -0.1635
  914MPD2    C313381   0.376   1.730  11.876 -0.3522 -0.7043  0.1734
  914MPD2    C413382   0.345   1.608  11.933  0.3724 -0.0946 -0.0323
  914MPD2    C513383   0.245   1.533  11.885  0.2431  0.0208 -0.4880
  914MPD2     H13384   0.328   1.867  11.718 -1.4943  1.2044  2.8801
  914MPD2    H113385   0.401   1.566  12.016 -1.6014 -2.0911  0.3026
  914MPD2    H213386   0.102   1.513  11.739 -0.4852 -0.2293 -0.9668
  914MPD2    H313387   0.221   1.438  11.930 -0.3814  0.7795  0.7856
  914MPD2     N13388   0.487   1.802  11.925  0.0774 -0.2202 -0.2281
  914MPD2    H513389   0.517   1.884  11.874 -0.0291 -0.5079 -0.7518
  914MPD2    N113390   0.113   1.736  11.622 -0.2515 -0.1237  0.0181
  914MPD2    H713391   0.049   1.669  11.580 -0.8604 -0.9040  2.1670
  915MPD2     C13392   3.738   2.581  15.589 -0.0638  0.5885  0.2495
  915MPD2    C113393   3.600   2.572  15.583 -0.1780  0.2135 -0.5986
  915MPD2    C213394   3.531   2.575  15.705 -0.1403 -0.6854 -0.4339
  915MPD2    C313395   3.596   2.581  15.829  0.3631  0.4943 -0.2484
  915MPD2    C413396   3.732   2.597  15.825  0.4357  0.3476 -0.2063
  915MPD2    C513397   3.802   2.592  15.706  0.7751 -0.6049 -0.4756
  915MPD2     H13398   3.423   2.583  15.700 -0.1836 -1.1511 -0.3202
  915MPD2    H113399   3.800   2.612  15.908  1.8568 -0.5320 -1.2067
  915MPD2    H213400   3.798   2.592  15.500 -0.1560  1.0036  0.2378
  915MPD2    H313401   3.910   2.591  15.705  0.7832 -0.3289  0.2788
  915MPD2     N13402   3.524   2.582  15.947  0.4923  0.1463 -0.3030
  915MPD2    H513403   3.422   2.585  15.948  0.4679 -0.8990  2.5716
  915MPD2    N113404   3.534   2.564  15.459  0.0744  0.0377  0.3319
  915MPD2    H713405   3.433   2.565  15.472  0.2100  0.6364  1.3680
  916MPD2     C13406   1.190   0.480  15.354 -0.0345  0.3230 -0.0236
  916MPD2    C113407   1.241   0.435  15.473  0.5233 -0.1226  0.0472
  916MPD2    C213408   1.276   0.302  15.476 -0.5681 -0.4198  0.6144
  916MPD2    C313409   1.275   0.226  15.364 -0.8150  0.8891 -0.5877
  916MPD2    C413410   1.233   0.277  15.244  0.0507  0.7220 -0.1856
  916MPD2    C513411   1.195   0.406  15.245  0.0991  0.1759 -0.8335
  916MPD2     H13412   1.338   0.260  15.555 -1.6703 -0.5240  1.4135
  916MPD2    H113413   1.222   0.218  15.154  1.4327  0.0036  0.1154
  916MPD2    H213414   1.153   0.581  15.341  1.0032  0.8776  1.3465
  916MPD2    H313415   1.148   0.452  15.158  0.5061  0.1907 -1.0478
  916MPD2     N13416   1.325   0.096  15.377  0.0875 -0.0610  0.1382
  916MPD2    H513417   1.351   0.056  15.467  2.3234 -0.1635 -0.5547
  916MPD2    N113418   1.229   0.512  15.593 -0.1901  0.4550 -0.5864
  916MPD2    H713419   1.208   0.610  15.580  1.4070  0.9949  0.8949
  917MPD2     C13420   1.418   3.082  10.637 -0.0270  0.1051  0.5322
  917MPD2    C113421   1.510   3.123  10.721 -0.1609 -0.1169  0.7307
  917MPD2    C213422   1.593   3.223  10.674  0.0236  0.2878 -0.1870
  917MPD2    C313423   1.597   3.261  10.540 -0.0833  0.2805 -0.4520
  917MPD2    C413424   1.495   3.221  10.457  0.4622  0.6086 -0.0695
  917MPD2    C513425   1.403   3.131  10.509  0.2533  0.4714  0.2974
  917MPD2     H13426   1.661   3.247  10.754  0.8854 -0.0243 -0.8217
  917MPD2    H113427   1.468   3.265  10.362 -3.0590  1.9243  1.5675
  917MPD2    H213428   1.342   3.013  10.671  0.8424 -0.8754  0.4905
  917MPD2    H313429   1.309   3.111  10.458  0.2286 -0.7772  0.8364
  917MPD2     N13430   1.683   3.357  10.483  0.5303  0.3478  0.1638
  917MPD2    H513431   1.646   3.382  10.392 -0.5679 -1.4739  0.1032
  917MPD2    N113432   1.514   3.071  10.851 -0.5313  0.1317  0.6702
  917MPD2    H713433   1.441   3.001  10.859 -0.6618  0.3460  1.3417
  918MPD2     C13434   1.952   3.233  11.774  0.0148 -0.1436  0.6709
  918MPD2    C113435   1.980   3.098  11.748 -0.4336 -0.0233 -0.3595
  918MPD2    C213436   1.899   3.028  11.663  1.1341  0.0481 -0.2764
  918MPD2    C313437   1.787   3.087  11.604 -0.5409 -0.2471 -0.1954
  918MPD2    C413438   1.758   3.224  11.625 -0.1649  0.3584 -0.2996
  918MPD2    C513439   1.842   3.293  11.709  0.3842  0.3299 -0.4315
  918MPD2     H13440   1.927   2.929  11.628 -1.0704 -0.4988 -0.5464
  918MPD2    H113441   1.683   3.284  11.576 -1.7201 -2.0556 -0.8561
  918MPD2    H213442   2.014   3.290  11.843  1.1062  0.7553 -1.0369
  918MPD2    H313443   1.836   3.401  11.715  2.5109  0.4849 -0.9854
  918MPD2     N13444   1.717   3.010  11.506 -0.2130 -0.5482  0.0866
  918MPD2    H513445   1.756   2.916  11.510 -0.9305 -0.7860  1.4159
  918MPD2    N113446   2.080   3.024  11.815  0.1092 -0.5879  0.5529
  918MPD2    H713447   2.083   2.930  11.777 -2.1060 -0.3405 -0.2155
  919MPD2     C13448   2.187   2.355  11.374  0.4763 -0.5229  0.5148
  919MPD2    C113449   2.143   2.220  11.371 -0.1426 -0.6205 -0.6394
  919MPD2    C213450   2.065   2.182  11.272  0.7422  0.3030 -0.3330
  919MPD2    C313451   2.030   2.267  11.163  0.0975  0.5519 -0.5525
  919MPD2    C413452   2.086   2.393  11.164 -0.1613 -0.2681  0.2113
  919MPD2    C513453   2.147   2.443  11.280 -1.0014 -0.2008 -0.5772
  919MPD2     H13454   2.029   2.080  11.269 -1.2223  0.9897 -0.2071
  919MPD2    H113455   2.066   2.459  11.080 -0.6801 -0.4913  0.1611
  919MPD2    H213456   2.249   2.399  11.451  0.5987  0.4356 -0.1278
  919MPD2    H313457   2.200   2.537  11.276 -2.9206  0.9186  0.3325
  919MPD2     N13458   1.955   2.219  11.051 -0.6096  0.5962 -0.6271
  919MPD2    H513459   1.926   2.281  10.977 -1.4797  2.1598  1.0173
  919MPD2    N113460   2.174   2.127  11.474  0.1461  0.1863 -0.2506
  919MPD2    H713461   2.140   2.032  11.463 -0.8737  0.5182  0.0335
  920MPD2     C13462   1.862   2.247  10.051  0.4517  0.5902 -0.0523
  920MPD2    C113463   1.754   2.157  10.081  0.4668 -0.4962  0.0488
  920MPD2    C213464   1.750   2.102  10.208  0.0026 -0.1382 -0.4541
  920MPD2    C313465   1.823   2.148  10.312 -0.5875  0.4147  0.2820
  920MPD2    C413466   1.913   2.241  10.279 -0.2245 -0.4197 -0.0196
  920MPD2    C513467   1.937   2.294  10.151  0.4723  0.6876  0.4925
  920MPD2     H13468   1.662   2.042  10.228  0.7661 -1.1773 -0.2081
  920MPD2    H113469   1.981   2.294  10.345 -0.4167 -0.0001 -0.1534
  920MPD2    H213470   1.874   2.289   9.952  1.4525 -1.4397 -0.7747
  920MPD2    H313471   2.009   2.374  10.139  0.9808  0.0226 -0.8726
  920MPD2     N13472   1.802   2.107  10.443  0.5626 -0.4566  0.4547
  920MPD2    H513473   1.727   2.041  10.458 -0.0675 -0.6288 -3.5006
  920MPD2    N113474   1.674   2.090   9.983  0.4613 -0.0902  0.5652
  920MPD2    H713475   1.611   2.015  10.011 -1.0070  1.3898  1.1745
  921MPD2     C13476   2.886   1.171  16.759  0.6704  0.3171  0.4436
  921MPD2    C113477   2.897   1.037  16.726  0.2237 -0.5520 -0.3576
  921MPD2    C213478   2.793   0.975  16.654 -0.3828  0.1078 -0.1085
  921MPD2    C313479   2.673   1.040  16.632  0.4760  0.2784 -0.7069
  921MPD2    C413480   2.672   1.182  16.660  0.1119 -0.2857  0.3339
  921MPD2    C513481   2.777   1.245  16.729  0.4656  0.4232  0.0288
  921MPD2     H13482   2.804   0.869  16.639  0.9095  0.5400 -2.1461
  921MPD2    H113483   2.578   1.234  16.643  0.6335  0.0371 -1.5724
  921MPD2    H213484   2.960   1.220  16.821 -0.8838  0.8331  1.8959
  921MPD2    H313485   2.772   1.348  16.761  2.2445  1.1724 -2.0877
  921MPD2     N13486   2.563   0.979  16.571  0.0086  0.5353 -0.4608
  921MPD2    H513487   2.494   1.037  16.525 -1.4785 -0.0813  0.9967
  921MPD2    N113488   3.005   0.958  16.759  0.2212 -0.1898  0.0700
  921MPD2    H713489   2.989   0.858  16.759 -0.4617 -0.0752 -0.6346
  922MPD2     C13490   4.042   4.228  17.220 -0.5144  0.4838  0.3926
  922MPD2    C113491   3.920   4.213  17.296  0.3306 -0.2621  0.2668
  922MPD2    C213492   3.887   4.086  17.333  0.5075 -0.7515 -0.0977
  922MPD2    C313493   3.972   3.978  17.313 -0.4611  0.2884  0.6004
  922MPD2    C413494   4.095   3.996  17.252 -0.4064 -0.1013 -0.1623
  922MPD2    C513495   4.126   4.120  17.198 -0.4540 -0.9438  0.1445
  922MPD2     H13496   3.795   4.075  17.389  0.7861  2.6175  1.0138
  922MPD2    H113497   4.168   3.916  17.247 -0.7940 -0.4523 -0.3139
  922MPD2    H213498   4.077   4.325  17.188  1.1556 -0.0839  0.4892
  922MPD2    H313499   4.213   4.148  17.141 -2.3349  0.5007 -2.0042
  922MPD2     N13500   3.930   3.849  17.363 -0.0427 -0.4795 -0.7762
  922MPD2    H513501   3.831   3.835  17.373  0.1815 -0.5218  1.3172
  922MPD2    N113502   3.828   4.321  17.326 -0.0818  0.0428 -0.2093
  922MPD2    H713503   3.738   4.291  17.363  0.7266 -0.0861  1.6237
  923MPD2     C13504   4.093   0.275   8.968  0.7227 -0.7152  0.1190
  923MPD2    C113505   4.180   0.381   8.989  0.7636  0.3708  0.1900
  923MPD2    C213506   4.313   0.377   8.963  0.5134 -0.1540 -0.6853
  923MPD2    C313507   4.365   0.272   8.895 -0.0607  0.3537 -0.2776
  923MPD2    C413508   4.275   0.178   8.846  0.7187  0.0664 -0.2417
  923MPD2    C513509   4.148   0.171   8.901  0.3814  0.2150 -0.3432
  923MPD2     H13510   4.372   0.461   8.999  0.1225  0.2730 -1.0322
  923MPD2    H113511   4.304   0.084   8.800 -0.9988 -0.8711  0.6196
  923MPD2    H213512   3.990   0.278   9.004  0.3949  1.1596 -0.9317
  923MPD2    H313513   4.086   0.085   8.877 -0.8674  0.9708  0.1456
  923MPD2     N13514   4.506   0.251   8.878 -0.0523  0.0166 -0.0080
  923MPD2    H513515   4.522   0.159   8.838 -0.9385  0.1578 -0.6649
  923MPD2    N113516   4.121   0.493   9.054  1.1200  0.4495 -0.9845
  923MPD2    H713517   4.022   0.484   9.074  1.0808  0.9556 -0.9660
  924MPD2     C13518   0.467   4.398  14.943 -0.2490 -0.1773 -0.7846
  924MPD2    C113519   0.478   4.452  15.074 -0.5994 -0.0380 -0.5029
  924MPD2    C213520   0.397   4.558  15.107  0.0672  0.3932 -0.2952
  924MPD2    C313521   0.316   4.627  15.015 -0.0317 -0.2130  0.0381
  924MPD2    C413522   0.315   4.572  14.885  1.1402  0.1126 -0.1267
  924MPD2    C513523   0.383   4.456  14.852 -0.3696  0.6869 -0.4063
  924MPD2     H13524   0.403   4.608  15.203 -1.1225  0.9188 -0.4948
  924MPD2    H113525   0.254   4.612  14.805  0.4494 -0.2433  0.2227
  924MPD2    H213526   0.514   4.306  14.908  0.1017 -0.4215  0.3425
  924MPD2    H313527   0.364   4.417  14.753 -1.9164  0.0344  0.1500
  924MPD2     N13528   0.234   0.018  15.037  0.4134 -0.1625 -0.6040
  924MPD2    H513529   0.168   0.047  14.966  1.5275  2.7998 -0.4355
  924MPD2    N113530   0.570   4.393  15.157 -0.5601  0.1213  0.2728
  924MPD2    H713531   0.616   4.309  15.125  0.2926  0.9131 -0.5916
  925MPD2     C13532   4.529   1.466  14.632 -0.2181  0.3313  0.0478
  925MPD2    C113533   4.407   1.527  14.597 -0.7083 -0.7288  0.0624
  925MPD2    C213534   4.321   1.560  14.699 -0.3059  0.3737 -0.1351
  925MPD2    C313535   4.350   1.523  14.830 -0.8973  0.2193  0.0093
  925MPD2    C413536   4.470   1.454  14.859 -0.1476 -0.0533 -0.1335
  925MPD2    C513537   4.555   1.436  14.760 -0.0961  0.6699 -0.0616
  925MPD2     H13538   4.232   1.620  14.680 -0.2632  0.7161  0.7477
  925MPD2    H113539   4.500   1.432  14.961  0.1298  2.9346  0.4337
  925MPD2    H213540   4.595   1.433  14.552  2.3666  2.7187  1.1789
  925MPD2    H313541   4.648   1.387  14.790 -0.2247 -0.4581 -1.5250
  925MPD2     N13542   4.267   1.548  14.941  0.0900  0.6330  0.5146
  925MPD2    H513543   4.294   1.506  15.029  1.9450 -1.7304 -1.1926
  925MPD2    N113544   4.370   1.564  14.464  0.7293 -0.5516  0.2009
  925MPD2    H713545   4.278   1.604  14.454  0.8740 -0.2637  0.0215
  926MPD2     C13546   2.872   0.003  13.266  0.4870 -0.5483 -0.1170
  926MPD2    C113547   2.745   0.061  13.252 -0.3762  0.4595  0.7473
  926MPD2    C213548   2.731   0.189  13.199 -0.0951 -0.0993 -0.7842
  926MPD2    C313549   2.838   0.263  13.160 -0.2606  0.2513 -0.5745
  926MPD2    C413550   2.962   0.206  13.181  0.2639 -0.0819  0.3311
  926MPD2    C513551   2.976   0.084  13.237  0.1133 -0.5118  0.1929
  926MPD2     H13552   2.628   0.218  13.179  1.0225  2.9336 -2.0020
  926MPD2    H113553   3.049   0.261  13.145  1.1519 -0.2291  2.2360
  926MPD2    H213554   2.886   4.628  13.302  0.7494 -0.2610  0.5677
  926MPD2    H313555   3.080   0.058  13.253  0.5468  0.0396 -1.6398
  926MPD2     N13556   2.823   0.373  13.071  0.0222  0.0477  0.0456
  926MPD2    H513557   2.914   0.410  13.043 -0.1585 -0.0630 -0.6771
  926MPD2    N113558   2.620   4.715  13.293  0.1214 -0.1682 -0.2950
  926MPD2    H713559   2.535   0.039  13.270  0.9068  1.2732 -0.0585
  927MPD2     C13560   2.133   2.096   0.131  0.4866 -0.2235  0.7089
  927MPD2    C113561   2.221   2.196   0.148  0.2548  0.7138  0.3230
  927MPD2    C213562   2.339   2.187   0.080  0.3897 -1.3147  0.7443
  927MPD2    C313563   2.378   2.077   0.004  0.3117  0.7488  0.0726
  927MPD2    C413564   2.285   1.973  17.693 -0.2765 -0.2898 -0.3443
  927MPD2    C513565   2.168   1.987   0.049 -0.4070 -0.0301  0.5133
  927MPD2     H13566   2.415   2.260   0.104 -0.6315 -0.6183  1.8450
  927MPD2    H113567   2.309   1.885  17.635  1.6156 -0.5850  0.8969
  927MPD2    H213568   2.034   2.100   0.176  0.4640  1.1801  0.5085
  927MPD2    H313569   2.093   1.915   0.018  1.1538 -0.1424 -2.9841
  927MPD2     N13570   2.507   2.072  17.664 -0.4068  0.4500 -0.1545
  927MPD2    H513571   2.566   2.153  17.679  0.4364 -0.8912  3.8037
  927MPD2    N113572   2.183   2.306   0.227 -0.0442  0.4691 -0.2571
  927MPD2    H713573   2.099   2.298   0.285  0.6293 -1.1930  0.4643
  928MPD2     C13574   1.556   0.847   0.714 -0.6913 -0.5921  0.2215
  928MPD2    C113575   1.465   0.886   0.810  0.4355 -0.3650 -0.6553
  928MPD2    C213576   1.362   0.974   0.775 -0.1432 -0.2722  0.3193
  928MPD2    C313577   1.334   1.012   0.640 -0.0250 -0.4237  0.2486
  928MPD2    C413578   1.420   0.954   0.549  0.1572  0.2077  0.0358
  928MPD2    C513579   1.530   0.888   0.585  0.0618  0.4040  0.1588
  928MPD2     H13580   1.301   1.023   0.850 -1.2302  0.3076 -0.9552
  928MPD2    H113581   1.416   0.992   0.448 -0.7478  0.4483  0.1610
  928MPD2    H213582   1.638   0.779   0.736  1.0077  1.4567  0.2173
  928MPD2    H313583   1.605   0.871   0.509  0.6556  2.3793  0.3160
  928MPD2     N13584   1.219   1.082   0.589  0.1256 -0.2606 -0.2074
  928MPD2    H513585   1.216   1.103   0.489 -2.0334  0.1438 -0.0636
  928MPD2    N113586   1.483   0.854   0.946  0.0419 -0.6047  0.4381
  928MPD2    H713587   1.574   0.817   0.970 -0.2514 -0.8496  1.1666
  929MPD2     C13588   4.724   0.522  10.137  0.1519 -0.5664 -0.7321
  929MPD2    C113589   4.662   0.433  10.213 -0.9090  0.0399  0.0553
  929MPD2    C213590   4.576   0.337  10.147  0.0327  0.4883 -0.2470
  929MPD2    C313591   4.523   0.359  10.018 -0.7755 -0.1867 -0.6254
  929MPD2    C413592   4.589   0.452   9.941 -0.2293 -0.3827 -0.0059
  929MPD2    C513593   4.689   0.523  10.005 -0.2216 -0.3187 -0.1113
  929MPD2     H13594   4.540   0.251  10.204  1.9828  1.9898  3.2390
  929MPD2    H113595   4.567   0.473   9.837  1.2438 -1.0140 -0.4429
  929MPD2    H213596   0.071   0.592  10.175  0.6616 -0.7872 -1.3046
  929MPD2    H313597   0.018   0.600   9.953  0.3701  0.4882  1.7015
  929MPD2     N13598   4.427   0.267   9.963  0.0085 -0.3048  0.7096
  929MPD2    H513599   4.409   0.275   9.863 -0.1679 -2.7898  0.5598
  929MPD2    N113600   4.693   0.438  10.352  0.3377  0.1059 -0.5761
  929MPD2    H713601   0.018   0.512  10.399  0.4227 -1.1988  1.4060
  930MPD2     C13602   2.413   2.902  13.993 -0.1025  0.0347  0.7913
  930MPD2    C113603   2.431   2.990  13.884  0.1049 -0.1092 -0.1028
  930MPD2    C213604   2.390   2.954  13.759 -0.1542  0.5275  0.4463
  930MPD2    C313605   2.341   2.827  13.743  0.3413 -0.2143  0.4266
  930MPD2    C413606   2.343   2.740  13.844 -0.0522 -0.2228  0.0229
  930MPD2    C513607   2.369   2.775  13.971  0.3973 -0.0365  0.3898
  930MPD2     H13608   2.384   3.034  13.686 -0.6667  0.2251  0.1523
  930MPD2    H113609   2.303   2.641  13.827 -1.9204  0.4721  0.3341
  930MPD2    H213610   2.448   2.930  14.092 -0.3139  0.7465  0.6639
  930MPD2    H313611   2.382   2.702  14.050 -2.2042 -0.2414  0.6214
  930MPD2     N13612   2.279   2.786  13.624 -0.5389 -0.5581 -0.3504
  930MPD2    H513613   2.235   2.695  13.627 -1.2563 -0.2623 -2.0487
  930MPD2    N113614   2.495   3.116  13.920  0.5556  0.3260 -0.6545
  930MPD2    H713615   2.523   3.123  14.017  0.4828  1.2205 -0.6972
  931MPD2     C13616   2.032   2.692   0.958 -0.5968  0.0784  0.0361
  931MPD2    C113617   2.077   2.583   0.885  1.0269  0.5090 -0.1094
  931MPD2    C213618   2.136   2.475   0.952 -0.2780 -0.4876 -0.9307
  931MPD2    C313619   2.164   2.482   1.090 -0.0648 -0.1885  0.1629
  931MPD2    C413620   2.108   2.583   1.161 -0.6261 -0.0809 -0.3645
  931MPD2    C513621   2.037   2.681   1.098 -0.3403  0.3288 -1.3562
  931MPD2     H13622   2.181   2.393   0.897  0.5092 -2.0186  2.0499
  931MPD2    H113623   2.130   2.601   1.266  1.3310 -0.0269 -0.7824
  931MPD2    H213624   1.986   2.781   0.916 -1.6487 -0.3656  0.2454
  931MPD2    H313625   1.994   2.765   1.151  1.0321 -0.2453  0.6745
  931MPD2     N13626   2.228   2.380   1.172 -0.2400  0.6872 -0.1754
  931MPD2    H513627   2.238   2.400   1.271  2.5333 -1.5685  0.0022
  931MPD2    N113628   2.072   2.589   0.744 -0.5504 -0.5134  0.0088
  931MPD2    H713629   2.040   2.677   0.704 -0.5353 -0.5216 -0.0219
  932MPD2     C13630   3.896   1.109  12.060  0.4452 -0.0782 -0.5837
  932MPD2    C113631   3.968   1.127  11.950 -0.6380 -0.5546 -0.3918
  932MPD2    C213632   4.080   1.059  11.933 -0.2536  0.3336 -0.3650
  932MPD2    C313633   4.131   0.974  12.032 -0.0248 -0.2266  0.0838
  932MPD2    C413634   4.050   0.953  12.143  0.2576  0.3123  0.3299
  932MPD2    C513635   3.933   1.027  12.158 -0.7786  0.2899 -0.1232
  932MPD2     H13636   4.141   1.082  11.846  0.5258  1.4974  0.4990
  932MPD2    H113637   4.081   0.893  12.228 -1.0623 -0.3688  0.3201
  932MPD2    H213638   3.797   1.153  12.074 -1.1696 -3.7118 -0.5146
  932MPD2    H313639   3.863   1.000  12.236 -0.5154 -0.3782 -0.1169
  932MPD2     N13640   4.264   0.916  12.037 -0.3627  0.4292 -0.5675
  932MPD2    H513641   4.285   0.863  12.121 -0.6316  1.1669 -0.0399
  932MPD2    N113642   3.926   1.225  11.854  0.2039  0.0414 -0.8043
  932MPD2    H713643   3.989   1.227  11.775 -0.9675  0.2122 -1.7355
  933MPD2     C13644   1.324   0.834   1.878 -0.1599 -0.4456 -0.0844
  933MPD2    C113645   1.280   0.881   1.756 -0.2898 -0.4753 -0.1353
  933MPD2    C213646   1.208   0.999   1.745  0.4732 -0.2368 -0.8485
  933MPD2    C313647   1.182   1.074   1.857 -0.0074 -0.2219  0.5620
  933MPD2    C413648   1.203   1.013   1.977 -0.2594 -0.7181 -0.3139
  933MPD2    C513649   1.269   0.890   1.988  0.2185 -0.0627 -0.5402
  933MPD2     H13650   1.185   1.052   1.653  1.3830 -0.9079 -1.4642
  933MPD2    H113651   1.179   1.065   2.069  2.6633 -0.3699  0.2419
  933MPD2    H213652   1.387   0.746   1.887  0.3364 -0.2450 -1.5401
  933MPD2    H313653   1.296   0.850   2.085 -0.9632  0.0537 -0.1670
  933MPD2     N13654   1.151   1.211   1.842 -0.3894 -0.2021  0.6864
  933MPD2    H513655   1.122   1.238   1.748  1.5171 -1.5444 -0.2994
  933MPD2    N113656   1.341   0.829   1.637 -0.5465 -0.3921  0.1068
  933MPD2    H713657   1.422   0.769   1.648  0.2021  0.1971 -2.2419
  934MPD2     C13658   0.491   3.730   1.483 -0.0663 -0.3156  0.4458
  934MPD2    C113659   0.616   3.686   1.440  0.2409 -0.4119 -0.6126
  934MPD2    C213660   0.636   3.558   1.394 -0.0099 -0.2408  0.4047
  934MPD2    C313661   0.521   3.474   1.373 -0.1513  0.1530  0.4526
  934MPD2    C413662   0.392   3.520   1.405  0.1690  0.4340  0.1358
  934MPD2    C513663   0.380   3.647   1.460 -0.3645  0.5603 -0.0710
  934MPD2     H13664   0.736   3.530   1.364 -0.5112 -0.3832 -1.1272
  934MPD2    H113665   0.305   3.457   1.387  1.8967 -1.6462 -0.8123
  934MPD2    H213666   0.472   3.834   1.504 -0.6508 -0.6396  1.5111
  934MPD2    H313667   0.283   3.684   1.490 -0.7799 -0.5558 -0.0631
  934MPD2     N13668   0.531   3.346   1.321  0.6390  0.1681  0.3025
  934MPD2    H513669   0.445   3.296   1.304  0.7100  0.4774 -0.9468
  934MPD2    N113670   0.736   3.769   1.449 -0.3346 -0.2705  0.5809
  934MPD2    H713671   0.826   3.728   1.426 -0.6527  0.0804 -1.2743
  935MPD2     C13672   1.071   2.587   1.409 -0.4761 -0.4114  0.5432
  935MPD2    C113673   1.063   2.594   1.276  0.2619  0.5923  0.3658
  935MPD2    C213674   0.977   2.681   1.214  0.2564  0.8769  0.6332
  935MPD2    C313675   0.915   2.782   1.286  0.3871  0.2531 -0.3506
  935MPD2    C413676   0.940   2.791   1.422  0.1869 -0.5184  0.3173
  935MPD2    C513677   1.009   2.688   1.483  0.2571 -0.4116 -0.0427
  935MPD2     H13678   0.969   2.690   1.106  0.6793  0.2907  0.5523
  935MPD2    H113679   0.907   2.872   1.485 -0.8713  0.3742 -1.3905
  935MPD2    H213680   1.124   2.512   1.467  0.1195 -1.3705 -1.2375
  935MPD2    H313681   1.043   2.705   1.585 -0.7174  0.8365  0.0648
  935MPD2     N13682   0.836   2.880   1.219  0.9307  0.2524 -0.5488
  935MPD2    H513683   0.794   2.947   1.282  0.7100 -0.8586  0.4931
  935MPD2    N113684   1.135   2.512   1.192  0.1020 -0.3756 -0.3481
  935MPD2    H713685   1.140   2.545   1.096 -0.3813 -2.9720 -1.2573
  936MPD2     C13686   4.468   0.444  12.189 -0.4561 -0.0300  0.4549
  936MPD2    C113687   4.477   0.415  12.324  0.1019  0.2209  0.2263
  936MPD2    C213688   4.575   0.488  12.395  0.4137 -0.6022  0.0490
  936MPD2    C313689   4.662   0.571  12.331 -0.0720  0.2098 -0.4408
  936MPD2    C413690   4.658   0.584  12.194  0.2922  0.0124 -0.4719
  936MPD2    C513691   4.552   0.531  12.127 -0.6458 -0.2217 -0.1194
  936MPD2     H13692   4.584   0.490  12.503 -2.2648  0.7866  0.2765
  936MPD2    H113693   4.721   0.657  12.145  0.0499  0.2615 -0.4097
  936MPD2    H213694   4.400   0.378  12.137 -1.4735 -0.0995  1.8610
  936MPD2    H313695   4.547   0.555  12.022  0.5616  0.9639  0.0939
  936MPD2     N13696   0.040   0.627  12.408 -0.3033  0.6674  0.5036
  936MPD2    H513697   0.042   0.601  12.506  1.6097 -0.6721  0.1031
  936MPD2    N113698   4.392   0.317  12.375  0.4067 -0.2698  0.1246
  936MPD2    H713699   4.321   0.270  12.320  0.6259 -0.1765 -0.2351
  937MPD2     C13700   2.471   1.511  11.410 -0.1361  0.2179 -0.8307
  937MPD2    C113701   2.464   1.647  11.399  0.1732  0.3119  0.1492
  937MPD2    C213702   2.550   1.707  11.303  0.5499  0.4894 -0.0012
  937MPD2    C313703   2.639   1.631  11.232 -0.3762  0.3893  0.0342
  937MPD2    C413704   2.656   1.497  11.264  0.5614  0.4323 -0.9041
  937MPD2    C513705   2.572   1.434  11.354  0.6739  0.1157  0.1042
  937MPD2     H13706   2.544   1.814  11.288  0.4579  0.1038 -2.5980
  937MPD2    H113707   2.732   1.439  11.211 -1.0885 -2.0675 -0.5320
  937MPD2    H213708   2.409   1.455  11.480 -0.2507  3.0828  1.3784
  937MPD2    H313709   2.580   1.332  11.388  0.1505  0.6502  1.8245
  937MPD2     N13710   2.706   1.694  11.124  0.1845  0.8930 -0.4483
  937MPD2    H513711   2.685   1.792  11.109 -0.3749  0.9266  0.5506
  937MPD2    N113712   2.391   1.730  11.488  0.0556 -0.4693 -0.0454
  937MPD2    H713713   2.377   1.826  11.456  2.8411 -0.2393 -0.5619
  938MPD2     C13714   0.413   2.543   0.750 -0.1555 -0.2627  0.4043
  938MPD2    C113715   0.517   2.596   0.827  0.1060  0.9929 -0.5744
  938MPD2    C213716   0.473   2.644   0.958 -0.0123  0.0199 -0.3386
  938MPD2    C313717   0.341   2.656   0.990 -0.2630 -0.8542 -0.4174
  938MPD2    C413718   0.247   2.605   0.906 -0.9808  0.0151  0.5812
  938MPD2    C513719   0.285   2.542   0.792  0.0843 -0.0740 -0.3187
  938MPD2     H13720   0.547   2.674   1.031  0.8299 -1.9304 -0.3966
  938MPD2    H113721   0.144   2.601   0.939 -1.6816 -1.1651 -1.8053
  938MPD2    H213722   0.430   2.490   0.657 -0.2935  1.9811 -0.8889
  938MPD2    H313723   0.214   2.484   0.733  0.0731  0.4151 -0.7815
  938MPD2     N13724   0.296   2.720   1.110  0.4048 -0.0511  0.4693
  938MPD2    H513725   0.196   2.724   1.123  0.1056  0.2018 -1.8039
  938MPD2    N113726   0.650   2.604   0.789  1.1518  0.5960 -0.2768
  938MPD2    H713727   0.704   2.660   0.854  0.6469  1.4948 -0.6220
  939MPD2     C13728   1.766   3.634   0.867 -1.3336  0.3408 -0.4020
  939MPD2    C113729   1.688   3.647   0.755 -0.7652 -0.3733 -0.3341
  939MPD2    C213730   1.738   3.599   0.632  0.0009 -0.4994 -0.2651
  939MPD2    C313731   1.856   3.529   0.623  1.2414 -0.3652 -0.3500
  939MPD2    C413732   1.933   3.516   0.737 -0.8099 -0.4404 -0.8864
  939MPD2    C513733   1.889   3.577   0.858  0.7872  0.3187 -0.1836
  939MPD2     H13734   1.689   3.610   0.535  2.1043 -0.4979 -1.3140
  939MPD2    H113735   2.021   3.454   0.747 -0.2537  0.5804  0.7018
  939MPD2    H213736   1.736   3.665   0.966 -2.7211 -1.9326 -0.1170
  939MPD2    H313737   1.954   3.579   0.945 -0.2071 -1.9466  0.6193
  939MPD2     N13738   1.885   3.474   0.492  0.1498 -0.3866  0.2563
  939MPD2    H513739   1.819   3.485   0.417 -2.1242 -0.4669  2.2322
  939MPD2    N113740   1.556   3.702   0.769  0.4878 -0.0427  0.5138
  939MPD2    H713741   1.525   3.723   0.863 -0.2689  1.7028 -0.1194
  940MPD2     C13742   0.770   3.923  13.660 -0.2488  0.6249  0.4023
  940MPD2    C113743   0.773   4.058  13.671 -0.7525  0.6081 -0.5254
  940MPD2    C213744   0.724   4.131  13.564 -0.1913  0.2911  0.1241
  940MPD2    C313745   0.666   4.065  13.460 -0.1099 -0.2483 -0.2565
  940MPD2    C413746   0.679   3.927  13.440 -1.5603 -0.0513  0.1400
  940MPD2    C513747   0.731   3.855  13.544  0.0224 -0.0989 -1.1048
  940MPD2     H13748   0.727   4.239  13.566 -3.7207  0.3536  0.7387
  940MPD2    H113749   0.648   3.872  13.352  2.7221 -1.3647 -0.5726
  940MPD2    H213750   0.807   3.855  13.737  1.5566  0.8999 -0.2393
  940MPD2    H313751   0.739   3.747  13.540 -1.4919 -0.3389  2.6534
  940MPD2     N13752   0.603   4.140  13.352  0.5301  0.2378 -0.2631
  940MPD2    H513753   0.573   4.097  13.265  0.2552  1.0171 -0.5523
  940MPD2    N113754   0.835   4.135  13.771 -0.0148  0.1319  0.4308
  940MPD2    H713755   0.819   4.235  13.762 -1.8925 -0.1129  1.1123
  941MPD2     C13756   4.270   3.787   9.519 -0.0385 -0.1696  0.4559
  941MPD2    C113757   4.374   3.787   9.618  0.2621  0.4336  0.0200
  941MPD2    C213758   4.367   3.692   9.718  0.0888  0.3729 -0.3086
  941MPD2    C313759   4.264   3.595   9.727  0.2630  0.2764 -0.2397
  941MPD2    C413760   4.166   3.599   9.632  0.2503 -0.1101 -0.1192
  941MPD2    C513761   4.169   3.697   9.533 -0.0357  0.0588 -0.1879
  941MPD2     H13762   4.453   3.681   9.783  0.1666 -0.9869 -0.6373
  941MPD2    H113763   4.089   3.523   9.632  1.6864 -1.5699  0.3529
  941MPD2    H213764   4.273   3.857   9.435 -0.1658  0.5274  1.0315
  941MPD2    H313765   4.093   3.703   9.456  1.3941 -0.1733 -1.6098
  941MPD2     N13766   4.253   3.512   9.834 -0.7836 -0.3346  0.4948
  941MPD2    H513767   4.176   3.446   9.835 -0.3021 -0.8901  0.4760
  941MPD2    N113768   4.472   3.889   9.617 -0.8229  0.2817 -0.2398
  941MPD2    H713769   4.535   3.898   9.696  0.5671 -1.6851 -1.1372
  942MPD2     C13770   3.013   0.719   9.683  0.0647 -0.2800  0.2757
  942MPD2    C113771   3.049   0.583   9.676 -0.6880 -0.0902 -0.6175
  942MPD2    C213772   3.171   0.556   9.620 -0.0023  0.2044  0.4361
  942MPD2    C313773   3.265   0.661   9.594  0.1566  0.7898 -0.6707
  942MPD2    C413774   3.228   0.789   9.629 -0.7516 -0.0874 -0.4247
  942MPD2    C513775   3.102   0.819   9.673  0.9539 -0.2719  0.1341
  942MPD2     H13776   3.188   0.449   9.612 -0.7637 -0.0330  1.9275
  942MPD2    H113777   3.294   0.871   9.604  0.1561 -0.6776  0.0234
  942MPD2    H213778   2.909   0.745   9.702  0.0990 -0.1860  0.3340
  942MPD2    H313779   3.074   0.922   9.690  2.4039 -0.4958  3.8418
  942MPD2     N13780   3.394   0.631   9.554  0.6021  0.0526  0.0209
  942MPD2    H513781   3.467   0.699   9.570 -1.8141  2.6359  0.0929
  942MPD2    N113782   2.962   0.478   9.713  0.6781  0.4054 -0.4261
  942MPD2    H713783   2.999   0.384   9.701 -1.4203 -0.2029 -2.0442
  943MPD2     C13784   3.245   2.300   9.676 -0.8433  0.1429 -0.1724
  943MPD2    C113785   3.175   2.387   9.603  0.5608  0.5678 -0.6805
  943MPD2    C213786   3.232   2.504   9.562  0.0215  0.4581 -0.6366
  943MPD2    C313787   3.362   2.537   9.595  0.1811 -0.0383  0.2168
  943MPD2    C413788   3.435   2.442   9.667 -0.9231  0.1126  0.3394
  943MPD2    C513789   3.376   2.325   9.706 -0.4332  0.4590 -0.1614
  943MPD2     H13790   3.170   2.574   9.508 -2.2768 -1.1111 -0.0252
  943MPD2    H113791   3.535   2.458   9.704 -0.4728 -0.2118 -0.7352
  943MPD2    H213792   3.206   2.203   9.704 -1.7141  0.2165 -1.1480
  943MPD2    H313793   3.431   2.255   9.769 -0.2888  0.8497  0.1442
  943MPD2     N13794   3.407   2.663   9.555 -0.2354  0.4811  0.5567
  943MPD2    H513795   3.339   2.732   9.525  0.0916  0.3610 -0.4635
  943MPD2    N113796   3.044   2.343   9.573 -0.2369  0.2293  0.7052
  943MPD2    H713797   3.007   2.269   9.631 -1.0256 -0.2958 -0.4649
  944MPD2     C13798   3.083   2.165  10.508  0.5991 -0.1897  0.3440
  944MPD2    C113799   2.952   2.161  10.473 -0.4439 -0.6764  0.4088
  944MPD2    C213800   2.860   2.211  10.560 -0.0822  0.0168 -0.1458
  944MPD2    C313801   2.901   2.263  10.678 -0.5265  0.6009 -0.0970
  944MPD2    C413802   3.033   2.246  10.722 -0.4585 -0.3516 -0.1489
  944MPD2    C513803   3.127   2.201  10.634 -0.9307  0.2911 -0.2048
  944MPD2     H13804   2.754   2.215  10.540 -0.3466  0.6642  1.3723
  944MPD2    H113805   3.068   2.280  10.819  2.3195  0.9508 -1.5891
  944MPD2    H213806   3.156   2.110  10.450 -0.2859 -1.5156  0.4659
  944MPD2    H313807   3.230   2.199  10.665 -0.3702 -4.7634 -2.3395
  944MPD2     N13808   2.798   2.312  10.763 -0.6992  0.0539  0.0717
  944MPD2    H513809   2.705   2.318  10.722  0.0480 -0.1378 -1.6676
  944MPD2    N113810   2.908   2.080  10.366  0.1455 -0.2237  0.2032
  944MPD2    H713811   2.977   2.045  10.301 -0.7871 -1.7282  0.0108
    1TCq1    O113812   1.405   2.990  15.011 -0.3501  0.1964 -0.2249
    1TCq1    C113813   1.280   2.979  14.962  0.3489 -0.7437  0.5574
    1TCq1    O213814   1.222   2.869  14.953 -0.0689 -0.1901 -0.0013
    1TCq1    C213815   1.262   3.081  14.860  0.0453 -0.5946 -0.4304
    1TCq1    C313816   1.200   3.039  14.746 -0.1528 -0.1096 -0.4896
    1TCq1    C413817   1.186   3.124  14.641  0.3137  0.9089  0.6961
    1TCq1    C513818   1.243   3.245  14.642  0.3132 -0.4305  0.9181
    1TCq1    C613819   1.292   3.283  14.764 -0.1507 -0.1022 -0.3786
    1TCq1    C713820   1.314   3.213  14.878 -0.9589  0.7167  0.2607
    1TCq1    C813821   1.337   3.422  14.775  0.4158  0.2590  0.6537
    1TCq1    O413822   1.398   3.451  14.870 -0.4035  0.1925  0.0541
    1TCq1    C913823   1.112   3.082  14.520 -0.1388 -0.4065 -0.6197
    1TCq1    O513824   1.081   2.958  14.511 -0.4013 -0.4403  0.3952
    1TCq1    O613825   1.100   3.171  14.433  0.3850  0.3871 -0.4458
    1TCq1    H113826   1.450   3.075  14.990  1.1624 -0.2428  1.2440
    1TCq1    H213827   1.166   2.937  14.735  2.6294 -1.1205  0.5254
    1TCq1    H313828   1.251   3.298  14.548 -0.6456  0.5095  1.3726
    1TCq1    H413829   1.364   3.252  14.966  0.6419  1.3089 -0.9020
    2MPD2     C13830   1.402   3.897  14.599  0.5905 -0.0566  0.4627
    2MPD2    C113831   1.347   3.819  14.494  0.6937  0.1263 -0.4072
    2MPD2    C213832   1.310   3.689  14.519  0.2860 -0.6447 -0.1322
    2MPD2    C313833   1.341   3.631  14.639 -0.6522 -0.0261 -0.2311
    2MPD2    C413834   1.409   3.702  14.734 -0.1114  0.7870 -0.0345
    2MPD2    C513835   1.443   3.832  14.709 -0.6627  0.1212  0.0407
    2MPD2     H13836   1.274   3.630  14.436 -1.5102  1.7784 -1.0815
    2MPD2    H113837   1.447   3.664  14.829 -0.5678  0.4873  0.0334
    2MPD2    H213838   1.429   4.002  14.594 -0.7609  0.3466  1.7070
    2MPD2    H313839   1.508   3.886  14.777  0.2839  0.1152 -0.8572
    2MPD2     N13840   1.298   3.497  14.668  0.3499  0.0905  0.4183
    2MPD2    H513841   1.242   3.450  14.597  1.0718 -1.0046  0.5697
    2MPD2    N113842   1.336   3.875  14.366  0.9482  0.4714  0.2392
    2MPD2    H713843   1.380   3.966  14.357  2.3293 -0.1671  0.4606
    3TMC2    C113844   1.263   3.925  14.155  0.1045  0.2675 -0.5712
    3TMC2    C213845   1.259   4.055  14.192 -0.6722  0.2436  0.5355
    3TMC2    C313846   1.299   4.148  14.099 -0.5806  0.0421  0.1300
    3TMC2    C413847   1.276   3.886  14.027 -0.2377  0.3500  0.2238
    3TMC2    C513848   1.293   3.990  13.937  0.5690  0.4322  0.5391
    3TMC2    C613849   1.309   4.121  13.965 -0.2579  0.0375 -0.4473
    3TMC2     C13850   1.278   3.824  14.251 -0.6251  0.1610 -0.3883
    3TMC2     O13851   1.228   3.714  14.229 -0.6374 -0.1321  0.3313
    3TMC2     H13852   1.236   4.078  14.295 -1.2378 -1.5960  0.8132
    3TMC2    H113853   1.281   3.781  14.000 -0.0594 -0.5327  3.7817
    3TMC2    H213854   1.348   4.205  13.909 -0.8981 -0.1425 -1.1588
    3TMC2    C713855   1.250   3.967  13.800  0.6569 -0.0573  0.2381
    3TMC2    C813856   1.329   4.283  14.142  0.7559  0.0837 -0.1130
    3TMC2    O113857   1.240   3.851  13.759  1.0167  0.1723  0.0158
    3TMC2    O213858   1.277   4.374  14.075 -0.5601 -0.7292 -0.0699
    3TMC2    O513859   1.326   4.296  14.273  0.4811 -0.5682 -0.4558
    3TMC2    H513860   1.385   4.226  14.307  0.5680  0.0138  0.6160
    4MPD2     C13861   0.162   0.186  13.244 -0.2538 -0.2288 -0.1459
    4MPD2    C113862   0.247   0.300  13.240  0.3268  0.2337 -0.1438
    4MPD2    C213863   0.377   0.272  13.275  0.5694  0.4317 -0.6261
    4MPD2    C313864   0.427   0.146  13.303  0.2424  0.2035  0.3439
    4MPD2    C413865   0.340   0.039  13.292 -0.1869 -0.0115 -0.1796
    4MPD2    C513866   0.207   0.058  13.271 -0.9447 -0.4044 -0.0735
    4MPD2     H13867   0.447   0.354  13.287  0.8467  0.1341 -0.2055
    4MPD2    H113868   0.355   4.660  13.314  0.1096 -0.0681 -0.6707
    4MPD2    H213869   0.055   0.197  13.227 -0.2333 -2.0001 -1.4153
    4MPD2    H313870   0.131   4.707  13.263 -1.3719 -0.0697  0.7506
    4MPD2     N13871   0.562   0.133  13.339  0.4041 -0.1971  0.3842
    4MPD2    H513872   0.617   0.218  13.346  0.8350 -0.3099 -1.5854
    4MPD2    N113873   0.188   0.419  13.198  0.4572  0.0397  0.0743
    4MPD2    H713874   0.089   0.427  13.179  0.5329  1.3223  0.2252
    5TCq2    C113875   0.622   0.012  13.371  0.4250 -0.3760 -0.1318
    5TCq2    O213876   0.578   4.625  13.374 -0.0961 -0.1905 -0.0557
    5TCq2    C213877   0.765   0.028  13.415 -0.5907  0.1791  0.1447
    5TCq2    C313878   0.826   0.149  13.443 -0.5475  0.0249  0.0036
    5TCq2    C413879   0.946   0.152  13.509  0.2282  0.1393 -0.6112
    5TCq2    C513880   1.011   0.027  13.532  0.2401  0.2026 -0.3057
    5TCq2    C613881   0.951   4.637  13.492 -0.6189 -0.0116 -0.2301
    5TCq2    C713882   0.827   4.635  13.438 -0.0704  0.2156  0.6584
    5TCq2    C813883   1.004   4.515  13.546  0.7989  0.0231 -0.0757
    5TCq2    O413884   1.054   4.521  13.655  0.6125  0.4044 -0.2601
    5TCq2    C913885   0.999   0.279  13.551  0.2723  0.1446 -0.2396
    5TCq2    O513886   0.948   0.383  13.502 -0.5062  0.5168  0.8516
    5TCq2    O613887   1.109   0.264  13.611 -0.2366  1.3629 -0.2041
    5TCq2    H213888   0.788   0.246  13.413  0.3344  0.2338 -0.4312
    5TCq2    H313889   1.095   0.028  13.601  0.6618 -2.2241 -0.8099
    5TCq2    H413890   0.773   4.542  13.437  0.7766 -0.2389 -2.0374
    6MPD1     C13891   3.587   1.344  12.482  0.1787  0.6116 -0.4293
    6MPD1    C113892   3.556   1.386  12.606 -0.2352 -0.4405  0.7121
    6MPD1    C213893   3.618   1.323  12.712  0.5835 -0.5216  0.3561
    6MPD1    C313894   3.695   1.206  12.694 -0.1056  0.2605 -0.4899
    6MPD1    C413895   3.708   1.162  12.567 -0.2650  0.1308 -0.3526
    6MPD1    C513896   3.654   1.222  12.462  0.6603 -1.0348  0.0375
    6MPD1     H13897   3.601   1.361  12.812 -1.0249 -1.6029  0.4973
    6MPD1    H113898   3.762   1.072  12.540 -0.7884 -0.3394  0.1836
    6MPD1    H213899   3.551   1.400  12.396 -0.1706  0.0503 -0.6495
    6MPD1    H313900   3.686   1.188  12.365  0.6367 -0.5253 -0.1526
    6MPD1     N13901   3.749   1.131  12.803  0.1607  0.3899 -0.1864
    6MPD1    H513902   3.799   1.045  12.782 -1.6687 -0.5673 -0.6425
    6MPD1    N113903   3.490   1.507  12.625 -0.0253  0.4266  0.3156
    6MPD1    H613904   3.408   1.514  12.566 -0.5889  0.4515  1.1035
    6MPD1    H713905   3.459   1.519  12.721  2.7279 -0.3194  1.3164
    7MPD2     C13906   4.185   0.557  12.842 -0.1605 -0.6912  0.0862
    7MPD2    C113907   4.221   0.685  12.875 -0.1628  0.1385  0.2579
    7MPD2    C213908   4.358   0.704  12.881  0.4402  0.4212 -0.2598
    7MPD2    C313909   4.449   0.598  12.859 -0.0303 -0.2853  0.0381
    7MPD2    C413910   4.404   0.470  12.827  0.1587 -1.4816 -0.4455
    7MPD2    C513911   4.268   0.450  12.822 -0.6024 -0.2673  0.1946
    7MPD2     H13912   4.389   0.805  12.906 -0.9952  0.3093  1.8989
    7MPD2    H113913   4.464   0.380  12.825  2.0072 -0.2024 -2.3995
    7MPD2    H213914   4.079   0.539  12.832 -0.4158  0.5716  0.4804
    7MPD2    H313915   4.229   0.350  12.808 -1.1547  0.3400 -2.7028
    7MPD2     N13916   4.586   0.622  12.875  0.7929 -0.2361  0.1164
    7MPD2    H513917   4.644   0.544  12.846  0.0836  0.8264 -4.0779
    7MPD2    N113918   4.129   0.787  12.907  0.1592 -0.2265  0.1678
    7MPD2    H713919   4.173   0.875  12.932 -0.4566  0.5619 -1.5126
    8TMC3    C113920   0.055   0.721  12.958  0.0704  0.5772 -0.1300
    8TMC3    C213921   0.090   0.619  13.034  0.0411 -0.4958 -0.6848
    8TMC3    C313922   0.168   0.644  13.140  0.4061 -0.7829 -0.0026
    8TMC3    C413923   0.106   0.845  12.985 -0.2949  0.2434 -0.2405
    8TMC3    C513924   0.177   0.873  13.095 -0.4708 -0.4192  0.0607
    8TMC3    C613925   0.218   0.763  13.170  0.8373  0.6703 -0.0032
    8TMC3     C13926   4.640   0.737  12.912 -0.0749 -0.1571 -0.4402
    8TMC3     O13927   4.594   0.852  12.919 -0.1652 -0.0308  0.4046
    8TMC3     H13928   0.059   0.519  13.005 -0.2356 -0.3534 -0.8864
    8TMC3    H113929   0.083   0.929  12.921 -1.4987  0.2572  0.2087
    8TMC3    H213930   0.281   0.792  13.254 -0.2141 -2.5613  1.8595
    8TMC3    C713931   0.122   0.981  13.174 -0.0611  0.2005 -0.1947
    8TMC3    C813932   0.252   0.539  13.184  0.1455 -0.5402  0.1250
    8TMC3    O113933   0.187   1.053  13.243 -0.5573 -0.1628 -0.3400
    8TMC3    O213934   0.365   0.565  13.218 -0.0270 -0.6286  0.6220
    9TMC3    C113935   3.819   1.076  13.027 -0.0386  0.7970  0.0901
    9TMC3    C213936   3.909   1.129  13.111 -0.2894  0.3088  0.4297
    9TMC3    C313937   4.016   1.061  13.149 -0.6078  0.4472  0.1011
    9TMC3    C413938   3.845   0.951  12.981  0.9786 -0.6452 -0.3924
    9TMC3    C513939   3.951   0.881  13.019  0.1070 -0.8243  0.2762
    9TMC3    C613940   4.046   0.936  13.106 -0.8026 -0.5028  0.0036
    9TMC3     C13941   3.749   1.168  12.937 -0.2224 -0.3088 -0.3580
    9TMC3     O13942   3.720   1.274  12.990  0.0962  0.0980  0.2639
    9TMC3     H13943   3.885   1.227  13.151  1.2594  1.3628 -1.2296
    9TMC3    H113944   3.779   0.906  12.908  0.6755 -0.4025 -0.2669
    9TMC3    H213945   4.130   0.873  13.133 -0.2047 -0.4713 -1.7594
    9TMC3    C713946   3.998   0.768  12.945  0.4442  0.1716  0.4969
    9TMC3    C813947   4.124   1.134  13.212 -0.2125 -0.0492 -0.5176
    9TMC3    O113948   3.928   0.666  12.938 -0.1975 -0.0153 -0.0330
    9TMC3    O213949   4.093   1.246  13.245  0.1477  0.5041  0.5784
   10MPD2     C13950   4.635   1.165  13.304 -0.0684 -0.0648 -0.0583
   10MPD2    C113951   4.618   1.071  13.204  0.2116  0.2243 -0.2149
   10MPD2    C213952   4.488   1.030  13.185 -0.2690 -0.1026  0.3505
   10MPD2    C313953   4.377   1.101  13.235 -0.6854 -0.1321 -1.0149
   10MPD2    C413954   4.403   1.209  13.323 -0.1616  0.4044 -0.6836
   10MPD2    C513955   4.532   1.230  13.366 -0.4578  0.1391 -0.0884
   10MPD2     H13956   4.466   0.945  13.121 -0.6019  0.3700 -0.1618
   10MPD2    H113957   4.325   1.261  13.377 -0.1684  1.3266 -1.5826
   10MPD2    H213958   0.008   1.188  13.342 -0.5526 -1.4985  2.0742
   10MPD2    H313959   4.557   1.304  13.441  1.9722  0.9057 -1.6607
   10MPD2     N13960   4.244   1.065  13.193 -0.0285  0.3869  0.2174
   10MPD2    H513961   4.240   0.975  13.145  1.7951  0.1526  0.5018
   10MPD2    N113962   4.714   0.987  13.140 -0.0617 -0.2037 -0.3554
   10MPD2    H713963   4.671   0.922  13.075 -0.5061  0.0361 -0.3012
   11MPD2     C13964   1.140   4.019  13.529 -0.1338  0.2328  0.1126
   11MPD2    C113965   1.150   4.112  13.626  0.0057  0.3073 -0.1928
   11MPD2    C213966   1.115   4.242  13.603  0.2476  0.0126  0.0683
   11MPD2    C313967   1.046   4.272  13.488 -0.3054 -0.8367 -0.3712
   11MPD2    C413968   1.029   4.178  13.394  0.2591  0.7803  1.0951
   11MPD2    C513969   1.084   4.056  13.406 -0.3908 -0.3927 -1.0886
   11MPD2     H13970   1.127   4.320  13.677 -0.2286 -0.2082  0.3717
   11MPD2    H113971   0.987   4.199  13.297  2.1627 -1.7739 -0.2895
   11MPD2    H213972   1.165   3.914  13.546 -1.4303  0.1829  1.6842
   11MPD2    H313973   1.081   3.982  13.327 -0.6852 -0.8677 -0.6296
   11MPD2     N13974   0.995   4.406  13.470  0.8161  0.4624 -0.2911
   11MPD2    H513975   0.971   4.432  13.375  1.2587 -0.7280 -0.7274
   11MPD2    N113976   1.193   4.087  13.752  0.4193 -0.5580  0.1250
   11MPD2    H713977   1.197   4.170  13.810  1.6052 -1.2562  1.0380
    1MPD1     C13978   3.168   1.170  16.463  0.2858  0.3747 -0.0370
    1MPD1    C113979   3.225   1.043  16.442  0.0946  0.4420 -0.4352
    1MPD1    C213980   3.358   1.024  16.469  0.0792 -0.0226  0.1306
    1MPD1    C313981   3.441   1.128  16.502 -0.3749  1.1839  0.0188
    1MPD1    C413982   3.380   1.252  16.512 -0.3979  0.0548  0.0053
    1MPD1    C513983   3.248   1.274  16.491 -0.6442 -1.1108 -0.0370
    1MPD1     H13984   3.397   0.925  16.446  1.0149  0.4306 -0.1844
    1MPD1    H113985   3.448   1.335  16.529 -0.1309 -0.1943  0.1485
    1MPD1    H213986   3.063   1.192  16.445  0.0324 -1.3543 -0.6785
    1MPD1    H313987   3.225   1.379  16.490  0.5996 -0.8467 -1.6332
    1MPD1     N13988   3.581   1.120  16.517  0.3553  0.5324  0.7252
    1MPD1    H513989   3.632   1.208  16.522 -3.9186  3.2356 -2.6492
    1MPD1    N113990   3.142   0.932  16.402  0.5245 -0.5066  0.3965
    1MPD1    H613991   3.061   0.969  16.352  1.0857 -0.5631 -0.5521
    1MPD1    H713992   3.198   0.868  16.346 -1.5713  0.4399 -2.7816
    2MPD1     C13993   4.378   1.422  17.050 -0.2930  0.5611 -0.1339
    2MPD1    C113994   4.438   1.359  16.937  0.8538 -0.6464 -0.4010
    2MPD1    C213995   4.357   1.287  16.845 -1.3132  0.0496 -0.0237
    2MPD1    C313996   4.226   1.276  16.859  0.1751  0.6344 -0.2316
    2MPD1    C413997   4.167   1.337  16.968 -0.2849  0.7765  0.3631
    2MPD1    C513998   4.242   1.412  17.057 -1.3234 -0.5375  0.2967
    2MPD1     H13999   4.399   1.250  16.752  2.6504  1.2486  1.2940
    2MPD1    H114000   4.062   1.335  16.996 -0.2641  2.3257  0.5991
    2MPD1    H214001   4.439   1.484  17.114  1.3644 -2.0677  0.8067
    2MPD1    H314002   4.185   1.460  17.135  2.2088 -2.0787  3.8091
    2MPD1     N14003   4.149   1.207  16.761 -1.0365  0.3615  0.5618
    2MPD1    H514004   4.200   1.166  16.684  0.9068 -0.2964  2.1804
    2MPD1    N114005   4.569   1.405  16.906 -0.3717 -0.1521  0.4332
    2MPD1    H614006   4.629   1.343  16.852  3.1245  2.4095  1.3902
    2MPD1    H714007   4.615   1.427  16.995  1.7715  1.3248 -1.0336
    3TMC3    C114008   3.974   1.101  16.639  0.6136  0.6500  0.2917
    3TMC3    C214009   4.058   1.012  16.573 -1.0995  0.3001 -0.4865
    3TMC3    C314010   4.007   0.923  16.480 -0.8613  0.2553 -0.0179
    3TMC3    C414011   3.842   1.095  16.617 -0.1721  0.1147 -0.0438
    3TMC3    C514012   3.793   1.005  16.525  0.6629  0.1587  0.4255
    3TMC3    C614013   3.871   0.912  16.465  0.3710 -0.3054  1.4109
    3TMC3     C14014   4.015   1.184  16.761  0.0786  0.2273  0.1078
    3TMC3     O14015   3.931   1.227  16.836 -0.0306  0.2624 -0.6972
    3TMC3     H14016   4.165   1.026  16.586 -1.2195  0.4100  0.3752
    3TMC3    H114017   3.777   1.153  16.682  0.3645  0.2162  0.4009
    3TMC3    H214018   3.832   0.854  16.382  1.9519 -1.7737  1.6906
    3TMC3    C714019   3.647   1.000  16.506  0.0478 -0.4335 -0.4132
    3TMC3    C814020   4.089   0.831  16.402 -0.1080  0.1068  0.3665
    3TMC3    O114021   3.607   0.888  16.486 -0.8064 -0.2722 -0.0652
    3TMC3    O214022   4.029   0.764  16.321  0.0086  0.0485 -0.0713
    4MPD1     C14023   4.497   0.535  16.345 -0.1048 -0.0472 -0.8334
    4MPD1    C114024   4.542   0.640  16.408  0.1930  0.1642 -0.3449
    4MPD1    C214025   4.444   0.735  16.439 -0.0649  0.7342 -0.1968
    4MPD1    C314026   4.321   0.733  16.383 -0.7811 -0.4385  0.0782
    4MPD1    C414027   4.291   0.629  16.296 -0.0909  0.1402 -0.5574
    4MPD1    C514028   4.376   0.523  16.279 -0.0906 -0.5679 -0.0912
    4MPD1     H14029   4.472   0.825  16.493 -1.6259 -0.7952  3.1853
    4MPD1    H114030   4.197   0.620  16.243 -0.9175 -0.4028  1.0032
    4MPD1    H214031   4.566   0.454  16.322  1.3040  0.1561  2.7134
    4MPD1    H314032   4.360   0.444  16.207  0.8778  0.0952 -1.0446
    4MPD1     N14033   4.227   0.832  16.422  0.2549  0.3815 -0.5194
    4MPD1    H514034   4.250   0.896  16.498 -0.3793  0.9044 -0.7656
    4MPD1    N114035   4.657   0.629  16.485 -0.5757 -0.4913 -0.3048
    4MPD1    H614036   4.719   0.553  16.456  2.1469  1.9136 -0.7022
    4MPD1    H714037   4.703   0.718  16.501 -1.4116 -0.2430  0.6870
    1TCq1    O114038   0.249   0.192  12.477 -0.0643 -0.1522  0.7290
    1TCq1    C114039   0.301   0.285  12.396  0.2551  0.0701 -0.6618
    1TCq1    O214040   0.250   0.382  12.346  0.0420  0.0751 -0.0323
    1TCq1    C214041   0.429   0.232  12.343 -0.6522  0.8082  0.0175
    1TCq1    C314042   0.512   0.157  12.423  0.3034 -0.3710 -0.0787
    1TCq1    C414043   0.641   0.138  12.389 -0.2906 -0.1307  0.3568
    1TCq1    C514044   0.678   0.166  12.258  0.9272  0.6770 -0.1717
    1TCq1    C614045   0.601   0.251  12.180 -0.6315 -0.0862  0.4126
    1TCq1    C714046   0.467   0.274  12.216  0.7195  0.2367 -0.6283
    1TCq1    C814047   0.650   0.312  12.055 -0.1193 -0.8722  0.1331
    1TCq1    O414048   0.590   0.406  11.997  0.0773  0.2333 -0.6526
    1TCq1    C914049   0.715   0.034  12.456 -0.3080 -0.5758  0.3269
    1TCq1    O514050   0.806   4.706  12.384 -0.3243 -0.2471 -0.1570
    1TCq1    O614051   0.675   4.717  12.568 -0.4107  0.0671  0.5828
    1TCq1    H114052   0.289   0.104  12.488  2.8894  1.0084 -0.7902
    1TCq1    H214053   0.477   0.142  12.524 -0.1208  0.6737 -0.0736
    1TCq1    H314054   0.779   0.141  12.225  1.0532  2.4195 -1.1209
    1TCq1    H414055   0.400   0.326  12.149  1.0718 -1.9245 -2.6460
    2MPD1     C14056   1.074   0.454  11.797  1.6132  0.6135  0.3044
    2MPD1    C114057   1.111   0.359  11.892 -0.7441  0.0484 -0.0725
    2MPD1    C214058   1.005   0.303  11.969 -0.2234 -0.6829 -0.0577
    2MPD1    C314059   0.873   0.334  11.939 -0.4540  0.1276  0.2775
    2MPD1    C414060   0.845   0.425  11.840  0.0015  0.0306  0.4464
    2MPD1    C514061   0.946   0.485  11.771  0.1985  0.0814 -0.4099
    2MPD1     H14062   1.033   0.236  12.050 -0.7518 -0.5015  0.2750
    2MPD1    H114063   0.745   0.456  11.815  0.2573  0.0646 -0.5329
    2MPD1    H214064   1.138   0.501  11.724  0.5550 -0.5207 -1.3378
    2MPD1    H314065   0.930   0.539  11.679  4.5843  2.3188  0.1699
    2MPD1     N14066   0.783   0.275  12.034 -0.4184  0.6534 -0.6297
    2MPD1    H514067   0.821   0.213  12.105 -1.6588  1.2480  0.5544
    2MPD1    N114068   1.244   0.337  11.926  0.1512 -0.0787  0.0389
    2MPD1    H614069   1.247   0.241  11.959 -2.4155  0.2322  1.1478
    2MPD1    H714070   1.305   0.346  11.845  1.6223 -2.6856  0.8415
    1TCq1    O114071   2.935   2.238   0.490 -0.7126 -0.2050 -0.6901
    1TCq1    C114072   2.942   2.369   0.530  1.0443 -0.2221  0.5224
    1TCq1    O214073   2.910   2.471   0.471 -0.3285  0.2998  0.3174
    1TCq1    C214074   2.944   2.365   0.674 -0.7866 -0.0701  0.0314
    1TCq1    C314075   2.867   2.454   0.743 -0.2514  0.3306  0.3832
    1TCq1    C414076   2.879   2.467   0.879  0.7888 -0.0428 -0.6380
    1TCq1    C514077   2.972   2.389   0.946 -0.4193  0.6004 -0.1103
    1TCq1    C614078   3.048   2.303   0.877  0.0630  0.0342 -0.7210
    1TCq1    C714079   3.030   2.282   0.738 -0.0453  0.6354  0.1950
    1TCq1    C814080   3.113   2.192   0.950  0.4957 -0.2003 -0.3462
    1TCq1    O414081   3.123   2.091   0.882 -0.0443 -0.0507 -0.0300
    1TCq1    C914082   2.844   2.591   0.934  0.0457 -0.4998  0.1246
    1TCq1    O514083   2.879   2.614   1.052 -0.2926  0.6104 -0.1065
    1TCq1    O614084   2.823   2.688   0.858 -0.4887 -0.2450 -0.2462
    1TCq1    H114085   2.936   2.176   0.566 -0.1768  0.3771 -0.2138
    1TCq1    H214086   2.812   2.533   0.694 -0.8168 -0.0428  0.4189
    1TCq1    H314087   2.978   2.401   1.053  0.0452  1.4470 -0.2262
    1TCq1    H414088   3.096   2.215   0.685  1.7376  2.0668  0.6313
    2MPD1     C14089   3.286   1.943   1.361 -0.0468 -0.6561 -0.8734
    2MPD1    C114090   3.266   2.071   1.398  0.1102  0.1704  0.5145
    2MPD1    C214091   3.218   2.165   1.308 -0.2359 -0.2945  0.1263
    2MPD1    C314092   3.187   2.127   1.176  0.5251 -0.3798  0.0918
    2MPD1    C414093   3.206   1.996   1.138  0.4374 -0.0498 -0.4073
    2MPD1    C514094   3.259   1.907   1.234  0.2261  0.1802  0.5787
    2MPD1     H14095   3.198   2.267   1.338 -0.2013 -0.7556  1.7056
    2MPD1    H114096   3.197   1.949   1.041 -1.9705 -0.0583 -0.1945
    2MPD1    H214097   3.331   1.869   1.427 -1.5327  1.0699  2.1015
    2MPD1    H314098   3.293   1.807   1.208  0.7216  0.5848 -0.3329
    2MPD1     N14099   3.140   2.226   1.079  0.0512 -0.5853  0.6340
    2MPD1    H514100   3.137   2.324   1.105 -1.0782 -0.4452 -0.0254
    2MPD1    N114101   3.292   2.106   1.532  0.4610  0.3144  0.0082
    2MPD1    H614102   3.310   2.204   1.554  0.2209  0.9494 -2.6337
    2MPD1    H714103   3.364   2.049   1.574  0.6678  0.4161 -0.2103
    1MPD1     C14104   1.831   0.656  13.128  0.4824  0.1125 -0.3625
    1MPD1    C114105   1.925   0.609  13.045  0.8778 -0.7225 -0.1311
    1MPD1    C214106   1.930   0.657  12.918 -0.3531  0.4198 -0.4533
    1MPD1    C314107   1.836   0.745  12.873 -0.6406 -0.1684 -0.1341
    1MPD1    C414108   1.734   0.784  12.954  0.0205  0.7357 -0.1857
    1MPD1    C514109   1.736   0.740  13.084  0.3780  0.1927 -0.8705
    1MPD1     H14110   2.014   0.630  12.854  1.1206  1.8856  0.8853
    1MPD1    H114111   1.646   0.830  12.911  0.9866  2.0407 -0.7459
    1MPD1    H214112   1.837   0.638  13.235  1.3075 -3.7852 -1.0817
    1MPD1    H314113   1.667   0.775  13.160  0.3698 -0.4150 -0.5957
    1MPD1     N14114   1.846   0.784  12.740 -0.0530 -0.0042 -0.1316
    1MPD1    H514115   1.913   0.731  12.684 -0.3337  1.0758 -1.5015
    1MPD1    N114116   2.020   0.514  13.087  0.6926 -0.2763  0.0391
    1MPD1    H614117   1.991   0.474  13.176 -1.8295 -1.4123 -1.2644
    1MPD1    H714118   2.026   0.439  13.018  2.2213 -0.1280  0.0162
    2MPD1     C14119   0.988   1.418  11.357  0.0005 -0.1146  0.1051
    2MPD1    C114120   1.103   1.383  11.422 -0.1509  0.1311 -0.0244
    2MPD1    C214121   1.182   1.286  11.370  0.0564  0.2007 -0.6203
    2MPD1    C314122   1.140   1.211  11.261 -0.5176 -0.2619  0.0412
    2MPD1    C414123   1.027   1.240  11.200 -0.3662  0.3177  0.2992
    2MPD1    C514124   0.961   1.347  11.246 -0.5464  0.1154 -0.2422
    2MPD1     H14125   1.279   1.268  11.416  0.2751  1.3394 -0.6373
    2MPD1    H114126   0.997   1.181  11.114 -0.7527 -0.5641  1.0503
    2MPD1    H214127   0.918   1.495  11.389  1.1329  0.6705  0.6916
    2MPD1    H314128   0.866   1.368  11.198 -1.5840  0.6443  2.0622
    2MPD1     N14129   1.214   1.107  11.206  0.2305 -0.6787 -0.0420
    2MPD1    H514130   1.169   1.054  11.132  2.0540  0.2072 -1.8032
    2MPD1    N114131   1.153   1.457  11.530 -0.0069  0.9481  0.0164
    2MPD1    H614132   1.222   1.418  11.594 -1.6314  0.2152  1.2891
    2MPD1    H714133   1.086   1.508  11.587 -0.6732 -0.5971  0.5874
    3MPD1     C14134   1.054   0.730  10.439  0.0179 -0.4381 -0.2127
    3MPD1    C114135   1.016   0.845  10.504 -0.9654 -0.1375 -0.5178
    3MPD1    C214136   1.078   0.866  10.624  0.4060 -0.3347 -0.3212
    3MPD1    C314137   1.181   0.784  10.678 -0.0162 -0.7096 -1.4308
    3MPD1    C414138   1.233   0.690  10.592 -0.2080  0.7096 -0.2284
    3MPD1    C514139   1.162   0.653  10.476  0.0306  0.0079 -0.0858
    3MPD1     H14140   1.040   0.943  10.690  1.8593 -0.9064  1.1726
    3MPD1    H114141   1.320   0.632  10.620 -2.0710 -1.5485  0.9202
    3MPD1    H214142   1.002   0.685  10.355  0.2699 -0.9211 -0.1060
    3MPD1    H314143   1.183   0.559  10.427  3.3047  0.9352 -0.4472
    3MPD1     N14144   1.234   0.812  10.810  0.4741  0.0580  0.1816
    3MPD1    H514145   1.205   0.896  10.859 -0.9227  1.1163 -2.4404
    3MPD1    N114146   0.914   0.919  10.460 -0.2874 -0.4071 -0.2420
    3MPD1    H614147   0.928   0.934  10.360 -1.3162 -0.3360 -0.3782
    3MPD1    H714148   0.914   1.009  10.508  1.2605 -0.0652 -0.8866
    4MPD2     C14149   1.869   1.230  12.017 -0.0526 -0.4809 -0.6367
    4MPD2    C114150   1.882   1.090  12.042  0.8149 -0.4493  0.5515
    4MPD2    C214151   1.969   1.021  11.960 -0.0941 -0.3391  0.1965
    4MPD2    C314152   2.051   1.079  11.868  0.8358  0.0977  0.4564
    4MPD2    C414153   2.046   1.215  11.853 -0.7795 -0.2270 -0.0541
    4MPD2    C514154   1.953   1.286  11.922  0.7829  0.7683 -0.6549
    4MPD2     H14155   1.974   0.914  11.978  3.1524 -0.5647 -2.1512
    4MPD2    H114156   2.112   1.262  11.780 -0.2753 -1.9879 -0.7431
    4MPD2    H214157   1.808   1.296  12.077  0.4072 -0.5657 -0.0777
    4MPD2    H314158   1.950   1.391  11.895 -3.7699  1.1444  1.2830
    4MPD2     N14159   2.149   1.009  11.792  0.6157 -0.3417 -0.2338
    4MPD2    H514160   2.185   1.053  11.708  0.4574 -0.7888 -0.5322
    4MPD2    N114161   1.809   1.012  12.132 -0.5199  0.4203 -0.0110
    4MPD2    H714162   1.815   0.911  12.126 -2.5002  0.4050 -1.7870
    5TMC3    C114163   1.701   0.945  12.324  0.2951 -0.2022  0.7365
    5TMC3    C214164   1.716   0.964  12.459 -0.0939 -0.2791 -0.0042
    5TMC3    C314165   1.760   0.862  12.532 -0.5508 -0.1551  0.4185
    5TMC3    C414166   1.721   0.826  12.265  0.5348 -0.5932 -0.2731
    5TMC3    C514167   1.778   0.728  12.343 -0.5018 -0.5433 -0.2246
    5TMC3    C614168   1.796   0.745  12.477 -0.2070 -0.5411  0.3963
    5TMC3     C14169   1.744   1.058  12.243  0.7258  0.5721 -1.2612
    5TMC3     O14170   1.729   1.175  12.274 -0.3001  0.5582 -0.4480
    5TMC3     H14171   1.691   1.061  12.502 -0.2684 -0.5821  0.5802
    5TMC3    H114172   1.687   0.806  12.164  0.9389  1.2445 -0.7794
    5TMC3    H214173   1.840   0.667  12.538  0.1840 -1.4346 -1.0455
    5TMC3    C714174   1.897   0.685  12.272  0.1654  0.1558 -0.5126
    5TMC3    C814175   1.760   0.872  12.679  0.5951 -0.2020 -0.1807
    5TMC3    O114176   1.930   0.754  12.172  0.8857 -0.5223 -0.4698
    5TMC3    O214177   1.684   0.955  12.733  0.2751  0.4408  0.2754
    6TMC3    C114178   1.389   0.957  11.164 -0.3438  0.2212 -0.1057
    6TMC3    C214179   1.325   0.910  11.052 -0.2945 -0.5253 -0.1249
    6TMC3    C314180   1.370   0.786  11.001  0.4110  0.1850  0.1402
    6TMC3    C414181   1.485   0.883  11.229  0.3406 -0.5950  0.3150
    6TMC3    C514182   1.526   0.769  11.175 -0.2065  0.2438 -0.5896
    6TMC3    C614183   1.469   0.714  11.064 -0.2568  0.1269 -0.5318
    6TMC3     C14184   1.342   1.077  11.229  0.2274  0.0777 -0.2640
    6TMC3     O14185   1.424   1.132  11.306  0.8847  0.1866 -0.4300
    6TMC3     H14186   1.259   0.979  11.001 -0.1365 -0.4390 -0.2130
    6TMC3    H114187   1.528   0.904  11.326  0.0455  1.2945  0.0344
    6TMC3    H214188   1.517   0.622  11.031  1.9670  0.5284  1.6493
    6TMC3    C714189   1.648   0.718  11.225 -0.1665  0.1920 -0.0967
    6TMC3    C814190   1.326   0.734  10.880 -0.4603 -0.7383 -0.2319
    6TMC3    O114191   1.684   0.749  11.335  0.1415  0.2542  0.1596
    6TMC3    O214192   1.371   0.623  10.858 -0.5742 -0.7028  0.1166
    7MPD2     C14193   2.197   0.319  12.058  0.5059  0.3817 -0.7836
    7MPD2    C114194   2.193   0.455  12.041 -0.2397  0.2640 -0.0318
    7MPD2    C214195   2.112   0.538  12.121  0.6256 -0.1744 -0.7497
    7MPD2    C314196   2.027   0.482  12.217  0.3713  0.3236 -0.3369
    7MPD2    C414197   2.046   0.352  12.245 -0.4782  0.4667 -0.1699
    7MPD2    C514198   2.126   0.270  12.167 -0.3843  0.3068 -1.1346
    7MPD2     H14199   2.113   0.645  12.110  4.9360  0.0655  1.7585
    7MPD2    H114200   1.986   0.296  12.316 -1.9023  2.4687  0.2012
    7MPD2    H214201   2.253   0.260  11.987  1.4972  1.7107 -1.1026
    7MPD2    H314202   2.136   0.166  12.197  2.1484 -0.0036 -3.0287
    7MPD2     N14203   1.929   0.554  12.290 -0.1612 -0.3830  0.2287
    7MPD2    H514204   1.875   0.501  12.357  2.6341 -1.9568  1.2359
    7MPD2    N114205   2.254   0.528  11.931 -0.6833  0.2393 -0.2963
    7MPD2    H714206   2.253   0.630  11.938  0.7768  0.1948  0.5438
    8TMC3    C114207   2.345   0.595  11.732 -0.3473  0.1979 -0.4624
    8TMC3    C214208   2.281   0.590  11.611 -0.7498  0.4237  0.2658
    8TMC3    C314209   2.244   0.711  11.550  0.2828 -0.3961 -0.2700
    8TMC3    C414210   2.339   0.716  11.802 -0.2095  0.8273  0.3434
    8TMC3    C514211   2.279   0.826  11.745  0.2310  0.3506 -0.3798
    8TMC3    C614212   2.245   0.826  11.617  0.1513 -0.7966  0.1577
    8TMC3     C14213   2.305   0.485  11.813 -0.5458  0.2607  0.3292
    8TMC3     O14214   2.295   0.369  11.769 -0.1532 -0.0300  0.0007
    8TMC3     H14215   2.259   0.490  11.574 -0.6446  1.1000 -1.6442
    8TMC3    H114216   2.399   0.733  11.890 -0.5507 -0.3633  0.8033
    8TMC3    H214217   2.220   0.920  11.570 -2.6394 -0.1699  2.8811
    8TMC3    C714218   2.214   0.901  11.844 -0.0246  0.1097 -0.3928
    8TMC3    C814219   2.137   0.715  11.449  0.5225 -0.5041 -0.1804
    8TMC3    O114220   2.212   0.836  11.948  0.5721  0.3182 -0.0483
    8TMC3    O214221   2.047   0.794  11.473  0.0902 -0.0482 -0.4814
    9MPD2     C14222   2.106   0.511  11.146 -0.9274 -0.0617  0.3543
    9MPD2    C114223   2.066   0.592  11.250  0.5160  0.5664  0.1266
    9MPD2    C214224   1.941   0.645  11.244 -0.0614 -0.4138  0.5389
    9MPD2    C314225   1.858   0.623  11.134 -0.2398 -0.0976 -0.0818
    9MPD2    C414226   1.912   0.577  11.013 -0.3747 -0.1333 -0.3380
    9MPD2    C514227   2.044   0.528  11.019  0.3301  0.0804 -0.2024
    9MPD2     H14228   1.895   0.694  11.329  0.5412  2.8440 -0.9965
    9MPD2    H114229   1.858   0.593  10.920 -3.0005  1.0785  1.4032
    9MPD2    H214230   2.201   0.459  11.152  0.0429  1.5585 -0.9769
    9MPD2    H314231   2.087   0.477  10.933 -2.1794 -3.2417  0.5142
    9MPD2     N14232   1.724   0.669  11.123  0.2343 -0.4377  0.4708
    9MPD2    H514233   1.676   0.661  11.034 -2.2637  0.6333  1.7070
    9MPD2    N114234   2.152   0.611  11.363 -0.4136  0.4719  0.7161
    9MPD2    H714235   2.239   0.558  11.359 -0.3666  0.6408 -0.3745
    1MPD1     C14236   0.817   3.753  16.400 -0.3518 -0.2452  0.4762
    1MPD1    C114237   0.721   3.852  16.361 -0.7748  0.1311 -0.2594
    1MPD1    C214238   0.700   3.941  16.465 -0.0381  0.4476 -0.6099
    1MPD1    C314239   0.757   3.923  16.594 -0.5281 -0.2109  0.2403
    1MPD1    C414240   0.827   3.818  16.618 -0.9480  0.1838  0.4306
    1MPD1    C514241   0.865   3.731  16.524 -0.3525  0.2338  0.3287
    1MPD1     H14242   0.636   4.026  16.444 -0.5943  0.4437  1.0207
    1MPD1    H114243   0.883   3.804  16.710  0.1375  0.9511 -0.1053
    1MPD1    H214244   0.854   3.678  16.331 -2.8684  0.4690 -1.6726
    1MPD1    H314245   0.930   3.647  16.543 -0.6992 -0.4312 -1.4831
    1MPD1     N14246   0.759   4.022  16.701  0.4972  0.2431  0.1485
    1MPD1    H514247   0.813   3.997  16.784 -0.6404 -0.4072  0.6930
    1MPD1    N114248   0.671   3.873  16.234  0.8704 -0.2453  0.3373
    1MPD1    H614249   0.679   3.789  16.177 -0.9244 -0.8095  0.9165
    1MPD1    H714250   0.574   3.904  16.239  0.1855 -2.4567  0.6438
    2MPD1     C14251   1.327   4.348  17.396  0.2809  0.1667 -0.1019
    2MPD1    C114252   1.222   4.421  17.427  0.0625  0.5986  0.2467
    2MPD1    C214253   1.118   4.422  17.338  0.1098 -0.2459  0.2127
    2MPD1    C314254   1.119   4.348  17.223  0.4944 -0.1672 -0.7737
    2MPD1    C414255   1.224   4.260  17.198 -0.0959  0.0474 -0.1802
    2MPD1    C514256   1.333   4.266  17.283  0.0849 -0.4428  0.4744
    2MPD1     H14257   1.035   4.490  17.351 -0.2234 -0.4065 -1.1150
    2MPD1    H114258   1.227   4.185  17.120 -2.1699 -0.1174 -0.1173
    2MPD1    H214259   1.409   4.348  17.467  1.2811  2.1909 -1.2427
    2MPD1    H314260   1.412   4.194  17.264  1.1388  1.2488 -1.6133
    2MPD1     N14261   1.017   4.363  17.125  0.8313 -0.1100 -0.0707
    2MPD1    H514262   0.945   4.428  17.153  0.7734  0.1305 -0.7843
    2MPD1    N114263   1.216   4.510  17.538  0.9277  0.0000 -0.0471
    2MPD1    H614264   1.261   4.477  17.623 -1.6832  0.3610  1.4474
    2MPD1    H714265   1.128   4.553  17.563  0.2347 -1.2838 -0.3112
    3TCq2    C114266   1.007   4.290  17.011 -0.2722 -0.7030  0.4424
    3TCq2    O214267   1.076   4.200  16.962  0.4008  0.5013 -0.0207
    3TCq2    C214268   0.887   4.316  16.941 -0.3046  0.0377  0.5794
    3TCq2    C314269   0.839   4.445  16.930 -0.8860  0.3169 -0.7990
    3TCq2    C414270   0.721   4.456  16.864  0.7930  0.7026  0.0404
    3TCq2    C514271   0.658   4.353  16.797  0.1243  0.6689 -0.2577
    3TCq2    C614272   0.713   4.226  16.812 -0.0445  0.1994 -0.1208
    3TCq2    C714273   0.827   4.206  16.879 -0.1265 -0.5992  0.1311
    3TCq2    C814274   0.697   4.141  16.696  0.1770  0.2944  0.9678
    3TCq2    O414275   0.625   4.179  16.605 -0.4719 -0.1746  0.2734
    3TCq2    C914276   0.662   4.588  16.841  0.2262  1.1633  0.3183
    3TCq2    O514277   0.549   4.587  16.785 -0.0030  0.3282 -0.0085
    3TCq2    O614278   0.731   4.689  16.867  0.0687  0.5566  0.0519
    3TCq2    H214279   0.889   4.533  16.969  1.1579 -1.0323 -0.3897
    3TCq2    H314280   0.562   4.358  16.745  0.4603  1.6122 -0.7837
    3TCq2    H414281   0.873   4.111  16.905  1.8295  0.0278 -1.0654
    1TCq1    O114282   3.425   3.488  12.990  0.2150 -0.4578 -0.3450
    1TCq1    C114283   3.511   3.567  12.916  0.0119 -0.5783  0.2775
    1TCq1    O214284   3.608   3.634  12.948 -0.6291  0.0805  0.6291
    1TCq1    C214285   3.478   3.558  12.777  0.1423 -1.1120 -0.2310
    1TCq1    C314286   3.353   3.514  12.734 -0.5904  0.2446  0.4259
    1TCq1    C414287   3.340   3.495  12.602  0.8230 -0.0051 -0.0737
    1TCq1    C514288   3.439   3.522  12.508 -0.4269 -0.5964  0.1637
    1TCq1    C614289   3.561   3.571  12.551 -0.5758 -0.5689 -0.4028
    1TCq1    C714290   3.581   3.591  12.689  0.4992 -0.5973 -0.4825
    1TCq1    C814291   3.664   3.609  12.457  0.3228 -0.6659  0.2485
    1TCq1    O414292   3.649   3.569  12.342  0.2856  0.3746  0.2016
    1TCq1    C914293   3.210   3.438  12.561 -0.2344 -0.3510 -0.9047
    1TCq1    O514294   3.222   3.351  12.469  0.2030  0.1160  0.0654
    1TCq1    O614295   3.111   3.454  12.632  0.0529 -0.2261 -0.2401
    1TCq1    H114296   3.365   3.425  12.945  1.1365 -1.2365 -0.4757
    1TCq1    H214297   3.278   3.478  12.803 -0.3255 -1.3054 -0.0876
    1TCq1    H314298   3.424   3.503  12.402  2.0903 -2.6659  0.1656
    1TCq1    H414299   3.680   3.612  12.726  0.6080 -1.3124 -0.3690
    2MPD2     C14300   3.918   3.702  12.321 -0.1016  0.8543  0.2208
    2MPD2    C114301   3.875   3.742  12.443  0.4071  0.0882 -0.6369
    2MPD2    C214302   3.958   3.822  12.518 -1.5712 -0.4592  0.3896
    2MPD2    C314303   4.085   3.863  12.467  0.5009 -0.0814  0.4157
    2MPD2    C414304   4.117   3.822  12.337 -0.0266 -0.3184  0.3618
    2MPD2    C514305   4.033   3.744  12.265  0.2420  0.3759 -0.5368
    2MPD2     H14306   3.920   3.866  12.609  0.6890 -0.3180  1.2651
    2MPD2    H114307   4.205   3.855  12.282 -0.7188 -0.8987 -1.0970
    2MPD2    H214308   3.865   3.626  12.265 -0.6176 -0.3912  2.4350
    2MPD2    H314309   4.057   3.718  12.162  0.1139 -1.1589 -0.1739
    2MPD2     N14310   4.164   3.961  12.540  0.3839  0.7634 -0.3773
    2MPD2    H514311   4.141   4.003  12.630  0.2843  0.9452 -0.4884
    2MPD2    N114312   3.749   3.705  12.502  0.7448  0.9169 -0.3913
    2MPD2    H714313   3.732   3.737  12.597  0.4100  0.2283 -0.2152
    3TCq1    O114314   4.644   4.386  12.676  0.6142  0.1768  0.6100
    3TCq1    C114315   4.636   4.259  12.728  0.1435 -0.7406 -0.0232
    3TCq1    O214316   4.721   4.172  12.729  0.5368 -0.1931  0.4689
    3TCq1    C214317   4.493   4.228  12.706  0.1100  0.4764 -0.5148
    3TCq1    C314318   4.402   4.313  12.755  0.3085  0.2175 -0.5602
    3TCq1    C414319   4.274   4.302  12.713 -0.2480 -0.3707 -0.7018
    3TCq1    C514320   4.235   4.202  12.632 -0.3049 -0.0565 -0.5244
    3TCq1    C614321   4.328   4.106  12.596  0.0131 -0.2604  0.3991
    3TCq1    C714322   4.457   4.131  12.612  0.0992 -0.2424 -0.0421
    3TCq1    C814323   4.290   4.004  12.502 -0.4988 -0.2090 -0.2152
    3TCq1    O414324   4.370   3.954  12.425 -0.1021 -0.0808  0.7354
    3TCq1    C914325   4.176   4.399  12.764  0.8371  0.1212  0.0485
    3TCq1    O514326   4.073   4.420  12.694  0.0791  0.2143  0.7021
    3TCq1    O614327   4.215   4.456  12.869  0.6487 -0.3826  0.4487
    3TCq1    H114328   4.557   4.413  12.637  0.2375 -2.1210 -0.1466
    3TCq1    H214329   4.432   4.394  12.822  0.3706 -0.6953  0.5187
    3TCq1    H314330   4.134   4.206  12.592 -0.6425 -1.5388  0.1816
    3TCq1    H414331   4.539   4.081  12.562  0.6432  2.6583 -2.0530
    1MPD2     C14332   3.669   0.135  15.147 -0.2580  0.2934 -0.1501
    1MPD2    C114333   3.580   0.026  15.130  0.3634 -0.1808  0.2564
    1MPD2    C214334   3.627   4.633  15.064 -0.2656 -0.2466  0.0852
    1MPD2    C314335   3.754   4.621  15.022 -0.2407 -0.0307  0.1053
    1MPD2    C414336   3.833   0.008  15.020 -0.1476  0.0567 -0.0290
    1MPD2    C514337   3.791   0.119  15.090  0.6730 -0.4643  0.0673
    1MPD2     H14338   3.559   4.550  15.049  1.2937 -1.3737 -0.6962
    1MPD2    H114339   3.925   0.025  14.966  0.5384 -3.0754  0.1395
    1MPD2    H214340   3.647   0.230  15.196 -2.0504  0.4663 -1.3177
    1MPD2    H314341   3.847   0.211  15.096  0.1233 -0.1635  0.6234
    1MPD2     N14342   3.787   4.504  14.955 -0.2492 -0.3612 -0.0583
    1MPD2    H514343   3.711   4.437  14.951 -1.1682  0.4517  3.8788
    1MPD2    N114344   3.444   0.049  15.164  0.7609  0.2845 -0.3785
    1MPD2    H714345   3.424   0.129  15.224  2.9076  2.2994 -2.3048
    2TMC3    C114346   3.208   0.015  15.170 -0.5046 -0.3192 -0.4189
    2TMC3    C214347   3.124   4.640  15.129 -0.4910 -0.6097 -0.0031
    2TMC3    C314348   3.024   4.672  15.035  0.4141  0.0162  0.7846
    2TMC3    C414349   3.190   0.143  15.125 -0.6281  0.2594 -0.5941
    2TMC3    C514350   3.090   0.169  15.035  0.4592 -0.3336  0.4238
    2TMC3    C614351   3.005   0.077  14.992  0.2995 -0.4390  0.0959
    2TMC3     C14352   3.343   4.690  15.146 -0.1390  0.0427 -0.7244
    2TMC3     O14353   3.344   4.575  15.109 -0.0880 -0.0408  0.4022
    2TMC3     H14354   3.137   4.542  15.175  0.7985  0.4381  1.8946
    2TMC3    H114355   3.258   0.219  15.162 -0.2102 -0.2640 -0.2668
    2TMC3    H214356   2.941   0.091  14.906  0.7667  2.9723  0.3028
    2TMC3    C714357   3.129   0.250  14.920  0.3754  0.4086  0.2961
    2TMC3    C814358   3.007   4.564  14.938 -0.1976 -0.2656 -0.4318
    2TMC3    O114359   3.108   0.193  14.807  0.0451  0.1680  0.3200
    2TMC3    O214360   2.920   4.583  14.850 -0.4726 -0.0180  0.6887
    3TCq1    O114361   4.082   0.929  14.909 -0.2586  1.2240  0.1929
    3TCq1    C114362   4.032   1.037  14.848 -0.3895  0.0735 -0.3363
    3TCq1    O214363   4.065   1.152  14.878 -0.1336  0.4526 -0.0193
    3TCq1    C214364   3.892   0.997  14.858  0.6112  0.6038 -0.0082
    3TCq1    C314365   3.814   1.067  14.946  0.2302  0.0546 -0.0980
    3TCq1    C414366   3.689   1.016  14.982 -0.7695 -0.7682 -0.4511
    3TCq1    C514367   3.647   0.894  14.932 -0.4036 -0.0353 -0.2052
    3TCq1    C614368   3.729   0.830  14.848 -0.1799 -0.2918 -0.1086
    3TCq1    C714369   3.850   0.876  14.811  0.2203  0.3453 -0.5892
    3TCq1    C814370   3.702   0.698  14.782 -1.0109 -0.4919  0.3599
    3TCq1    O414371   3.781   0.655  14.702 -0.1605 -0.7673 -0.3258
    3TCq1    C914372   3.610   1.077  15.094 -0.2856 -0.3002  0.1146
    3TCq1    O514373   3.646   1.191  15.129 -0.1146 -0.1635  0.1325
    3TCq1    O614374   3.497   1.020  15.116 -0.3026 -0.2236 -0.1630
    3TCq1    H114375   4.037   0.843  14.895 -0.0271  1.0464  0.5331
    3TCq1    H214376   3.843   1.155  15.002 -0.4517 -0.2341  0.7119
    3TCq1    H314377   3.549   0.851  14.953 -0.7491  1.3178  0.9415
    3TCq1    H414378   3.924   0.813  14.762  0.1243 -1.0310  1.0367
    4MPD2     C14379   3.535   0.472  14.687  0.4857 -0.6590  0.3631
    4MPD2    C114380   3.516   0.528  14.810  0.2112  0.4846 -0.5122
    4MPD2    C214381   3.419   0.486  14.894 -0.3510 -0.1092  0.2138
    4MPD2    C314382   3.323   0.390  14.858  0.5235  0.7093 -0.2532
    4MPD2    C414383   3.337   0.337  14.733 -0.5787  0.5795 -0.0071
    4MPD2    C514384   3.444   0.371  14.648  0.2542  0.0519 -0.5302
    4MPD2     H14385   3.411   0.531  14.993 -0.1070  0.5994 -0.0858
    4MPD2    H114386   3.278   0.256  14.692 -0.0483 -0.6625  1.6694
    4MPD2    H214387   3.618   0.491  14.620 -1.5049  0.0173 -1.8917
    4MPD2    H314388   3.462   0.317  14.556 -0.2565  1.7270 -1.6143
    4MPD2     N14389   3.229   0.339  14.946 -0.2130  0.0255  0.6907
    4MPD2    H514390   3.225   0.378  15.040  0.2496  0.1786  0.6454
    4MPD2    N114391   3.595   0.637  14.850 -0.4987 -0.0408 -0.3157
    4MPD2    H714392   3.576   0.674  14.943 -1.7478 -0.8836 -0.2435
    5TMC2    C114393   3.699   4.225  14.803  0.1899  0.4072  0.7238
    5TMC2    C214394   3.732   4.238  14.669  0.1941 -1.1641 -0.1409
    5TMC2    C314395   3.850   4.288  14.632 -0.1653  0.4961 -0.2405
    5TMC2    C414396   3.788   4.272  14.894 -0.1603 -0.8102  0.9448
    5TMC2    C514397   3.901   4.338  14.848 -0.6437 -0.3563  0.3669
    5TMC2    C614398   3.934   4.344  14.717 -0.3676  0.2172 -0.2769
    5TMC2     C14399   3.565   4.236  14.853 -0.0440  0.5974  0.2696
    5TMC2     O14400   3.556   4.288  14.961  0.9174 -0.7712  0.2221
    5TMC2     H14401   3.663   4.191  14.599 -0.7275  0.0580 -0.0462
    5TMC2    H114402   3.780   4.248  15.000 -1.1955 -0.6698  0.8957
    5TMC2    H214403   4.033   4.379  14.689 -1.0885  1.2759 -1.4702
    5TMC2    C714404   3.902   4.471  14.898 -0.0370 -0.6411  0.4279
    5TMC2    C814405   3.912   4.220  14.523 -0.1643 -0.1747 -0.1681
    5TMC2    O114406   3.995   4.539  14.852  0.6804  0.2749  0.1073
    5TMC2    O214407   3.846   4.156  14.443  0.2639  1.2303  0.3384
    5TMC2    O514408   4.025   4.171  14.577 -0.4488  0.7589  0.0870
    5TMC2    H514409   4.070   4.236  14.635  1.0484 -0.2213 -0.0027
    6MPD2     C14410   3.057   4.318  14.768 -0.1554  0.0196 -0.0900
    6MPD2    C114411   3.156   4.381  14.844  0.2469  0.3857  0.3362
    6MPD2    C214412   3.284   4.329  14.851 -0.6399 -0.2238  0.1684
    6MPD2    C314413   3.332   4.224  14.775  0.6361 -0.7648  0.1642
    6MPD2    C414414   3.235   4.165  14.694  0.0821 -0.1637 -0.3151
    6MPD2    C514415   3.099   4.204  14.703  0.6281 -0.1160  0.4424
    6MPD2     H14416   3.352   4.380  14.917 -0.1260 -0.5678 -0.0910
    6MPD2    H114417   3.255   4.081  14.629 -1.0717 -1.0516  0.4876
    6MPD2    H214418   2.957   4.355  14.751  0.0094  0.5210  0.0375
    6MPD2    H314419   3.025   4.143  14.652 -1.0349  1.5138  0.9494
    6MPD2     N14420   3.466   4.194  14.764  0.5586  0.1236 -0.1781
    6MPD2    H514421   3.499   4.124  14.697  1.2484  1.6454 -1.4366
    6MPD2    N114422   3.129   4.494  14.928 -0.2520  0.0148  0.6368
    6MPD2    H714423   3.204   4.523  14.990 -1.7664  1.1125  1.9369
  945NH3     N114424   4.359   1.586   2.498  0.1909  0.0160 -0.3843
  945NH3     H214425   4.300   1.639   2.435 -0.7829 -0.0131  0.4967
  945NH3     H314426   4.305   1.501   2.509  1.5872 -0.5466  2.1375
  945NH3     H414427   4.347   1.633   2.588  0.3671  1.2782 -1.0208
  946SOD     NA14428   3.468   0.061  14.280 -0.0137  0.0067  0.1953
  947SOD     NA14429   0.593   1.259  16.604 -0.1505  0.0246  0.2105
  948SOD     NA14430   4.030   2.856  11.502  0.0217  0.7379 -0.4128
  949SOD     NA14431   3.848   0.411   4.617  0.4014 -0.1848  0.1815
  950SOD     NA14432   0.370   2.418   4.222  0.0438 -0.4394 -0.0957
  951SOD     NA14433   0.485   2.640  13.772  0.4399  0.2821  0.1707
  952SOD     NA14434   4.530   2.792  11.378 -0.0387  0.2886  0.1460
  953SOD     NA14435   3.680   0.546   1.393 -0.1431 -0.2041 -0.4722
  954SOD     NA14436   0.867   2.906  14.071  0.3971 -0.0940  0.1214
  955SOD     NA14437   3.199   3.517  16.691  0.3427  0.0869  0.1702
  956SOD     NA14438   4.595   1.568   2.380 -0.1094  0.1450  0.2249
  957SOD     NA14439   3.779   2.980   9.936 -0.5840  0.6402 -0.2464
  958SOD     NA14440   2.337   2.764  11.433 -0.1395 -0.1609 -0.1902
  959SOD     NA14441   1.020   4.533  14.891  0.1260  0.1867 -0.1997
  960SOD     NA14442   4.097   4.104  11.072  0.0983 -0.3993  0.0893
  961SOD     NA14443   4.245   4.009  11.398 -0.4524  0.2213 -0.2100
  962SOD     NA14444   0.933   1.109   3.569 -0.6504  0.7447  0.1402
  963SOD     NA14445   1.212   3.419   0.394 -0.3431 -0.4673  0.2262
  964SOD     NA14446   1.806   2.332   3.806 -0.5542 -0.3103  0.4441
  965SOD     NA14447   2.031   3.369  13.671 -0.2210  0.1366 -0.1414
  966SOD     NA14448   3.556   1.514  15.453  0.1212  0.3238  0.1075
  967SOD     NA14449   1.898   2.584   9.520  0.0305  0.1300 -0.0295
  968SOD     NA14450   1.304   3.459  10.652 -0.3152  0.0869 -0.0290
  969SOD     NA14451   4.583   3.227  12.812  0.0148 -0.2165 -0.3234
  970SOD     NA14452   3.945   2.625   5.094 -0.0639  0.3957 -0.5341
  971SOD     NA14453   0.986   3.178  14.250 -0.2766 -0.7460 -0.6479
  972SOD     NA14454   1.730   0.214  11.379  0.0607 -0.4228  0.4365
  973SOD     NA14455   1.801   1.705   0.956  0.3383 -0.0091  0.4888
  974SOD     NA14456   3.045   3.978  12.015  0.2801  0.0551 -0.1818
  975SOD     NA14457   3.851   3.003  10.247 -0.0028 -0.2047  0.1618
  976SOD     NA14458   0.789   4.540  12.533  0.8076 -0.1036 -0.0401
  977SOD     NA14459   3.815   0.747  10.670 -0.2675  0.4743 -0.0542
  978SOD     NA14460   2.229   3.054   3.974  0.1922  0.4585  0.0614
  979SOD     NA14461   0.021   3.656  10.875 -0.0925  0.2186 -0.0988
  980SOD     NA14462   0.746   3.839   8.707 -0.2616  0.2935 -0.3588
  981SOD     NA14463   3.071   4.408  12.719 -0.1440 -0.2581 -1.0412
  982SOD     NA14464   3.717   3.475   9.897 -0.1141 -0.0942  0.5029
  983SOD     NA14465   1.546   0.140   1.765 -0.2892 -0.0589 -0.2240
  984SOD     NA14466   4.128   4.683  14.718  0.1463  0.0395  0.3239
  985SOD     NA14467   4.259   4.395  13.067 -0.0087  1.1638 -0.2116
  986SOD     NA14468   0.139   1.174  13.699 -0.8170 -0.2415 -0.2079
  987SOD     NA14469   3.886   0.864   1.849 -0.0518  0.2083  0.2947
  988SOD     NA14470   2.456   3.996  10.121 -0.2165  0.3116  0.0253
  989SOD     NA14471   3.213   4.575   9.583  0.0106 -0.3859  0.0830
  990SOD     NA14472   0.840   0.431  15.399  0.1242  0.1331 -0.2352
  991SOD     NA14473   1.714   3.461  16.939 -0.4353 -0.7725 -0.2020
  992SOD     NA14474   0.789   0.159  15.310 -0.0265  0.3624  0.2251
  993SOD     NA14475   0.914   2.426  12.526 -0.2296 -0.2179  0.0594
  994SOD     NA14476   0.742   4.291  11.064  0.3976 -0.0118  0.1050
  995SOD     NA14477   4.036   1.523  12.326  0.3489  0.3742  0.0747
  996SOD     NA14478   3.645   2.691  10.411 -0.4343 -0.0152 -0.6258
  997SOD     NA14479   3.148   3.551   8.951 -0.9899  0.1149 -0.2720
  998SOD     NA14480   1.951   2.174   0.686  0.2968 -0.2401  0.1834
  999SOD     NA14481   0.467   3.405   4.250 -0.2266 -0.4563  0.3322
 1000SOD     NA14482   2.089   3.226   1.651 -0.0008  0.5005 -0.0690
 1001SOD     NA14483   1.038   3.569  14.229  0.2263 -0.1140 -0.6147
 1002SOD     NA14484   0.258   0.959  11.659 -0.0098  0.1678  0.2371
 1003SOD     NA14485   2.752   2.804   1.019  0.3444 -0.3334  0.1078
 1004SOD     NA14486   0.013   3.112  11.663 -0.4560 -0.2256 -0.0588
 1005SOD     NA14487   3.111   1.856  13.108  0.3447  0.4807 -0.4419
 1006SOD     NA14488   2.826   1.961   7.282 -0.1579 -0.3703 -0.4436
 1007SOD     NA14489   0.455   2.684   7.769 -0.2612  0.4171 -0.0729
 1008SOD     NA14490   0.942   2.345  16.363 -0.4702 -0.0388 -0.0237
 1009SOD     NA14491   3.444   0.831  15.195 -0.2207 -0.2256  0.4680
 1010SOD     NA14492   4.627   2.506   0.115  0.0367  0.1692 -0.5356
 1011SOD     NA14493   0.578   0.104  16.806  0.3712 -0.2263 -0.2982
 1012SOL     OW14494   0.913   2.263   1.725 -0.0080  0.1451  0.3737
 1012SOL    HW114495   1.003   2.293   1.718  0.4599 -1.3498  0.0856
 1012SOL    HW214496   0.875   2.321   1.658  1.7909 -0.6106 -1.2678
 1013SOL     OW14497   1.568   0.825   4.853 -0.3462 -0.1160  0.4421
 1013SOL    HW114498   1.503   0.769   4.895 -1.1905  1.0392  0.6754
 1013SOL    HW214499   1.518   0.850   4.775 -0.7817  0.1077  0.7935
 1014SOL     OW14500   3.858   1.949  15.712 -0.1853 -0.4098 -0.4127
 1014SOL    HW114501   3.907   2.031  15.713 -1.5879  0.3801  2.2239
 1014SOL    HW214502   3.911   1.886  15.762  0.8058  0.7092 -0.0454
 1015SOL     OW14503   2.775   2.749   1.995 -0.6832  0.4844  0.7854
 1015SOL    HW114504   2.768   2.665   1.949 -2.9576 -0.4747  2.8619
 1015SOL    HW214505   2.729   2.805   1.933 -0.0747  2.2389  1.9228
 1016SOL     OW14506   3.470   0.225   3.806  0.1959 -0.5347 -0.4381
 1016SOL    HW114507   3.411   0.285   3.760  1.1106 -1.1214 -2.3638
 1016SOL    HW214508   3.540   0.227   3.741 -0.4094 -0.8809 -1.0908
 1017SOL     OW14509   1.114   3.882  12.967 -0.1400  0.1952 -0.0614
 1017SOL    HW114510   1.167   3.912  12.894 -0.5889 -0.8180 -0.8082
 1017SOL    HW214511   1.053   3.955  12.973 -0.7748 -0.3498  0.2250
 1018SOL     OW14512   1.529   1.330  13.909 -0.0499 -0.4253 -0.0899
 1018SOL    HW114513   1.587   1.314  13.983 -1.3522 -1.0052  0.8109
 1018SOL    HW214514   1.532   1.424  13.892 -1.0608 -0.8054 -2.4973
 1019SOL     OW14515   3.491   2.315   4.901 -0.1568 -0.1393  0.5171
 1019SOL    HW114516   3.416   2.318   4.841 -0.4778 -1.5865  0.8565
 1019SOL    HW214517   3.454   2.336   4.987  0.9653  2.8432  0.2613
 1020SOL     OW14518   4.722   3.042  12.768  0.2024 -0.3483  0.5648
 1020SOL    HW114519   4.713   2.947  12.777 -2.0705 -0.1307  0.4048
 1020SOL    HW214520   0.050   3.027  12.690  1.0424 -0.3081  1.1378
 1021SOL     OW14521   3.990   4.475   0.491  0.5646  0.3504 -0.2859
 1021SOL    HW114522   4.000   4.389   0.530 -4.2682 -0.5270 -1.0297
 1021SOL    HW214523   3.916   4.458   0.433  0.8136  2.4093 -1.2247
 1022SOL     OW14524   0.537   1.755   9.758  0.3347  0.0714 -0.2647
 1022SOL    HW114525   0.508   1.664   9.764 -2.8172  1.0576 -1.0830
 1022SOL    HW214526   0.451   1.792   9.741  0.7050  0.6522 -0.8452
 1023SOL     OW14527   0.019   4.282   3.284  0.0608 -0.0159 -0.0368
 1023SOL    HW114528   0.072   4.308   3.208  0.0192 -0.9403 -0.3802
 1023SOL    HW214529   0.080   4.221   3.324  2.1261  0.1163 -3.0199
 1024SOL     OW14530   0.937   1.048   9.341 -0.4013 -0.1878  0.3497
 1024SOL    HW114531   0.985   1.106   9.400 -0.6533  0.9120 -0.5368
 1024SOL    HW214532   0.846   1.071   9.362  0.0191 -0.5661  2.6505
 1025SOL     OW14533   2.697   3.563  17.583 -0.3384 -0.3023  0.1642
 1025SOL    HW114534   2.649   3.553  17.501  0.9087 -0.3133 -0.5692
 1025SOL    HW214535   2.682   3.657  17.594 -2.1779 -0.3831 -1.7649
 1026SOL     OW14536   3.009   0.544   3.570  0.9334  0.1648 -0.6492
 1026SOL    HW114537   3.057   0.464   3.552  2.6387  1.2439 -0.9116
 1026SOL    HW214538   3.078   0.610   3.571 -0.7138  1.8998 -1.5462
 1027SOL     OW14539   2.461   0.700   5.752 -0.0699  0.1562 -0.0837
 1027SOL    HW114540   2.461   0.782   5.802  1.8211 -0.9621  1.7494
 1027SOL    HW214541   2.510   0.633   5.800  0.6438 -0.0743 -1.1528
 1028SOL     OW14542   4.113   1.885  17.143  0.0054 -0.6653  0.0721
 1028SOL    HW114543   4.104   1.973  17.105 -3.7820 -1.9328 -2.0399
 1028SOL    HW214544   4.090   1.830  17.068 -0.2541  0.2985 -0.5669
 1029SOL     OW14545   3.800   4.584   5.331  0.1048 -0.0174 -0.1514
 1029SOL    HW114546   3.859   4.654   5.302 -0.7267  0.9013  0.3900
 1029SOL    HW214547   3.856   4.507   5.326 -2.0580 -1.6010 -0.1124
 1030SOL     OW14548   1.178   3.986   6.856  0.0984 -0.0084  0.5798
 1030SOL    HW114549   1.110   4.004   6.791  3.0152  3.7723 -1.4092
 1030SOL    HW214550   1.174   4.057   6.921 -2.2963  0.4880 -0.1067
 1031SOL     OW14551   4.005   4.124   5.539  0.1861 -0.0460  0.2150
 1031SOL    HW114552   3.912   4.140   5.523  0.5749  2.3310  0.4069
 1031SOL    HW214553   3.999   4.071   5.618 -0.2147  0.5972  0.6116
 1032SOL     OW14554   1.590   4.592   5.894  0.2224 -0.8205  0.5739
 1032SOL    HW114555   1.528   4.627   5.830  3.9716 -1.1913 -3.2185
 1032SOL    HW214556   1.552   4.510   5.926  1.6182 -1.2938  1.0275
 1033SOL     OW14557   3.940   3.521   5.316  0.2308  0.2809  0.7585
 1033SOL    HW114558   3.912   3.612   5.325  0.1326  0.3737 -0.4294
 1033SOL    HW214559   3.860   3.470   5.328 -0.5477  0.8000 -2.2646
 1034SOL     OW14560   2.463   4.159   1.423 -0.7757  0.0144  0.1993
 1034SOL    HW114561   2.449   4.076   1.468 -1.0696  0.4021  0.8132
 1034SOL    HW214562   2.479   4.138   1.331 -0.2296  2.2441 -0.2079
 1035SOL     OW14563   4.011   1.263   7.958 -0.4794  0.1673 -0.5025
 1035SOL    HW114564   3.955   1.188   7.937 -0.8065  0.4389 -0.5826
 1035SOL    HW214565   4.017   1.270   8.053  2.7899 -0.9712 -0.6189
 1036SOL     OW14566   2.161   2.174   4.346  0.0276 -0.0247  0.4321
 1036SOL    HW114567   2.256   2.174   4.358 -0.1144  0.2148  1.5593
 1036SOL    HW214568   2.131   2.167   4.437 -0.1192 -1.9564  0.2470
 1037SOL     OW14569   0.596   0.546   3.105 -0.0467 -0.5211 -0.0124
 1037SOL    HW114570   0.642   0.466   3.080 -0.9783 -1.2580  0.6449
 1037SOL    HW214571   0.558   0.584   3.026 -3.1357  1.7176  2.5369
 1038SOL     OW14572   0.518   3.773   3.231 -0.2004 -0.2743  0.2847
 1038SOL    HW114573   0.514   3.741   3.141  1.3180  1.2091 -0.3115
 1038SOL    HW214574   0.611   3.794   3.230 -0.1007 -0.7148 -0.2360
 1039SOL     OW14575   0.597   0.936  12.001  0.2205  0.3738 -0.1318
 1039SOL    HW114576   0.615   0.843  11.988 -0.1209  0.5704 -2.0977
 1039SOL    HW214577   0.681   0.969  12.032 -0.5753 -0.2443  2.6040
 1040SOL     OW14578   3.223   2.601   6.931 -0.3117 -0.4321  0.0292
 1040SOL    HW114579   3.178   2.559   6.858  0.7041 -0.0947 -0.7894
 1040SOL    HW214580   3.315   2.586   6.907  0.6649  3.5859  1.3901
 1041SOL     OW14581   1.257   2.045  13.156 -0.0796  0.2265  0.0319
 1041SOL    HW114582   1.249   2.056  13.251 -1.3132  1.3820 -0.1998
 1041SOL    HW214583   1.190   2.101  13.117 -1.4133 -0.6502  1.0981
 1042SOL     OW14584   0.104   2.991   5.043  0.2559  0.0037  0.4238
 1042SOL    HW114585   0.164   2.988   5.118  0.0540  2.5238  0.6765
 1042SOL    HW214586   0.018   3.007   5.084  0.0266  0.7395 -0.3579
 1043SOL     OW14587   1.289   1.747  10.278 -0.3549  0.2005 -0.6780
 1043SOL    HW114588   1.286   1.788  10.364  1.4895  1.1533 -1.0742
 1043SOL    HW214589   1.314   1.660  10.306 -1.8584 -0.4765 -1.4310
 1044SOL     OW14590   3.378   2.394   3.292 -0.1328  0.5402 -0.2045
 1044SOL    HW114591   3.469   2.411   3.317 -0.9487  1.4284  2.2074
 1044SOL    HW214592   3.400   2.341   3.216  0.2942 -0.0313  0.3173
 1045SOL     OW14593   0.768   0.043   1.443  0.0771  0.1174  0.1319
 1045SOL    HW114594   0.737   0.093   1.519 -0.5350  1.3739 -0.9530
 1045SOL    HW214595   0.706   0.071   1.376  3.2660  1.3685 -2.2513
 1046SOL     OW14596   3.687   4.642   7.018 -0.1406  0.6816  0.4925
 1046SOL    HW114597   3.779   4.616   7.011 -0.5544 -0.8976  1.0603
 1046SOL    HW214598   3.664   4.570   7.076  1.6140  0.2058  0.5978
 1047SOL     OW14599   2.852   4.422  12.676  0.0520 -0.1392  0.1550
 1047SOL    HW114600   2.813   4.343  12.638  0.8976  0.1881 -1.3898
 1047SOL    HW214601   2.808   4.485  12.620 -1.0146 -1.5755 -0.6311
 1048SOL     OW14602   4.197   4.481   6.862  0.7033 -0.4397 -0.3436
 1048SOL    HW114603   4.182   4.410   6.799 -0.4195  0.6635 -1.3134
 1048SOL    HW214604   4.107   4.509   6.876  0.5062 -0.4306 -1.6429
 1049SOL     OW14605   3.277   2.148   0.472 -0.3825 -0.1593 -0.0212
 1049SOL    HW114606   3.286   2.215   0.539 -1.3458  0.1298 -0.1934
 1049SOL    HW214607   3.370   2.127   0.460 -0.7988 -0.6000 -2.4621
 1050SOL     OW14608   1.388   4.640   8.697 -0.0150  0.0508 -0.1074
 1050SOL    HW114609   1.343   4.570   8.743 -1.0944  0.1093 -1.0875
 1050SOL    HW214610   1.381   4.720   8.748 -1.7795  0.5089 -1.0824
 1051SOL     OW14611   1.880   2.172   7.034  0.4031 -0.4080 -0.4173
 1051SOL    HW114612   1.909   2.239   6.971  1.4726 -1.2551 -0.8221
 1051SOL    HW214613   1.956   2.131   7.075  1.5225  0.8189 -1.2342
 1052SOL     OW14614   3.841   3.785   8.531  0.0450 -0.5028  0.0657
 1052SOL    HW114615   3.826   3.853   8.466  0.2778 -1.1204 -0.6407
 1052SOL    HW214616   3.764   3.797   8.587  0.3597  1.4068  0.0893
 1053SOL     OW14617   0.400   1.829  17.172  0.0689  0.0396 -0.3271
 1053SOL    HW114618   0.341   1.754  17.172 -0.2810  0.3043  1.7663
 1053SOL    HW214619   0.364   1.866  17.092 -0.9535  0.2530  0.2391
 1054SOL     OW14620   3.418   3.712   2.679  0.3456  0.4703 -0.0488
 1054SOL    HW114621   3.511   3.716   2.656  0.8988 -0.1037  2.1384
 1054SOL    HW214622   3.417   3.681   2.769  1.2284  0.0625 -0.1814
 1055SOL     OW14623   2.727   3.376   8.532  0.0353 -0.0415  0.0797
 1055SOL    HW114624   2.677   3.331   8.600  1.3578 -1.0685  0.3828
 1055SOL    HW214625   2.662   3.369   8.462 -0.0613 -1.6569  0.3193
 1056SOL     OW14626   4.413   2.896   9.700  0.0248 -0.2129  0.0383
 1056SOL    HW114627   4.365   2.978   9.688 -1.1630 -0.7336  1.2488
 1056SOL    HW214628   4.366   2.845   9.766 -3.6604  1.0244 -1.6524
 1057SOL     OW14629   1.911   2.328   7.607 -0.0761  0.4666 -0.2525
 1057SOL    HW114630   1.893   2.266   7.678  2.3062  1.1736  0.9989
 1057SOL    HW214631   1.818   2.340   7.589 -0.2161  1.2142  0.9481
 1058SOL     OW14632   2.346   4.196   3.960  0.1901  0.4520  0.4538
 1058SOL    HW114633   2.299   4.116   3.935  3.5719 -1.1333 -0.8588
 1058SOL    HW214634   2.315   4.199   4.050 -1.7690 -0.8245 -0.1816
 1059SOL     OW14635   3.694   4.260   7.749  0.6372  0.4526  0.1489
 1059SOL    HW114636   3.774   4.208   7.743  1.4563  1.8009 -0.4511
 1059SOL    HW214637   3.729   4.343   7.719  0.5571  0.5520  0.3276
 1060SOL     OW14638   1.314   1.145   4.234 -0.4844  0.0655 -0.8904
 1060SOL    HW114639   1.402   1.132   4.200 -1.0546 -1.3765 -1.7823
 1060SOL    HW214640   1.265   1.099   4.166  0.5557  0.6308 -2.0241
 1061SOL     OW14641   4.424   1.617   6.874  0.0102 -0.0170  0.4205
 1061SOL    HW114642   4.370   1.694   6.854  0.1906 -0.3313 -1.2945
 1061SOL    HW214643   4.386   1.551   6.817  2.4798 -0.7159 -0.4031
 1062SOL     OW14644   1.706   4.633   3.794  0.2005  0.0602  0.3187
 1062SOL    HW114645   1.724   4.603   3.884 -1.5489  2.0031  1.3165
 1062SOL    HW214646   1.705   4.549   3.749 -0.8899 -0.1038  0.6442
 1063SOL     OW14647   2.910   3.183   1.497 -0.0643  0.0041 -0.2342
 1063SOL    HW114648   2.921   3.113   1.432 -4.6309 -0.6100 -0.3440
 1063SOL    HW214649   2.876   3.130   1.570 -3.3926  1.4178 -0.7478
 1064SOL     OW14650   3.517   1.441   6.716  0.2323 -0.3474 -0.3341
 1064SOL    HW114651   3.512   1.438   6.621 -1.4604 -3.3541 -0.1512
 1064SOL    HW214652   3.562   1.359   6.737 -0.2037  0.0719  2.2688
 1065SOL     OW14653   1.296   0.637   2.993  0.3760 -0.7759 -0.3629
 1065SOL    HW114654   1.264   0.583   2.921 -0.9586 -0.6561  0.1497
 1065SOL    HW214655   1.326   0.575   3.059 -1.2548  0.3405  1.4179
 1066SOL     OW14656   2.867   2.364   4.020  0.0903 -0.5687 -0.1944
 1066SOL    HW114657   2.777   2.375   3.987  0.2681 -0.8812 -0.7815
 1066SOL    HW214658   2.854   2.306   4.094  0.6008 -1.5849 -0.9063
 1067SOL     OW14659   1.627   2.332   3.653  0.1435 -0.4525  0.8519
 1067SOL    HW114660   1.541   2.361   3.622  0.5806  1.3864  1.3608
 1067SOL    HW214661   1.644   2.280   3.574  1.1443  0.1935  0.6441
 1068SOL     OW14662   0.119   2.017  11.921  0.1538 -0.2548 -0.0334
 1068SOL    HW114663   0.063   2.090  11.893 -1.4526 -1.3055  0.4564
 1068SOL    HW214664   0.142   1.990  11.833 -0.3687  0.3615 -0.3626
 1069SOL     OW14665   2.852   0.875  11.317  0.4705 -0.1194 -0.1659
 1069SOL    HW114666   2.798   0.825  11.256  0.2132  0.5885 -0.5147
 1069SOL    HW214667   2.935   0.843  11.283  0.3414  1.9109 -2.4285
 1070SOL     OW14668   1.091   1.009  10.092 -0.3815  0.1925  0.0952
 1070SOL    HW114669   1.137   1.040  10.170  2.9337 -0.0275 -1.7598
 1070SOL    HW214670   1.005   0.978  10.120  0.4123 -2.9980 -0.9672
 1071SOL     OW14671   0.566   2.261   0.608  0.2659  0.0498 -0.4832
 1071SOL    HW114672   0.633   2.196   0.585 -0.2438 -0.2368 -1.1378
 1071SOL    HW214673   0.613   2.344   0.599  0.2839 -0.0450 -1.2673
 1072SOL     OW14674   3.427   2.395   7.712 -0.1726 -1.1815 -0.1876
 1072SOL    HW114675   3.420   2.314   7.762  0.3116  0.5876  2.8128
 1072SOL    HW214676   3.423   2.458   7.785  0.7079 -1.2456 -0.0826
 1073SOL     OW14677   1.228   1.742   5.647 -0.7416  0.4605 -0.1120
 1073SOL    HW114678   1.197   1.731   5.557  1.3661 -0.7800 -0.6874
 1073SOL    HW214679   1.285   1.666   5.660  0.0562  1.0734 -0.1112
 1074SOL     OW14680   3.960   4.523   2.486  0.1614  0.2041  0.0513
 1074SOL    HW114681   4.020   4.465   2.439  1.8754  1.4203  0.7587
 1074SOL    HW214682   3.887   4.462   2.500  0.7563 -0.5573 -0.1902
 1075SOL     OW14683   4.116   2.802  10.417 -0.5426  0.0243 -0.0333
 1075SOL    HW114684   4.100   2.764  10.331  0.7582 -0.8965  0.1393
 1075SOL    HW214685   4.040   2.860  10.412  0.2118  0.6483 -3.8305
 1076SOL     OW14686   3.553   4.413   7.968 -0.5516 -0.0182  0.5447
 1076SOL    HW114687   3.583   4.460   8.046  0.1265 -3.0049  2.0887
 1076SOL    HW214688   3.630   4.417   7.910  0.5644 -0.4915  1.9944
 1077SOL     OW14689   1.497   1.344  17.022 -1.3068 -0.7464  0.0953
 1077SOL    HW114690   1.518   1.253  17.044  0.8793 -0.4318 -0.7192
 1077SOL    HW214691   1.556   1.373  16.952  0.2163  2.0238  2.5601
 1078SOL     OW14692   0.484   1.618   5.155  0.4426 -0.5444 -0.6793
 1078SOL    HW114693   0.430   1.603   5.078 -1.2997  1.3712  0.1716
 1078SOL    HW214694   0.553   1.672   5.115  1.4393  0.4449  2.3675
 1079SOL     OW14695   4.462   1.818  12.339  0.0847 -0.5831 -0.0194
 1079SOL    HW114696   4.519   1.749  12.304  0.8777 -1.1833  2.4487
 1079SOL    HW214697   4.466   1.791  12.431  1.1504 -0.1987  0.0443
 1080SOL     OW14698   0.487   1.957  13.266 -0.4756 -0.2334  0.3653
 1080SOL    HW114699   0.546   1.899  13.219  0.6710  0.7419  0.6117
 1080SOL    HW214700   0.400   1.927  13.238  0.2801 -2.3022  0.2126
 1081SOL     OW14701   4.340   1.718  16.541 -0.0318 -0.1616 -0.0497
 1081SOL    HW114702   4.340   1.659  16.617 -0.9922 -0.1485 -0.0484
 1081SOL    HW214703   4.370   1.799  16.582 -1.9459  1.7134 -2.3845
 1082SOL     OW14704   4.227   1.929  12.499  0.0647 -0.0248  0.3387
 1082SOL    HW114705   4.186   1.854  12.543 -0.5880  0.0586 -0.1298
 1082SOL    HW214706   4.260   1.892  12.417 -1.7458  1.9009 -1.2820
 1083SOL     OW14707   0.986   3.390   6.147  0.1141 -0.0476 -0.1875
 1083SOL    HW114708   0.955   3.304   6.118 -1.8697  1.2378 -1.9390
 1083SOL    HW214709   0.899   3.430   6.155 -0.4413 -1.2757  0.0390
 1084SOL     OW14710   4.665   4.140   8.427 -0.3149 -0.3549 -0.0317
 1084SOL    HW114711   4.596   4.190   8.470 -0.9042 -2.8118  1.8863
 1084SOL    HW214712   4.634   4.049   8.419 -2.8045  0.3923  1.3042
 1085SOL     OW14713   3.477   0.267  16.419  0.9848 -0.0498 -0.4279
 1085SOL    HW114714   3.526   0.240  16.496 -0.5857 -1.7818 -0.0494
 1085SOL    HW214715   3.439   0.353  16.438 -0.8495 -0.7300 -1.0530
 1086SOL     OW14716   3.425   3.707  16.120  0.3755  0.4957 -0.3241
 1086SOL    HW114717   3.482   3.660  16.181 -0.6584 -0.5187 -0.1464
 1086SOL    HW214718   3.418   3.636  16.057  0.7418  0.6404 -0.5324
 1087SOL     OW14719   2.576   1.068  11.713 -0.2054 -0.3605 -0.5815
 1087SOL    HW114720   2.628   1.013  11.655  1.3256 -1.3537  1.7532
 1087SOL    HW214721   2.503   1.088  11.654 -0.9422 -1.6835 -0.1159
 1088SOL     OW14722   4.610   3.883   3.329 -0.1450 -0.2496 -0.0809
 1088SOL    HW114723   4.649   3.855   3.247  0.2857  1.8712 -0.5979
 1088SOL    HW214724   4.532   3.925   3.294  1.6437  1.8751 -1.5331
 1089SOL     OW14725   0.344   3.691  13.524 -0.0295  0.3218 -0.1112
 1089SOL    HW114726   0.263   3.697  13.473 -1.2600  2.2968  2.1065
 1089SOL    HW214727   0.320   3.754  13.592  3.0468  1.5319 -0.1179
 1090SOL     OW14728   1.991   2.804   3.665  0.8606  0.7012  0.3151
 1090SOL    HW114729   2.000   2.754   3.747  2.6281  0.1294 -0.2279
 1090SOL    HW214730   1.927   2.867   3.697 -0.3493 -0.5422  0.3727
 1091SOL     OW14731   4.568   0.508   2.563 -0.4559  0.5164 -0.9710
 1091SOL    HW114732   4.609   0.454   2.495  1.0245  2.2892 -1.4914
 1091SOL    HW214733   4.481   0.468   2.573 -0.6498  1.7177  1.9998
 1092SOL     OW14734   3.871   3.115   8.672 -0.0200 -0.0451 -0.3070
 1092SOL    HW114735   3.849   3.024   8.691  0.2170  0.1976  1.1463
 1092SOL    HW214736   3.853   3.162   8.754  0.0224 -1.2691  0.4063
 1093SOL     OW14737   2.505   3.540   8.162 -0.1516  0.7802  0.1636
 1093SOL    HW114738   2.410   3.529   8.157  0.0470  0.0505 -2.0549
 1093SOL    HW214739   2.529   3.589   8.083 -0.2510  0.1680 -0.2479
 1094SOL     OW14740   3.918   2.823   2.617 -0.5143  0.2137  0.2682
 1094SOL    HW114741   3.830   2.851   2.644 -1.2826 -2.2832  0.3913
 1094SOL    HW214742   3.972   2.850   2.691  0.8023  1.4804 -1.1675
 1095SOL     OW14743   2.055   3.752   7.780 -0.0808  0.0437 -0.0737
 1095SOL    HW114744   2.069   3.672   7.730  1.6175  0.4752 -0.2859
 1095SOL    HW214745   2.021   3.798   7.703  1.3162  0.8949 -0.1940
 1096SOL     OW14746   0.466   2.981   9.613  0.1351  0.1834 -0.0025
 1096SOL    HW114747   0.462   2.889   9.636  2.1244  0.5885  1.9747
 1096SOL    HW214748   0.460   2.984   9.518  0.9425  0.2424 -0.0499
 1097SOL     OW14749   0.964   2.125  16.255 -0.8872 -0.0056  0.4960
 1097SOL    HW114750   0.927   2.085  16.177 -1.2202 -0.5718  0.9396
 1097SOL    HW214751   1.053   2.089  16.260 -0.3945  1.2597  0.8514
 1098SOL     OW14752   1.655   4.232  17.457  0.2522  0.1149 -0.0941
 1098SOL    HW114753   1.594   4.231  17.531  0.8929 -0.3523  0.4220
 1098SOL    HW214754   1.638   4.148  17.414 -4.3927  1.1872 -0.3830
 1099SOL     OW14755   2.876   3.423  12.505  0.0935 -0.5813 -0.0633
 1099SOL    HW114756   2.956   3.435  12.557 -0.0334  0.6929 -0.1521
 1099SOL    HW214757   2.831   3.379  12.577  1.3420  1.2110  1.8211
 1100SOL     OW14758   0.812   2.496   3.082 -0.4152 -0.1621 -0.4303
 1100SOL    HW114759   0.823   2.451   3.166 -0.9690 -0.2236 -0.3850
 1100SOL    HW214760   0.738   2.450   3.042  2.4029 -4.1773 -0.9618
 1101SOL     OW14761   1.147   2.334   6.265 -0.7154  1.0136 -0.1405
 1101SOL    HW114762   1.218   2.327   6.202 -0.7883  3.8240 -0.5025
 1101SOL    HW214763   1.162   2.424   6.294  3.2628  0.1741  0.4110
 1102SOL     OW14764   4.413   4.448   6.060  0.1604  0.0494  0.5330
 1102SOL    HW114765   4.350   4.400   6.006  1.6707 -2.6393  1.1021
 1102SOL    HW214766   4.357   4.501   6.116 -0.6198 -3.2735  2.9391
 1103SOL     OW14767   0.431   2.697   3.792  0.0834 -0.2240 -0.2523
 1103SOL    HW114768   0.362   2.651   3.744  2.2784 -2.4898 -1.2148
 1103SOL    HW214769   0.379   2.758   3.844  0.3712  0.4379 -0.7332
 1104SOL     OW14770   3.080   1.394   3.397  0.4944  0.2287  0.3898
 1104SOL    HW114771   3.040   1.426   3.316 -0.1120 -0.4076  0.4391
 1104SOL    HW214772   3.005   1.399   3.456  0.4658  0.8174  0.3051
 1105SOL     OW14773   4.015   2.861  10.153 -0.6714  0.5266 -0.2136
 1105SOL    HW114774   4.060   2.895  10.077 -1.3279  0.9359 -0.4156
 1105SOL    HW214775   3.972   2.789  10.107 -0.9887 -1.1737  2.7139
 1106SOL     OW14776   2.691   0.256   2.697  0.3297 -0.4880 -0.4824
 1106SOL    HW114777   2.777   0.263   2.656  1.3983 -1.9517  1.5339
 1106SOL    HW214778   2.662   0.348   2.695  1.2474 -0.1688  0.7894
 1107SOL     OW14779   1.427   3.850   6.783  0.1482 -0.4071 -0.1843
 1107SOL    HW114780   1.469   3.936   6.782 -0.3890 -0.1288  1.1673
 1107SOL    HW214781   1.382   3.855   6.867  3.1469  3.1975  1.1757
 1108SOL     OW14782   0.088   2.681   7.493  0.1902  0.1902 -0.1928
 1108SOL    HW114783   0.119   2.633   7.417 -2.9309  0.3099 -1.5313
 1108SOL    HW214784   4.722   2.657   7.495  0.5376 -1.2557 -2.6256
 1109SOL     OW14785   1.990   4.398   4.197 -0.2567 -0.2896 -0.0687
 1109SOL    HW114786   1.930   4.401   4.272 -0.4619 -1.7076 -0.1759
 1109SOL    HW214787   1.927   4.427   4.130  0.0420 -1.4118 -0.8215
 1110SOL     OW14788   2.694   3.181   3.255 -0.0320  0.0105  0.4595
 1110SOL    HW114789   2.683   3.268   3.294 -2.5261 -1.1337  2.3300
 1110SOL    HW214790   2.775   3.149   3.295 -1.1028 -0.7364  2.0370
 1111SOL     OW14791   2.592   3.206   8.104  0.4668 -0.1038  0.2622
 1111SOL    HW114792   2.615   3.133   8.046  0.6170  0.1641 -0.0148
 1111SOL    HW214793   2.564   3.273   8.043  1.0296  0.2651  0.4047
 1112SOL     OW14794   2.963   4.430  13.726  0.4389  0.1487  1.2204
 1112SOL    HW114795   3.008   4.475  13.655 -1.9772  0.7818  0.0823
 1112SOL    HW214796   2.887   4.397  13.677 -0.1389  3.2116  0.0495
 1113SOL     OW14797   0.536   0.520   6.494 -0.1444  0.8621  0.1716
 1113SOL    HW114798   0.489   0.495   6.415  1.7189  1.8285 -1.2290
 1113SOL    HW214799   0.608   0.562   6.448  0.2557  2.4895  2.2492
 1114SOL     OW14800   3.072   0.541   6.320  0.6437 -0.3944  0.0824
 1114SOL    HW114801   3.061   0.547   6.225  2.3807  0.7382 -0.0353
 1114SOL    HW214802   3.140   0.606   6.335 -1.0113  0.9421  1.8025
 1115SOL     OW14803   1.882   2.737  11.290  0.5073  0.0197  0.3139
 1115SOL    HW114804   1.914   2.827  11.278  2.4743 -0.5490  1.3693
 1115SOL    HW214805   1.870   2.732  11.385 -2.3957 -1.9949 -0.1425
 1116SOL     OW14806   3.707   3.120  13.949 -0.1265 -0.6487  0.2994
 1116SOL    HW114807   3.690   3.180  13.877  0.8342 -0.8497 -0.1022
 1116SOL    HW214808   3.642   3.053  13.928  1.2561 -1.4300 -1.5408
 1117SOL     OW14809   3.588   0.829   7.305  0.2131  0.4649  0.1900
 1117SOL    HW114810   3.637   0.907   7.334 -0.9061  1.1697  0.1787
 1117SOL    HW214811   3.657   0.772   7.272  1.1257  0.9145  1.3141
 1118SOL     OW14812   2.697   0.951   0.577 -0.3094  0.1618  0.1157
 1118SOL    HW114813   2.643   0.966   0.500  0.5361  0.7055 -0.3717
 1118SOL    HW214814   2.756   0.878   0.560 -1.8672 -0.5830 -2.0600
 1119SOL     OW14815   3.730   0.366   8.621  0.1873  0.1711  0.8077
 1119SOL    HW114816   3.717   0.364   8.715 -4.3048  1.0298  0.2029
 1119SOL    HW214817   3.825   0.367   8.608 -0.4741  0.6341 -4.0484
 1120SOL     OW14818   3.435   3.455  15.982 -0.1212  0.1193  0.2445
 1120SOL    HW114819   3.492   3.392  15.938  0.0835  1.0489 -0.8154
 1120SOL    HW214820   3.353   3.432  15.937  0.0294  2.6875 -1.3038
 1121SOL     OW14821   1.580   0.825   6.698  0.3217 -0.2465  0.1919
 1121SOL    HW114822   1.584   0.890   6.769  0.0955  0.7946 -0.7534
 1121SOL    HW214823   1.552   0.879   6.625  1.8215  0.2388 -0.0219
 1122SOL     OW14824   1.092   3.854  15.482  1.0499 -0.2753 -0.0687
 1122SOL    HW114825   1.000   3.855  15.506  1.1560  1.6653  0.2773
 1122SOL    HW214826   1.104   3.759  15.485 -1.1858 -0.4494  2.6057
 1123SOL     OW14827   2.930   3.733   3.351  0.2016  0.1580 -0.1989
 1123SOL    HW114828   2.957   3.824   3.337  0.6393  0.0237 -0.2284
 1123SOL    HW214829   2.847   3.731   3.302  0.3663 -0.8949 -0.4298
 1124SOL     OW14830   0.255   0.004   3.947 -0.0982 -0.7086 -0.2423
 1124SOL    HW114831   0.169   4.689   3.939 -0.1409 -0.7379  0.3520
 1124SOL    HW214832   0.232   0.095   3.963  0.5871 -0.7976  1.2855
 1125SOL     OW14833   0.564   4.413  17.184  0.5379  0.3560  0.4218
 1125SOL    HW114834   0.498   4.445  17.123 -1.6792 -2.3218  1.3870
 1125SOL    HW214835   0.536   4.321  17.188 -2.0509  1.0874 -0.9631
 1126SOL     OW14836   3.462   3.830   4.821  0.4223  0.4100  0.2043
 1126SOL    HW114837   3.535   3.858   4.876 -0.4811  0.3034  1.4516
 1126SOL    HW214838   3.497   3.814   4.733  0.3615  0.2163  0.2155
 1127SOL     OW14839   2.359   0.749  17.282 -0.2015  0.0285  0.2998
 1127SOL    HW114840   2.425   0.732  17.349  0.4672  2.9573  0.4049
 1127SOL    HW214841   2.389   0.822  17.228  1.7577 -0.9941  0.0019
 1128SOL     OW14842   2.797   0.527   4.081  0.2711 -0.0422 -0.4607
 1128SOL    HW114843   2.824   0.478   4.004  0.0767  1.8139 -1.7029
 1128SOL    HW214844   2.702   0.539   4.070  0.4188  2.2547  0.8880
 1129SOL     OW14845   4.715   0.753   5.477  0.4821 -0.3040  0.5220
 1129SOL    HW114846   0.022   0.672   5.439  0.1651 -0.1790 -0.0374
 1129SOL    HW214847   0.021   0.812   5.409 -0.6926  1.2979  1.3619
 1130SOL     OW14848   1.003   2.664  15.141  0.5607 -0.0763  0.0237
 1130SOL    HW114849   1.041   2.577  15.150  0.2491  0.1284  3.2491
 1130SOL    HW214850   0.967   2.671  15.052 -1.2418 -0.2879  0.7291
 1131SOL     OW14851   0.416   4.522   6.922 -0.1549  0.6091 -0.4712
 1131SOL    HW114852   0.426   4.464   6.847 -0.0248 -1.3447  1.0518
 1131SOL    HW214853   0.494   4.571   6.897 -0.0817 -0.8588 -3.1338
 1132SOL     OW14854   3.823   1.656   8.081  0.2974 -0.1128  0.1501
 1132SOL    HW114855   3.846   1.665   7.989 -0.1627  0.7982  0.1178
 1132SOL    HW214856   3.878   1.717   8.129  2.2044 -2.6619  1.1899
 1133SOL     OW14857   1.817   3.325  13.797  0.6634  0.5427 -0.1850
 1133SOL    HW114858   1.830   3.230  13.795 -1.5845  0.1999  1.5983
 1133SOL    HW214859   1.777   3.356  13.878 -1.6302 -0.9067 -0.7643
 1134SOL     OW14860   0.849   3.766   6.741  0.0229  0.2742 -0.0820
 1134SOL    HW114861   0.810   3.853   6.734  0.3563  0.0109 -4.7340
 1134SOL    HW214862   0.851   3.755   6.836 -0.0067  2.5853  0.1916
 1135SOL     OW14863   0.612   2.169  15.628 -0.4420 -0.2055  0.1662
 1135SOL    HW114864   0.585   2.200  15.541 -1.8578 -2.4359 -0.1871
 1135SOL    HW214865   0.706   2.156  15.625 -0.7790 -2.0736 -1.6885
 1136SOL     OW14866   1.739   1.087   4.179 -0.9002  0.3255  0.3358
 1136SOL    HW114867   1.776   1.034   4.109 -0.7910 -0.7860  1.2214
 1136SOL    HW214868   1.649   1.091   4.149 -1.1250  0.5511  1.0453
 1137SOL     OW14869   3.303   4.115   3.584  0.4088  0.4774 -0.3677
 1137SOL    HW114870   3.395   4.113   3.557  0.6480  1.0836  0.3959
 1137SOL    HW214871   3.291   4.031   3.628 -0.6906  0.7310 -0.1889
 1138SOL     OW14872   3.986   0.016   1.035 -0.2149  0.4734  0.0299
 1138SOL    HW114873   4.078   0.033   1.054 -0.6819  1.4003  1.4580
 1138SOL    HW214874   3.974   4.648   1.048 -0.7855  0.6619  0.9211
 1139SOL     OW14875   0.557   1.207   2.765  0.3106  0.4085 -0.7804
 1139SOL    HW114876   0.564   1.191   2.859 -3.6005  0.7187 -0.4479
 1139SOL    HW214877   0.551   1.302   2.766  1.4805  0.4828  0.2901
 1140SOL     OW14878   0.245   1.084   5.538  0.0525  0.1802  0.4808
 1140SOL    HW114879   0.322   1.027   5.538 -0.2101 -0.1755 -1.2728
 1140SOL    HW214880   0.288   1.168   5.551 -2.6757  2.2278 -3.3725
 1141SOL     OW14881   2.206   4.508  15.790 -0.1405 -0.2751  0.2314
 1141SOL    HW114882   2.199   4.601  15.810  1.6720 -0.4339  1.5386
 1141SOL    HW214883   2.213   4.470  15.878  0.1350  0.3993  0.4959
 1142SOL     OW14884   1.515   0.751   5.765 -0.6349  0.3670  0.1687
 1142SOL    HW114885   1.481   0.806   5.835  1.0644  0.9832  0.5153
 1142SOL    HW214886   1.607   0.776   5.756 -0.8249  1.6415  1.8048
 1143SOL     OW14887   3.656   4.652   4.191  0.2187  0.7543 -0.4735
 1143SOL    HW114888   3.596   4.590   4.232  0.6769 -1.1735 -2.7022
 1143SOL    HW214889   3.606   4.687   4.117 -1.0693  0.4433  0.2570
 1144SOL     OW14890   3.528   2.222  15.427  0.7318 -0.0013 -0.0078
 1144SOL    HW114891   3.495   2.168  15.355 -0.6845 -0.3743  0.9133
 1144SOL    HW214892   3.447   2.235  15.478  0.1544 -0.2248 -0.8762
 1145SOL     OW14893   1.700   4.723  16.151 -0.2937  0.1744 -0.2082
 1145SOL    HW114894   1.696   4.629  16.170 -2.0555  0.5125  1.0867
 1145SOL    HW214895   1.610   0.021  16.128  0.5391  2.1763 -1.3225
 1146SOL     OW14896   0.574   4.255   5.837  0.0950  0.3590 -0.0369
 1146SOL    HW114897   0.532   4.273   5.753  1.2481 -1.8258 -1.0946
 1146SOL    HW214898   0.644   4.318   5.821 -0.4291  0.2218 -2.9591
 1147SOL     OW14899   0.822   4.376   2.662  0.3120 -0.1948  0.0856
 1147SOL    HW114900   0.741   4.325   2.669 -0.5539  1.2021  0.2280
 1147SOL    HW214901   0.831   4.398   2.569 -3.4247 -0.2137 -0.2816
 1148SOL     OW14902   1.187   3.336   5.603 -0.8684 -0.1061  0.2960
 1148SOL    HW114903   1.146   3.260   5.644 -1.6621  0.2539  0.1891
 1148SOL    HW214904   1.281   3.330   5.620 -1.4673 -1.3226  3.1960
 1149SOL     OW14905   0.368   3.465  17.549  0.3923  0.0481  0.0625
 1149SOL    HW114906   0.453   3.422  17.550 -0.3284 -1.3528  1.2095
 1149SOL    HW214907   0.383   3.543  17.495 -1.1392 -0.4039 -1.0014
 1150SOL     OW14908   1.116   2.876   6.256 -0.6005 -1.1661 -0.2300
 1150SOL    HW114909   1.140   2.968   6.270 -1.3212 -1.0612  0.3002
 1150SOL    HW214910   1.199   2.837   6.227  0.4719 -0.8185  2.4259
 1151SOL     OW14911   3.072   4.627  16.189 -0.4775 -0.6257  0.0946
 1151SOL    HW114912   3.098   4.544  16.148  0.7329 -0.4563  0.5205
 1151SOL    HW214913   3.049   4.667  16.106  0.7810  0.0495  0.0784
 1152SOL     OW14914   2.168   1.404   0.172 -0.2074 -0.5180 -0.0145
 1152SOL    HW114915   2.156   1.441   0.259 -1.4703 -0.0760 -0.3718
 1152SOL    HW214916   2.229   1.464   0.129  0.2701 -0.2827  1.0046
 1153SOL     OW14917   4.402   3.514   7.018 -0.1468  0.2840 -0.1977
 1153SOL    HW114918   4.326   3.456   7.015  1.2539 -1.5930  0.3206
 1153SOL    HW214919   4.359   3.588   6.977  1.2828  0.5005 -1.3363
 1154SOL     OW14920   0.569   2.913  10.042  0.0697 -0.6653 -0.2910
 1154SOL    HW114921   0.641   2.882   9.988  1.4272  1.3451  0.3443
 1154SOL    HW214922   0.611   2.967  10.109 -2.9233 -0.2525  1.2475
 1155SOL     OW14923   2.621   2.448   6.555  0.1690  0.1237 -0.1384
 1155SOL    HW114924   2.677   2.417   6.626 -0.3401 -1.7107 -0.5299
 1155SOL    HW214925   2.536   2.404   6.562  0.9710 -2.0161 -3.3960
 1156SOL     OW14926   3.959   3.619   3.084 -0.1177 -0.2532 -0.0964
 1156SOL    HW114927   3.963   3.534   3.128  0.0474  0.8420  1.9711
 1156SOL    HW214928   3.891   3.597   3.020  0.0901 -0.0808 -0.3784
 1157SOL     OW14929   4.286   0.864   7.614 -0.5989 -0.4448  0.1979
 1157SOL    HW114930   4.221   0.829   7.553  0.0851  0.8602 -1.2530
 1157SOL    HW214931   4.324   0.926   7.552 -0.3948  0.4993  1.2678
 1158SOL     OW14932   3.448   0.507   7.522  0.0733 -0.2767 -0.5568
 1158SOL    HW114933   3.542   0.499   7.541 -0.1458  2.5294  1.8227
 1158SOL    HW214934   3.452   0.514   7.427  2.3468  1.1612 -0.3704
 1159SOL     OW14935   4.225   3.748   5.808  0.3837 -0.0922  0.3228
 1159SOL    HW114936   4.190   3.836   5.798 -0.1107 -0.2626  0.5893
 1159SOL    HW214937   4.144   3.706   5.836  0.2992  0.8035  1.4423
 1160SOL     OW14938   1.457   2.303   7.040  0.6109  0.2857 -0.4736
 1160SOL    HW114939   1.509   2.229   7.008  0.1173  0.4316 -1.6233
 1160SOL    HW214940   1.466   2.370   6.973 -1.8538  1.8700  0.8178
 1161SOL     OW14941   4.179   3.810   4.681 -0.5402  0.3330  0.3712
 1161SOL    HW114942   4.211   3.818   4.591  1.4668 -1.0509  0.9325
 1161SOL    HW214943   4.245   3.745   4.705 -3.4673 -2.3905  1.0218
 1162SOL     OW14944   0.019   1.809  12.523 -0.0343  0.4617  0.7944
 1162SOL    HW114945   4.660   1.776  12.552 -1.2145  2.9691  0.1609
 1162SOL    HW214946   0.043   1.868  12.593  1.0321  0.4485  0.4321
 1163SOL     OW14947   1.044   0.722   3.697 -0.0950 -0.2700  0.4657
 1163SOL    HW114948   1.112   0.729   3.764 -1.2977 -0.2332  1.6903
 1163SOL    HW214949   1.089   0.734   3.613 -0.6945 -0.5164  0.1136
 1164SOL     OW14950   0.792   2.317   2.482  0.7002 -0.5945 -0.2291
 1164SOL    HW114951   0.847   2.240   2.491  0.4447 -0.8497 -0.8739
 1164SOL    HW214952   0.706   2.279   2.498  0.3362  0.3979  0.2298
 1165SOL     OW14953   3.195   3.608   1.374 -0.4673 -0.2433 -0.3025
 1165SOL    HW114954   3.160   3.519   1.385  0.9032 -0.9046 -1.2805
 1165SOL    HW214955   3.288   3.586   1.365  0.1333  1.7294  0.9957
 1166SOL     OW14956   3.417   3.697   9.264 -0.1148 -0.0363 -0.4675
 1166SOL    HW114957   3.473   3.656   9.331 -0.7839 -0.2221 -0.0214
 1166SOL    HW214958   3.347   3.746   9.307 -0.6699 -2.5334  1.4992
 1167SOL     OW14959   1.810   2.380   4.674 -0.2572 -0.9575 -0.6297
 1167SOL    HW114960   1.828   2.378   4.768 -0.4687 -0.3216 -0.5771
 1167SOL    HW214961   1.719   2.409   4.676  0.2413  0.5829 -0.4461
 1168SOL     OW14962   0.113   2.925   4.339 -0.1402  0.1098 -0.0966
 1168SOL    HW114963   0.052   2.863   4.298  0.0713  1.1747 -2.0173
 1168SOL    HW214964   0.078   2.920   4.428 -1.0500  0.0164 -0.4530
 1169SOL     OW14965   2.554   0.061  13.691  0.4704 -0.1004  0.1912
 1169SOL    HW114966   2.468   0.092  13.720  0.0215  1.9287 -3.3056
 1169SOL    HW214967   2.583   0.136  13.639  0.8097 -1.9870 -2.2835
 1170SOL     OW14968   0.541   1.672   9.320  0.1658 -0.3762  0.1964
 1170SOL    HW114969   0.587   1.723   9.385 -0.2503  0.7336 -0.3835
 1170SOL    HW214970   0.456   1.714   9.308  0.6339  0.4564 -0.1405
 1171SOL     OW14971   4.608   2.977  15.555 -0.5823  0.1147  1.1134
 1171SOL    HW114972   4.567   2.891  15.562  0.8370 -0.7400 -1.0287
 1171SOL    HW214973   4.588   3.015  15.641  1.0455  1.4050  0.9160
 1172SOL     OW14974   1.773   2.214  14.653  0.4474  0.5290 -0.9311
 1172SOL    HW114975   1.714   2.163  14.709  1.7339  1.0193  0.9062
 1172SOL    HW214976   1.856   2.211  14.701  0.1590  0.1501 -0.4570
 1173SOL     OW14977   2.743   1.382   7.824 -0.7394  0.0326  0.6631
 1173SOL    HW114978   2.751   1.336   7.908 -2.3819  0.4597  1.0301
 1173SOL    HW214979   2.835   1.403   7.806 -1.2499  1.7235  0.0955
 1174SOL     OW14980   3.339   1.382   4.189  0.0522 -0.6420 -0.3789
 1174SOL    HW114981   3.374   1.470   4.203  1.4016 -1.0725 -0.9626
 1174SOL    HW214982   3.260   1.404   4.140 -0.1326 -0.9924 -0.2407
 1175SOL     OW14983   0.769   0.700   2.770 -0.1713  0.0939  0.1104
 1175SOL    HW114984   0.859   0.709   2.738  0.2205  1.2127  1.5602
 1175SOL    HW214985   0.729   0.646   2.701 -1.0117  1.6262 -0.6044
 1176SOL     OW14986   1.398   0.185   6.502  0.3885  0.0832 -0.2876
 1176SOL    HW114987   1.405   0.147   6.414  1.4460 -0.0270 -0.1491
 1176SOL    HW214988   1.340   0.121   6.544 -0.6964  2.3117  1.6155
 1177SOL     OW14989   4.675   4.245   3.926  0.4659  0.0843  0.3087
 1177SOL    HW114990   4.637   4.222   3.841  1.9871  0.9459 -0.6285
 1177SOL    HW214991   0.029   4.294   3.903  0.6084 -0.7807 -1.0347
 1178SOL     OW14992   0.644   2.120   5.065 -0.8771  0.4846  0.3274
 1178SOL    HW114993   0.607   2.203   5.094  0.4799  0.7004  1.4250
 1178SOL    HW214994   0.684   2.152   4.984 -0.4484 -1.7754 -0.3563
 1179SOL     OW14995   0.748   1.960   6.817  0.2641  0.3007 -0.0967
 1179SOL    HW114996   0.724   1.868   6.827 -0.3405  0.3301 -1.2979
 1179SOL    HW214997   0.672   1.982   6.763 -0.0603 -2.1518 -0.6679
 1180SOL     OW14998   0.257   2.217   4.278 -0.1754 -0.4802  0.5377
 1180SOL    HW114999   0.280   2.133   4.317  0.8094  0.5537  2.2244
 1180SOL    HW215000   0.168   2.198   4.250 -0.3707  0.1474  0.7398
 1181SOL     OW15001   1.518   4.441  14.488  0.0829  0.0844 -0.2720
 1181SOL    HW115002   1.525   4.447  14.583  0.1857 -0.9055 -0.2264
 1181SOL    HW215003   1.555   4.353  14.480 -0.2108 -0.0813  0.1929
 1182SOL     OW15004   1.074   0.241   4.082  0.0798  0.3952 -0.3002
 1182SOL    HW115005   1.042   0.327   4.107  1.5741  1.3044 -1.5352
 1182SOL    HW215006   0.996   0.192   4.107 -0.7656  1.6676 -0.4419
 1183SOL     OW15007   4.050   0.675   0.474 -0.1721  0.3334  0.3448
 1183SOL    HW115008   4.139   0.660   0.444 -0.2947  1.8405 -0.7244
 1183SOL    HW215009   4.016   0.747   0.422 -1.3174 -0.5986 -0.2090
 1184SOL     OW15010   1.408   0.974   6.946 -0.2670 -0.0919 -0.5986
 1184SOL    HW115011   1.415   1.066   6.970  0.5148 -0.7217  1.6136
 1184SOL    HW215012   1.427   0.919   7.022 -3.5260  0.1631  0.3951
 1185SOL     OW15013   1.582   2.944   1.282 -0.3969  0.2827 -0.2994
 1185SOL    HW115014   1.614   2.887   1.213 -0.4162  0.4363 -0.4366
 1185SOL    HW215015   1.505   2.897   1.313 -0.0310  0.9102  1.5795
 1186SOL     OW15016   3.727   3.142   6.232  0.2245  0.8300  0.0136
 1186SOL    HW115017   3.791   3.123   6.163  0.2333  1.5804 -0.1760
 1186SOL    HW215018   3.728   3.062   6.285  0.1914  0.2425 -0.8616
 1187SOL     OW15019   2.748   4.519  15.985 -0.1783 -0.3407  0.2406
 1187SOL    HW115020   2.716   4.513  15.895 -0.2556 -0.7137  0.2934
 1187SOL    HW215021   2.827   4.573  15.981 -1.4851  1.7025  1.6101
 1188SOL     OW15022   1.607   4.154   5.890  0.2282 -0.2198  0.2162
 1188SOL    HW115023   1.586   4.069   5.851 -1.3692  1.0394 -1.7133
 1188SOL    HW215024   1.703   4.159   5.883  0.2372 -2.1635 -1.1096
 1189SOL     OW15025   3.070   0.600   6.042  0.9932  0.2253 -0.3456
 1189SOL    HW115026   3.128   0.669   6.075  0.3371  1.7498 -2.3690
 1189SOL    HW215027   3.109   0.580   5.956  1.1891 -2.1618  0.3035
 1190SOL     OW15028   3.373   2.801   7.444  0.2156 -0.4544  0.1652
 1190SOL    HW115029   3.387   2.792   7.538  2.1079 -0.0850 -0.0827
 1190SOL    HW215030   3.432   2.738   7.402 -0.7490 -1.3995  0.2259
 1191SOL     OW15031   3.020   2.747  13.691 -0.1259  0.1489 -0.1314
 1191SOL    HW115032   2.935   2.705  13.679 -0.5054  0.5401  1.1982
 1191SOL    HW215033   3.042   2.791  13.609  2.0328 -0.0770  0.3057
 1192SOL     OW15034   4.680   4.654   2.703  0.5248 -0.3987 -0.0165
 1192SOL    HW115035   4.592   4.689   2.694  1.0493  0.6694 -0.9709
 1192SOL    HW215036   4.694   4.638   2.610 -1.5138 -1.3142 -0.1641
 1193SOL     OW15037   1.251   1.508   5.128  0.1962 -0.2018 -0.1542
 1193SOL    HW115038   1.228   1.489   5.037  1.9438  0.3393 -0.7158
 1193SOL    HW215039   1.173   1.470   5.168  0.8782 -0.1929  1.1727
 1194SOL     OW15040   3.441   0.614   7.213 -0.0144  0.3124  0.1085
 1194SOL    HW115041   3.452   0.699   7.254  0.1097  1.1249 -1.5967
 1194SOL    HW215042   3.444   0.638   7.120 -0.5958  2.2460  0.5894
 1195SOL     OW15043   4.102   2.629   7.856  0.0647 -0.3935  0.3092
 1195SOL    HW115044   4.128   2.687   7.929  0.8325  0.8340 -0.9334
 1195SOL    HW215045   4.015   2.611   7.892  0.7435 -0.7371  1.8167
 1196SOL     OW15046   3.351   0.877  15.392 -0.1988 -0.5359  0.2096
 1196SOL    HW115047   3.347   0.793  15.439 -0.9692 -0.5735  0.0689
 1196SOL    HW215048   3.297   0.932  15.448 -0.4593  0.8330 -1.3874
 1197SOL     OW15049   1.782   2.550   4.310  0.2629 -0.4531  0.7000
 1197SOL    HW115050   1.711   2.487   4.304 -0.5497  0.5496 -0.1275
 1197SOL    HW215051   1.838   2.510   4.377 -0.2665 -0.3268  1.2116
 1198SOL     OW15052   4.201   3.720   1.557  0.5144 -0.6741  0.3669
 1198SOL    HW115053   4.196   3.699   1.464 -0.3617 -1.5626  0.6146
 1198SOL    HW215054   4.130   3.783   1.563  1.0515 -0.0289  0.0434
 1199SOL     OW15055   2.076   4.465  11.128 -0.3676 -0.4587  0.3638
 1199SOL    HW115056   2.110   4.409  11.059  2.8015  0.2182  1.3672
 1199SOL    HW215057   2.038   4.399  11.186 -0.7490  0.6766  1.3984
 1200SOL     OW15058   0.193   3.879  15.418 -0.1294 -0.6122 -0.0275
 1200SOL    HW115059   0.128   3.882  15.347 -1.3176  1.7534  1.1496
 1200SOL    HW215060   0.237   3.964  15.409 -0.1995 -0.5941 -0.2077
 1201SOL     OW15061   3.514   4.251   4.034 -0.3397  0.2363  0.9985
 1201SOL    HW115062   3.553   4.308   3.967  0.9206 -1.8623 -0.0778
 1201SOL    HW215063   3.511   4.313   4.106 -0.1611  2.3475 -0.7870
 1202SOL     OW15064   0.001   0.962   1.627 -0.0096  0.2216 -0.0150
 1202SOL    HW115065   0.066   0.977   1.559 -0.1886  0.1069 -0.2102
 1202SOL    HW215066   0.032   0.887   1.678 -3.2637 -1.6279 -0.7853
 1203SOL     OW15067   4.432   0.671   6.552 -0.2427  0.1127 -0.5299
 1203SOL    HW115068   4.504   0.667   6.614 -1.5999  0.9515  1.1111
 1203SOL    HW215069   4.368   0.608   6.585 -1.0925  2.4262  2.2469
 1204SOL     OW15070   1.050   3.210   9.756  0.4137 -0.6251  0.8293
 1204SOL    HW115071   0.973   3.181   9.805  0.6551 -1.1827  0.8820
 1204SOL    HW215072   1.072   3.127   9.712  0.3474 -0.4188  0.4080
 1205SOL     OW15073   4.398   1.248   4.125 -0.4084  0.3242 -0.6012
 1205SOL    HW115074   4.324   1.303   4.150  0.8643  2.2263 -0.9843
 1205SOL    HW215075   4.365   1.162   4.152 -0.7098  1.1422  1.6166
 1206SOL     OW15076   1.079   3.268   7.520 -0.5868 -0.1803 -0.0977
 1206SOL    HW115077   1.037   3.187   7.491 -0.9131 -1.2258  3.3261
 1206SOL    HW215078   1.172   3.265   7.498 -0.4328  3.8240 -0.0121
 1207SOL     OW15079   4.241   3.275   5.204 -0.0067 -0.0694  0.6496
 1207SOL    HW115080   4.210   3.363   5.183 -0.2042  0.0137  1.2837
 1207SOL    HW215081   4.300   3.295   5.277 -1.1142 -0.0961  1.5654
 1208SOL     OW15082   1.546   2.495   4.670 -0.0758 -0.0130  0.1338
 1208SOL    HW115083   1.541   2.420   4.610 -2.2400  0.5743 -0.4449
 1208SOL    HW215084   1.452   2.510   4.681  0.0588  0.7174  0.2403
 1209SOL     OW15085   4.497   1.821  12.910 -0.3040 -0.0297  0.2208
 1209SOL    HW115086   4.458   1.750  12.961 -0.6158  1.9873  2.7402
 1209SOL    HW215087   4.422   1.880  12.917 -1.5876 -1.4346 -1.4359
 1210SOL     OW15088   1.541   2.451   8.106 -0.4622 -0.0230 -0.0193
 1210SOL    HW115089   1.496   2.424   8.026 -1.5842  0.1083  0.5570
 1210SOL    HW215090   1.632   2.431   8.088  0.6543  3.0390  2.1310
 1211SOL     OW15091   1.893   3.727   1.450  0.1883  0.3216 -0.2427
 1211SOL    HW115092   1.860   3.801   1.501  0.0906  0.6098 -0.7211
 1211SOL    HW215093   1.921   3.668   1.520  0.3810 -0.4649 -0.9857
 1212SOL     OW15094   1.911   0.821   8.141 -0.1403  0.1006 -0.5493
 1212SOL    HW115095   1.985   0.861   8.096 -0.0459  0.6562  0.0823
 1212SOL    HW215096   1.913   0.858   8.230 -0.9162  2.1996 -1.3889
 1213SOL     OW15097   3.625   0.415  16.832  0.0267 -0.1908 -0.3802
 1213SOL    HW115098   3.622   0.395  16.738 -0.4196  0.8785 -0.6059
 1213SOL    HW215099   3.535   0.401  16.861  0.1384 -2.0918 -0.9897
 1214SOL     OW15100   3.444   0.016   4.001  0.7542 -0.1637 -0.1732
 1214SOL    HW115101   3.473   0.099   3.964 -2.7944  0.2124 -2.1237
 1214SOL    HW215102   3.402   4.707   3.922  2.0596 -0.0604 -0.9087
 1215SOL     OW15103   0.097   1.524   4.514 -0.0860  0.2567  0.4261
 1215SOL    HW115104   0.014   1.500   4.473 -0.1862  1.1995  0.0933
 1215SOL    HW215105   0.094   1.474   4.595 -0.0702 -0.4410  0.0008
 1216SOL     OW15106   3.747   0.341   8.897  0.1679 -0.1487 -0.3215
 1216SOL    HW115107   3.669   0.298   8.932  0.2146  1.7886  2.1731
 1216SOL    HW215108   3.796   0.374   8.972  0.3518  1.5758 -1.1961
 1217SOL     OW15109   2.044   3.116   5.961 -0.4006  0.8752  0.2686
 1217SOL    HW115110   2.082   3.162   6.037 -0.2855 -1.1700  1.4526
 1217SOL    HW215111   2.056   3.025   5.990 -0.0995  1.4737  2.0093
 1218SOL     OW15112   3.865   3.520  14.717  0.7415 -0.1694  0.0575
 1218SOL    HW115113   3.830   3.432  14.730 -0.7981  0.7123  1.9380
 1218SOL    HW215114   3.935   3.511  14.653  1.3298  0.8101  0.5650
 1219SOL     OW15115   2.929   0.944  15.718  0.4702  0.1615  0.1719
 1219SOL    HW115116   2.839   0.953  15.688  0.3512 -1.7044 -0.0314
 1219SOL    HW215117   2.966   0.874  15.664 -0.0359  0.0350 -0.0113
 1220SOL     OW15118   0.123   0.123   9.637  0.0984 -0.3420 -0.0267
 1220SOL    HW115119   0.041   0.123   9.687  0.2638  1.3378  0.2480
 1220SOL    HW215120   0.149   0.038   9.671  0.4596 -0.6589 -1.0692
 1221SOL     OW15121   3.304   0.782   6.477  0.1805 -0.2132  0.5835
 1221SOL    HW115122   3.312   0.875   6.497  1.4424 -0.7876  2.6946
 1221SOL    HW215123   3.387   0.737   6.491 -0.4268 -1.4997  0.0905
 1222SOL     OW15124   4.067   0.585  15.769  0.2599  0.4899 -0.2283
 1222SOL    HW115125   4.037   0.592  15.678  2.1102 -1.2887 -0.9889
 1222SOL    HW215126   4.146   0.531  15.765  0.1585  0.3757 -0.7243
 1223SOL     OW15127   0.411   0.942   1.182 -0.8099 -0.8352  0.1837
 1223SOL    HW115128   0.491   0.890   1.194  0.9116  1.9683  0.9520
 1223SOL    HW215129   0.365   0.889   1.116 -0.8482  0.0955 -0.5316
 1224SOL     OW15130   4.290   0.231   5.842 -0.1641 -0.5641  0.1922
 1224SOL    HW115131   4.330   0.312   5.875 -0.0124 -0.5573 -0.0116
 1224SOL    HW215132   4.251   0.265   5.761  1.3606  1.0496  0.1362
 1225SOL     OW15133   3.714   0.768   5.689  0.1078  0.2328 -0.1768
 1225SOL    HW115134   3.675   0.728   5.768  0.9562  0.3879  0.3202
 1225SOL    HW215135   3.696   0.711   5.614 -0.9045 -1.7927  1.6038
 1226SOL     OW15136   1.693   1.418  16.507  0.2983 -0.9512  0.5937
 1226SOL    HW115137   1.658   1.414  16.418  1.0569 -1.3246  0.3103
 1226SOL    HW215138   1.771   1.473  16.503 -1.0781  0.9469 -0.3283
 1227SOL     OW15139   4.023   2.531  16.014 -0.5760  0.0387  0.3127
 1227SOL    HW115140   4.004   2.597  16.081 -1.1614 -1.6492  1.8186
 1227SOL    HW215141   3.977   2.453  16.045 -1.0667  0.5629  0.8908
 1228SOL     OW15142   3.706   4.025   2.747  0.0076 -0.4792  0.8072
 1228SOL    HW115143   3.724   3.962   2.678 -2.0627  0.8899 -0.9927
 1228SOL    HW215144   3.611   4.035   2.748  0.2083  1.8291 -0.7330
 1229SOL     OW15145   0.583   2.772   9.016  0.0384 -0.0786 -0.1278
 1229SOL    HW115146   0.606   2.752   9.106  2.1563 -2.1306 -1.1578
 1229SOL    HW215147   0.669   2.781   8.974 -0.2786  2.3739 -0.2652
 1230SOL     OW15148   3.097   3.950  10.149 -0.1539  0.0606  0.1110
 1230SOL    HW115149   3.104   3.856  10.133  1.2647 -0.0017  1.1232
 1230SOL    HW215150   3.049   3.968  10.069 -2.0318 -0.8614  1.0294
 1231SOL     OW15151   3.438   2.069   8.579  0.1229 -0.0292  0.5224
 1231SOL    HW115152   3.343   2.067   8.583  0.2018  0.7777  2.8725
 1231SOL    HW215153   3.449   2.058   8.484  1.7018 -3.9328  1.1535
 1232SOL     OW15154   2.943   2.117   2.885  0.0345 -0.1950 -0.3434
 1232SOL    HW115155   2.906   2.130   2.973 -0.7398 -1.4365 -0.4920
 1232SOL    HW215156   2.991   2.036   2.902  1.0057  0.3887 -0.3097
 1233SOL     OW15157   2.915   4.651   2.586 -0.0284 -0.4190 -0.2392
 1233SOL    HW115158   2.921   4.720   2.652 -0.2696  1.7568 -2.4868
 1233SOL    HW215159   2.860   4.583   2.625  0.5725 -0.2785  0.8655
 1234SOL     OW15160   4.185   1.433  12.692 -0.1067  0.5487  0.5505
 1234SOL    HW115161   4.160   1.521  12.664 -1.6026 -0.6667 -1.9774
 1234SOL    HW215162   4.102   1.409  12.734 -0.4071 -2.3650 -1.6510
 1235SOL     OW15163   0.539   3.319   7.472 -0.9949  0.0644 -0.3803
 1235SOL    HW115164   0.471   3.340   7.407 -1.4906 -1.3327 -0.3331
 1235SOL    HW215165   0.619   3.360   7.440 -1.0286 -0.1500 -0.7473
 1236SOL     OW15166   2.187   0.470   4.272  0.0746 -0.0177  0.0023
 1236SOL    HW115167   2.099   0.495   4.301  0.0134  1.0408 -1.0769
 1236SOL    HW215168   2.157   0.415   4.199 -0.8611  0.0735  0.3213
 1237SOL     OW15169   2.417   1.816   7.303 -0.3340 -0.1072 -0.3480
 1237SOL    HW115170   2.396   1.723   7.294 -2.0983  0.3653 -1.1232
 1237SOL    HW215171   2.478   1.811   7.376  1.5993  0.4216 -1.9064
 1238SOL     OW15172   4.549   4.509   2.055 -0.0884 -0.1239  0.4007
 1238SOL    HW115173   4.562   4.603   2.061 -0.5934 -0.0195 -0.0739
 1238SOL    HW215174   4.610   4.467   2.115  2.9510  1.3712 -1.6970
 1239SOL     OW15175   0.886   2.990  14.329 -0.3148 -0.3789  0.2352
 1239SOL    HW115176   0.838   2.907  14.322 -3.5589  1.5808 -0.5872
 1239SOL    HW215177   0.961   2.966  14.385  0.9982 -2.1936 -2.3011
 1240SOL     OW15178   4.289   1.391  11.743  0.0336 -0.5195 -0.4935
 1240SOL    HW115179   4.352   1.379  11.814 -0.6849 -0.9858  0.0763
 1240SOL    HW215180   4.333   1.341  11.675  0.6084 -0.0156 -0.4905
 1241SOL     OW15181   2.131   3.646   6.186 -0.2312  0.0664  0.1928
 1241SOL    HW115182   2.091   3.563   6.213 -0.0048 -0.5104 -1.2383
 1241SOL    HW215183   2.195   3.595   6.136 -0.6330 -0.4212  0.1805
 1242SOL     OW15184   1.516   4.126  17.697  0.0470  0.1112 -0.0567
 1242SOL    HW115185   1.566   4.055  17.656 -0.8107  0.2963 -1.4230
 1242SOL    HW215186   1.468   4.077   0.058 -2.0820 -0.1691 -1.7840
 1243SOL     OW15187   4.637   0.425  11.728  0.2034 -0.2344  0.4855
 1243SOL    HW115188   4.661   0.500  11.674 -2.4976  0.7976  0.6999
 1243SOL    HW215189   4.710   0.397  11.784 -0.3573  0.9412  1.8236
 1244SOL     OW15190   2.526   3.793  13.022  0.4626 -0.4042  0.2502
 1244SOL    HW115191   2.586   3.825  12.955  0.9092 -0.7539  0.4832
 1244SOL    HW215192   2.442   3.782  12.978 -0.1854 -1.3388  1.7101
 1245SOL     OW15193   3.980   1.828   2.633 -0.1209  0.2142 -0.1957
 1245SOL    HW115194   4.028   1.764   2.580  0.6166 -0.1682  0.9185
 1245SOL    HW215195   3.951   1.879   2.557 -1.0521  0.5282  0.3662
 1246SOL     OW15196   3.441   2.363   5.214 -0.1834 -0.3340 -0.2940
 1246SOL    HW115197   3.447   2.330   5.304  0.6797 -0.6776 -0.4682
 1246SOL    HW215198   3.378   2.303   5.174  0.1567 -1.4858  0.8749
 1247SOL     OW15199   2.841   3.485   7.172  0.7969  0.1659 -0.5866
 1247SOL    HW115200   2.829   3.411   7.112  0.9727 -0.5523  0.2700
 1247SOL    HW215201   2.928   3.470   7.210  0.6539  2.2194  0.5735
 1248SOL     OW15202   3.315   0.114   5.238  0.2190 -0.2431  0.0913
 1248SOL    HW115203   3.375   0.040   5.241 -1.5295 -1.6258  0.4222
 1248SOL    HW215204   3.281   0.125   5.327 -1.1067  3.6905 -0.9013
 1249SOL     OW15205   1.988   1.269   6.421  0.4028 -0.2511  0.3129
 1249SOL    HW115206   1.967   1.200   6.483 -0.0677 -1.4816 -1.2504
 1249SOL    HW215207   2.083   1.265   6.409  0.5811  0.4721  1.4188
 1250SOL     OW15208   1.912   0.599  11.919  0.0944  0.4236 -0.1019
 1250SOL    HW115209   1.964   0.625  11.995 -1.8157  2.2114  0.5716
 1250SOL    HW215210   1.859   0.676  11.902 -0.3278  0.0535 -0.4607
 1251SOL     OW15211   0.363   0.922  10.481 -0.3669 -0.5956 -0.4817
 1251SOL    HW115212   0.311   0.927  10.400 -1.0402 -1.4688 -0.0979
 1251SOL    HW215213   0.447   0.957  10.450 -1.0444  1.7530  0.2911
 1252SOL     OW15214   1.660   1.890  17.603 -0.4349 -0.0680  0.2693
 1252SOL    HW115215   1.615   1.868  17.522  1.2573  1.6354 -1.1327
 1252SOL    HW215216   1.749   1.857  17.586  0.2444  0.9035  1.9265
 1253SOL     OW15217   2.521   4.159   5.568  0.2195  0.5215 -0.5318
 1253SOL    HW115218   2.597   4.216   5.571  0.1080  0.5253  1.9985
 1253SOL    HW215219   2.530   4.113   5.484 -2.5267 -1.3271  0.1691
 1254SOL     OW15220   1.599   1.168  16.515 -0.4631 -0.3041 -0.6042
 1254SOL    HW115221   1.636   1.254  16.536  0.8948 -1.2422  0.8246
 1254SOL    HW215222   1.672   1.123  16.472 -0.0512 -0.7385  0.5553
 1255SOL     OW15223   2.491   4.436  12.437 -0.5287  0.0796 -0.0547
 1255SOL    HW115224   2.581   4.464  12.420 -0.8131  0.0474 -1.5530
 1255SOL    HW215225   2.457   4.409  12.352  1.3046 -0.2827 -0.6920
 1256SOL     OW15226   1.662   0.434  11.391 -0.2898 -0.0383  0.1856
 1256SOL    HW115227   1.677   0.489  11.468  1.0427 -1.5455  1.0286
 1256SOL    HW215228   1.691   0.489  11.319  1.8103 -2.5565 -0.9165
 1257SOL     OW15229   1.435   0.487   8.155 -0.1358 -0.4165 -0.1598
 1257SOL    HW115230   1.483   0.448   8.082 -1.0106 -0.3686 -0.7643
 1257SOL    HW215231   1.471   0.433   8.225 -2.1436 -1.9284 -0.3091
 1258SOL     OW15232   4.498   0.920   4.444  0.0518  0.0519 -0.3979
 1258SOL    HW115233   4.546   0.910   4.527 -0.4996 -1.4237 -0.2531
 1258SOL    HW215234   4.414   0.945   4.481  0.3785 -1.2449  1.1980
 1259SOL     OW15235   0.319   2.465   5.772  0.0225  0.1591  0.3787
 1259SOL    HW115236   0.384   2.396   5.786  1.1931  1.0314 -0.6738
 1259SOL    HW215237   0.256   2.417   5.719  0.5436 -0.0182 -0.0832
 1260SOL     OW15238   0.316   4.132   4.342 -0.2826  0.0324  0.7992
 1260SOL    HW115239   0.325   4.217   4.386  3.2110  0.0092  0.1296
 1260SOL    HW215240   0.226   4.138   4.311  0.0503 -0.7318 -0.2914
 1261SOL     OW15241   2.454   2.413  16.110  0.0556  1.0897 -0.4507
 1261SOL    HW115242   2.532   2.359  16.123  0.3617  0.6742 -3.9765
 1261SOL    HW215243   2.489   2.503  16.110 -0.1203  1.1574 -0.4288
 1262SOL     OW15244   2.188   0.755   2.786 -0.1213 -0.6779  0.4407
 1262SOL    HW115245   2.254   0.765   2.854  2.1707 -0.6817 -1.7721
 1262SOL    HW215246   2.211   0.837   2.743  1.3223 -0.9289  0.7171
 1263SOL     OW15247   4.713   0.185  12.381 -0.0365 -0.6133  0.1888
 1263SOL    HW115248   4.638   0.219  12.428 -1.3032 -2.2670 -0.6389
 1263SOL    HW215249   0.063   0.212  12.432 -0.1925 -1.7904  1.0593
 1264SOL     OW15250   2.222   1.088  17.368  0.1886  0.5686  0.3512
 1264SOL    HW115251   2.227   1.039  17.450 -0.9783 -0.7136 -0.3510
 1264SOL    HW215252   2.296   1.054  17.317  0.4669  2.0684 -0.2405
 1265SOL     OW15253   4.209   1.498   7.528 -1.1026 -0.6355  0.2634
 1265SOL    HW115254   4.286   1.457   7.565 -0.2182 -0.8070 -1.7734
 1265SOL    HW215255   4.239   1.582   7.493  1.3309 -1.4224  0.4621
 1266SOL     OW15256   1.052   0.952   5.547 -0.0628  0.2457  0.4204
 1266SOL    HW115257   1.106   0.880   5.580  1.4643  1.2244  0.0616
 1266SOL    HW215258   1.004   0.908   5.477  1.6992 -1.0970  0.0521
 1267SOL     OW15259   4.357   3.698   2.318 -0.3445 -0.3739 -0.6502
 1267SOL    HW115260   4.344   3.605   2.334 -1.9996 -0.1728 -0.7831
 1267SOL    HW215261   4.396   3.700   2.231  0.7234  0.7163 -0.1427
 1268SOL     OW15262   4.412   3.575   4.029  0.1406 -0.0518 -0.2648
 1268SOL    HW115263   4.454   3.654   4.062  0.1436 -1.0307  2.0731
 1268SOL    HW215264   4.406   3.589   3.934  0.2469 -0.0189 -0.2664
 1269SOL     OW15265   1.454   0.721   3.307 -0.2408  0.0523  0.7302
 1269SOL    HW115266   1.455   0.641   3.254  0.9068  1.4517 -1.3753
 1269SOL    HW215267   1.542   0.755   3.295  0.1439 -0.6154  1.6742
 1270SOL     OW15268   4.393   1.545  13.476  0.1893  0.3090  0.6210
 1270SOL    HW115269   4.411   1.574  13.565 -1.6632 -0.4188  1.2294
 1270SOL    HW215270   4.300   1.525  13.483 -0.3637  2.4926 -0.3004
 1271SOL     OW15271   2.267   4.233   2.347 -0.6272  0.4655  0.2408
 1271SOL    HW115272   2.270   4.273   2.260  1.3921 -1.1471 -0.4546
 1271SOL    HW215273   2.187   4.278   2.373 -1.2355 -0.5904  0.2038
 1272SOL     OW15274   0.375   0.228   9.343  0.2981 -0.0175  0.2093
 1272SOL    HW115275   0.465   0.255   9.326  0.6542 -1.8814 -0.8029
 1272SOL    HW215276   0.344   0.315   9.316  1.2480 -0.0554 -0.9710
 1273SOL     OW15277   0.861   1.233  10.216 -0.1428  0.1748 -0.0767
 1273SOL    HW115278   0.842   1.157  10.161  1.2747 -0.6089  0.5413
 1273SOL    HW215279   0.798   1.301  10.190  0.1714 -0.1730 -1.7627
 1274SOL     OW15280   1.186   1.917   8.594 -0.9295 -0.1242  0.5499
 1274SOL    HW115281   1.171   1.971   8.671 -0.6662  1.9861 -0.8852
 1274SOL    HW215282   1.269   1.872   8.612 -1.2831 -2.2345 -2.9769
 1275SOL     OW15283   0.496   3.879   2.330 -0.3783  0.2816  0.4302
 1275SOL    HW115284   0.567   3.934   2.365  1.5987 -2.3718  0.5656
 1275SOL    HW215285   0.480   3.918   2.244 -1.7436  1.4797  1.2307
 1276SOL     OW15286   2.703   2.112   2.733 -0.4858 -0.5374  0.2588
 1276SOL    HW115287   2.779   2.115   2.791 -0.2528  1.1437 -0.1557
 1276SOL    HW215288   2.722   2.028   2.690  2.2466  0.0129  0.4213
 1277SOL     OW15289   4.563   1.471   8.308  0.4061 -0.2160  0.8883
 1277SOL    HW115290   4.484   1.525   8.301 -0.7002 -2.1734 -1.8241
 1277SOL    HW215291   4.604   1.512   8.384  1.5787  1.3796 -0.5965
 1278SOL     OW15292   4.196   0.287   7.723  0.0312  0.1507 -0.6890
 1278SOL    HW115293   4.188   0.337   7.642 -0.2616 -0.9264 -1.3312
 1278SOL    HW215294   4.207   0.356   7.787  0.7631 -1.6760  1.1605
 1279SOL     OW15295   3.457   3.569   7.499 -0.1148  0.8020  0.5770
 1279SOL    HW115296   3.418   3.656   7.492  1.6560  1.5483  0.0951
 1279SOL    HW215297   3.374   3.525   7.516  1.4490 -2.6364 -0.6616
 1280SOL     OW15298   0.726   4.044   5.470 -0.4809 -0.7766 -0.6417
 1280SOL    HW115299   0.800   4.008   5.422  0.7605  1.1774 -0.1717
 1280SOL    HW215300   0.651   4.001   5.428 -0.1342 -0.8763 -1.1493
 1281SOL     OW15301   0.578   0.785   0.366 -0.0005 -0.1915  0.0685
 1281SOL    HW115302   0.577   0.703   0.414 -0.4501  1.6825  3.2574
 1281SOL    HW215303   0.667   0.785   0.330 -0.4939 -0.1257 -1.1389
 1282SOL     OW15304   2.489   4.013  14.425  0.0825 -0.3771 -0.3718
 1282SOL    HW115305   2.420   3.963  14.382 -1.3413 -0.0064  1.4984
 1282SOL    HW215306   2.559   3.994  14.363 -0.7568 -1.8281 -0.8737
 1283SOL     OW15307   0.904   4.405   6.150 -0.0909 -0.1786 -0.1214
 1283SOL    HW115308   0.868   4.351   6.221  1.5830 -1.0915  0.0340
 1283SOL    HW215309   0.977   4.354   6.115  1.8646  0.9675  2.3843
 1284SOL     OW15310   2.644   0.004   6.723 -0.3294  0.0255  0.2843
 1284SOL    HW115311   2.691   0.065   6.780  0.2636 -0.8165  0.6990
 1284SOL    HW215312   2.599   4.678   6.789  2.3331 -0.5210  1.6881
 1285SOL     OW15313   4.386   1.464  15.209 -0.1462  0.1948  0.4135
 1285SOL    HW115314   4.365   1.423  15.293  0.7079 -0.1528  0.4592
 1285SOL    HW215315   4.479   1.485  15.220 -0.2942  1.2555 -0.2979
 1286SOL     OW15316   2.161   3.652   6.931  0.0016  0.6677  0.8014
 1286SOL    HW115317   2.157   3.746   6.910 -0.1468  0.9589  2.1748
 1286SOL    HW215318   2.071   3.624   6.913  0.1394  0.7722 -0.0939
 1287SOL     OW15319   1.976   1.515   6.904 -0.9067  0.0658  0.2558
 1287SOL    HW115320   1.888   1.542   6.879  0.3451  1.3786 -2.8388
 1287SOL    HW215321   1.961   1.436   6.956 -2.5214 -0.4105 -0.9452
 1288SOL     OW15322   3.444   1.379   3.589 -0.0374 -0.1584 -0.0547
 1288SOL    HW115323   3.476   1.441   3.654  1.2882  0.1191 -0.9684
 1288SOL    HW215324   3.509   1.312   3.612  0.5107  0.9978  1.7967
 1289SOL     OW15325   0.411   4.622   1.748  0.1582 -0.1122 -0.1022
 1289SOL    HW115326   0.448   4.685   1.686  2.7759 -0.0706  1.4930
 1289SOL    HW215327   0.362   4.559   1.694  0.7331 -0.6680  0.0187
 1290SOL     OW15328   2.783   3.974   2.832 -0.1142 -0.0075  0.3461
 1290SOL    HW115329   2.796   4.015   2.746  0.2218 -2.4876 -0.7768
 1290SOL    HW215330   2.825   4.039   2.889 -0.1909  0.7098 -0.4163
 1291SOL     OW15331   4.458   0.489  14.493  0.0426 -0.4239  0.3334
 1291SOL    HW115332   4.472   0.398  14.468 -0.2259 -0.1667 -0.7225
 1291SOL    HW215333   4.443   0.471  14.586 -4.0244 -3.3015 -0.8878
 1292SOL     OW15334   2.877   1.672  11.918 -0.3803  0.5681  0.1971
 1292SOL    HW115335   2.864   1.635  11.830  1.3758 -0.4414  0.3685
 1292SOL    HW215336   2.802   1.636  11.964  0.0739  0.2014  0.6545
 1293SOL     OW15337   1.134   2.765  14.364 -0.1920 -0.8492  0.0960
 1293SOL    HW115338   1.111   2.839  14.421  0.8280 -0.3182 -0.1855
 1293SOL    HW215339   1.095   2.698  14.420 -1.9856 -0.0981 -0.2432
 1294SOL     OW15340   1.129   4.415   2.737  0.2236 -0.4883 -0.5195
 1294SOL    HW115341   1.079   4.465   2.674 -1.1300  0.6658  1.4677
 1294SOL    HW215342   1.179   4.352   2.684 -0.6731 -1.9880  0.4105
 1295SOL     OW15343   3.795   3.803  14.008  0.2537  0.3177 -0.3164
 1295SOL    HW115344   3.846   3.741  13.955 -0.5267  0.0494 -0.7617
 1295SOL    HW215345   3.763   3.871  13.950  1.3585  2.3243  1.4377
 1296SOL     OW15346   4.621   2.693   8.192  0.1288  0.1234 -0.1631
 1296SOL    HW115347   4.562   2.673   8.265  0.5666  2.0781  0.7253
 1296SOL    HW215348   4.702   2.661   8.232 -0.5413  0.0901  1.1657
 1297SOL     OW15349   0.431   2.882   9.333  0.4340  0.1489  0.1043
 1297SOL    HW115350   0.489   2.817   9.294 -0.2352  0.8801 -2.1332
 1297SOL    HW215351   0.345   2.842   9.318  2.2250 -2.9482 -1.9428
 1298SOL     OW15352   3.265   3.954   6.947 -0.2818 -0.0877 -0.2923
 1298SOL    HW115353   3.251   4.031   7.003 -1.6129 -1.6079  1.4721
 1298SOL    HW215354   3.176   3.925   6.928 -0.1868 -0.0184 -0.8355
 1299SOL     OW15355   3.609   2.599   8.726  0.2337 -0.0322  0.1532
 1299SOL    HW115356   3.581   2.544   8.799 -1.0359  1.8149  1.0882
 1299SOL    HW215357   3.690   2.556   8.700 -2.1725 -4.7868  0.4842
 1300SOL     OW15358   0.591   1.848   2.460 -0.1083  0.0336 -0.1229
 1300SOL    HW115359   0.567   1.940   2.473  1.3158  0.2702  0.8021
 1300SOL    HW215360   0.666   1.861   2.402  1.5604 -1.4337  1.6838
 1301SOL     OW15361   0.288   2.824   6.621  0.1278 -0.4600  0.3935
 1301SOL    HW115362   0.201   2.822   6.662  0.6564  0.7483  1.5741
 1301SOL    HW215363   0.278   2.899   6.562 -0.4253 -1.2244 -0.4801
 1302SOL     OW15364   4.548   2.641   6.311 -0.0245  0.3206 -0.5724
 1302SOL    HW115365   4.558   2.590   6.231 -0.7122 -0.0784 -0.4021
 1302SOL    HW215366   4.608   2.596   6.371  0.1972  1.0513 -0.2401
 1303SOL     OW15367   1.235   3.844   2.484 -0.1818 -0.2363  0.1724
 1303SOL    HW115368   1.152   3.891   2.491 -0.2141 -0.2568 -0.0642
 1303SOL    HW215369   1.221   3.775   2.419 -1.7153  1.1299 -0.9217
 1304SOL     OW15370   0.898   0.875  16.183  0.4013  0.0130  0.2337
 1304SOL    HW115371   0.816   0.923  16.166  1.0568  1.0763  0.0526
 1304SOL    HW215372   0.945   0.904  16.105 -0.9976 -0.6215 -0.8248
 1305SOL     OW15373   1.781   4.494   3.009 -0.2237  0.1983 -0.1318
 1305SOL    HW115374   1.829   4.502   2.926 -0.5089 -3.0122 -0.6100
 1305SOL    HW215375   1.805   4.574   3.057  1.6511 -2.2817  3.0500
 1306SOL     OW15376   3.502   0.826   5.855 -0.3340 -0.0533 -0.8640
 1306SOL    HW115377   3.579   0.875   5.826  1.3161 -2.3453 -0.3659
 1306SOL    HW215378   3.438   0.858   5.792  0.9851 -0.0638 -2.2157
 1307SOL     OW15379   3.165   2.014   9.993 -0.0725  0.3678 -0.0914
 1307SOL    HW115380   3.081   2.017   9.948 -1.5197 -2.2800  2.4986
 1307SOL    HW215381   3.225   1.994   9.921 -1.2000 -0.6128 -0.7614
 1308SOL     OW15382   0.813   2.919   4.470  0.0250  0.1884 -0.0634
 1308SOL    HW115383   0.806   3.005   4.510  0.3410 -0.3932  1.2289
 1308SOL    HW215384   0.780   2.855   4.533 -1.1593  0.6565 -0.2284
 1309SOL     OW15385   2.721   2.010   5.203  0.3764  0.3526 -0.3391
 1309SOL    HW115386   2.670   2.052   5.273  0.3804  1.2096 -0.8580
 1309SOL    HW215387   2.663   1.967   5.140  0.8236 -0.8941  0.0832
 1310SOL     OW15388   0.270   2.157   7.864 -0.1557  0.2555  0.4060
 1310SOL    HW115389   0.334   2.087   7.854  0.4001  0.6061  1.4661
 1310SOL    HW215390   0.308   2.218   7.801 -0.0217 -0.2842 -0.0350
 1311SOL     OW15391   0.212   1.425  14.844  0.3228  0.4569  0.1108
 1311SOL    HW115392   0.201   1.341  14.801  1.1473  0.1586  0.4709
 1311SOL    HW215393   0.202   1.489  14.774  0.2665 -1.8195 -1.9602
 1312SOL     OW15394   1.704   1.767   2.904 -0.1302 -0.1424 -0.4346
 1312SOL    HW115395   1.748   1.850   2.881  1.2421 -0.2607  1.6935
 1312SOL    HW215396   1.618   1.795   2.874  0.2249  0.6637 -0.7130
 1313SOL     OW15397   0.295   2.733  14.841  0.1873  0.4202 -0.4139
 1313SOL    HW115398   0.266   2.809  14.892  2.6321 -0.1951  1.8987
 1313SOL    HW215399   0.314   2.785  14.763 -0.0486 -0.4695 -1.0590
 1314SOL     OW15400   2.056   3.019   4.289 -0.3760  0.7240  0.5797
 1314SOL    HW115401   1.993   3.041   4.220  0.7476 -1.6427 -1.1557
 1314SOL    HW215402   2.143   3.022   4.251 -0.7606  1.3312 -0.2483
 1315SOL     OW15403   3.283   1.812   5.810 -0.5233  0.2063  0.6197
 1315SOL    HW115404   3.355   1.851   5.859 -1.0597  1.7639  0.1690
 1315SOL    HW215405   3.293   1.723   5.843 -1.9924  0.0598  0.6895
 1316SOL     OW15406   1.783   1.060   4.440 -0.8422  0.1156  0.3549
 1316SOL    HW115407   1.762   1.096   4.354  2.9442 -1.8341 -1.3564
 1316SOL    HW215408   1.878   1.068   4.427 -0.9548  2.4568  0.8143
 1317SOL     OW15409   0.017   4.040   1.791  0.4042 -0.0085 -0.4179
 1317SOL    HW115410   4.648   4.032   1.793  0.4355 -1.0468 -2.3213
 1317SOL    HW215411   0.041   3.962   1.741  1.3419 -1.3187  2.0910
 1318SOL     OW15412   2.894   0.292   7.881  0.4791  0.6893  0.1868
 1318SOL    HW115413   2.901   0.386   7.864  3.1662  0.7261  1.5383
 1318SOL    HW215414   2.842   0.290   7.962 -2.0863 -0.1542 -1.4865
 1319SOL     OW15415   1.535   0.312  13.519  0.1830 -0.6559  0.7268
 1319SOL    HW115416   1.519   0.355  13.603 -0.2720  0.3116  0.1433
 1319SOL    HW215417   1.452   0.265  13.508  0.2683 -0.4911 -0.6857
 1320SOL     OW15418   4.459   1.367   5.701 -0.2805 -0.4206 -0.3522
 1320SOL    HW115419   4.429   1.326   5.782  0.2182 -2.5135 -1.2313
 1320SOL    HW215420   4.379   1.367   5.648 -0.3925 -2.5615 -0.1576
 1321SOL     OW15421   3.608   4.236  15.458  0.2602  0.4612 -0.5656
 1321SOL    HW115422   3.555   4.315  15.456 -1.2410 -0.4843  1.5043
 1321SOL    HW215423   3.683   4.259  15.404  0.0915 -0.3554 -1.1571
 1322SOL     OW15424   4.548   4.071   4.540 -0.2975  0.6150 -0.2706
 1322SOL    HW115425   4.563   4.165   4.536  0.6288  0.5184  1.0136
 1322SOL    HW215426   4.453   4.062   4.532 -0.1109 -1.5217 -0.1408
 1323SOL     OW15427   0.185   1.383   0.198  0.4770 -0.9776 -0.8504
 1323SOL    HW115428   0.149   1.331   0.269  0.5346  0.5559  0.2993
 1323SOL    HW215429   0.115   1.359   0.138 -0.4680 -2.1867  0.7646
 1324SOL     OW15430   4.562   2.198   7.685 -0.2332  0.4072  0.6846
 1324SOL    HW115431   4.644   2.222   7.642 -0.1086 -0.1765  0.5994
 1324SOL    HW215432   4.501   2.266   7.655 -0.5546  0.2693  1.0223
 1325SOL     OW15433   0.953   3.912   8.751  0.3420  0.0024 -0.2668
 1325SOL    HW115434   0.991   3.991   8.713  0.8850 -0.0301  0.1955
 1325SOL    HW215435   1.035   3.864   8.764 -0.5182 -1.2218  0.6465
 1326SOL     OW15436   0.009   2.958  10.775  0.3431  0.2516  0.4950
 1326SOL    HW115437   0.047   2.871  10.761 -0.0116  0.1086  0.4158
 1326SOL    HW215438   4.661   2.943  10.833  0.6033 -0.6485  0.6065
 1327SOL     OW15439   3.089   3.875  16.367  0.1726  0.0960 -0.3010
 1327SOL    HW115440   3.158   3.918  16.316  0.2296  0.0314 -0.2771
 1327SOL    HW215441   3.035   3.953  16.385 -0.4928 -0.3289 -0.4469
 1328SOL     OW15442   1.123   0.725   8.218  0.6922  0.2717  0.3480
 1328SOL    HW115443   1.041   0.689   8.251  1.3114 -0.3823  1.1726
 1328SOL    HW215444   1.108   0.735   8.124 -1.6022  1.0840  0.8184
 1329SOL     OW15445   4.588   4.417  16.023 -0.5496  0.6553 -0.4503
 1329SOL    HW115446   4.555   4.386  15.939 -2.4630 -0.0975  0.5723
 1329SOL    HW215447   4.525   4.488  16.036 -1.5953 -0.4550  0.6101
 1330SOL     OW15448   4.444   2.735   2.321 -0.2914  0.4525 -0.3236
 1330SOL    HW115449   4.413   2.670   2.258  0.9285 -0.0085 -0.4389
 1330SOL    HW215450   4.525   2.696   2.353 -0.7108 -0.0370  0.1385
 1331SOL     OW15451   3.183   4.024   5.860 -0.2885  0.2422  0.8066
 1331SOL    HW115452   3.240   4.086   5.906 -0.1918  1.6093 -1.1760
 1331SOL    HW215453   3.095   4.058   5.875 -1.4027 -1.6045 -1.5698
 1332SOL     OW15454   2.646   1.954  17.254  0.2044 -0.3321  0.7809
 1332SOL    HW115455   2.669   1.968  17.162 -2.6957 -0.0030  0.1022
 1332SOL    HW215456   2.551   1.945  17.249  0.1867  0.9288 -1.2939
 1333SOL     OW15457   3.344   4.126  10.185  0.5618 -0.0299  0.8141
 1333SOL    HW115458   3.281   4.055  10.194  0.9171 -0.3364  0.8624
 1333SOL    HW215459   3.420   4.074  10.211  1.3142  0.5420 -0.2266
 1334SOL     OW15460   0.056   2.453   1.920 -0.1604 -0.0366  0.0270
 1334SOL    HW115461   4.710   2.448   1.858  0.8741  0.2631 -1.2244
 1334SOL    HW215462   0.119   2.504   1.868 -1.7610  1.1153 -0.7734
 1335SOL     OW15463   0.888   0.947   7.584 -0.2261 -0.1782  0.3339
 1335SOL    HW115464   0.821   0.937   7.652 -1.2967 -0.2571 -0.7099
 1335SOL    HW215465   0.921   1.036   7.595 -2.4322  0.8560 -1.2810
 1336SOL     OW15466   3.237   0.132   8.023 -0.0845 -0.6879 -0.3789
 1336SOL    HW115467   3.154   0.085   8.027  1.2628 -3.0158 -0.0938
 1336SOL    HW215468   3.250   0.163   8.112  1.7563 -0.9771 -0.5355
 1337SOL     OW15469   3.271   0.173   5.507  0.2297  0.3503 -0.6620
 1337SOL    HW115470   3.285   0.241   5.572  2.6201 -0.2017 -0.5781
 1337SOL    HW215471   3.321   0.108   5.556 -2.7849 -0.7370  0.9569
 1338SOL     OW15472   3.648   4.289  11.908 -0.3204 -0.7362 -0.7095
 1338SOL    HW115473   3.565   4.323  11.874 -1.5843 -3.0509  0.0816
 1338SOL    HW215474   3.626   4.237  11.985 -0.9047 -0.9445 -1.0199
 1339SOL     OW15475   3.114   1.714  16.563  0.1698  0.2194  0.2121
 1339SOL    HW115476   3.201   1.674  16.561  0.7461  1.3891  1.7942
 1339SOL    HW215477   3.053   1.640  16.558  0.0489  0.4162 -1.1661
 1340SOL     OW15478   1.050   2.301   5.680 -0.1082 -0.0976  0.2169
 1340SOL    HW115479   1.016   2.353   5.752  1.1047  0.2118  0.5707
 1340SOL    HW215480   1.076   2.377   5.628  0.7923 -0.3751  0.2502
 1341SOL     OW15481   0.658   4.516   5.151 -0.0742 -0.3681 -0.0342
 1341SOL    HW115482   0.727   4.581   5.139  0.2796 -0.9353 -1.0395
 1341SOL    HW215483   0.608   4.575   5.207  1.5742  0.8120  0.1933
 1342SOL     OW15484   3.140   4.445   7.317 -0.0879  0.3241  0.2065
 1342SOL    HW115485   3.092   4.386   7.259  0.9192 -1.3901  1.1189
 1342SOL    HW215486   3.213   4.466   7.258  0.5947 -1.3489  0.4691
 1343SOL     OW15487   0.246   2.868  15.105  0.1786 -0.2951 -0.0439
 1343SOL    HW115488   0.162   2.841  15.140 -0.2085  0.5246 -0.3334
 1343SOL    HW215489   0.268   2.919  15.183 -0.1750  1.4867 -1.1085
 1344SOL     OW15490   3.421   0.356   6.010  0.0112 -0.3443  0.1075
 1344SOL    HW115491   3.471   0.297   6.067  1.9992 -0.6781 -2.0287
 1344SOL    HW215492   3.339   0.311   5.987 -0.6544  1.0711 -0.2974
 1345SOL     OW15493   4.683   3.686   2.734 -0.2314 -0.5094 -0.3027
 1345SOL    HW115494   4.684   3.590   2.745  0.4877 -0.4873 -0.1795
 1345SOL    HW215495   0.002   3.699   2.651 -1.2469  2.1952 -0.4151
 1346SOL     OW15496   4.264   1.317   6.157  0.0565  0.1941 -0.3557
 1346SOL    HW115497   4.299   1.373   6.226  0.3605  1.8518 -1.8405
 1346SOL    HW215498   4.247   1.244   6.216  1.3705  0.3278  0.1916
 1347SOL     OW15499   2.042   4.260   7.571 -0.2641  0.3436  0.2711
 1347SOL    HW115500   2.026   4.169   7.545  1.6211  0.3077 -0.7420
 1347SOL    HW215501   1.967   4.310   7.540 -0.3932  0.5774  0.9520
 1348SOL     OW15502   2.044   0.805   9.165  0.5806 -0.0381 -0.2960
 1348SOL    HW115503   1.960   0.779   9.204  0.2770 -0.5813 -1.2899
 1348SOL    HW215504   2.043   0.900   9.174 -1.0378  0.0710 -1.5650
 1349SOL     OW15505   2.748   0.286  11.711  0.7749  0.1444 -0.7486
 1349SOL    HW115506   2.789   0.230  11.645  0.6086 -1.6614  0.6747
 1349SOL    HW215507   2.825   0.296  11.766  0.4188  0.7554 -0.3669
 1350SOL     OW15508   3.703   0.909   8.169  0.6400 -0.5075 -0.3981
 1350SOL    HW115509   3.662   0.995   8.164  1.6715  0.0425  0.5727
 1350SOL    HW215510   3.726   0.891   8.078  0.0874 -2.1836 -0.2198
 1351SOL     OW15511   3.007   1.336   0.563 -0.7336  0.1616  0.0901
 1351SOL    HW115512   3.046   1.249   0.554  0.0826  0.5144  0.1969
 1351SOL    HW215513   2.921   1.316   0.599 -1.2058  0.5309 -0.8357
 1352SOL     OW15514   3.955   2.394   5.139  0.1004 -0.0411  0.1128
 1352SOL    HW115515   4.024   2.403   5.074  0.1754 -2.2194 -0.1170
 1352SOL    HW215516   3.900   2.332   5.091 -0.9249  1.3907 -0.5562
 1353SOL     OW15517   1.294   0.770  17.517 -0.3870  0.1640  0.1397
 1353SOL    HW115518   1.282   0.784  17.423 -0.8805 -1.3848 -0.0276
 1353SOL    HW215519   1.376   0.721  17.511  0.3709  1.5200 -0.6522
 1354SOL     OW15520   4.388   2.610   3.247  0.5891 -0.3193 -0.2738
 1354SOL    HW115521   4.297   2.590   3.224  0.9700 -0.6849 -1.4525
 1354SOL    HW215522   4.376   2.705   3.249  0.7689 -0.3076  0.2437
 1355SOL     OW15523   2.368   3.193   2.957 -0.2551 -0.6041  0.0559
 1355SOL    HW115524   2.368   3.169   2.865  1.2531 -0.4745  0.0248
 1355SOL    HW215525   2.445   3.141   2.982 -0.0953 -0.0991  0.6037
 1356SOL     OW15526   3.858   2.744   8.162 -0.2011 -0.5891 -0.2509
 1356SOL    HW115527   3.782   2.787   8.202 -1.1694 -1.6431 -0.9676
 1356SOL    HW215528   3.927   2.790   8.210  0.9453  1.0829 -3.5126
 1357SOL     OW15529   2.658   2.053   7.381  0.6212 -0.2049 -0.5047
 1357SOL    HW115530   2.609   2.124   7.340  0.3866  0.7307  1.4284
 1357SOL    HW215531   2.604   2.004   7.443 -0.6628  0.8791 -0.7684
 1358SOL     OW15532   2.143   3.770   4.626 -0.5482  0.8085  0.1178
 1358SOL    HW115533   2.157   3.831   4.698 -0.4961  0.4891  0.3777
 1358SOL    HW215534   2.087   3.823   4.570  2.5621  0.6280 -3.1408
 1359SOL     OW15535   1.458   1.095  12.648 -0.1609  0.0935  0.1862
 1359SOL    HW115536   1.540   1.051  12.669  0.9960  2.1672 -0.0196
 1359SOL    HW215537   1.411   1.086  12.731 -0.2341 -0.1637  0.1176
 1360SOL     OW15538   4.703   1.108  10.049 -0.1862  0.1725  0.1364
 1360SOL    HW115539   4.716   1.093  10.143  1.3413  1.0623  0.0646
 1360SOL    HW215540   4.714   1.019  10.015 -0.2365  1.4064 -3.1014
 1361SOL     OW15541   3.426   2.669  10.487 -0.1960 -0.2811  0.3387
 1361SOL    HW115542   3.406   2.672  10.581  1.4443 -0.2241  0.6842
 1361SOL    HW215543   3.337   2.667  10.452  0.0606  0.6024 -0.3564
 1362SOL     OW15544   4.516   0.602   0.516 -0.1009  0.6191 -0.1384
 1362SOL    HW115545   4.602   0.566   0.497 -0.6142 -1.6102  1.8428
 1362SOL    HW215546   4.544   0.693   0.528  0.4873  0.4195 -0.0409
 1363SOL     OW15547   3.444   0.294   6.406  0.2010  0.3479  0.2531
 1363SOL    HW115548   3.361   0.256   6.434 -0.1387 -1.7918 -3.6395
 1363SOL    HW215549   3.499   0.300   6.485  0.0080 -0.7573  0.4698
 1364SOL     OW15550   4.598   3.097   6.212  0.0306  0.8399  0.1525
 1364SOL    HW115551   4.631   3.141   6.133 -1.0809 -1.3565 -1.5420
 1364SOL    HW215552   4.624   3.158   6.281  0.6511  1.0372 -0.2520
 1365SOL     OW15553   3.897   0.359  14.766  0.4830  0.6357 -0.1270
 1365SOL    HW115554   3.986   0.393  14.750  1.2656 -2.0951 -1.6956
 1365SOL    HW215555   3.844   0.421  14.716 -2.1525 -2.9663 -1.8160
 1366SOL     OW15556   1.839   1.294   8.670 -0.4027  0.0546 -0.2846
 1366SOL    HW115557   1.853   1.285   8.765  2.0407  1.2415 -0.5284
 1366SOL    HW215558   1.764   1.353   8.666  0.9623  1.7235 -1.2646
 1367SOL     OW15559   3.799   2.111   7.084 -0.3024 -0.3118  0.2600
 1367SOL    HW115560   3.867   2.096   7.150  0.3174 -1.6588 -0.6799
 1367SOL    HW215561   3.781   2.025   7.046  0.7788  0.4129 -1.9411
 1368SOL     OW15562   2.905   0.094   8.244  0.0429  0.3023 -0.2020
 1368SOL    HW115563   2.878   0.170   8.193 -1.1925 -2.1098 -3.1213
 1368SOL    HW215564   2.875   0.028   8.182 -1.8196 -0.5013  1.5707
 1369SOL     OW15565   1.789   2.718   8.824  0.3536  0.4181  0.5371
 1369SOL    HW115566   1.808   2.659   8.751 -1.8919 -1.8316  1.7903
 1369SOL    HW215567   1.859   2.685   8.881  1.1633  0.7419 -0.2580
 1370SOL     OW15568   1.987   4.546   3.376 -0.0188  0.2819 -0.4987
 1370SOL    HW115569   1.897   4.542   3.406  1.1446 -1.3213  2.7492
 1370SOL    HW215570   2.015   4.469   3.426 -1.1994 -0.5042 -1.0413
 1371SOL     OW15571   2.677   2.839  16.335 -0.0415  0.9122  0.0566
 1371SOL    HW115572   2.737   2.873  16.269  1.7637  1.2334  1.8821
 1371SOL    HW215573   2.735   2.816  16.408  1.0193 -1.9092 -1.6779
 1372SOL     OW15574   4.251   2.069   7.617  0.1652  0.3777  0.5049
 1372SOL    HW115575   4.254   2.071   7.713  2.4901  0.5591  0.4511
 1372SOL    HW215576   4.161   2.077   7.587 -0.0993  2.0187  1.7431
 1373SOL     OW15577   0.872   2.844  16.397  0.2177  0.1146  0.0061
 1373SOL    HW115578   0.878   2.940  16.401 -2.3785  0.2376  1.3188
 1373SOL    HW215579   0.950   2.828  16.344  0.2108  0.1020 -0.0001
 1374SOL     OW15580   0.104   1.791   4.575 -0.1637 -0.0100  0.6873
 1374SOL    HW115581   0.068   1.715   4.530  0.5438 -0.4672  0.9083
 1374SOL    HW215582   0.099   1.850   4.500  1.3013 -0.8829 -0.0916
 1375SOL     OW15583   0.439   0.112  17.000 -0.0566 -0.6676 -0.5954
 1375SOL    HW115584   0.436   0.182  17.065  0.7261 -0.7644 -0.4476
 1375SOL    HW215585   0.366   0.055  17.025  0.3526 -1.2872 -0.8236
 1376SOL     OW15586   3.821   3.808  12.842  0.2983 -0.3313 -0.8942
 1376SOL    HW115587   3.770   3.888  12.823  2.2069  0.7242 -1.5992
 1376SOL    HW215588   3.752   3.744  12.857  0.4792 -0.3652 -0.1955
 1377SOL     OW15589   4.263   3.164   2.301 -0.6215  0.2955  0.0830
 1377SOL    HW115590   4.325   3.220   2.348  0.4793  0.3330 -1.4286
 1377SOL    HW215591   4.182   3.199   2.339 -0.4194  1.9341 -0.9818
 1378SOL     OW15592   3.378   0.761   7.579  0.2943  0.8368  0.0876
 1378SOL    HW115593   3.404   0.675   7.547  2.5865  1.7882 -0.6581
 1378SOL    HW215594   3.449   0.790   7.636  0.2565 -0.5631  0.8272
 1379SOL     OW15595   3.687   1.764  10.660 -0.7746 -0.1881 -0.0300
 1379SOL    HW115596   3.748   1.831  10.691  1.2187 -2.6157  1.3390
 1379SOL    HW215597   3.735   1.694  10.705  0.1151 -0.4380 -1.3604
 1380SOL     OW15598   2.783   1.884   9.476 -0.5966  0.1650 -0.2752
 1380SOL    HW115599   2.837   1.951   9.516  0.8326 -0.7427 -0.6943
 1380SOL    HW215600   2.754   1.850   9.560  1.2854 -1.4071 -0.2763
 1381SOL     OW15601   4.383   3.766  10.867 -0.6457 -0.2436  0.1050
 1381SOL    HW115602   4.334   3.724  10.938  0.0361  0.3727  0.9432
 1381SOL    HW215603   4.435   3.693  10.833  1.4895  0.7137  1.2797
 1382SOL     OW15604   3.298   0.522  13.177  0.0040 -0.3537  0.0060
 1382SOL    HW115605   3.387   0.553  13.197  0.7077 -1.5964 -1.2298
 1382SOL    HW215606   3.272   0.507  13.268  0.2407  1.2543  0.3468
 1383SOL     OW15607   2.415   3.112  10.898  0.2203  0.8448 -0.1321
 1383SOL    HW115608   2.497   3.156  10.878  1.4096 -2.0765 -1.6869
 1383SOL    HW215609   2.363   3.138  10.822 -0.2373  1.3166  0.3382
 1384SOL     OW15610   3.168   1.046  11.027  0.7775  0.2801  0.2484
 1384SOL    HW115611   3.207   1.133  11.022  0.6665  0.3478  0.5637
 1384SOL    HW215612   3.123   1.055  11.111  1.2588 -2.4567  0.7963
 1385SOL     OW15613   1.133   4.696   1.840 -0.5500 -0.3819 -0.2046
 1385SOL    HW115614   1.104   4.605   1.845 -0.0781 -0.6065 -1.4925
 1385SOL    HW215615   1.073   0.002   1.773  0.0714 -0.7762 -0.9517
 1386SOL     OW15616   0.055   0.285   7.375  0.7078  0.2684  0.2651
 1386SOL    HW115617   0.132   0.295   7.320  0.0781 -0.8117 -0.8147
 1386SOL    HW215618   4.722   0.347   7.332  0.2113  0.7735  1.6661
 1387SOL     OW15619   2.092   1.829   0.460 -0.1178 -0.0431  0.0248
 1387SOL    HW115620   2.125   1.747   0.423 -0.5956  0.4736 -1.5625
 1387SOL    HW215621   2.028   1.846   0.391  0.2809  2.3123  0.2502
 1388SOL     OW15622   2.586   3.628   7.923  0.1992  0.0970 -0.0233
 1388SOL    HW115623   2.623   3.600   7.840 -0.7563  0.9088 -0.7128
 1388SOL    HW215624   2.604   3.721   7.912 -1.8718  0.5500  0.2949
 1389SOL     OW15625   0.611   1.873   9.506  0.3233 -0.2106  0.2039
 1389SOL    HW115626   0.533   1.838   9.549  0.7839  1.9668  2.8757
 1389SOL    HW215627   0.647   1.921   9.581 -0.8390  1.0162 -0.0046
 1390SOL     OW15628   4.250   3.765  14.243 -0.2052  0.3405  0.3143
 1390SOL    HW115629   4.236   3.843  14.297 -2.0761  0.3630 -0.1998
 1390SOL    HW215630   4.157   3.745  14.227 -0.3982 -0.8618  2.9501
 1391SOL     OW15631   2.834   3.801   6.406  0.2354 -0.0816 -0.7973
 1391SOL    HW115632   2.852   3.724   6.352  0.6214  0.5430 -1.5458
 1391SOL    HW215633   2.817   3.761   6.492 -2.0613  2.2802 -0.1416
 1392SOL     OW15634   0.551   2.297  16.169 -0.6648  0.4921  0.1817
 1392SOL    HW115635   0.456   2.292  16.177 -0.9178  1.2689 -2.4745
 1392SOL    HW215636   0.556   2.378  16.119 -2.0307  0.9635  0.8368
 1393SOL     OW15637   3.653   1.166   2.544 -0.1289 -0.5197 -0.1423
 1393SOL    HW115638   3.577   1.108   2.532  0.3362 -1.2508  0.4144
 1393SOL    HW215639   3.640   1.240   2.485 -0.4420  0.6347  1.3804
 1394SOL     OW15640   0.064   2.592  17.670  0.3791  0.2670 -0.4814
 1394SOL    HW115641   0.120   2.534  17.620  2.0777  0.5671  1.0852
 1394SOL    HW215642   0.038   2.653  17.600 -0.0785  1.6417  0.8710
 1395SOL     OW15643   2.747   4.340   4.177  0.0264 -0.4017  0.2629
 1395SOL    HW115644   2.689   4.360   4.103  0.8598  0.4249 -0.1605
 1395SOL    HW215645   2.688   4.359   4.250 -0.7148 -1.4698 -0.0413
 1396SOL     OW15646   4.270   2.701   2.567  0.2843 -0.5046  0.0348
 1396SOL    HW115647   4.299   2.693   2.476  0.3902 -1.2590  0.1360
 1396SOL    HW215648   4.242   2.610   2.579  0.8880 -0.5536  1.0755
 1397SOL     OW15649   4.506   0.194  14.444  0.9105  0.3592  0.0763
 1397SOL    HW115650   4.539   0.188  14.354 -1.6094  0.4786 -0.8477
 1397SOL    HW215651   4.588   0.205  14.493  1.5359  1.8989 -1.3234
 1398SOL     OW15652   2.106   3.923   2.196  0.5618  0.0496 -0.2810
 1398SOL    HW115653   2.064   3.991   2.249 -0.2715 -1.5427  1.1212
 1398SOL    HW215654   2.184   3.911   2.251  0.8049 -2.6015 -1.1816
 1399SOL     OW15655   4.068   1.601  10.572 -0.0822 -0.3833  0.2929
 1399SOL    HW115656   4.122   1.530  10.605  0.7091 -2.2595 -5.1637
 1399SOL    HW215657   4.076   1.591  10.478 -1.2252  0.3660  0.1164
 1400SOL     OW15658   3.411   4.123   3.125 -0.0625 -0.3498  0.3657
 1400SOL    HW115659   3.405   4.182   3.200 -1.7317 -2.0895  1.6006
 1400SOL    HW215660   3.364   4.046   3.158 -2.0799  0.4105 -0.7685
 1401SOL     OW15661   1.451   4.404   5.436 -0.2140 -0.0443  0.1198
 1401SOL    HW115662   1.425   4.374   5.349  1.8135 -2.1095  0.2431
 1401SOL    HW215663   1.471   4.315   5.466  0.2677  1.1781  3.4489
 1402SOL     OW15664   0.565   1.837   7.283  0.0983 -0.4455  0.0411
 1402SOL    HW115665   0.655   1.811   7.263  0.7612  0.3507  1.9911
 1402SOL    HW215666   0.564   1.822   7.377 -0.0827  0.5014  0.1977
 1403SOL     OW15667   3.147   1.451   4.019 -0.5527 -0.0636  0.4888
 1403SOL    HW115668   3.094   1.453   3.939 -0.9276  0.0293  0.7401
 1403SOL    HW215669   3.132   1.540   4.051 -3.1483 -0.8258  1.3952
 1404SOL     OW15670   2.008   2.527  16.371  0.3224  0.4978 -0.0157
 1404SOL    HW115671   2.102   2.531  16.351 -0.1360  2.7119 -1.6933
 1404SOL    HW215672   1.979   2.594  16.309  2.1623 -1.0602 -2.5706
 1405SOL     OW15673   4.255   2.860   3.311  0.7277 -0.4760 -0.2624
 1405SOL    HW115674   4.165   2.873   3.281 -0.3331  0.4063  3.2263
 1405SOL    HW215675   4.249   2.827   3.401  2.2995  0.3106  0.1246
 1406SOL     OW15676   1.719   2.916   2.386 -0.2453  0.7810 -0.0775
 1406SOL    HW115677   1.646   2.964   2.425  0.6619  1.8438  0.3039
 1406SOL    HW215678   1.769   2.908   2.468 -0.5773 -2.4492 -0.1557
 1407SOL     OW15679   1.891   0.506  17.301  0.1247 -0.3543 -0.3309
 1407SOL    HW115680   1.957   0.565  17.336 -0.0519 -1.6149  2.1541
 1407SOL    HW215681   1.954   0.456  17.249  0.0790 -2.5566  1.7194
 1408SOL     OW15682   2.628   4.417   3.925 -0.1133  0.0876  0.0878
 1408SOL    HW115683   2.562   4.480   3.954 -1.2633 -0.0548 -2.2054
 1408SOL    HW215684   2.591   4.377   3.846 -1.6237  1.3276  0.1710
 1409SOL     OW15685   3.898   4.208  12.632 -0.4813  0.3581 -0.3460
 1409SOL    HW115686   3.914   4.164  12.716 -0.6673 -1.6891 -1.3840
 1409SOL    HW215687   3.942   4.289  12.656 -2.7905  1.5764 -0.2982
 1410SOL     OW15688   3.541   2.206   4.462  0.0294  0.0178 -1.0137
 1410SOL    HW115689   3.463   2.157   4.488 -0.0144  0.1908 -0.8169
 1410SOL    HW215690   3.507   2.283   4.416  1.1418  0.5665 -0.9142
 1411SOL     OW15691   1.014   3.467   7.309 -0.3185 -0.4693  0.5329
 1411SOL    HW115692   1.024   3.396   7.372  0.9982 -0.7726 -0.0292
 1411SOL    HW215693   1.047   3.549   7.345  0.7721 -0.7357  0.1224
 1412SOL     OW15694   4.369   2.781  16.293  0.2353  0.8383  0.3272
 1412SOL    HW115695   4.434   2.729  16.341 -0.3115  0.0322  0.1921
 1412SOL    HW215696   4.285   2.741  16.317  0.8773 -0.3202  0.6763
 1413SOL     OW15697   0.596   4.093  17.588  0.3438 -0.5377  0.6116
 1413SOL    HW115698   0.532   4.162  17.573  0.3150 -0.4577  1.1104
 1413SOL    HW215699   0.640   4.125  17.667  1.9444  0.0258 -0.5055
 1414SOL     OW15700   4.009   1.833   3.159  0.3559 -0.2208  0.2060
 1414SOL    HW115701   4.101   1.858   3.144 -0.6834  2.4509 -1.7780
 1414SOL    HW215702   3.979   1.810   3.071 -1.9134  0.2246  0.8713
 1415SOL     OW15703   3.227   3.372   2.607 -0.1769 -0.3505 -0.6656
 1415SOL    HW115704   3.155   3.348   2.550 -0.9534 -0.8751  0.5366
 1415SOL    HW215705   3.300   3.343   2.552  0.5741  1.7761 -0.7578
 1416SOL     OW15706   2.667   2.065   1.843  0.1412 -0.2287  0.6989
 1416SOL    HW115707   2.641   1.976   1.819  0.3448 -0.3948  1.0933
 1416SOL    HW215708   2.676   2.108   1.758  3.5955  0.0940  1.2374
 1417SOL     OW15709   3.663   1.086   4.364 -0.4251  0.1160 -0.4276
 1417SOL    HW115710   3.694   1.019   4.303  0.3917  0.9237 -0.8939
 1417SOL    HW215711   3.644   1.154   4.299 -1.7072  0.1555 -0.0245
 1418SOL     OW15712   2.095   3.630   8.235 -0.1824 -0.0714  0.3264
 1418SOL    HW115713   2.061   3.696   8.176 -2.7083 -0.0223  1.8461
 1418SOL    HW215714   2.105   3.676   8.319 -2.5757 -0.8792  1.0331
 1419SOL     OW15715   1.682   2.117   3.434 -0.2185 -0.3799 -0.1092
 1419SOL    HW115716   1.735   2.146   3.360 -0.6438 -0.5241 -0.4753
 1419SOL    HW215717   1.596   2.093   3.398 -1.9609  4.5499  0.7046
 1420SOL     OW15718   1.054   2.694   7.112  0.3632 -0.1600 -0.1286
 1420SOL    HW115719   0.973   2.666   7.156  1.7015 -1.4420  1.4739
 1420SOL    HW215720   1.045   2.639   7.034 -0.1235  0.1196 -0.2736
 1421SOL     OW15721   2.628   4.099   8.681  0.4160 -0.0543 -0.6090
 1421SOL    HW115722   2.610   4.060   8.767  0.3833 -0.5193 -0.8230
 1421SOL    HW215723   2.554   4.158   8.674 -0.2971 -0.8312  0.3590
 1422SOL     OW15724   3.250   4.638   4.211 -0.4906  0.1100 -0.3071
 1422SOL    HW115725   3.216   0.000   4.222  0.1374  0.3341 -0.1382
 1422SOL    HW215726   3.282   4.654   4.122  2.0783  0.6424  0.7040
 1423SOL     OW15727   2.777   2.309   4.589 -0.0408  0.4489  0.1045
 1423SOL    HW115728   2.736   2.319   4.676 -0.9952 -0.0700 -0.2854
 1423SOL    HW215729   2.856   2.258   4.607  0.5832  0.7811 -1.7545
 1424SOL     OW15730   3.738   0.276   4.475 -0.2237  0.1688  0.3143
 1424SOL    HW115731   3.643   0.264   4.479 -0.2370 -0.7887 -3.2134
 1424SOL    HW215732   3.754   0.269   4.381 -1.4571 -1.5760  0.2325
 1425SOL     OW15733   2.064   3.282   4.753 -0.0114  0.4256  0.3372
 1425SOL    HW115734   2.108   3.259   4.671 -1.2016 -2.0465  0.3838
 1425SOL    HW215735   2.095   3.372   4.757  0.4286  0.2606  0.6617
 1426SOL     OW15736   1.397   2.409  11.508  0.1922 -0.0280  0.0173
 1426SOL    HW115737   1.405   2.462  11.587 -0.2193 -1.0390  0.7348
 1426SOL    HW215738   1.386   2.480  11.445  1.1792 -1.3648 -1.6772
 1427SOL     OW15739   1.266   2.464   4.611 -0.5295  0.2301 -0.3785
 1427SOL    HW115740   1.250   2.555   4.585  0.2952  0.3085 -0.5955
 1427SOL    HW215741   1.250   2.426   4.525  0.8457  0.8511 -0.9074
 1428SOL     OW15742   0.519   0.720   2.919  0.3730  0.0538  0.7078
 1428SOL    HW115743   0.553   0.808   2.934  0.6534 -0.2965  2.0666
 1428SOL    HW215744   0.552   0.688   2.835  1.8827  1.0267  0.9314
 1429SOL     OW15745   2.652   4.505  15.729  0.1662  0.3134  0.3133
 1429SOL    HW115746   2.717   4.451  15.684 -1.3805 -1.4988  0.1990
 1429SOL    HW215747   2.581   4.441  15.738 -2.1839  2.9545  0.4617
 1430SOL     OW15748   4.423   4.205  12.081 -0.2321  0.5050  0.6731
 1430SOL    HW115749   4.408   4.229  11.990  1.2494 -0.3784  0.1950
 1430SOL    HW215750   4.433   4.110  12.083 -2.7280  0.2358 -0.8579
 1431SOL     OW15751   3.635   1.429   7.155 -0.3736  0.0666  0.3856
 1431SOL    HW115752   3.698   1.363   7.126  0.3707  0.2328  1.6120
 1431SOL    HW215753   3.660   1.495   7.091 -2.9264 -0.5930 -1.2706
 1432SOL     OW15754   2.986   4.534   4.191 -0.1647 -0.8255  0.0967
 1432SOL    HW115755   3.078   4.546   4.211 -0.2767 -0.4068  0.3479
 1432SOL    HW215756   2.984   4.459   4.131  1.9578 -1.3470  0.7002
 1433SOL     OW15757   2.921   3.977  11.000 -0.1532  0.3068 -0.8939
 1433SOL    HW115758   2.966   4.054  10.966 -0.4084  1.7200  1.9761
 1433SOL    HW215759   2.931   3.924  10.921 -0.6365 -2.8351  1.1469
 1434SOL     OW15760   3.506   1.031  11.012  0.0271  0.2500 -0.1634
 1434SOL    HW115761   3.462   1.086  11.077  1.4686  2.8785 -1.3997
 1434SOL    HW215762   3.439   0.967  10.989  1.3912 -1.5303  0.8436
 1435SOL     OW15763   0.745   1.734   4.401  0.1947  0.1846 -0.1368
 1435SOL    HW115764   0.741   1.677   4.478 -0.1759 -1.2317 -1.1991
 1435SOL    HW215765   0.656   1.713   4.371 -0.6260  0.6827  1.9558
 1436SOL     OW15766   2.780   0.915  11.590 -0.4810  0.3162 -0.0732
 1436SOL    HW115767   2.861   0.897  11.637  0.7266 -1.2063 -2.7596
 1436SOL    HW215768   2.810   0.923  11.500  0.7646  1.9074  0.4901
 1437SOL     OW15769   2.575   0.025   7.573  0.1465 -0.0729  0.4591
 1437SOL    HW115770   2.652   4.717   7.529  0.9675 -1.4052  2.9066
 1437SOL    HW215771   2.627   0.074   7.637  0.0621 -1.1380  1.3538
 1438SOL     OW15772   2.918   0.156   3.972  0.0572 -0.3488  0.1210
 1438SOL    HW115773   2.948   0.073   3.937 -0.3213 -0.8608  0.9960
 1438SOL    HW215774   2.862   0.127   4.045 -0.9237 -0.7202 -0.7801
 1439SOL     OW15775   2.172   3.043   7.039 -0.0792  0.3697  0.1869
 1439SOL    HW115776   2.115   3.110   7.001  1.2503 -0.5675 -3.4505
 1439SOL    HW215777   2.192   3.089   7.120  0.6349  1.0269 -0.3612
 1440SOL     OW15778   3.409   1.658   2.647  0.1438  0.3735 -0.1260
 1440SOL    HW115779   3.473   1.606   2.696 -0.6247 -1.1999 -0.8007
 1440SOL    HW215780   3.468   1.731   2.630  0.6921 -0.1281 -0.3861
 1441SOL     OW15781   2.018   1.764   9.607  0.1760 -0.3723 -0.6415
 1441SOL    HW115782   2.092   1.815   9.575  1.0795 -1.5756 -0.4777
 1441SOL    HW215783   2.050   1.674   9.606  0.1510 -0.3980  0.3056
 1442SOL     OW15784   2.582   3.980   4.425 -0.2442  0.2431  0.1632
 1442SOL    HW115785   2.626   3.914   4.477 -1.0371 -0.1137  0.3689
 1442SOL    HW215786   2.518   4.014   4.487  0.9341  1.1629  0.8751
 1443SOL     OW15787   0.137   0.535   4.018 -0.0665 -0.9236  0.0136
 1443SOL    HW115788   0.203   0.599   4.044  0.2197 -0.7056 -1.2334
 1443SOL    HW215789   0.100   0.510   4.103 -0.6291  0.2659  0.1080
 1444SOL     OW15790   2.618   2.806   2.507  0.1125  0.1326 -0.8387
 1444SOL    HW115791   2.662   2.727   2.538  1.5303  0.1135 -2.8800
 1444SOL    HW215792   2.635   2.793   2.414  2.0391 -1.9455 -0.1952
 1445SOL     OW15793   4.710   2.873   4.569  0.2230  0.1344 -0.5993
 1445SOL    HW115794   4.723   2.877   4.664  0.4713  0.9748 -0.6695
 1445SOL    HW215795   4.616   2.866   4.584  0.5127  0.0459  1.1996
 1446SOL     OW15796   3.394   2.511   2.447  0.0083  0.4290  0.1074
 1446SOL    HW115797   3.371   2.598   2.415  2.1300  0.7682 -0.5392
 1446SOL    HW215798   3.353   2.453   2.383  0.5513 -0.1910  0.3188
 1447SOL     OW15799   4.080   0.695   5.169  0.2665  0.6809  0.2347
 1447SOL    HW115800   4.012   0.679   5.233  1.1879 -0.9883  0.7828
 1447SOL    HW215801   4.037   0.765   5.120 -3.5151 -0.8664  1.3778
 1448SOL     OW15802   4.092   0.226   2.792  0.3968  0.1009 -0.8007
 1448SOL    HW115803   4.068   0.158   2.729  0.4523 -1.3510  0.7760
 1448SOL    HW215804   4.170   0.175   2.816 -1.1729 -2.0819 -0.3888
 1449SOL     OW15805   2.178   2.238   8.664 -0.0588 -0.0751 -0.0250
 1449SOL    HW115806   2.143   2.247   8.752 -0.2737  1.2435 -0.2420
 1449SOL    HW215807   2.266   2.205   8.682 -0.2896 -1.2562 -1.0563
 1450SOL     OW15808   1.555   4.191   7.937  0.6501  0.1534  0.3874
 1450SOL    HW115809   1.516   4.242   8.008  0.2425 -0.1197  0.3617
 1450SOL    HW215810   1.599   4.264   7.893 -0.7887  0.2258 -0.9747
 1451SOL     OW15811   4.496   4.448  13.052 -0.0795  0.1540  0.0239
 1451SOL    HW115812   4.584   4.425  13.083 -0.2016 -1.7030 -0.9884
 1451SOL    HW215813   4.528   4.522  12.999 -0.2496  0.3787  0.2334
 1452SOL     OW15814   2.787   3.228   7.583  0.6476  0.0018 -0.2219
 1452SOL    HW115815   2.799   3.179   7.502  1.0147  0.3099 -0.3555
 1452SOL    HW215816   2.714   3.181   7.623 -0.8636  0.9353 -1.9021
 1453SOL     OW15817   1.901   3.444  13.397  0.0226 -0.5211  0.2316
 1453SOL    HW115818   1.933   3.533  13.415  0.7675 -0.9312  0.9301
 1453SOL    HW215819   1.808   3.461  13.383  0.0553  0.7425  1.5399
 1454SOL     OW15820   2.260   4.159   6.894 -0.0072  1.0160  0.1195
 1454SOL    HW115821   2.211   4.085   6.860  0.9133  0.6260 -0.3592
 1454SOL    HW215822   2.192   4.226   6.896  0.6939  1.7965 -2.8101
 1455SOL     OW15823   0.090   4.174  10.854 -0.0075 -0.8451  0.0563
 1455SOL    HW115824   0.117   4.175  10.946 -2.3470  2.1335  0.6919
 1455SOL    HW215825   0.060   4.264  10.843 -1.3120 -1.1269  1.3475
 1456SOL     OW15826   0.093   0.521   5.402 -0.2328 -0.6433  0.2785
 1456SOL    HW115827   0.113   0.466   5.326  1.0252  1.7104 -1.0922
 1456SOL    HW215828   0.133   0.468   5.471  2.6103  0.0422 -0.8618
 1457SOL     OW15829   0.321   3.248   1.649  1.0997 -0.2604 -0.1503
 1457SOL    HW115830   0.378   3.277   1.578 -3.8530  4.4095 -2.1731
 1457SOL    HW215831   0.379   3.260   1.724  2.6419 -2.1303 -1.0444
 1458SOL     OW15832   1.677   4.420  16.200 -0.2349  0.1289 -0.1458
 1458SOL    HW115833   1.642   4.331  16.197  0.3542 -0.0448 -1.7570
 1458SOL    HW215834   1.717   4.437  16.115 -1.3716 -1.0689 -0.9078
 1459SOL     OW15835   0.364   4.545   6.196  0.2074 -0.4330 -0.1057
 1459SOL    HW115836   0.452   4.522   6.225 -0.4180 -0.9825  1.3454
 1459SOL    HW215837   0.318   4.559   6.278 -0.6354 -1.6190 -0.3844
 1460SOL     OW15838   1.178   0.762   6.043 -0.2013  0.2109  0.3658
 1460SOL    HW115839   1.093   0.806   6.051 -0.1436  0.7278 -1.9159
 1460SOL    HW215840   1.192   0.748   6.137 -0.4026  0.1929  0.3931
 1461SOL     OW15841   3.108   3.697   5.403 -0.4221  0.2932 -0.0938
 1461SOL    HW115842   3.150   3.630   5.348 -1.3963 -1.1285  0.8973
 1461SOL    HW215843   3.035   3.716   5.343  2.0766  0.8808 -2.9604
 1462SOL     OW15844   0.504   0.091  13.763 -0.2108  0.1153  0.4773
 1462SOL    HW115845   0.517   0.003  13.728 -0.2006  0.3245 -0.0444
 1462SOL    HW215846   0.596   0.108  13.784  0.0263 -0.0825 -0.3920
 1463SOL     OW15847   3.757   0.209   7.325  0.7254 -0.1942 -0.4919
 1463SOL    HW115848   3.739   0.303   7.315 -0.4263 -0.2307  1.3524
 1463SOL    HW215849   3.672   0.177   7.292  1.1035 -0.7540 -0.9194
 1464SOL     OW15850   0.871   0.097  16.441  0.1469 -0.9111 -0.2059
 1464SOL    HW115851   0.854   0.006  16.466 -0.7006 -0.5609  0.4778
 1464SOL    HW215852   0.909   0.120  16.526  0.3507  0.0341 -0.5505
 1465SOL     OW15853   1.362   2.785   0.233 -0.0930  0.3510 -0.1580
 1465SOL    HW115854   1.295   2.785   0.301  1.4312 -2.8966  1.3724
 1465SOL    HW215855   1.320   2.799   0.149 -1.1058  3.4381  0.8494
 1466SOL     OW15856   3.103   1.037   7.958  0.2109  0.3812 -0.5863
 1466SOL    HW115857   3.128   0.970   7.895 -0.4410  0.0751 -0.5173
 1466SOL    HW215858   3.132   1.113   7.906 -0.3739 -0.1238 -1.6524
 1467SOL     OW15859   1.425   3.933   7.103  0.0298 -0.9132 -0.1530
 1467SOL    HW115860   1.353   3.994   7.121 -0.2348 -1.5895  1.0953
 1467SOL    HW215861   1.450   3.890   7.185 -0.1937  1.0759  0.9735
 1468SOL     OW15862   3.057   3.916   7.771 -0.5833 -1.0141  0.0711
 1468SOL    HW115863   3.138   3.870   7.750 -1.4765 -2.8072  0.4826
 1468SOL    HW215864   3.084   4.007   7.776  0.8959 -1.4849  0.4953
 1469SOL     OW15865   2.361   0.713   3.530 -0.4647 -0.7049 -0.3636
 1469SOL    HW115866   2.357   0.624   3.565 -2.0130 -0.0202  1.2116
 1469SOL    HW215867   2.301   0.701   3.456  0.1841  1.3088 -1.2153
 1470SOL     OW15868   3.404   2.174  10.010 -0.4078 -0.2282 -0.3475
 1470SOL    HW115869   3.332   2.112  10.016  0.6676 -1.5396 -1.0256
 1470SOL    HW215870   3.358   2.256  10.025 -1.4034 -0.9177  0.3997
 1471SOL     OW15871   0.414   4.056  16.221  0.2029 -0.0319  0.1878
 1471SOL    HW115872   0.340   4.019  16.174  0.8213 -1.3272  0.2354
 1471SOL    HW215873   0.370   4.080  16.303 -1.0696 -1.5024 -0.0635
 1472SOL     OW15874   1.601   0.920   7.638 -0.4264 -0.2535 -0.1766
 1472SOL    HW115875   1.681   0.927   7.689 -0.0837  0.4076 -0.7995
 1472SOL    HW215876   1.543   0.991   7.667  2.1713  1.2529  1.2607
 1473SOL     OW15877   3.629   2.664   5.983  0.6977  0.6675 -0.2619
 1473SOL    HW115878   3.713   2.697   5.952  0.2281  0.2733 -1.9456
 1473SOL    HW215879   3.621   2.716   6.063  0.9812  0.5255 -0.1450
 1474SOL     OW15880   2.481   4.016  12.302 -0.3991 -0.0563  0.1919
 1474SOL    HW115881   2.492   3.964  12.382  2.4623  1.6468  0.8923
 1474SOL    HW215882   2.567   4.056  12.292 -0.3674  0.0541  0.9117
 1475SOL     OW15883   2.352   2.686   4.152 -0.9326  0.4348 -0.0957
 1475SOL    HW115884   2.430   2.741   4.140  0.5388 -1.9148 -1.4056
 1475SOL    HW215885   2.368   2.620   4.084  1.4091  2.0398 -1.0962
 1476SOL     OW15886   2.864   3.422   8.107  0.4828 -0.1694 -0.2774
 1476SOL    HW115887   2.882   3.328   8.097 -0.4495 -0.5729  1.9195
 1476SOL    HW215888   2.771   3.417   8.086 -0.0998 -0.1136  2.3447
 1477SOL     OW15889   2.851   1.865   6.841 -0.1047 -0.2843  0.0921
 1477SOL    HW115890   2.850   1.925   6.767 -1.9916  0.1158  0.4399
 1477SOL    HW215891   2.930   1.815   6.823  0.0834  0.4752 -1.1737
 1478SOL     OW15892   0.286   4.490   5.813 -0.4832  0.2977 -0.0419
 1478SOL    HW115893   0.282   4.421   5.879 -2.2090  1.8170  1.4713
 1478SOL    HW215894   0.282   4.573   5.862 -1.0533 -0.2494  0.8486
 1479SOL     OW15895   1.493   3.615   5.114 -0.0501 -0.0755 -0.3059
 1479SOL    HW115896   1.478   3.664   5.195 -0.6302 -1.5519  0.4843
 1479SOL    HW215897   1.565   3.554   5.134  2.8735  2.9129 -1.6177
 1480SOL     OW15898   4.301   4.502   6.363  0.7963  0.1140  0.0402
 1480SOL    HW115899   4.284   4.456   6.445  0.8684  1.3750  0.7582
 1480SOL    HW215900   4.258   4.586   6.373 -1.9248 -1.1263 -1.2982
 1481SOL     OW15901   1.688   3.069   8.051  0.0518  0.3243 -0.0924
 1481SOL    HW115902   1.623   3.031   7.992  0.1819 -0.0316 -0.0089
 1481SOL    HW215903   1.683   3.012   8.128 -0.7528 -0.4651 -0.7277
 1482SOL     OW15904   2.640   2.794  13.490 -0.2527  0.1706 -0.1480
 1482SOL    HW115905   2.666   2.790  13.397  0.4225  0.2702  0.0317
 1482SOL    HW215906   2.627   2.887  13.510 -1.1745 -0.3746  1.7179
 1483SOL     OW15907   0.594   4.064   0.933  0.4742 -0.2075 -0.1262
 1483SOL    HW115908   0.616   3.997   0.997 -1.1053 -0.3926  0.2157
 1483SOL    HW215909   0.586   4.025   0.847 -0.4500 -1.4919  0.5564
 1484SOL     OW15910   3.261   0.791   2.721  0.5093  0.3262 -0.1890
 1484SOL    HW115911   3.248   0.755   2.809 -1.4753 -0.8581 -0.9543
 1484SOL    HW215912   3.201   0.741   2.666  0.4330 -0.1929  0.3719
 1485SOL     OW15913   2.858   4.678   9.290  0.1675 -0.4667  0.0277
 1485SOL    HW115914   2.820   4.590   9.279 -0.7835 -0.0262 -0.1684
 1485SOL    HW215915   2.929   4.659   9.351  2.3220 -0.8458 -2.6276
 1486SOL     OW15916   4.551   3.142  11.224 -0.1941  0.4751  0.2686
 1486SOL    HW115917   4.480   3.113  11.166 -1.1407  0.9308  1.2047
 1486SOL    HW215918   4.510   3.140  11.311 -0.9219  2.0340 -0.0340
 1487SOL     OW15919   1.999   0.115   7.040 -0.0870  0.1271 -0.2682
 1487SOL    HW115920   1.955   0.196   7.063 -1.0237 -0.5146  0.1823
 1487SOL    HW215921   2.017   0.131   6.947  0.3678  2.8423  0.2725
 1488SOL     OW15922   0.965   4.304  15.090  0.0121  0.4328 -0.3936
 1488SOL    HW115923   1.048   4.265  15.119 -0.9604 -1.5620 -0.2752
 1488SOL    HW215924   0.921   4.222  15.067 -0.5265  1.2154 -2.1120
 1489SOL     OW15925   1.447   0.655   9.607  0.1027 -0.3399 -0.1920
 1489SOL    HW115926   1.459   0.748   9.629 -0.4310 -0.3728  0.2329
 1489SOL    HW215927   1.486   0.650   9.519 -0.1452 -1.5099 -0.2350
 1490SOL     OW15928   3.588   4.152   7.518  0.1426  0.0058 -0.6110
 1490SOL    HW115929   3.627   4.188   7.597 -2.5033  0.4346  0.5074
 1490SOL    HW215930   3.623   4.063   7.519 -1.8925 -0.8016 -1.5424
 1491SOL     OW15931   4.189   2.124   4.613 -0.1542  0.7258  0.2996
 1491SOL    HW115932   4.206   2.081   4.697 -1.5753 -0.2314  0.1006
 1491SOL    HW215933   4.093   2.124   4.612 -0.1169 -0.5410 -2.1686
 1492SOL     OW15934   0.568   0.679  17.280 -0.4247 -0.4217  0.5451
 1492SOL    HW115935   0.575   0.641  17.367 -2.6453 -1.0531  0.4462
 1492SOL    HW215936   0.476   0.669  17.255 -0.1445 -1.1474 -0.1925
 1493SOL     OW15937   1.815   0.651   3.791 -0.1498  0.1669 -0.0728
 1493SOL    HW115938   1.842   0.562   3.769  0.4815  0.3745 -0.1283
 1493SOL    HW215939   1.827   0.655   3.886  0.7247 -1.9908 -0.0990
 1494SOL     OW15940   2.450   1.650   7.590  0.0780 -0.2044 -0.0998
 1494SOL    HW115941   2.459   1.591   7.665  1.1116 -2.0905 -1.7155
 1494SOL    HW215942   2.496   1.600   7.523 -0.4976  0.1868 -0.7871
 1495SOL     OW15943   1.451   3.462   0.413  0.1576  0.5009  0.3568
 1495SOL    HW115944   1.497   3.514   0.348  2.8559 -0.4032  1.5597
 1495SOL    HW215945   1.447   3.534   0.476 -1.6684 -2.0430  3.1414
 1496SOL     OW15946   2.207   1.007   2.274  0.4695 -0.2920  0.2012
 1496SOL    HW115947   2.260   0.989   2.197 -0.0717  1.6195 -0.6166
 1496SOL    HW215948   2.226   1.097   2.298 -0.3998 -0.1568  0.3770
 1497SOL     OW15949   4.630   1.345   2.432 -0.1900  0.0590  0.2923
 1497SOL    HW115950   4.607   1.285   2.361 -2.2939  0.3408  0.7505
 1497SOL    HW215951   4.574   1.316   2.504 -2.0525  0.9660 -0.8019
 1498SOL     OW15952   1.178   3.688   7.313  0.0370 -0.0709  0.2559
 1498SOL    HW115953   1.147   3.767   7.358 -0.2448  0.4612 -0.8800
 1498SOL    HW215954   1.143   3.690   7.224  1.5392 -1.4168 -0.3603
 1499SOL     OW15955   0.819   3.699  10.286  0.1831  0.1121 -0.1784
 1499SOL    HW115956   0.772   3.669  10.209  1.6755 -1.3220 -0.5303
 1499SOL    HW215957   0.766   3.774  10.314  1.8931  0.8715  1.0535
 1500SOL     OW15958   3.864   1.955  10.787  0.3662  0.3065  0.6644
 1500SOL    HW115959   3.896   2.029  10.839 -0.4020  0.8204  0.4164
 1500SOL    HW215960   3.917   1.953  10.708 -0.0607 -2.2859  0.4369
 1501SOL     OW15961   1.366   3.208   3.382 -0.3011 -0.0532  0.1140
 1501SOL    HW115962   1.443   3.232   3.331 -1.4163  1.6071 -0.7785
 1501SOL    HW215963   1.288   3.250   3.347 -0.4679 -0.2355  0.2624
 1502SOL     OW15964   4.211   2.622  13.056  0.1913 -0.4661 -0.3731
 1502SOL    HW115965   4.244   2.550  13.110  0.7910  1.2966  1.6081
 1502SOL    HW215966   4.122   2.632  13.090  0.7603  2.5301  0.2120
 1503SOL     OW15967   1.764   1.464   2.303  0.0537 -0.0076  0.0974
 1503SOL    HW115968   1.691   1.526   2.312 -0.1456 -0.2712  0.3368
 1503SOL    HW215969   1.824   1.504   2.365  0.5963 -0.2546 -0.2740
 1504SOL     OW15970   1.555   0.786   2.072 -0.6679 -0.0461 -0.6287
 1504SOL    HW115971   1.501   0.783   2.151  0.8186 -0.2699  0.3983
 1504SOL    HW215972   1.552   0.876   2.039  3.5813  0.7155  1.0879
 1505SOL     OW15973   1.658   1.594  11.332  0.3356 -0.0871  0.1560
 1505SOL    HW115974   1.616   1.526  11.278 -1.5451 -0.0094  1.5106
 1505SOL    HW215975   1.594   1.594  11.403 -1.5130 -2.7431 -1.4912
 1506SOL     OW15976   0.054   2.835   5.757  0.0456  0.9738 -0.3111
 1506SOL    HW115977   0.035   2.784   5.679 -1.4328  0.0603  0.6407
 1506SOL    HW215978   0.100   2.780   5.821 -2.3609  0.0492  0.6134
 1507SOL     OW15979   1.864   2.680   7.969  0.2654  0.2738 -0.2485
 1507SOL    HW115980   1.772   2.658   7.956 -0.5477  3.1136  0.7074
 1507SOL    HW215981   1.881   2.633   8.051  0.6714 -0.7866 -0.9312
 1508SOL     OW15982   3.423   1.915   2.101  0.0335 -0.4090 -0.6570
 1508SOL    HW115983   3.508   1.948   2.071  0.0238 -0.5962 -0.8859
 1508SOL    HW215984   3.422   1.970   2.180  0.1025 -0.8439 -0.3542
 1509SOL     OW15985   2.032   2.934   6.813  0.7735 -0.0630 -0.0107
 1509SOL    HW115986   2.072   2.898   6.893  0.8848 -0.1182 -0.0916
 1509SOL    HW215987   2.004   3.014   6.858  2.8817  1.8676 -2.1367
 1510SOL     OW15988   1.195   0.557   1.946 -0.0422  0.3682 -0.2220
 1510SOL    HW115989   1.139   0.618   1.897 -2.9323 -1.3629  0.8993
 1510SOL    HW215990   1.191   0.473   1.899  0.4382 -0.2239  0.8008
 1511SOL     OW15991   0.018   4.563   4.006  0.3877  0.1227  0.2143
 1511SOL    HW115992   0.080   4.497   3.976  0.9539  1.4917 -1.6538
 1511SOL    HW215993   4.704   4.520   4.081  1.9565  0.8159  1.4526
 1512SOL     OW15994   3.125   3.671   0.297 -0.0379 -0.1834 -0.6371
 1512SOL    HW115995   3.155   3.651   0.386  0.1890  2.4863 -0.1045
 1512SOL    HW215996   3.032   3.651   0.302 -0.7436  2.7865 -1.7552
 1513SOL     OW15997   4.348   1.647   1.255  0.0956 -0.0586  0.2573
 1513SOL    HW115998   4.362   1.576   1.317  0.2065  0.6484  1.0553
 1513SOL    HW215999   4.321   1.719   1.313  0.7239 -2.2128  3.2173
 1514SOL     OW16000   2.768   3.357   2.686  0.0810  0.4216  0.6736
 1514SOL    HW116001   2.832   3.317   2.744 -1.4977 -1.2231  1.2744
 1514SOL    HW216002   2.727   3.425   2.739 -0.3837  1.2973 -0.7823
 1515SOL     OW16003   0.650   3.541   9.237 -0.1439 -0.3734 -0.5635
 1515SOL    HW116004   0.705   3.597   9.291 -0.2840 -0.1924 -0.6070
 1515SOL    HW216005   0.601   3.496   9.307 -0.0915  3.8162  2.1899
 1516SOL     OW16006   3.904   3.279   1.276 -0.3484  0.2343 -0.0085
 1516SOL    HW116007   3.973   3.313   1.331 -0.0928  2.3884 -1.6715
 1516SOL    HW216008   3.832   3.300   1.336  1.1547  1.6712  1.2820
 1517SOL     OW16009   4.622   2.405   7.356 -0.1924  0.0168 -0.3277
 1517SOL    HW116010   4.668   2.448   7.285  0.5802 -1.8885 -0.9682
 1517SOL    HW216011   4.689   2.350   7.397  0.2261  0.3176 -0.6205
 1518SOL     OW16012   2.721   1.753   7.302  0.0933 -0.2726  0.1582
 1518SOL    HW116013   2.715   1.667   7.345 -0.6267 -0.9764 -1.3434
 1518SOL    HW216014   2.727   1.724   7.211 -0.0772  1.8377 -0.5215
 1519SOL     OW16015   0.322   0.865  15.170 -0.1083  0.3104 -0.4623
 1519SOL    HW116016   0.406   0.888  15.208 -0.3543  0.5255 -0.0465
 1519SOL    HW216017   0.286   0.953  15.155 -2.3711 -0.4759  0.3060
 1520SOL     OW16018   3.151   1.868   4.772  0.0600  0.1341  0.2962
 1520SOL    HW116019   3.080   1.852   4.710  0.6530  0.8887 -0.5699
 1520SOL    HW216020   3.183   1.781   4.793  2.6374  1.0188 -0.0499
 1521SOL     OW16021   1.076   0.197   2.564  0.0386  0.0488 -0.1407
 1521SOL    HW116022   1.015   0.163   2.499 -0.3920 -0.3281  0.4476
 1521SOL    HW216023   1.144   0.230   2.506  1.8859 -0.0783  1.9273
 1522SOL     OW16024   1.970   1.072   2.939 -0.0099  0.1385  0.5325
 1522SOL    HW116025   1.940   1.159   2.915 -0.0607  0.8268  3.0822
 1522SOL    HW216026   2.035   1.072   2.869 -2.5494  0.0783 -1.8114
 1523SOL     OW16027   2.955   2.146   4.721  0.1921 -0.1583 -0.1045
 1523SOL    HW116028   2.922   2.057   4.709  0.7562 -0.3369 -0.3004
 1523SOL    HW216029   2.909   2.188   4.794 -0.2738 -0.4641 -0.2221
 1524SOL     OW16030   0.825   1.023   4.170  0.0328 -0.6896 -0.3016
 1524SOL    HW116031   0.799   1.042   4.260 -0.2544 -1.0278 -0.3153
 1524SOL    HW216032   0.908   0.983   4.195  0.7694  0.2685 -1.2268
 1525SOL     OW16033   4.698   3.630   7.975  0.0342 -0.7221  0.0964
 1525SOL    HW116034   4.682   3.649   7.882 -1.1559 -0.0005  0.4545
 1525SOL    HW216035   0.056   3.587   7.962  0.6129  0.5158 -0.2383
 1526SOL     OW16036   1.932   0.541   0.422 -0.6236 -0.6519  0.2986
 1526SOL    HW116037   1.891   0.605   0.362  1.8560  0.5316 -0.1475
 1526SOL    HW216038   1.896   0.457   0.395 -3.1773  1.3072 -2.4032
 1527SOL     OW16039   1.341   1.972   4.661  0.2311 -0.2890  0.4290
 1527SOL    HW116040   1.390   1.993   4.581 -1.5479 -1.3293 -0.9277
 1527SOL    HW216041   1.399   1.918   4.715 -0.1736  1.0468  2.2053
 1528SOL     OW16042   1.997   3.436   6.330  0.6057  0.6907 -0.0307
 1528SOL    HW116043   2.002   3.347   6.296  1.0947 -0.1865  2.3528
 1528SOL    HW216044   1.908   3.458   6.303 -0.0221 -1.4437  0.3228
 1529SOL     OW16045   3.046   1.275  11.621 -0.1118  0.6896 -0.4813
 1529SOL    HW116046   3.037   1.261  11.716 -0.3294 -1.8815 -0.8842
 1529SOL    HW216047   2.955   1.263  11.593  0.0881  1.8960 -1.6449
 1530SOL     OW16048   1.340   0.656   7.877  0.0952 -0.9352  0.3939
 1530SOL    HW116049   1.389   0.583   7.915 -0.3930 -1.5716 -0.1823
 1530SOL    HW216050   1.392   0.684   7.801  2.3636 -0.6605  2.0342
 1531SOL     OW16051   2.557   1.414   6.701  0.3551  0.1112  0.3749
 1531SOL    HW116052   2.566   1.497   6.747  0.9760  0.3910 -0.2492
 1531SOL    HW216053   2.649   1.386   6.694 -0.2045 -1.4511 -0.6597
 1532SOL     OW16054   0.831   2.784   7.970  0.1017 -0.4429  0.5226
 1532SOL    HW116055   0.745   2.765   8.008 -0.1248  2.7320  1.5548
 1532SOL    HW216056   0.891   2.762   8.040  1.0674  1.1576  0.1929
 1533SOL     OW16057   1.093   0.220   8.342  0.2229  0.0456  0.7762
 1533SOL    HW116058   1.059   0.290   8.397  0.4381  0.5809  0.2305
 1533SOL    HW216059   1.019   0.161   8.354  0.5009 -1.1174 -3.0570
 1534SOL     OW16060   4.223   2.045   4.905 -0.2840  0.1287 -0.6450
 1534SOL    HW116061   4.187   1.996   4.979 -0.0897 -0.2025 -0.7742
 1534SOL    HW216062   4.307   2.078   4.938  0.5254 -1.0168 -1.5728
 1535SOL     OW16063   4.101   0.661   4.019  0.1944 -0.0134  0.1755
 1535SOL    HW116064   4.195   0.643   4.011  0.0398 -1.0666  0.5819
 1535SOL    HW216065   4.074   0.681   3.930 -0.3136  2.7441  0.9686
 1536SOL     OW16066   0.017   4.519  15.032  0.5320  0.2176 -0.0154
 1536SOL    HW116067   0.101   4.478  15.016  0.2849  0.2521 -1.3955
 1536SOL    HW216068   4.692   4.481  14.960  0.4527  0.6959 -0.2116
 1537SOL     OW16069   3.872   4.269   8.468 -0.1471  0.0554  0.7707
 1537SOL    HW116070   3.796   4.226   8.427  0.0294 -0.7638  1.3114
 1537SOL    HW216071   3.850   4.265   8.561 -0.5500 -2.3459  0.5934
 1538SOL     OW16072   3.934   2.031   8.088 -0.2339  0.3892  0.5083
 1538SOL    HW116073   3.920   2.064   7.999  1.0697 -0.2261  0.0847
 1538SOL    HW216074   4.020   2.065   8.111  0.4546 -0.6793 -0.5093
 1539SOL     OW16075   0.386   1.128   8.039  0.3763 -0.4140  0.3934
 1539SOL    HW116076   0.416   1.187   8.108  0.7529 -1.4526  1.1136
 1539SOL    HW216077   0.353   1.059   8.096 -0.4475  0.1735  0.6252
 1540SOL     OW16078   1.170   1.787   8.970 -0.1139  0.1307 -0.2144
 1540SOL    HW116079   1.174   1.793   9.065 -0.1243  0.8526 -0.2632
 1540SOL    HW216080   1.209   1.869   8.939  0.1918 -0.5034 -1.5196
 1541SOL     OW16081   4.306   1.837   7.844 -0.1732 -0.8104 -0.3575
 1541SOL    HW116082   4.267   1.911   7.891 -1.1516 -0.7254 -1.2876
 1541SOL    HW216083   4.401   1.846   7.853 -0.2224  2.0755 -2.7854
 1542SOL     OW16084   2.162   0.860   6.891  0.3149 -0.7413  0.1513
 1542SOL    HW116085   2.202   0.805   6.824  0.2230 -0.6275  0.0036
 1542SOL    HW216086   2.238   0.895   6.938 -0.0709  0.2200  0.0658
 1543SOL     OW16087   3.252   0.745   3.494 -0.0789 -0.3464 -0.2340
 1543SOL    HW116088   3.280   0.655   3.477 -0.3913 -0.7368  1.3006
 1543SOL    HW216089   3.336   0.786   3.471 -0.4007  0.6067  0.2884
 1544SOL     OW16090   1.861   1.160   2.553 -0.5205  0.2059 -0.3647
 1544SOL    HW116091   1.839   1.144   2.645  2.3582 -1.2390  0.1010
 1544SOL    HW216092   1.859   1.067   2.531  1.6172 -0.2559  1.2923
 1545SOL     OW16093   2.065   1.740   3.031  0.1766 -0.7019  0.0527
 1545SOL    HW116094   2.062   1.756   2.937 -1.0330  0.4838  0.2999
 1545SOL    HW216095   2.143   1.684   3.023  0.5297 -0.3102  0.7635
 1546SOL     OW16096   2.715   1.664  17.149 -0.0645  0.6893 -0.3416
 1546SOL    HW116097   2.777   1.713  17.094  1.4290  0.5721  1.2382
 1546SOL    HW216098   2.765   1.659  17.231  0.3265  1.2250 -0.5499
 1547SOL     OW16099   4.170   1.016   3.952  0.0609 -0.1023  0.3326
 1547SOL    HW116100   4.178   0.986   3.862 -0.5638 -2.6067  1.1201
 1547SOL    HW216101   4.261   1.004   3.976  0.5451  0.3261 -1.2946
 1548SOL     OW16102   1.603   3.132  17.166 -0.5068  0.1484 -0.7111
 1548SOL    HW116103   1.599   3.083  17.249  0.8288  0.5948 -0.3788
 1548SOL    HW216104   1.688   3.115  17.126  0.4187 -2.0192  2.1296
 1549SOL     OW16105   1.793   2.386   4.940  0.2646 -0.0637  0.1084
 1549SOL    HW116106   1.831   2.364   5.025 -1.9334 -1.5499  0.6974
 1549SOL    HW216107   1.702   2.361   4.955  0.7658 -2.4067 -0.6466
 1550SOL     OW16108   2.284   1.574   4.678 -0.0519 -0.3816 -0.2166
 1550SOL    HW116109   2.285   1.627   4.599 -0.8522  0.4385  0.3142
 1550SOL    HW216110   2.297   1.639   4.747  1.0967 -1.2862  0.4068
 1551SOL     OW16111   3.302   3.188  13.730  0.0067  0.1196  0.3206
 1551SOL    HW116112   3.281   3.244  13.656  1.2657 -0.5006 -0.5199
 1551SOL    HW216113   3.289   3.098  13.700  0.3364 -0.2539  1.2634
 1552SOL     OW16114   0.558   0.865   4.167 -0.2623 -0.4202  0.7033
 1552SOL    HW116115   0.595   0.885   4.254  0.2909  0.1394  0.3414
 1552SOL    HW216116   0.490   0.932   4.163  2.4600  2.2021 -1.3245
 1553SOL     OW16117   0.092   2.100   3.233 -0.1670  0.4352 -0.2913
 1553SOL    HW116118   0.140   2.146   3.301 -0.1664 -0.5548  0.3743
 1553SOL    HW216119   0.157   2.034   3.208  0.8008  1.0677  0.5695
 1554SOL     OW16120   2.517   0.113   0.266 -0.6086  0.3806  0.3835
 1554SOL    HW116121   2.470   0.112   0.350  2.0211 -2.0329  1.8289
 1554SOL    HW216122   2.555   0.025   0.257 -0.2380  0.7062 -1.2781
 1555SOL     OW16123   2.664   1.935   4.088  0.3423  0.2133  0.4631
 1555SOL    HW116124   2.708   2.019   4.099 -0.0481  0.5360 -0.4150
 1555SOL    HW216125   2.677   1.923   3.994  0.3356 -0.0332  0.4939
 1556SOL     OW16126   2.103   3.994   4.396  0.2538 -0.4694  0.1608
 1556SOL    HW116127   2.077   4.024   4.483 -3.9207  0.2051 -1.3433
 1556SOL    HW216128   2.019   3.955   4.375  0.0892 -0.8713  1.5799
 1557SOL     OW16129   0.250   2.681   8.640 -0.6220  0.0288 -0.5202
 1557SOL    HW116130   0.346   2.677   8.631 -0.3077  3.5199  1.2598
 1557SOL    HW216131   0.250   2.775   8.622 -1.7593  0.0749 -0.2600
 1558SOL     OW16132   0.781   1.360   6.323  0.2843  0.4037  0.2686
 1558SOL    HW116133   0.798   1.393   6.235  0.7051  0.2415  0.2863
 1558SOL    HW216134   0.810   1.434   6.377  1.6383 -0.2723  0.4850
 1559SOL     OW16135   3.474   2.579   6.261  0.0650  0.3002 -0.1737
 1559SOL    HW116136   3.544   2.515   6.270  0.0348  0.0982 -1.3985
 1559SOL    HW216137   3.527   2.657   6.243 -0.1383  0.3511 -0.5535
 1560SOL     OW16138   0.007   1.480   3.384 -0.3301 -0.5111  0.6423
 1560SOL    HW116139   0.092   1.523   3.371 -0.6751 -0.0018  0.0892
 1560SOL    HW216140   0.027   1.387   3.374 -0.9224 -0.5955  0.2817
 1561SOL     OW16141   4.217   0.753   0.735 -0.4092 -0.0054  0.9134
 1561SOL    HW116142   4.252   0.679   0.785  0.6300 -0.6341 -0.7492
 1561SOL    HW216143   4.172   0.701   0.668  0.2442  0.5813  0.0238
 1562SOL     OW16144   1.044   3.756   8.343 -0.2552 -0.0888 -0.1489
 1562SOL    HW116145   1.043   3.683   8.282 -1.3226 -0.8629  0.8065
 1562SOL    HW216146   1.097   3.719   8.415 -2.0808 -1.0715  0.6794
 1563SOL     OW16147   4.553   4.165   3.715 -0.0841  0.2466  0.3349
 1563SOL    HW116148   4.537   4.076   3.684 -0.0983  0.3741 -0.0303
 1563SOL    HW216149   4.568   4.213   3.633  0.0199 -0.0105  0.2041
 1564SOL     OW16150   1.199   2.972   2.572  0.2170  0.0554  0.6321
 1564SOL    HW116151   1.148   3.034   2.624 -2.3208  0.6226 -2.5084
 1564SOL    HW216152   1.146   2.894   2.593  2.0427 -0.9034  1.6738
 1565SOL     OW16153   4.386   4.249   5.475 -0.0083  0.2341 -0.6226
 1565SOL    HW116154   4.352   4.267   5.563  0.3994  0.8506 -0.5898
 1565SOL    HW216155   4.456   4.313   5.461  0.3973 -0.4383 -1.6615
 1566SOL     OW16156   0.299   3.191  13.339  0.5712 -0.2968  0.4287
 1566SOL    HW116157   0.382   3.145  13.321 -0.1636 -1.4398 -0.0492
 1566SOL    HW216158   0.240   3.151  13.275  0.9482 -0.4167  0.1549
 1567SOL     OW16159   2.943   4.155   5.922  0.0682 -0.5058  0.1038
 1567SOL    HW116160   2.859   4.133   5.881 -0.6421  0.2761  1.1191
 1567SOL    HW216161   2.927   4.133   6.014 -1.2578 -0.2261 -0.0485
 1568SOL     OW16162   3.622   2.700   6.577 -0.6984 -0.5369  0.4024
 1568SOL    HW116163   3.532   2.672   6.561 -1.0091 -0.5704  2.2521
 1568SOL    HW216164   3.623   2.674   6.669 -0.5281 -1.3987  0.1556
 1569SOL     OW16165   0.538   0.470   5.169 -1.0795 -0.2295  0.3640
 1569SOL    HW116166   0.451   0.471   5.130  0.1754 -1.4097 -2.4694
 1569SOL    HW216167   0.520   0.439   5.257 -1.2051  1.0111  0.7784
 1570SOL     OW16168   0.111   0.090  10.846  0.0065  0.1811 -0.1174
 1570SOL    HW116169   0.062   0.010  10.828  0.2138 -0.1540  0.7698
 1570SOL    HW216170   0.102   0.093  10.942  0.2017 -0.3130 -0.0856
 1571SOL     OW16171   3.506   1.040   3.906  0.7966  0.1880 -0.2277
 1571SOL    HW116172   3.446   0.967   3.887  1.9261 -1.3944  2.2489
 1571SOL    HW216173   3.519   1.083   3.822  1.0853  1.7596  0.6276
 1572SOL     OW16174   0.610   2.512   7.435  0.0757 -0.0304  0.2520
 1572SOL    HW116175   0.566   2.505   7.351  0.1216 -2.6178  0.4670
 1572SOL    HW216176   0.688   2.468   7.401  0.5894  1.2597 -0.2463
 1573SOL     OW16177   3.955   3.894   1.920 -0.2613 -0.1785 -0.0687
 1573SOL    HW116178   3.995   3.815   1.956 -0.6588 -0.9107 -1.2183
 1573SOL    HW216179   3.912   3.859   1.842 -1.6788 -1.9997  1.5287
 1574SOL     OW16180   2.636   0.400   2.999 -0.0172 -0.2189  0.0294
 1574SOL    HW116181   2.717   0.436   3.037 -0.8972  0.5701  1.1484
 1574SOL    HW216182   2.641   0.439   2.912 -1.6122 -1.1446 -0.4750
 1575SOL     OW16183   4.236   2.214  15.906 -0.1179  0.0977  0.1251
 1575SOL    HW116184   4.214   2.121  15.909  0.2507 -0.0169 -0.6634
 1575SOL    HW216185   4.238   2.222  15.810 -0.2375  1.0445  0.2011
 1576SOL     OW16186   1.547   1.825  10.185 -0.6078 -0.5123 -0.2956
 1576SOL    HW116187   1.454   1.804  10.182 -0.9270  0.7229  0.6121
 1576SOL    HW216188   1.544   1.879  10.264 -2.0780 -0.3294 -0.4696
 1577SOL     OW16189   1.455   3.628  10.082  0.3729 -0.2188 -0.2068
 1577SOL    HW116190   1.524   3.669  10.134  0.3814  1.8572 -1.8326
 1577SOL    HW216191   1.443   3.702  10.022  2.6468 -0.9886 -1.6553
 1578SOL     OW16192   0.083   4.065   6.802  0.4222 -0.0798  0.0733
 1578SOL    HW116193   0.116   3.975   6.796 -1.8443 -0.7795 -1.9723
 1578SOL    HW216194   0.155   4.109   6.848 -1.0954  2.9798 -0.5019
 1579SOL     OW16195   0.972   1.719   3.867  0.1740  0.5592  0.4226
 1579SOL    HW116196   0.943   1.676   3.947  3.3695  1.7073  2.2039
 1579SOL    HW216197   0.937   1.808   3.878 -1.8697 -0.2619  0.5266
 1580SOL     OW16198   4.367   4.032   0.587  0.3387  0.7934  0.4519
 1580SOL    HW116199   4.437   3.984   0.630 -0.4651  0.3598  1.2936
 1580SOL    HW216200   4.381   4.002   0.497 -0.0080 -2.6251  1.5491
 1581SOL     OW16201   4.508   4.424   2.473  0.5062  0.1246  0.2115
 1581SOL    HW116202   4.532   4.382   2.556  0.3300 -2.2538 -0.9241
 1581SOL    HW216203   4.560   4.504   2.483 -0.0694  0.5498 -0.1713
 1582SOL     OW16204   3.502   4.231  12.875 -0.9831 -0.3142 -0.2445
 1582SOL    HW116205   3.418   4.255  12.915 -1.6338 -3.4954  0.3178
 1582SOL    HW216206   3.475   4.152  12.827 -0.2329 -0.6585 -0.0899
 1583SOL     OW16207   1.833   4.154   4.139 -0.2895 -0.1581  0.3249
 1583SOL    HW116208   1.908   4.212   4.128 -0.4587 -0.3189 -1.8081
 1583SOL    HW216209   1.767   4.221   4.123 -1.3732 -1.3747 -0.3736
 1584SOL     OW16210   4.237   3.625   0.807 -0.0867 -0.0657 -0.3058
 1584SOL    HW116211   4.300   3.686   0.846 -1.2505  1.0978 -0.2418
 1584SOL    HW216212   4.158   3.678   0.818 -0.1610 -0.4721  1.1174
 1585SOL     OW16213   0.260   4.142   2.407  0.5324 -0.7279 -0.0806
 1585SOL    HW116214   0.198   4.105   2.344  0.4432  0.5675 -0.7629
 1585SOL    HW216215   0.339   4.129   2.356 -0.0573 -2.0177 -0.6659
 1586SOL     OW16216   1.461   1.116  17.156 -0.4026  0.5210 -0.0419
 1586SOL    HW116217   1.467   1.022  17.172  0.1144  0.4878 -0.4218
 1586SOL    HW216218   1.540   1.143  17.203  0.0637 -2.3193  0.8113
 1587SOL     OW16219   2.412   1.750   9.143  0.0409  0.2033  0.3261
 1587SOL    HW116220   2.383   1.841   9.139  1.6362  0.7721  1.4044
 1587SOL    HW216221   2.503   1.765   9.171  0.1235  0.3480 -0.0150
 1588SOL     OW16222   1.291   2.927   7.510  0.4561 -0.5721 -0.0519
 1588SOL    HW116223   1.282   2.952   7.418 -3.1633  0.1034  0.4831
 1588SOL    HW216224   1.325   2.840   7.489  0.0943 -1.1262  1.6579
 1589SOL     OW16225   0.653   0.537   0.091  0.1420 -0.0643  0.0490
 1589SOL    HW116226   0.688   0.501   0.173  1.1921  2.2144  0.5909
 1589SOL    HW216227   0.703   0.480   0.033 -0.9815 -1.1015  0.0794
 1590SOL     OW16228   3.429   1.245   1.419  0.2296  0.0042 -0.3279
 1590SOL    HW116229   3.361   1.232   1.354  0.7001 -0.5495 -0.7075
 1590SOL    HW216230   3.442   1.160   1.462 -0.7843 -0.4890 -1.0110
 1591SOL     OW16231   0.452   0.547   8.304  0.0601  0.5512  0.0016
 1591SOL    HW116232   0.358   0.555   8.318  0.2201  0.6888  0.9490
 1591SOL    HW216233   0.467   0.508   8.217 -1.0357  0.3897 -0.1116
 1592SOL     OW16234   0.554   1.556   7.794 -0.2200  0.0625 -0.4319
 1592SOL    HW116235   0.480   1.517   7.840  1.1789  0.0159  1.7867
 1592SOL    HW216236   0.524   1.548   7.703 -0.9152 -0.3159 -0.1653
 1593SOL     OW16237   3.008   2.362   6.033  0.1228 -0.4527 -0.5183
 1593SOL    HW116238   3.097   2.358   6.068 -0.0859 -0.3130  0.0321
 1593SOL    HW216239   2.968   2.431   6.087  2.3759 -0.5059  1.2379
 1594SOL     OW16240   0.012   2.641   5.137 -0.5903 -0.5727 -0.6357
 1594SOL    HW116241   4.652   2.680   5.150 -1.5753 -2.9136 -0.2938
 1594SOL    HW216242   4.709   2.555   5.166  1.4363 -0.8418  0.6650
 1595SOL     OW16243   3.918   0.799   4.679 -0.0523  0.3410  0.1859
 1595SOL    HW116244   3.830   0.834   4.693  1.0472  2.2082  2.6028
 1595SOL    HW216245   3.913   0.747   4.599 -1.3397  1.8120 -0.6978
 1596SOL     OW16246   3.868   1.030   2.007  0.0717 -0.9138 -0.0589
 1596SOL    HW116247   3.906   1.085   1.939 -0.7115 -2.2911 -1.6126
 1596SOL    HW216248   3.793   1.081   2.037  1.1918  1.2309 -0.9251
 1597SOL     OW16249   1.132   3.699  15.012  0.2643  0.1530 -0.6018
 1597SOL    HW116250   1.168   3.786  15.031 -0.5927  0.5992 -1.0215
 1597SOL    HW216251   1.093   3.683  15.098 -0.3545  1.9822 -0.5435
 1598SOL     OW16252   1.525   3.055   4.898 -0.0909 -0.4512  0.3295
 1598SOL    HW116253   1.588   3.006   4.952  0.1526 -0.5185 -0.0189
 1598SOL    HW216254   1.582   3.082   4.826 -0.8420  0.8305  0.2053
 1599SOL     OW16255   1.455   4.021   2.485 -0.6173  0.2853  0.2746
 1599SOL    HW116256   1.475   3.932   2.457 -1.3361  0.8426 -2.0037
 1599SOL    HW216257   1.362   4.001   2.490 -0.5390 -0.5582 -1.7285
 1600SOL     OW16258   4.495   0.011   8.114  0.1353  0.4011 -0.1915
 1600SOL    HW116259   4.507   0.056   8.198  0.3852 -0.0948  0.0401
 1600SOL    HW216260   4.534   4.653   8.137  0.0669  0.2757 -0.5415
 1601SOL     OW16261   4.106   1.328   8.232 -0.1771  0.5645  0.3030
 1601SOL    HW116262   4.146   1.242   8.234  0.2697  0.7542 -0.6322
 1601SOL    HW216263   4.037   1.298   8.291  0.3340 -0.8885  0.1550
 1602SOL     OW16264   3.682   1.951   2.002 -0.1312  0.2063 -0.2432
 1602SOL    HW116265   3.698   1.901   1.922  0.7353 -1.9567  1.2781
 1602SOL    HW216266   3.742   2.025   1.997 -0.9011  0.7316 -1.8169
 1603SOL     OW16267   1.530   2.271  10.799 -0.3094 -0.1166 -0.2202
 1603SOL    HW116268   1.478   2.345  10.831  0.2131 -0.3702  1.1869
 1603SOL    HW216269   1.601   2.276  10.862 -1.4483 -1.1190  1.1412
 1604SOL     OW16270   0.551   2.298   4.701  0.4895 -0.5739 -0.4348
 1604SOL    HW116271   0.566   2.390   4.723  0.5721 -0.7717  0.3412
 1604SOL    HW216272   0.629   2.260   4.741  0.5215  0.6414  0.6157
 1605SOL     OW16273   2.743   1.625   5.312  0.0982  0.6983  0.0168
 1605SOL    HW116274   2.827   1.611   5.268 -0.9422 -2.0359 -1.1345
 1605SOL    HW216275   2.750   1.573   5.392 -1.3576 -2.6113 -1.9693
 1606SOL     OW16276   0.966   2.147  13.206 -0.3426 -0.0589  0.1439
 1606SOL    HW116277   0.964   2.241  13.188  1.6623  0.2901  1.6903
 1606SOL    HW216278   0.875   2.130  13.231 -0.7228 -0.5108 -1.5599
 1607SOL     OW16279   0.572   4.612   4.829  0.3981  0.3704 -0.2640
 1607SOL    HW116280   0.633   4.644   4.762  2.3314 -1.2022  0.7391
 1607SOL    HW216281   0.548   4.697   4.866  2.0287 -0.5935  3.0756
 1608SOL     OW16282   3.713   3.186   8.889 -0.2117  0.1477  0.2030
 1608SOL    HW116283   3.630   3.169   8.845 -0.4395 -0.5303  0.8857
 1608SOL    HW216284   3.687   3.177   8.981 -1.4897  1.0714 -0.0667
 1609SOL     OW16285   1.633   4.362  15.008  0.1438  0.3594  0.5469
 1609SOL    HW116286   1.540   4.349  15.026 -0.1096 -1.6418 -2.3547
 1609SOL    HW216287   1.638   4.374  14.914  2.3026 -2.2249  0.3250
 1610SOL     OW16288   4.317   3.828   1.946 -0.0873 -0.4348 -0.2893
 1610SOL    HW116289   4.259   3.757   1.918 -0.3274 -0.6067  0.6290
 1610SOL    HW216290   4.274   3.861   2.025 -1.1596  0.5876 -1.2940
 1611SOL     OW16291   0.570   4.326   1.683 -0.1663 -0.3580 -0.5843
 1611SOL    HW116292   0.514   4.351   1.609  1.0629  0.8090 -1.1066
 1611SOL    HW216293   0.642   4.388   1.676 -1.2947  1.2143  1.5779
 1612SOL     OW16294   0.818   1.178  10.509 -0.0087  0.4279  0.4830
 1612SOL    HW116295   0.828   1.222  10.425 -1.8255  0.1608  0.1309
 1612SOL    HW216296   0.883   1.230  10.556  0.8295  1.1028 -1.4484
 1613SOL     OW16297   2.532   1.595   5.672 -0.4289  0.0241 -0.4320
 1613SOL    HW116298   2.579   1.674   5.644  0.2358  0.0349  0.6880
 1613SOL    HW216299   2.474   1.646   5.729  1.2645  4.7146 -2.9149
 1614SOL     OW16300   0.084   1.168  11.231 -0.2841 -0.5764  0.2517
 1614SOL    HW116301   0.096   1.120  11.313  1.2601  1.3298  1.1299
 1614SOL    HW216302   0.110   1.101  11.168 -1.7895  0.5489 -1.5759
 1615SOL     OW16303   0.166   4.429   9.949  0.2205 -0.0656  0.4081
 1615SOL    HW116304   0.206   4.470   9.873 -0.7587  0.8586  0.3931
 1615SOL    HW216305   0.245   4.430  10.004  0.5512  0.7263 -0.0940
 1616SOL     OW16306   1.349   4.117   8.576 -0.3095 -0.0950  0.7240
 1616SOL    HW116307   1.335   4.023   8.567 -0.2192 -0.1081  0.7202
 1616SOL    HW216308   1.260   4.148   8.587  0.3583  2.0195  0.2822
 1617SOL     OW16309   4.342   0.845   3.269 -0.5375  0.5276  0.1804
 1617SOL    HW116310   4.252   0.812   3.259  0.1854 -1.4040  0.1436
 1617SOL    HW216311   4.340   0.928   3.221 -1.1472  0.9698  0.9558
 1618SOL     OW16312   1.439   1.114  17.481 -0.3626 -0.2131 -0.6022
 1618SOL    HW116313   1.427   1.131  17.387  1.1269  0.3876 -0.6839
 1618SOL    HW216314   1.394   1.182  17.532 -0.5496 -0.0310 -1.0063
 1619SOL     OW16315   4.036   2.730   8.510  0.3346 -0.6164  0.1288
 1619SOL    HW116316   3.985   2.805   8.479  0.9588 -0.2174  0.0569
 1619SOL    HW216317   4.090   2.785   8.567 -0.6767  0.7160 -0.1730
 1620SOL     OW16318   2.556   1.609   2.135 -0.0567  0.3001  0.1081
 1620SOL    HW116319   2.618   1.655   2.078  1.6346 -1.7143  0.3224
 1620SOL    HW216320   2.585   1.628   2.224 -0.8065 -1.2374  0.6674
 1621SOL     OW16321   1.284   0.787  15.496 -0.3882  0.2956  0.4363
 1621SOL    HW116322   1.293   0.878  15.471 -1.6347 -0.6781 -3.6016
 1621SOL    HW216323   1.322   0.743  15.420  0.2558 -1.2967  1.6876
 1622SOL     OW16324   3.494   1.432   6.427 -0.1541 -0.1102  0.0347
 1622SOL    HW116325   3.404   1.398   6.429  0.1667 -0.8046  2.6511
 1622SOL    HW216326   3.539   1.351   6.404  0.8223  0.2533  0.6532
 1623SOL     OW16327   4.003   0.448   8.178  0.2545 -0.1541  0.2942
 1623SOL    HW116328   4.084   0.403   8.201  0.5591  0.3218  0.1523
 1623SOL    HW216329   3.973   0.391   8.107  0.2828 -0.5519  0.6007
 1624SOL     OW16330   0.517   3.949   9.096 -0.4047 -0.2434  0.7777
 1624SOL    HW116331   0.476   3.995   9.023 -1.3140 -0.8566  0.9073
 1624SOL    HW216332   0.556   3.870   9.058  0.9676 -0.3095  2.3298
 1625SOL     OW16333   2.310   4.514  10.625 -0.3968  0.0680  0.2188
 1625SOL    HW116334   2.332   4.470  10.707 -1.1266  0.5314  0.6718
 1625SOL    HW216335   2.368   4.471  10.563 -0.1223  2.4322 -1.1724
 1626SOL     OW16336   0.945   0.536   5.442  0.3894 -0.4114 -0.1832
 1626SOL    HW116337   0.892   0.468   5.485  0.4424 -0.2796  0.0917
 1626SOL    HW216338   1.002   0.475   5.395  0.2312  0.0156 -0.9176
 1627SOL     OW16339   4.555   1.581   0.469  0.2077  0.2092 -0.0952
 1627SOL    HW116340   4.626   1.545   0.417 -0.4350 -1.4590  0.1952
 1627SOL    HW216341   4.544   1.510   0.532  1.3542 -1.1631 -1.4451
 1628SOL     OW16342   0.703   1.128   5.605 -0.0442 -0.2937 -0.3669
 1628SOL    HW116343   0.726   1.202   5.548  1.7238 -0.2912  0.3686
 1628SOL    HW216344   0.623   1.151   5.652  0.2835 -1.0105  0.5369
 1629SOL     OW16345   0.883   2.819  16.669 -0.2062  0.0502 -0.6848
 1629SOL    HW116346   0.869   2.823  16.574 -1.5989 -0.3600 -0.4975
 1629SOL    HW216347   0.837   2.893  16.707  0.9443  0.3055  0.1898
 1630SOL     OW16348   2.470   1.747   4.095 -0.2903 -0.0338  0.3650
 1630SOL    HW116349   2.523   1.826   4.094 -1.1113  0.5200  0.2366
 1630SOL    HW216350   2.504   1.710   4.176  1.4637 -2.7728 -1.6179
 1631SOL     OW16351   0.958   1.040   5.970  0.1419 -0.2942  0.0711
 1631SOL    HW116352   0.944   0.971   5.905  0.7357  1.9005 -2.3826
 1631SOL    HW216353   0.884   1.097   5.947  1.1634  1.6522  1.6711
 1632SOL     OW16354   3.685   1.543  10.965 -0.3368  0.5746  0.3399
 1632SOL    HW116355   3.774   1.540  10.929  0.4065  1.2432  2.1091
 1632SOL    HW216356   3.668   1.635  10.985 -2.1098  0.6181 -1.3737
 1633SOL     OW16357   3.142   4.442   6.186 -0.1505 -0.6349 -0.5615
 1633SOL    HW116358   3.073   4.393   6.230 -1.5177 -0.9908 -3.0902
 1633SOL    HW216359   3.193   4.369   6.153  3.8073  2.1355 -0.6133
 1634SOL     OW16360   4.395   2.374   7.937 -0.0768  0.3657  0.2602
 1634SOL    HW116361   4.408   2.385   7.843  0.0883  0.8614  0.3438
 1634SOL    HW216362   4.334   2.446   7.951 -0.9582 -0.7150  2.0408
 1635SOL     OW16363   4.394   3.852   7.008 -0.3975  0.4328 -0.1961
 1635SOL    HW116364   4.338   3.874   7.082 -0.0193  3.0576 -0.7039
 1635SOL    HW216365   4.333   3.811   6.947 -1.2245  0.9918  0.2623
 1636SOL     OW16366   3.099   0.593   7.277  0.0206 -0.0893 -0.6402
 1636SOL    HW116367   3.022   0.648   7.262  1.5231  1.8710 -1.1074
 1636SOL    HW216368   3.133   0.626   7.360 -3.5021  3.5119 -0.6759
 1637SOL     OW16369   0.785   0.322   3.944 -0.4216 -0.5879 -0.5950
 1637SOL    HW116370   0.851   0.350   4.007 -1.3063 -0.9280  0.4831
 1637SOL    HW216371   0.801   0.393   3.881  0.4118 -1.7516 -1.6892
 1638SOL     OW16372   3.004   4.186   4.781 -0.3144 -0.0457  0.3408
 1638SOL    HW116373   2.944   4.148   4.845  2.5060 -2.1340  1.7308
 1638SOL    HW216374   3.026   4.117   4.718  1.6279  1.2034 -0.3223
 1639SOL     OW16375   4.558   0.083   5.331 -0.2683 -0.1351 -0.6684
 1639SOL    HW116376   4.614   0.094   5.408 -2.4395  0.0066  0.9053
 1639SOL    HW216377   4.471   0.081   5.372  0.0974  2.1788  0.2439
 1640SOL     OW16378   3.179   4.148   7.695  0.1731  0.2850  0.3059
 1640SOL    HW116379   3.156   4.235   7.660 -2.0889  0.1457  1.4939
 1640SOL    HW216380   3.272   4.144   7.719 -0.4622  2.0571  3.0749
 1641SOL     OW16381   0.188   4.283   3.078 -0.3402  0.6243  0.0403
 1641SOL    HW116382   0.166   4.256   2.989  0.9448 -1.4217  0.3404
 1641SOL    HW216383   0.276   4.246   3.078 -0.5628  0.0879  0.2708
 1642SOL     OW16384   4.033   4.036   2.704 -0.2269 -0.5096  0.0780
 1642SOL    HW116385   4.100   4.099   2.679 -0.8240  0.2168  0.3316
 1642SOL    HW216386   3.951   4.082   2.689 -0.5272 -1.0370  0.0771
 1643SOL     OW16387   2.228   1.267   9.543  0.4226  0.5309 -0.1317
 1643SOL    HW116388   2.161   1.332   9.561  1.5194  1.0977  1.8644
 1643SOL    HW216389   2.228   1.217   9.624 -1.8596  1.0745  0.1752
 1644SOL     OW16390   4.665   3.364   8.924 -0.0916 -0.3245  0.3145
 1644SOL    HW116391   4.571   3.371   8.910  0.2423  0.7006 -1.5598
 1644SOL    HW216392   4.675   3.371   9.019 -0.3910 -2.1372  0.4730
 1645SOL     OW16393   0.140   2.340   7.190  0.3629 -0.4681  0.2790
 1645SOL    HW116394   0.172   2.251   7.174 -0.2904 -0.8394  1.0252
 1645SOL    HW216395   0.074   2.346   7.121 -0.3099  2.3166  1.1603
 1646SOL     OW16396   2.245   0.129   8.400  0.5274  0.5200  0.1926
 1646SOL    HW116397   2.176   0.175   8.447  1.7578  0.2698  2.2385
 1646SOL    HW216398   2.251   0.178   8.318 -0.3099 -0.2475 -0.3241
 1647SOL     OW16399   1.801   1.478   4.753 -0.1248  0.6186  0.2368
 1647SOL    HW116400   1.746   1.412   4.712  1.9742  0.3839 -2.1409
 1647SOL    HW216401   1.810   1.534   4.676  2.1837  1.6389  1.2438
 1648SOL     OW16402   0.143   4.715   8.052 -0.3028 -0.5738 -0.8163
 1648SOL    HW116403   0.132   4.694   7.959  0.4244 -1.7135 -0.6516
 1648SOL    HW216404   0.228   4.674   8.066 -0.2634 -0.1704  0.1458
 1649SOL     OW16405   2.193   2.268   7.219  0.2079 -0.1936 -0.0424
 1649SOL    HW116406   2.187   2.364   7.217 -0.3199 -0.1988  1.1007
 1649SOL    HW216407   2.156   2.263   7.307 -0.1515  0.1266 -0.1706
 1650SOL     OW16408   0.249   4.054   9.023 -0.6773 -0.0337 -0.1474
 1650SOL    HW116409   0.246   4.033   9.116  1.0700  0.3342 -0.0168
 1650SOL    HW216410   0.194   3.985   8.987  1.0686 -2.3053  1.6176
 1651SOL     OW16411   0.404   4.075   7.585 -0.0190 -0.5266 -0.1971
 1651SOL    HW116412   0.350   3.996   7.593 -0.4896 -0.2273 -0.4425
 1651SOL    HW216413   0.417   4.074   7.490  0.1869 -3.5792 -0.1632
 1652SOL     OW16414   0.445   1.291   3.842 -0.0156 -0.5008 -0.2583
 1652SOL    HW116415   0.401   1.374   3.823 -0.0990 -0.7252 -1.0035
 1652SOL    HW216416   0.366   1.246   3.873  0.0337  0.8798  1.8976
 1653SOL     OW16417   3.649   2.841   2.646  0.1768 -0.3544  0.3299
 1653SOL    HW116418   3.586   2.797   2.703 -1.8923  1.8783 -0.2158
 1653SOL    HW216419   3.608   2.850   2.560  2.3009  0.8607 -0.5432
 1654SOL     OW16420   0.953   4.616  12.677  0.4963  0.4334 -0.3913
 1654SOL    HW116421   1.033   4.582  12.717  0.1988 -0.3618 -0.4683
 1654SOL    HW216422   0.974   4.709  12.668  0.8558  0.1205 -2.6474
 1655SOL     OW16423   4.540   3.561   3.313 -0.5809 -0.1987 -0.1299
 1655SOL    HW116424   4.557   3.613   3.234 -3.0055  1.4467  0.4375
 1655SOL    HW216425   4.498   3.639   3.350  0.0131 -0.3091  0.7634
 1656SOL     OW16426   1.270   0.818   5.658 -0.1490 -0.2814  0.2341
 1656SOL    HW116427   1.355   0.783   5.685 -0.0825  1.1581  1.8332
 1656SOL    HW216428   1.221   0.746   5.698 -1.0902  0.8083  1.0297
 1657SOL     OW16429   1.651   1.005   9.357  0.2865  0.0808 -0.2208
 1657SOL    HW116430   1.661   1.095   9.326 -1.7687 -0.1369 -1.5586
 1657SOL    HW216431   1.581   0.969   9.301  0.4962 -2.0150  0.8436
 1658SOL     OW16432   2.511   1.339   9.043 -0.1195 -0.1278  0.0777
 1658SOL    HW116433   2.562   1.327   9.122  1.1275 -1.9681 -0.9959
 1658SOL    HW216434   2.444   1.400   9.071 -0.6774 -1.2963  1.2723
 1659SOL     OW16435   0.818   4.458   2.402 -0.2380 -0.5904  0.1108
 1659SOL    HW116436   0.758   4.405   2.350  0.4139  0.5364 -1.7970
 1659SOL    HW216437   0.780   4.546   2.398  0.2389 -0.4242 -0.7171
 1660SOL     OW16438   0.370   3.449  10.273 -0.2151  0.1265  0.1289
 1660SOL    HW116439   0.319   3.528  10.288 -0.8418 -0.3753  0.6495
 1660SOL    HW216440   0.329   3.394  10.340 -1.0491  1.0780  0.3958
 1661SOL     OW16441   4.662   1.650  12.248 -0.3525  0.0033 -0.5011
 1661SOL    HW116442   4.719   1.595  12.302  1.1930 -0.1707 -2.3468
 1661SOL    HW216443   0.000   1.694  12.193  0.2516 -0.6220 -0.2899
 1662SOL     OW16444   0.486   2.574  10.011 -0.2925 -0.2193  0.1644
 1662SOL    HW116445   0.532   2.510  10.066  0.2586  0.7579  0.8491
 1662SOL    HW216446   0.557   2.589   9.949 -2.2460 -0.6149 -2.1474
 1663SOL     OW16447   4.480   4.142   6.974  0.0571  0.0949 -0.1139
 1663SOL    HW116448   4.475   4.047   6.974 -0.0122  0.0985 -0.1283
 1663SOL    HW216449   4.562   4.165   6.929  0.0113 -0.4363 -0.4587
 1664SOL     OW16450   0.784   4.201   4.187 -0.0283 -0.0998  0.0237
 1664SOL    HW116451   0.697   4.182   4.153 -1.3205  1.5104  2.4635
 1664SOL    HW216452   0.773   4.190   4.282 -0.2459  2.1395  0.2691
 1665SOL     OW16453   1.487   1.100   4.029  0.3368 -0.1266  0.3519
 1665SOL    HW116454   1.453   1.013   4.006 -1.9411  0.6411  0.8332
 1665SOL    HW216455   1.489   1.155   3.951  0.2900 -0.7208 -0.0682
 1666SOL     OW16456   0.047   2.959  11.835 -0.6280  0.2025  0.5112
 1666SOL    HW116457   0.042   3.035  11.893  2.1667  2.2736 -1.9321
 1666SOL    HW216458   0.112   2.900  11.871  0.4251  0.8263 -0.3553
 1667SOL     OW16459   0.792   4.360   4.621  0.1515  0.4137 -0.6884
 1667SOL    HW116460   0.815   4.442   4.576 -0.1579  0.5564 -0.5821
 1667SOL    HW216461   0.769   4.394   4.707 -1.0655  0.1335 -0.9070
 1668SOL     OW16462   3.903   0.010   4.616  0.2525 -0.0267 -0.2614
 1668SOL    HW116463   3.869   0.040   4.701  2.4005  0.5228  0.3992
 1668SOL    HW216464   3.829   4.713   4.560 -0.0249 -0.1873  0.1674
 1669SOL     OW16465   2.819   1.726   8.304 -0.2297 -0.4319 -0.3756
 1669SOL    HW116466   2.723   1.734   8.310 -0.2015 -0.6456  0.4103
 1669SOL    HW216467   2.845   1.715   8.395  1.2264  0.1891 -0.7184
 1670SOL     OW16468   1.246   3.397   9.690 -1.0660 -0.1288  0.3862
 1670SOL    HW116469   1.170   3.352   9.726 -0.6719  0.2558  1.7046
 1670SOL    HW216470   1.295   3.326   9.647 -0.5094  0.6637 -0.3022
 1671SOL     OW16471   0.549   1.767  12.633 -0.0607  0.8149  0.2329
 1671SOL    HW116472   0.541   1.759  12.538  3.6587 -0.3288 -0.0088
 1671SOL    HW216473   0.462   1.789  12.665 -0.9214  0.8723 -2.1947
 1672SOL     OW16474   1.849   3.922   0.159  0.1827  0.4189  0.8877
 1672SOL    HW116475   1.832   3.828   0.168  2.5057  0.1249  2.2739
 1672SOL    HW216476   1.874   3.922   0.067  0.7089  0.0767  1.0311
 1673SOL     OW16477   3.249   4.415   5.897 -0.5054  0.0528  0.2765
 1673SOL    HW116478   3.313   4.481   5.923 -1.6759  0.7970  1.2709
 1673SOL    HW216479   3.271   4.348   5.961  3.8921 -0.3917 -1.7077
 1674SOL     OW16480   0.072   3.374   9.169  0.0525 -0.3413 -0.1064
 1674SOL    HW116481   0.124   3.294   9.178  1.0173  0.2597 -0.3294
 1674SOL    HW216482   0.125   3.441   9.213  0.6118 -0.5819 -0.4192
 1675SOL     OW16483   1.557   2.206  13.621 -1.0070 -0.2533  0.1737
 1675SOL    HW116484   1.538   2.145  13.550 -0.6282 -0.7006  0.4605
 1675SOL    HW216485   1.604   2.154  13.685  0.0961 -1.5194 -1.6629
 1676SOL     OW16486   3.930   3.206   4.247  0.5252  0.6327 -0.0825
 1676SOL    HW116487   4.004   3.225   4.190  0.9358  1.0789  0.6007
 1676SOL    HW216488   3.976   3.222   4.330  2.0005  1.2658 -1.0349
 1677SOL     OW16489   1.048   4.080  10.923 -0.4289  0.1394  0.0310
 1677SOL    HW116490   0.963   4.091  10.966 -1.7468  1.2452 -2.8637
 1677SOL    HW216491   1.101   4.132  10.984  1.0803 -2.1549  0.6474
 1678SOL     OW16492   4.046   0.062   1.494  1.1765 -0.5066 -0.4987
 1678SOL    HW116493   4.140   0.077   1.485  0.9122  1.2088 -0.4195
 1678SOL    HW216494   4.016   0.141   1.448  1.0824 -2.1199 -3.2124
 1679SOL     OW16495   3.286   1.481   6.875  0.3684  0.4361  0.5103
 1679SOL    HW116496   3.366   1.463   6.824 -0.7405  0.5207 -1.2730
 1679SOL    HW216497   3.311   1.483   6.967 -0.1363  0.7861  0.6383
 1680SOL     OW16498   4.270   4.136   4.527  0.2364  0.0312  0.3558
 1680SOL    HW116499   4.251   4.167   4.616 -2.1500 -0.3640 -0.0195
 1680SOL    HW216500   4.217   4.198   4.477  0.8889  0.0901 -0.2604
 1681SOL     OW16501   1.053   1.556   3.670 -0.1686 -0.3688  0.5588
 1681SOL    HW116502   0.999   1.604   3.733 -0.2180 -0.6308  0.7185
 1681SOL    HW216503   1.072   1.631   3.614 -2.5537 -1.7731 -2.1146
 1682SOL     OW16504   1.044   1.387   5.851 -0.1112  0.3926  0.2168
 1682SOL    HW116505   1.138   1.394   5.835 -0.0057 -0.5142  0.4522
 1682SOL    HW216506   1.035   1.302   5.809 -0.6000 -0.8356  2.7923
 1683SOL     OW16507   0.692   0.084  10.325 -0.0187 -0.1304  0.0667
 1683SOL    HW116508   0.756   0.026  10.366  1.3110  0.3487 -1.3791
 1683SOL    HW216509   0.654   0.024  10.261  1.9460 -0.2303 -0.9977
 1684SOL     OW16510   2.004   2.062  15.017  0.1933 -0.2563  0.1079
 1684SOL    HW116511   2.001   2.118  14.939 -1.6566  0.3364  0.5788
 1684SOL    HW216512   1.928   2.006  15.002  0.0864  0.2462 -1.2042
 1685SOL     OW16513   1.890   0.671   6.225 -0.0741  0.1140  0.3895
 1685SOL    HW116514   1.905   0.594   6.171  1.7523  1.6895 -1.3647
 1685SOL    HW216515   1.984   0.686   6.238 -0.1865  2.9656 -2.2392
 1686SOL     OW16516   3.749   1.770   6.501 -0.1991  0.4732  0.0622
 1686SOL    HW116517   3.752   1.689   6.450  1.7408  0.9376 -0.5603
 1686SOL    HW216518   3.825   1.817   6.468  0.5935 -0.2752  0.8252
 1687SOL     OW16519   3.525   0.697   6.983  0.2269 -0.6430  0.0658
 1687SOL    HW116520   3.542   0.790   6.998 -0.1084 -0.5002 -0.4149
 1687SOL    HW216521   3.559   0.685   6.894  1.8699  3.6400  0.1220
 1688SOL     OW16522   1.124   3.438  15.007  0.1951 -0.6596 -0.0946
 1688SOL    HW116523   1.142   3.532  15.005  2.8133 -1.1563  0.3669
 1688SOL    HW216524   1.030   3.434  15.023  0.2257  0.3762  0.3802
 1689SOL     OW16525   1.939   0.282   7.399  0.1509  0.2445 -0.2167
 1689SOL    HW116526   1.926   0.210   7.462 -1.2457  0.0570 -0.7369
 1689SOL    HW216527   2.034   0.277   7.387  0.4632  1.8984  1.4331
 1690SOL     OW16528   0.097   2.807   3.731 -0.3249 -0.5532  0.1134
 1690SOL    HW116529   0.104   2.717   3.700  1.4911 -0.9984  1.8266
 1690SOL    HW216530   0.116   2.853   3.649 -1.7092  0.9720  0.6416
 1691SOL     OW16531   0.698   0.310   3.009 -0.3805 -0.3332  0.4151
 1691SOL    HW116532   0.648   0.229   3.002 -1.5040  0.4079 -0.1224
 1691SOL    HW216533   0.666   0.353   2.930  0.8635  0.6242  0.4403
 1692SOL     OW16534   3.823   2.548  11.149 -0.7703  0.3545 -0.4181
 1692SOL    HW116535   3.731   2.528  11.160 -0.9008  0.2533 -1.6663
 1692SOL    HW216536   3.852   2.465  11.111 -0.2676  0.5503 -0.4645
 1693SOL     OW16537   1.340   3.345   2.020  0.3391  1.1428  0.4018
 1693SOL    HW116538   1.258   3.331   1.972 -0.1434  1.0353  1.2551
 1693SOL    HW216539   1.355   3.255   2.049  0.4733  1.4976  1.4399
 1694SOL     OW16540   3.845   1.455   2.914 -0.0789  0.5979  0.3100
 1694SOL    HW116541   3.837   1.403   2.994 -3.5523  1.5505  0.5784
 1694SOL    HW216542   3.939   1.463   2.897 -0.5830  0.3077 -2.7257
 1695SOL     OW16543   4.507   2.891  11.822  0.0027 -0.1772  1.2749
 1695SOL    HW116544   4.456   2.966  11.793  0.2253 -0.0471  1.2234
 1695SOL    HW216545   4.591   2.935  11.833  0.8198 -1.5508  0.6680
 1696SOL     OW16546   3.519   3.911  10.165  0.0673 -0.1097 -0.2944
 1696SOL    HW116547   3.577   3.858  10.219 -1.9931 -1.9430  0.1429
 1696SOL    HW216548   3.467   3.850  10.113 -1.1524 -0.1622  0.9700
 1697SOL     OW16549   0.426   2.603   3.237 -0.2443 -0.2640 -0.1832
 1697SOL    HW116550   0.436   2.511   3.211 -0.1605  0.2791 -2.0977
 1697SOL    HW216551   0.331   2.613   3.225 -0.4037  1.3357  2.4114
 1698SOL     OW16552   0.682   0.103   8.911  0.2111 -0.1625  0.1474
 1698SOL    HW116553   0.688   0.134   9.002  1.4613 -0.4936  0.1699
 1698SOL    HW216554   0.706   0.010   8.909  0.5374 -0.0891  0.6621
 1699SOL     OW16555   1.748   2.045   9.248 -0.4801 -0.0786 -0.0018
 1699SOL    HW116556   1.839   2.016   9.235 -0.8071 -0.3180 -1.7205
 1699SOL    HW216557   1.761   2.066   9.341  2.9106  0.7598 -0.6486
 1700SOL     OW16558   1.194   2.561   6.713  0.3511  0.7176  0.2567
 1700SOL    HW116559   1.234   2.486   6.669  0.6667  0.1905  1.4371
 1700SOL    HW216560   1.259   2.621   6.678 -0.4229  0.0281 -2.3717
 1701SOL     OW16561   0.392   4.473  16.984  0.0921 -0.1062 -0.6925
 1701SOL    HW116562   0.464   4.503  16.929  0.7925 -0.9665 -0.2323
 1701SOL    HW216563   0.336   4.550  16.999  0.7358  0.3626 -0.6734
 1702SOL     OW16564   0.901   2.530  14.226  0.1228  0.5428  0.0082
 1702SOL    HW116565   0.895   2.435  14.223  0.7193  0.4818  0.6494
 1702SOL    HW216566   0.922   2.539  14.133  0.4244 -1.5359 -0.1106
 1703SOL     OW16567   1.179   0.193   7.831  0.2322 -0.2759 -0.2250
 1703SOL    HW116568   1.266   0.178   7.867  0.5058 -1.7611 -1.5397
 1703SOL    HW216569   1.140   0.238   7.906 -1.5539 -2.0284 -0.0903
 1704SOL     OW16570   0.110   0.655   4.653 -0.5520  0.0462  0.1539
 1704SOL    HW116571   0.025   0.663   4.612  0.2624  2.4304 -1.1082
 1704SOL    HW216572   0.081   0.624   4.739 -0.2126  0.8347  0.5623
 1705SOL     OW16573   2.381   3.789   2.671  0.0677  0.0034  0.0099
 1705SOL    HW116574   2.444   3.800   2.742 -0.8436 -0.4042  0.8976
 1705SOL    HW216575   2.295   3.810   2.707 -0.4545 -2.2547  0.1334
 1706SOL     OW16576   3.599   1.953   8.764 -0.3299  0.4471  0.0604
 1706SOL    HW116577   3.525   1.969   8.823 -2.5607 -1.8954 -2.0710
 1706SOL    HW216578   3.577   2.001   8.685 -1.8310 -1.2948 -0.5852
 1707SOL     OW16579   3.857   3.894   3.445 -0.0395  0.4096 -0.1061
 1707SOL    HW116580   3.841   3.805   3.414  0.7495 -0.5243  2.1946
 1707SOL    HW216581   3.909   3.931   3.374  0.9991  0.8807  0.9092
 1708SOL     OW16582   4.227   0.730   1.653  0.0455 -0.0134 -0.1671
 1708SOL    HW116583   4.316   0.709   1.681  0.5539  0.3476 -1.5113
 1708SOL    HW216584   4.223   0.821   1.681 -2.9623 -0.4455  0.8412
 1709SOL     OW16585   1.181   2.803  12.143 -0.1888 -0.1490  0.0544
 1709SOL    HW116586   1.198   2.741  12.214 -2.8414 -0.8334  0.0921
 1709SOL    HW216587   1.093   2.822  12.176  0.1088  2.5199 -0.6661
 1710SOL     OW16588   3.878   0.713   2.677 -0.4929 -0.3144 -0.4815
 1710SOL    HW116589   3.845   0.623   2.669 -0.1747 -0.2859 -2.0816
 1710SOL    HW216590   3.811   0.763   2.630  0.0454  0.3157 -0.5731
 1711SOL     OW16591   4.224   1.795   4.364 -0.7043  0.0632  0.5403
 1711SOL    HW116592   4.290   1.855   4.328 -1.8418  0.5318 -0.8184
 1711SOL    HW216593   4.144   1.846   4.345 -1.1096 -1.1847 -1.1121
 1712SOL     OW16594   0.347   3.272  16.936  0.5009 -0.0983 -0.1946
 1712SOL    HW116595   0.263   3.260  16.980  0.3497 -0.1431 -0.4930
 1712SOL    HW216596   0.413   3.247  17.000 -0.2198 -2.1835 -0.2832
 1713SOL     OW16597   0.217   4.563   3.033 -0.1252 -0.1530  0.0977
 1713SOL    HW116598   0.196   4.609   3.115  1.2065  0.2001  0.2375
 1713SOL    HW216599   0.196   4.473   3.055 -1.7059  0.6531  1.8994
 1714SOL     OW16600   1.802   2.927   4.559  0.4359  0.5798 -0.1844
 1714SOL    HW116601   1.895   2.905   4.559  0.0611 -1.0001  1.5031
 1714SOL    HW216602   1.763   2.839   4.555 -0.6492  1.0133  0.8080
 1715SOL     OW16603   4.314   1.921   5.995 -0.5056 -0.4353  0.4047
 1715SOL    HW116604   4.249   1.988   6.017  0.2632  0.7051 -0.7292
 1715SOL    HW216605   4.350   1.968   5.919 -1.1517  1.5201  1.3054
 1716SOL     OW16606   4.555   4.666  14.223  1.5785 -0.0057  0.2941
 1716SOL    HW116607   4.582   0.031  14.233  0.9011  0.3627 -1.1465
 1716SOL    HW216608   4.552   4.657  14.127  1.2374  2.8373  0.0402
 1717SOL     OW16609   4.081   1.649   8.762 -0.3299 -0.3920 -0.1401
 1717SOL    HW116610   4.053   1.627   8.673 -0.1406  0.2495 -0.3580
 1717SOL    HW216611   4.109   1.738   8.744  2.0451 -1.3835 -1.2457
 1718SOL     OW16612   0.433   0.844   3.294 -0.1871  0.1794 -0.2235
 1718SOL    HW116613   0.431   0.750   3.312  0.9122  0.2811  0.4279
 1718SOL    HW216614   0.498   0.866   3.360  0.8908  1.7410 -1.8042
 1719SOL     OW16615   0.301   3.090   5.517 -0.0183 -0.2530 -0.0028
 1719SOL    HW116616   0.320   2.996   5.527  0.8515  0.0159  0.8032
 1719SOL    HW216617   0.252   3.112   5.596  2.3618 -0.3256  1.4718
 1720SOL     OW16618   2.004   4.649   0.652 -0.4593  0.3608 -0.3583
 1720SOL    HW116619   1.967   4.564   0.626 -1.3014  1.2452 -2.0384
 1720SOL    HW216620   2.095   4.621   0.663 -0.1850  1.6873  0.7103
 1721SOL     OW16621   2.634   4.169  17.050 -1.1117  1.1067  0.7046
 1721SOL    HW116622   2.682   4.092  17.021 -0.6345  1.7528 -0.2168
 1721SOL    HW216623   2.615   4.220  16.972 -1.7491 -0.6694 -0.3045
 1722SOL     OW16624   4.671   4.266   5.584  0.7206 -0.1252 -0.0112
 1722SOL    HW116625   0.040   4.275   5.591  0.7021 -0.2321  0.4387
 1722SOL    HW216626   4.662   4.199   5.652  0.5676 -0.3334 -0.2391
 1723SOL     OW16627   0.827   4.528  17.247 -0.7320 -0.8648  0.0164
 1723SOL    HW116628   0.818   4.623  17.241 -2.5413 -1.2180 -2.9300
 1723SOL    HW216629   0.735   4.501  17.243 -1.0666  0.2753  0.2657
 1724SOL     OW16630   2.136   1.490   3.635 -0.7706  0.3180  0.8675
 1724SOL    HW116631   2.057   1.507   3.687 -0.6057  1.4362  0.7534
 1724SOL    HW216632   2.125   1.551   3.562  1.7266 -0.7934 -0.4481
 1725SOL     OW16633   1.917   3.460   6.762  0.1436  0.1181 -0.1302
 1725SOL    HW116634   1.833   3.446   6.720 -0.1780  0.6515  0.3349
 1725SOL    HW216635   1.972   3.483   6.687  1.2502  2.8422  1.5301
 1726SOL     OW16636   4.143   1.438  13.426 -0.0804  0.1273  0.5659
 1726SOL    HW116637   4.117   1.409  13.513 -1.3444 -1.8590 -0.4704
 1726SOL    HW216638   4.130   1.367  13.364 -1.7862  2.3701 -1.6743
 1727SOL     OW16639   2.232   2.273  15.061 -0.1218 -0.2276 -0.5033
 1727SOL    HW116640   2.242   2.258  14.967  0.3415 -0.6374 -0.3903
 1727SOL    HW216641   2.321   2.247  15.086  0.8789  1.1890 -2.6374
 1728SOL     OW16642   2.392   1.978   0.931  0.0254  0.2784  0.5596
 1728SOL    HW116643   2.352   2.065   0.921 -1.5481 -0.5003 -0.0288
 1728SOL    HW216644   2.446   1.967   0.852  0.5519 -0.2995  1.0028
 1729SOL     OW16645   4.217   2.929   9.949 -0.8903  1.1209  0.2889
 1729SOL    HW116646   4.190   2.975   9.870 -0.8951  0.7381  0.0715
 1729SOL    HW216647   4.225   2.837   9.924 -1.8156  1.2493 -0.4831
 1730SOL     OW16648   1.593   2.047  15.280 -0.1962  0.0695  0.2515
 1730SOL    HW116649   1.684   2.049  15.307 -0.6674  1.4218  1.7317
 1730SOL    HW216650   1.598   2.029  15.186  1.3940 -1.8753  0.7217
 1731SOL     OW16651   3.162   1.008  15.583 -0.4174 -0.1104  0.0830
 1731SOL    HW116652   3.077   0.980  15.617 -1.9644  2.1760 -1.8271
 1731SOL    HW216653   3.220   1.021  15.658 -1.9278  1.0632  1.0673
 1732SOL     OW16654   3.434   0.198   0.189 -0.1972 -0.0706 -0.1346
 1732SOL    HW116655   3.458   0.105   0.187 -3.4224 -0.9292  1.7590
 1732SOL    HW216656   3.349   0.195   0.231 -0.6436 -0.9396 -1.1013
 1733SOL     OW16657   0.195   3.458   7.509 -0.3575  0.0892 -0.3103
 1733SOL    HW116658   0.266   3.421   7.562 -2.2798 -0.7125  1.6697
 1733SOL    HW216659   0.135   3.494   7.574  0.8253 -1.1921  1.5120
 1734SOL     OW16660   2.096   4.239  17.667  0.3955  0.3099  0.4589
 1734SOL    HW116661   2.017   4.247   0.015  1.1970  1.1514  1.5172
 1734SOL    HW216662   2.090   4.153  17.626  0.3859  1.0797 -1.1420
 1735SOL     OW16663   2.637   0.971   3.207  0.1173 -0.0795 -0.3453
 1735SOL    HW116664   2.692   1.019   3.269  0.0484 -0.2036 -0.1876
 1735SOL    HW216665   2.674   0.883   3.210  3.0720  1.1542 -1.1489
 1736SOL     OW16666   0.517   2.282   6.983  0.3641  0.4245 -0.6227
 1736SOL    HW116667   0.580   2.219   7.018 -0.4771 -1.1404 -1.8651
 1736SOL    HW216668   0.540   2.281   6.890  2.4714 -0.3952 -0.0797
 1737SOL     OW16669   3.799   1.402   8.185 -0.3314  0.0171  0.6085
 1737SOL    HW116670   3.835   1.491   8.182 -0.7288  0.1148 -1.3900
 1737SOL    HW216671   3.791   1.389   8.090  0.4475 -0.0912  0.5599
 1738SOL     OW16672   4.078   4.543   6.584 -0.0364  0.0864 -0.3531
 1738SOL    HW116673   4.004   4.508   6.633 -1.2448  0.0475 -2.1872
 1738SOL    HW216674   4.134   4.466   6.576  0.3784  0.3749 -0.2050
 1739SOL     OW16675   1.521   0.113   9.200 -0.1990 -0.3297  0.0645
 1739SOL    HW116676   1.466   0.093   9.124  1.5314 -1.1246 -0.9909
 1739SOL    HW216677   1.565   0.028   9.205 -0.0922 -0.3101 -0.5329
 1740SOL     OW16678   3.887   3.481   1.731  0.3455 -0.1640 -0.1316
 1740SOL    HW116679   3.878   3.393   1.769  1.5262 -1.0405 -1.8634
 1740SOL    HW216680   3.980   3.495   1.749 -0.7333  4.1163  2.0926
 1741SOL     OW16681   0.929   1.774   5.115 -0.2580  0.6037 -0.1532
 1741SOL    HW116682   0.991   1.846   5.128 -0.4063  0.5806  0.6784
 1741SOL    HW216683   0.962   1.711   5.178 -1.1040 -1.0729 -1.3709
 1742SOL     OW16684   1.842   4.392   2.347  0.0147 -0.4905 -0.1161
 1742SOL    HW116685   1.802   4.322   2.398 -2.6392  0.8593 -0.3428
 1742SOL    HW216686   1.889   4.454   2.403  0.6406 -0.7221 -0.3932
 1743SOL     OW16687   3.782   2.454   9.028  0.8807 -0.4491  0.1608
 1743SOL    HW116688   3.758   2.489   9.113 -1.4280 -2.3327  0.3052
 1743SOL    HW216689   3.873   2.478   9.016  0.8643 -0.5522 -0.1832
 1744SOL     OW16690   2.604   0.717   6.417 -0.5127 -0.0014 -0.1415
 1744SOL    HW116691   2.688   0.681   6.447  1.4997  3.8527 -1.1471
 1744SOL    HW216692   2.567   0.745   6.501  1.3927 -1.8239  1.2851
 1745SOL     OW16693   0.036   0.251   4.416 -0.6198 -0.1739  0.7227
 1745SOL    HW116694   4.713   0.285   4.490  0.3020  1.7518  0.4519
 1745SOL    HW216695   0.024   0.161   4.447  0.7578 -0.5091  0.2847
 1746SOL     OW16696   1.347   1.293   7.237  0.0441 -0.3459  0.0126
 1746SOL    HW116697   1.285   1.220   7.247 -1.5865  0.9213 -0.8683
 1746SOL    HW216698   1.371   1.308   7.329 -0.7339 -1.2624  0.3750
 1747SOL     OW16699   3.703   0.647   0.929  0.7116  0.3491 -0.2165
 1747SOL    HW116700   3.711   0.554   0.953 -0.3262 -0.0834 -1.4958
 1747SOL    HW216701   3.686   0.627   0.837  1.1811  2.6887 -0.8061
 1748SOL     OW16702   2.518   3.907   6.693 -0.1342  0.2672  0.2303
 1748SOL    HW116703   2.610   3.934   6.691  0.2373 -1.0501 -0.8383
 1748SOL    HW216704   2.493   3.955   6.772 -0.1353  2.6407 -1.2330
 1749SOL     OW16705   1.759   0.017   1.739 -0.0999 -0.1805 -0.0977
 1749SOL    HW116706   1.807   4.672   1.781 -0.6080 -0.7422 -0.4694
 1749SOL    HW216707   1.763   4.723   1.646  1.5445 -0.0562 -0.0414
 1750SOL     OW16708   4.305   3.231  16.291  0.0042  0.2725  0.3597
 1750SOL    HW116709   4.382   3.246  16.345 -0.4021  1.5471  0.5986
 1750SOL    HW216710   4.262   3.317  16.298  3.0651  1.7152  1.6145
 1751SOL     OW16711   2.666   2.653   0.313 -0.0272 -0.2319 -0.2755
 1751SOL    HW116712   2.752   2.668   0.275  0.1461 -1.0921 -0.2192
 1751SOL    HW216713   2.608   2.677   0.240 -0.7633 -0.7321  0.1511
 1752SOL     OW16714   4.518   2.672  17.113  0.5497 -0.3109  0.1271
 1752SOL    HW116715   4.531   2.633  17.027  0.4574  0.3652 -0.1945
 1752SOL    HW216716   4.584   2.742  17.111 -0.4852  0.7492  3.2629
 1753SOL     OW16717   2.781   0.482   6.723 -0.1158 -0.3282 -0.0635
 1753SOL    HW116718   2.803   0.532   6.645 -1.5559 -2.4199 -1.8075
 1753SOL    HW216719   2.689   0.463   6.706  0.8826 -2.4106 -3.1295
 1754SOL     OW16720   0.543   2.416   6.709 -0.3457 -0.2798 -0.9636
 1754SOL    HW116721   0.542   2.339   6.653 -1.3623 -1.8534  1.2038
 1754SOL    HW216722   0.516   2.473   6.637  1.8663  2.0023  0.0362
 1755SOL     OW16723   4.217   2.153   6.799  0.3552 -0.4985 -0.1163
 1755SOL    HW116724   4.188   2.224   6.857 -0.6315 -0.5131 -0.5978
 1755SOL    HW216725   4.289   2.118   6.852  0.8873  0.0908 -0.4490
 1756SOL     OW16726   2.720   2.377   2.752  0.1362 -0.1768  0.3776
 1756SOL    HW116727   2.743   2.292   2.717 -2.0184 -0.2474 -0.9043
 1756SOL    HW216728   2.781   2.393   2.824 -0.0785 -1.6206  0.8713
 1757SOL     OW16729   0.913   3.310   7.100  0.1836  0.0325 -0.1838
 1757SOL    HW116730   0.970   3.378   7.137  2.2808 -1.7995 -0.0475
 1757SOL    HW216731   0.906   3.240   7.165  0.2702  0.5325  0.3660
 1758SOL     OW16732   3.833   3.796   8.917 -0.6977 -0.2440 -0.4761
 1758SOL    HW116733   3.745   3.827   8.938 -0.5076 -0.8121  1.1708
 1758SOL    HW216734   3.812   3.705   8.897  1.1667 -1.2865  2.2176
 1759SOL     OW16735   4.534   0.000  14.916  0.5594  0.2652 -0.1390
 1759SOL    HW116736   4.566   4.648  14.871 -0.3292  0.0045 -0.3148
 1759SOL    HW216737   4.441   4.704  14.921  0.5512  0.5994  1.1971
 1760SOL     OW16738   3.576   2.289   8.614 -0.1657 -0.2648 -0.4214
 1760SOL    HW116739   3.516   2.215   8.610  0.8252 -1.0768 -0.2484
 1760SOL    HW216740   3.614   2.292   8.702  1.2816 -0.1997 -1.0504
 1761SOL     OW16741   1.968   0.391  16.978 -0.5207  0.0954 -0.3110
 1761SOL    HW116742   1.990   0.338  16.901 -0.2174 -0.2376  0.0088
 1761SOL    HW216743   1.873   0.388  16.988 -0.6038 -0.0806 -1.1695
 1762SOL     OW16744   1.932   3.620   5.283 -0.2577 -0.4155 -0.0727
 1762SOL    HW116745   1.913   3.600   5.191  0.6550 -3.1962  0.3473
 1762SOL    HW216746   2.016   3.576   5.294  0.1156  0.2788 -0.1708
 1763SOL     OW16747   2.159   4.567   3.845 -0.0953  0.0811 -0.5638
 1763SOL    HW116748   2.079   4.620   3.846 -0.0480  0.2098 -2.9225
 1763SOL    HW216749   2.209   4.617   3.780 -1.4098 -1.4161 -2.7273
 1764SOL     OW16750   1.190   1.111   4.479 -0.5255 -0.3173 -0.3939
 1764SOL    HW116751   1.156   1.029   4.442  0.0011 -0.4576 -0.5679
 1764SOL    HW216752   1.242   1.149   4.409 -1.4444  1.1532 -0.2804
 1765SOL     OW16753   3.827   0.683   1.967  0.5531 -0.2139 -0.5005
 1765SOL    HW116754   3.843   0.594   1.999 -2.0895  0.2185  2.1172
 1765SOL    HW216755   3.739   0.703   2.000  0.3798 -0.4305 -0.8280
 1766SOL     OW16756   0.243   4.492   5.157  0.0395  0.7414  0.2896
 1766SOL    HW116757   0.307   4.536   5.212  0.0105  0.5798  0.4529
 1766SOL    HW216758   0.294   4.415   5.135 -1.9138 -0.2843 -0.6429
 1767SOL     OW16759   3.061   3.908  11.234  0.0187  0.1832  0.3562
 1767SOL    HW116760   2.988   3.863  11.277 -0.5111  0.7621  0.0678
 1767SOL    HW216761   3.016   3.936  11.155  1.7506 -0.6202 -0.9063
 1768SOL     OW16762   2.978   4.662   7.015 -0.9883  0.3073  0.1886
 1768SOL    HW116763   2.895   4.643   7.059 -1.1465 -0.5704 -0.4775
 1768SOL    HW216764   3.019   4.720   7.079 -0.6779  0.5332 -0.2124
 1769SOL     OW16765   3.577   1.303  15.363 -0.2700 -0.0190 -0.1060
 1769SOL    HW116766   3.593   1.273  15.273 -1.7601 -2.7748  0.5527
 1769SOL    HW216767   3.511   1.236  15.381  1.9071 -2.7082 -2.0461
 1770SOL     OW16768   3.978   0.436   2.486  0.5049 -0.2452  0.3124
 1770SOL    HW116769   4.032   0.437   2.565 -1.3306  0.6834  1.5456
 1770SOL    HW216770   3.889   0.450   2.518  1.0170 -1.7414  2.3870
 1771SOL     OW16771   0.458   0.292  10.491 -0.3720  0.2655 -0.3852
 1771SOL    HW116772   0.374   0.306  10.534  0.9286  2.2770  1.5143
 1771SOL    HW216773   0.493   0.380  10.501 -1.5047  0.4761  1.7799
 1772SOL     OW16774   2.139   1.131   0.935 -0.8490  0.1827 -0.2298
 1772SOL    HW116775   2.142   1.205   0.996  1.6460 -0.6985  0.7370
 1772SOL    HW216776   2.102   1.065   0.993 -2.1486  1.5624  0.5028
 1773SOL     OW16777   1.645   2.398   5.300  0.1128 -0.5649 -0.6654
 1773SOL    HW116778   1.722   2.362   5.256  0.8748  0.9565 -0.5715
 1773SOL    HW216779   1.597   2.316   5.313 -1.7189  0.5923 -0.0359
 1774SOL     OW16780   3.128   0.069   7.209 -0.7054  0.3936 -0.1093
 1774SOL    HW116781   3.147   0.162   7.224 -0.6870  0.6973 -2.0423
 1774SOL    HW216782   3.125   0.030   7.297  2.5617 -0.1103 -0.2165
 1775SOL     OW16783   1.413   0.194  14.698 -0.2080  0.2582 -0.3189
 1775SOL    HW116784   1.426   0.139  14.775 -0.0528  0.4593 -0.2003
 1775SOL    HW216785   1.325   0.164  14.677  0.8500 -0.3045 -3.9255
 1776SOL     OW16786   1.337   2.762   2.940  0.2655  0.5575 -0.6029
 1776SOL    HW116787   1.396   2.688   2.956  0.5415  1.0844  0.8081
 1776SOL    HW216788   1.251   2.721   2.948  0.1122  1.1147  0.5463
 1777SOL     OW16789   0.130   0.518  15.457 -0.4624  0.2632 -0.0613
 1777SOL    HW116790   0.177   0.557  15.531 -3.2124 -0.1622  1.9071
 1777SOL    HW216791   0.115   0.599  15.408  0.7838  0.9766  0.7151
 1778SOL     OW16792   0.227   1.684  12.673  0.3292  0.3819 -0.1790
 1778SOL    HW116793   0.154   1.721  12.623 -1.6975 -1.4074  1.4923
 1778SOL    HW216794   0.191   1.672  12.760 -0.6429 -1.1637 -0.8122
 1779SOL     OW16795   0.501   0.395   4.838 -0.0565 -0.5150  0.5341
 1779SOL    HW116796   0.468   0.420   4.752  0.0079 -2.5300 -0.0789
 1779SOL    HW216797   0.431   0.431   4.893 -0.2156  0.1420 -0.1077
 1780SOL     OW16798   3.268   0.002  10.227 -0.1073  0.2248  0.0128
 1780SOL    HW116799   3.246   0.087  10.263  0.2743  0.1280  0.4679
 1780SOL    HW216800   3.362   0.017  10.241 -0.1749  0.1225  0.5540
 1781SOL     OW16801   2.513   4.448   6.897  0.5947  0.3751  0.5097
 1781SOL    HW116802   2.444   4.382   6.902  1.8873 -1.0357 -0.3690
 1781SOL    HW216803   2.587   4.402   6.858  0.2690 -0.7033  1.1325
 1782SOL     OW16804   2.974   4.539  16.429 -0.4752 -0.3514 -0.8882
 1782SOL    HW116805   2.993   4.573  16.341  1.0951 -1.5463 -1.0160
 1782SOL    HW216806   3.033   4.464  16.431  0.6014  0.4966 -0.7590
 1783SOL     OW16807   1.200   1.242   2.932  0.1930 -0.2408 -0.4194
 1783SOL    HW116808   1.198   1.271   3.023  1.7696 -0.1741 -0.3933
 1783SOL    HW216809   1.272   1.295   2.897  0.2011  0.4292  0.6380
 1784SOL     OW16810   1.513   0.853  17.183  0.1060 -0.1519  0.2427
 1784SOL    HW116811   1.585   0.794  17.159  0.0253 -1.0321  2.1408
 1784SOL    HW216812   1.453   0.787  17.217  0.2658 -1.4845 -2.0700
 1785SOL     OW16813   4.147   2.801   4.769  0.2852 -0.4220  0.5403
 1785SOL    HW116814   4.119   2.724   4.818 -1.1939 -0.3738 -0.2234
 1785SOL    HW216815   4.088   2.788   4.694 -1.5241 -1.1397  2.0856
 1786SOL     OW16816   1.842   2.993  13.416 -0.3881  0.1947 -0.0661
 1786SOL    HW116817   1.747   2.989  13.405 -0.4490 -0.2213  0.5470
 1786SOL    HW216818   1.864   2.906  13.452  1.1524  1.0135  0.9672
 1787SOL     OW16819   2.122   1.863   6.062 -0.5673  0.3121  0.6773
 1787SOL    HW116820   2.135   1.779   6.105  1.8127  1.0109  1.3379
 1787SOL    HW216821   2.057   1.837   5.997 -0.1579  1.3421 -0.1454
 1788SOL     OW16822   0.981   0.706   2.358 -0.1769 -0.0035  0.1621
 1788SOL    HW116823   1.048   0.736   2.419  1.7105  2.0585 -2.9021
 1788SOL    HW216824   0.997   0.761   2.282  3.4086 -0.4762  0.5627
 1789SOL     OW16825   2.459   1.755  17.055  0.5493 -0.6129  0.1115
 1789SOL    HW116826   2.412   1.763  17.138 -0.8986  0.7139 -0.8299
 1789SOL    HW216827   2.542   1.730  17.096  1.0665  0.1289 -0.4829
 1790SOL     OW16828   0.018   2.697   1.109  0.2450 -0.5667 -0.7043
 1790SOL    HW116829   4.687   2.623   1.133  0.0844 -0.6080 -1.2180
 1790SOL    HW216830   4.688   2.771   1.087 -1.1060 -1.3869 -0.0248
 1791SOL     OW16831   0.245   3.190   4.910  0.2484 -0.1012 -0.2515
 1791SOL    HW116832   0.224   3.106   4.951  2.3831 -0.5687 -0.1362
 1791SOL    HW216833   0.161   3.225   4.879  0.5001 -0.2458 -1.0933
 1792SOL     OW16834   3.632   4.320  10.229  0.0630 -0.4115 -0.3791
 1792SOL    HW116835   3.707   4.379  10.236  0.3861 -0.8580 -0.0727
 1792SOL    HW216836   3.672   4.238  10.198  0.7161 -0.6415  1.0631
 1793SOL     OW16837   2.180   0.505   6.532 -0.2186  0.1303  0.4814
 1793SOL    HW116838   2.155   0.577   6.474 -0.4119 -0.8247 -0.5979
 1793SOL    HW216839   2.204   0.433   6.474 -0.6964  1.9666 -1.9995
 1794SOL     OW16840   1.803   2.202   9.500 -0.0139 -0.4675 -0.2511
 1794SOL    HW116841   1.861   2.256   9.446  1.0607 -1.1592  0.2207
 1794SOL    HW216842   1.830   2.222   9.589  0.9875  2.5955 -1.2425
 1795SOL     OW16843   3.559   2.905  13.881  0.5643  0.3172  0.5906
 1795SOL    HW116844   3.506   2.870  13.953 -0.2381  2.7896  1.1779
 1795SOL    HW216845   3.524   2.850  13.810 -2.6982  3.7370 -0.4489
 1796SOL     OW16846   3.085   1.603   9.459  0.2171 -0.2003 -0.0770
 1796SOL    HW116847   3.108   1.511   9.472  3.4990  1.1025  3.2460
 1796SOL    HW216848   3.171   1.638   9.434 -0.9080  1.9141 -0.9961
 1797SOL     OW16849   1.576   1.121   5.677  0.7866 -0.3549  0.6878
 1797SOL    HW116850   1.483   1.135   5.693  0.3808 -0.9630 -1.1331
 1797SOL    HW216851   1.569   1.091   5.586  0.1693  0.9869  0.2745
 1798SOL     OW16852   3.621   3.301  11.492 -0.4764  0.4102 -0.6133
 1798SOL    HW116853   3.708   3.325  11.460  0.1860 -2.2362 -0.7392
 1798SOL    HW216854   3.627   3.206  11.493  4.0339  0.7336  1.5447
 1799SOL     OW16855   2.264   3.984   7.622 -0.2751 -0.1250  0.0893
 1799SOL    HW116856   2.301   3.999   7.535  0.2074  1.4606  0.5664
 1799SOL    HW216857   2.177   3.952   7.597 -0.6526  2.5763 -2.0657
 1800SOL     OW16858   2.987   4.693   8.823 -0.3756  0.0305  0.6405
 1800SOL    HW116859   2.951   4.653   8.744  0.9935 -0.8373  0.4525
 1800SOL    HW216860   2.960   0.059   8.821 -0.5805  0.0022  1.9466
 1801SOL     OW16861   0.362   2.390   4.961 -0.2663 -0.1744 -0.1462
 1801SOL    HW116862   0.404   2.428   4.883 -3.2558  0.8949 -1.2529
 1801SOL    HW216863   0.298   2.330   4.923 -0.4994 -0.3229  0.4868
 1802SOL     OW16864   3.977   2.870   3.336  0.4959 -0.1075  0.0921
 1802SOL    HW116865   3.893   2.871   3.289 -0.2040  0.5073  1.3339
 1802SOL    HW216866   3.952   2.823   3.415 -3.1140 -2.7866 -2.6402
 1803SOL     OW16867   3.677   4.575   0.567  0.4558  0.0672  0.4792
 1803SOL    HW116868   3.748   4.630   0.602  0.7652 -0.4085  0.6034
 1803SOL    HW216869   3.627   4.553   0.646 -2.1486 -2.2257 -1.8379
 1804SOL     OW16870   2.871   1.220   1.059 -0.1657 -0.3238 -0.5411
 1804SOL    HW116871   2.884   1.133   1.023 -1.1043 -1.5883  2.1847
 1804SOL    HW216872   2.939   1.223   1.127 -1.9414 -0.7690  1.2587
 1805SOL     OW16873   0.627   0.329  15.384  0.7284 -0.4052  0.3643
 1805SOL    HW116874   0.597   0.375  15.462  0.0467 -1.3461  0.6554
 1805SOL    HW216875   0.557   0.346  15.321 -0.5692 -1.8558  1.4095
 1806SOL     OW16876   3.442   0.162   7.690  0.2974  0.4166  0.6487
 1806SOL    HW116877   3.484   0.077   7.675 -0.8294 -0.0217 -0.0955
 1806SOL    HW216878   3.441   0.197   7.601 -0.7701  1.7309  1.1689
 1807SOL     OW16879   0.473   3.884   0.007  0.2470 -0.1158 -0.0231
 1807SOL    HW116880   0.514   3.967  17.689  1.7364 -1.0694 -0.7783
 1807SOL    HW216881   0.520   3.822  17.658  1.5135  0.4349  0.4488
 1808SOL     OW16882   3.477   1.954   5.927 -0.1815 -0.2120 -0.0955
 1808SOL    HW116883   3.562   1.950   5.885 -1.0094 -2.8376 -1.5225
 1808SOL    HW216884   3.487   2.041   5.964 -0.6502  0.3996 -1.4129
 1809SOL     OW16885   2.735   2.856  13.867 -0.3655  0.2764 -0.0206
 1809SOL    HW116886   2.682   2.883  13.942 -0.4140  0.3230 -0.0716
 1809SOL    HW216887   2.805   2.812  13.915  1.4110  2.9949 -0.1158
 1810SOL     OW16888   0.296   2.766   4.867  0.4975 -0.8328 -0.3220
 1810SOL    HW116889   0.365   2.792   4.806  0.2107  0.1000 -0.2470
 1810SOL    HW216890   0.339   2.776   4.952  0.9542 -3.0690 -0.2693
 1811SOL     OW16891   1.901   4.586   8.489 -0.5074 -0.2544  0.5214
 1811SOL    HW116892   1.874   4.636   8.567  0.7237 -1.2380  1.5718
 1811SOL    HW216893   1.863   4.500   8.503  1.0272 -1.2491 -1.4840
 1812SOL     OW16894   0.382   0.056  14.629  0.2475 -0.1498 -0.4085
 1812SOL    HW116895   0.449   0.099  14.576  0.1248  2.0701  1.2261
 1812SOL    HW216896   0.441   4.721  14.672  0.5985  0.5371  0.0842
 1813SOL     OW16897   1.359   2.361   7.289  0.6452  0.2759  0.7849
 1813SOL    HW116898   1.355   2.454   7.267  0.0323  0.0232 -0.2015
 1813SOL    HW216899   1.383   2.328   7.202  2.0862 -1.1895  1.7256
 1814SOL     OW16900   1.637   3.353   5.787  0.2205 -0.1121 -0.0557
 1814SOL    HW116901   1.669   3.409   5.858  0.4317  0.7355 -0.8200
 1814SOL    HW216902   1.654   3.267   5.826  0.1232 -0.1591 -0.1180
 1815SOL     OW16903   1.640   1.852   7.993  0.5096 -1.0591 -0.4293
 1815SOL    HW116904   1.719   1.855   7.940  0.8396  0.6314  0.1652
 1815SOL    HW216905   1.629   1.758   8.010 -1.2727 -0.4599  1.6410
 1816SOL     OW16906   3.097   3.107   5.239 -0.4069  0.7012 -0.1541
 1816SOL    HW116907   3.177   3.116   5.186  0.8811 -0.8586  1.5427
 1816SOL    HW216908   3.120   3.039   5.301  0.7314 -0.3560 -1.7214
 1817SOL     OW16909   0.340   0.899   2.582 -0.2484  0.3158  0.3297
 1817SOL    HW116910   0.283   0.862   2.514  0.6182  2.0374 -1.3348
 1817SOL    HW216911   0.285   0.931   2.654 -1.1362 -0.4804  0.0035
 1818SOL     OW16912   4.626   2.281   8.570 -0.3523  0.0949 -0.3851
 1818SOL    HW116913   4.561   2.349   8.554 -0.5543 -0.5726 -2.3528
 1818SOL    HW216914   4.603   2.256   8.660 -1.1942  2.4815  0.0523
 1819SOL     OW16915   0.084   4.590   1.141 -0.0286 -0.2514  0.2654
 1819SOL    HW116916   0.015   4.548   1.090 -0.5297  1.4269 -0.4377
 1819SOL    HW216917   0.166   4.548   1.119  1.2321  2.7800 -0.8298
 1820SOL     OW16918   3.367   3.701  10.107  0.4374 -0.6376  0.6255
 1820SOL    HW116919   3.274   3.708  10.088  0.5902  1.8294  0.7111
 1820SOL    HW216920   3.371   3.651  10.189  1.5243 -1.8906 -0.2044
 1821SOL     OW16921   4.122   3.403   6.186  0.5002 -0.0228  0.1778
 1821SOL    HW116922   4.071   3.380   6.264 -0.7648  0.5490 -0.4774
 1821SOL    HW216923   4.206   3.397   6.231  0.4658  2.7523  0.6131
 1822SOL     OW16924   0.309   0.965   8.648 -0.3301 -0.3707  0.2496
 1822SOL    HW116925   0.390   0.937   8.605  0.8096  1.1927  1.4114
 1822SOL    HW216926   0.284   1.037   8.591  0.5576 -1.0218 -0.9765
 1823SOL     OW16927   1.732   1.438  11.001 -0.3798 -0.2497 -0.0862
 1823SOL    HW116928   1.685   1.433  11.084 -1.8548  0.5762 -0.8677
 1823SOL    HW216929   1.693   1.369  10.947  1.1092 -1.2567  0.1320
 1824SOL     OW16930   1.688   1.786  11.142 -0.3766  0.3189  0.7934
 1824SOL    HW116931   1.682   1.730  11.220  1.1189 -2.8883 -1.4001
 1824SOL    HW216932   1.719   1.866  11.183  1.8607  0.1704 -0.6384
 1825SOL     OW16933   4.340   3.749   3.452  0.2131 -0.5906 -0.2895
 1825SOL    HW116934   4.324   3.816   3.385 -1.1531 -0.2533  0.3983
 1825SOL    HW216935   4.280   3.778   3.519  0.2712  0.1492 -0.5627
 1826SOL     OW16936   4.044   2.434   9.866  0.2183  0.2589 -0.2064
 1826SOL    HW116937   3.978   2.476   9.811 -2.8664 -1.7529  1.9437
 1826SOL    HW216938   4.088   2.375   9.806 -1.0530 -0.6865 -0.2123
 1827SOL     OW16939   1.068   3.755  11.706 -0.3570 -0.7441 -0.3832
 1827SOL    HW116940   0.984   3.742  11.750 -1.0853  1.2363 -1.2018
 1827SOL    HW216941   1.124   3.791  11.776  2.4240  0.7010 -3.3656
 1828SOL     OW16942   4.668   1.929  16.633 -0.6422 -0.4674 -0.4183
 1828SOL    HW116943   4.686   1.840  16.664 -0.6287 -0.1194  0.5754
 1828SOL    HW216944   0.029   1.964  16.652 -0.8901  0.4199 -0.9315
 1829SOL     OW16945   2.356   1.860  13.667 -0.0330  0.0171  0.2895
 1829SOL    HW116946   2.324   1.871  13.577  0.1681 -2.1162 -0.0465
 1829SOL    HW216947   2.450   1.839  13.663 -0.3539 -1.2488 -0.5572
 1830SOL     OW16948   0.514   0.835   5.050 -0.1488 -0.0659 -0.0056
 1830SOL    HW116949   0.420   0.817   5.047  0.0853 -0.8661 -2.5378
 1830SOL    HW216950   0.525   0.903   4.983 -0.5034 -2.4037 -2.4255
 1831SOL     OW16951   4.391   1.139   1.061  0.1528  0.5315 -0.1560
 1831SOL    HW116952   4.374   1.053   1.023  1.6574  0.6409 -1.0632
 1831SOL    HW216953   4.394   1.114   1.154  0.2442 -0.1772 -0.3532
 1832SOL     OW16954   2.642   1.437  15.787  0.5262 -0.7159 -0.0991
 1832SOL    HW116955   2.568   1.454  15.846  0.8630 -0.6308  0.3009
 1832SOL    HW216956   2.700   1.504  15.824  0.8283  0.4256 -2.6667
 1833SOL     OW16957   2.170   0.956   5.805 -0.5662  0.2158 -0.1349
 1833SOL    HW116958   2.122   0.909   5.874 -0.0937 -0.0536  0.0101
 1833SOL    HW216959   2.121   1.035   5.784 -4.2791 -1.5898  1.7223
 1834SOL     OW16960   3.369   4.372   2.242 -0.1355 -0.3575  0.2436
 1834SOL    HW116961   3.373   4.453   2.293 -1.5580  0.5559 -1.0791
 1834SOL    HW216962   3.305   4.394   2.174 -1.1367 -0.3968  1.1738
 1835SOL     OW16963   3.984   0.710  14.545  0.2858  0.4145 -0.0143
 1835SOL    HW116964   3.908   0.696  14.601  0.9572  4.1987  1.8464
 1835SOL    HW216965   4.045   0.758  14.602  2.3100 -0.0242 -1.8041
 1836SOL     OW16966   3.371   4.484   3.195 -0.4579  0.3061  0.0769
 1836SOL    HW116967   3.405   4.453   3.279 -0.5737  0.4283  0.1691
 1836SOL    HW216968   3.453   4.527   3.169 -0.1299 -2.1441 -2.8368
 1837SOL     OW16969   2.904   1.246  10.688 -0.6210 -0.1145  0.5890
 1837SOL    HW116970   2.966   1.177  10.714 -0.1979 -0.2712 -0.8522
 1837SOL    HW216971   2.965   1.320  10.693 -1.4888  0.5086  2.0400
 1838SOL     OW16972   3.935   0.447   7.816 -0.1007  0.2333  0.3701
 1838SOL    HW116973   3.978   0.508   7.876 -0.5099 -0.4176  1.3221
 1838SOL    HW216974   3.962   0.362   7.851  0.5647  1.6787  3.4172
 1839SOL     OW16975   0.649   3.662  15.171  0.8081  0.0278  0.1090
 1839SOL    HW116976   0.712   3.731  15.192 -0.3091  1.6254 -1.7578
 1839SOL    HW216977   0.649   3.652  15.076  0.3830 -3.6633  0.5136
 1840SOL     OW16978   2.777   3.825   8.431  0.1188 -0.3013 -0.4244
 1840SOL    HW116979   2.819   3.764   8.370  1.9682  0.7500 -0.1939
 1840SOL    HW216980   2.687   3.808   8.400 -0.2456  2.9461 -1.1133
 1841SOL     OW16981   1.349   0.186   8.482  0.0965 -0.7024  0.1213
 1841SOL    HW116982   1.256   0.203   8.474  0.6743  1.3642 -2.1024
 1841SOL    HW216983   1.366   0.092   8.483 -1.3763 -0.9786 -0.5415
 1842SOL     OW16984   4.428   3.006   7.334 -0.3271  0.0223  0.2884
 1842SOL    HW116985   4.411   3.095   7.301  1.1476  0.5934  1.0471
 1842SOL    HW216986   4.364   3.006   7.405 -1.7577  2.2941 -0.9820
 1843SOL     OW16987   4.172   3.069   4.549  0.2971  0.0243 -0.1127
 1843SOL    HW116988   4.105   3.130   4.582  0.3516  0.5041 -0.9002
 1843SOL    HW216989   4.254   3.118   4.548 -0.0815  0.6414 -1.1234
 1844SOL     OW16990   1.695   1.927   0.982 -0.2522  0.1806  0.2511
 1844SOL    HW116991   1.687   1.984   1.059  0.5662  0.9498 -0.2237
 1844SOL    HW216992   1.640   1.984   0.928 -0.5484 -0.2812  0.0732
 1845SOL     OW16993   4.608   3.082  13.966  0.4660 -0.8770 -0.4422
 1845SOL    HW116994   4.645   3.000  13.933  1.2932  0.4345 -2.8632
 1845SOL    HW216995   4.521   3.051  13.989  0.6338  0.2392  1.6837
 1846SOL     OW16996   2.597   0.663  12.412  0.5417 -0.1433  0.0241
 1846SOL    HW116997   2.578   0.718  12.336 -2.3498 -3.7005 -1.8455
 1846SOL    HW216998   2.592   0.579  12.366  0.3762 -1.5622  2.6092
 1847SOL     OW16999   3.984   1.252   0.501  0.0414  0.5222  0.6075
 1847SOL    HW117000   4.068   1.279   0.463 -0.3925  2.0501  0.7435
 1847SOL    HW217001   3.995   1.162   0.529  1.0793  0.2461 -0.6768
 1848SOL     OW17002   4.316   4.252   3.145  0.6524 -1.1077 -0.1730
 1848SOL    HW117003   4.249   4.198   3.103  0.4549 -0.6095 -0.4950
 1848SOL    HW217004   4.333   4.323   3.083 -0.3072 -0.9509 -0.2507
 1849SOL     OW17005   1.409   3.267   4.545  0.4542 -0.7885 -0.4277
 1849SOL    HW117006   1.480   3.282   4.483  0.1764  0.6908 -0.3966
 1849SOL    HW217007   1.452   3.208   4.607 -1.6384  0.4325  2.2069
 1850SOL     OW17008   2.329   0.781   9.205 -0.5109  0.0886  0.1945
 1850SOL    HW117009   2.235   0.771   9.220 -0.0632 -1.3681  1.9643
 1850SOL    HW217010   2.339   0.859   9.150 -2.6271 -0.4163 -0.9148
 1851SOL     OW17011   0.722   3.948  10.310  0.1476  0.8205 -0.2267
 1851SOL    HW117012   0.730   4.029  10.362 -1.5647  1.4627 -0.9859
 1851SOL    HW217013   0.649   3.967  10.251  1.2292 -1.5107 -2.3208
 1852SOL     OW17014   4.232   1.236   2.664  0.0864 -0.3401  0.4916
 1852SOL    HW117015   4.279   1.204   2.587  1.8425  0.7872  1.1009
 1852SOL    HW217016   4.178   1.307   2.628  1.7988  1.4604  1.4537
 1853SOL     OW17017   2.546   1.213   3.361  0.8740 -0.8745 -0.2604
 1853SOL    HW117018   2.562   1.212   3.455 -0.7129 -0.3159  0.0100
 1853SOL    HW217019   2.531   1.124   3.329  0.4269 -0.7285 -0.4580
 1854SOL     OW17020   1.080   2.566   3.880 -0.2712 -0.3895  0.1234
 1854SOL    HW117021   1.167   2.586   3.844 -0.4182  0.6983  0.3735
 1854SOL    HW217022   1.053   2.490   3.828  1.4373 -2.5600  2.4052
 1855SOL     OW17023   3.277   1.947  11.328  0.0974  0.0976  0.0864
 1855SOL    HW117024   3.231   1.888  11.388  0.5778 -1.0115 -0.6547
 1855SOL    HW217025   3.309   1.887  11.261  1.6074  1.1240 -0.1198
 1856SOL     OW17026   4.617   1.369   6.221  0.2063  0.2645  0.0014
 1856SOL    HW117027   4.557   1.444   6.221  2.5559  2.1519 -0.4889
 1856SOL    HW217028   4.573   1.291   6.253 -1.6778  1.0138 -0.7656
 1857SOL     OW17029   3.212   3.047  13.197 -0.0605 -0.1372  0.0940
 1857SOL    HW117030   3.275   3.016  13.133 -1.3449 -0.0293 -1.2236
 1857SOL    HW217031   3.220   3.142  13.187 -0.7811 -0.0980 -0.0872
 1858SOL     OW17032   4.500   3.519  15.491 -0.5699 -0.5368  0.2212
 1858SOL    HW117033   4.447   3.549  15.565  1.2949  4.2438 -0.3801
 1858SOL    HW217034   4.492   3.603  15.446 -0.4871 -0.7684 -0.2231
 1859SOL     OW17035   2.272   2.064   6.159  0.2158 -0.4719  0.8032
 1859SOL    HW117036   2.310   2.107   6.083 -1.4849  3.0121  1.8930
 1859SOL    HW217037   2.226   1.992   6.117 -1.3956  1.6027 -0.9650
 1860SOL     OW17038   2.606   1.548   6.194 -0.7289 -0.1283 -0.1235
 1860SOL    HW117039   2.602   1.469   6.140  0.3169  0.4199 -1.0071
 1860SOL    HW217040   2.691   1.531   6.234 -2.1476 -0.1896  2.8334
 1861SOL     OW17041   0.976   3.485   1.819  0.5335 -0.1001 -0.1840
 1861SOL    HW117042   1.027   3.410   1.851  0.4764  0.3661  0.9855
 1861SOL    HW217043   0.994   3.477   1.725 -0.0555  0.8711 -0.3770
 1862SOL     OW17044   0.665   1.179   5.110  0.1468 -0.1814  0.2109
 1862SOL    HW117045   0.635   1.147   5.195 -1.2513  1.5353  0.3545
 1862SOL    HW217046   0.608   1.128   5.052 -1.0549 -0.2358  1.4388
 1863SOL     OW17047   3.749   0.548   8.259  0.2212  0.2690  0.1074
 1863SOL    HW117048   3.831   0.520   8.299 -0.6185  0.8347  2.2403
 1863SOL    HW217049   3.771   0.526   8.169  1.2190 -0.0282  0.4265
 1864SOL     OW17050   0.362   1.254  13.743  0.5909 -0.1096 -0.1673
 1864SOL    HW117051   0.385   1.287  13.830  0.0133  0.7944 -0.3510
 1864SOL    HW217052   0.448   1.238  13.705  0.9304  0.3239  0.4153
 1865SOL     OW17053   3.507   2.679  16.980 -0.2026 -0.4718 -0.1246
 1865SOL    HW117054   3.476   2.590  16.964 -1.8424  0.0567  0.0789
 1865SOL    HW217055   3.570   2.663  17.050 -0.0154 -1.9055 -0.6338
 1866SOL     OW17056   1.990   0.065  14.863  0.1318  0.0315  0.3452
 1866SOL    HW117057   2.016   0.130  14.798 -0.0842 -1.3918 -1.1676
 1866SOL    HW217058   1.903   0.093  14.892 -0.1101 -1.1890  0.7886
 1867SOL     OW17059   0.956   2.813  14.669 -0.5771 -0.2251 -0.3186
 1867SOL    HW117060   0.938   2.744  14.606  0.3065 -2.9339  2.3698
 1867SOL    HW217061   1.017   2.864  14.616  0.8844  0.4970  2.0525
 1868SOL     OW17062   0.581   2.748  15.597  0.1116  0.4118 -0.0283
 1868SOL    HW117063   0.623   2.821  15.552  0.8986  0.5957  1.0093
 1868SOL    HW217064   0.557   2.692  15.523 -2.9009  1.8613 -0.1701
 1869SOL     OW17065   4.534   0.871   3.539 -0.0249 -0.0178  0.2587
 1869SOL    HW117066   4.506   0.877   3.448  1.4332 -0.4951 -0.2281
 1869SOL    HW217067   4.503   0.953   3.578 -0.0896 -1.5625  3.4648
 1870SOL     OW17068   2.176   0.078   3.190  0.1791 -0.1867 -0.2923
 1870SOL    HW117069   2.240   0.011   3.164  0.1372 -0.3250 -0.0363
 1870SOL    HW217070   2.204   0.150   3.133 -0.4343 -1.0427 -1.6650
 1871SOL     OW17071   0.865   3.505   3.937  0.2256 -0.3592  0.1661
 1871SOL    HW117072   0.903   3.547   4.015  0.1724  1.7028 -0.9175
 1871SOL    HW217073   0.795   3.570   3.927 -0.2113 -1.2764 -2.7465
 1872SOL     OW17074   2.801   4.465   2.751  0.2692  0.2685  0.5714
 1872SOL    HW117075   2.795   4.372   2.729  3.1691  0.4942 -1.2033
 1872SOL    HW217076   2.761   4.467   2.838 -0.7015  1.4217  0.0936
 1873SOL     OW17077   3.623   2.027   5.194 -0.0960 -0.2119  0.1827
 1873SOL    HW117078   3.684   2.095   5.163  0.5294 -1.4159 -1.2135
 1873SOL    HW217079   3.581   2.074   5.266  2.6329 -0.9130  2.2488
 1874SOL     OW17080   1.357   3.484   1.636 -0.3617 -0.1719 -0.0951
 1874SOL    HW117081   1.382   3.394   1.659  3.5848  0.3023 -2.6248
 1874SOL    HW217082   1.403   3.514   1.558 -1.1567  0.0983 -0.4569
 1875SOL     OW17083   1.863   3.526   7.079  0.7299  0.0516 -0.2962
 1875SOL    HW117084   1.799   3.587   7.114 -0.8263 -1.3894 -0.6341
 1875SOL    HW217085   1.845   3.534   6.986  0.9357 -0.0002 -0.3417
 1876SOL     OW17086   0.383   2.119   9.151  0.0246 -0.0628  0.3079
 1876SOL    HW117087   0.442   2.159   9.215 -0.2093 -0.5416  0.8243
 1876SOL    HW217088   0.439   2.121   9.074  1.7212  2.8482  1.5967
 1877SOL     OW17089   0.214   0.101   0.020 -0.3093 -0.4052  0.1184
 1877SOL    HW117090   0.283   0.158  17.692 -0.9518  0.4372  0.2246
 1877SOL    HW217091   0.264   0.019   0.014 -1.7740 -1.3640  0.8723
 1878SOL     OW17092   0.061   4.275   6.472  0.0341 -0.0352 -0.0727
 1878SOL    HW117093   0.144   4.251   6.432 -0.9110  0.5526 -2.4356
 1878SOL    HW217094   0.083   4.334   6.544 -0.6912 -0.0427  0.1601
 1879SOL     OW17095   2.230   3.283   2.562 -0.5520  0.1940  0.0149
 1879SOL    HW117096   2.240   3.225   2.486  1.6707  1.3927 -0.5939
 1879SOL    HW217097   2.256   3.234   2.640 -0.1102 -2.2366 -1.6556
 1880SOL     OW17098   0.850   0.565  13.358  0.1444 -0.1068  0.0322
 1880SOL    HW117099   0.805   0.510  13.295  0.8688  0.9151 -1.3721
 1880SOL    HW217100   0.873   0.501  13.426  1.5028  0.9443  0.5798
 1881SOL     OW17101   1.471   3.029   0.142 -0.0838  0.8223 -0.0632
 1881SOL    HW117102   1.418   2.949   0.142 -0.5531  1.1263  0.9687
 1881SOL    HW217103   1.510   3.033   0.055 -1.7772  1.7501 -0.7874
 1882SOL     OW17104   1.416   0.541  10.134 -0.4437  0.0116  0.4593
 1882SOL    HW117105   1.458   0.622  10.165  3.4308 -1.3403 -1.2240
 1882SOL    HW217106   1.397   0.558  10.042 -1.5895 -0.7661  0.5645
 1883SOL     OW17107   4.686   4.184  14.989  0.4506  0.6732 -0.1965
 1883SOL    HW117108   4.706   4.236  14.911  0.1453 -0.3137 -0.9246
 1883SOL    HW217109   0.034   4.214  15.042  0.0810  1.3264 -0.0471
 1884SOL     OW17110   2.687   4.423   3.586 -0.5148 -0.7784  0.6328
 1884SOL    HW117111   2.766   4.374   3.610 -0.0947 -1.3859 -1.9733
 1884SOL    HW217112   2.688   4.499   3.643  0.9849 -1.2934  1.3093
 1885SOL     OW17113   0.159   4.027   3.967  0.6112  0.6618  0.2439
 1885SOL    HW117114   0.155   4.051   3.875  0.5131 -1.4589 -0.3032
 1885SOL    HW217115   0.085   3.969   3.986  0.2100  1.5686  1.4539
 1886SOL     OW17116   4.381   0.574   2.325  1.2808 -0.1843 -0.0440
 1886SOL    HW117117   4.390   0.636   2.398 -1.5779 -1.7645  1.6366
 1886SOL    HW217118   4.316   0.515   2.364  0.6763 -1.1603 -2.5543
 1887SOL     OW17119   2.644   0.699   4.306  0.1411  0.4341 -0.3934
 1887SOL    HW117120   2.562   0.661   4.274  1.8386 -1.6981 -2.2073
 1887SOL    HW217121   2.703   0.703   4.231 -1.1823 -3.0288 -1.5941
 1888SOL     OW17122   2.625   4.104  10.226 -0.1250  0.3285  0.3643
 1888SOL    HW117123   2.694   4.113  10.161  0.0472 -0.7309  0.4133
 1888SOL    HW217124   2.675   4.107  10.308 -0.4832  1.1589  0.5595
 1889SOL     OW17125   1.509   0.401   2.121  0.1715  0.2454  0.1536
 1889SOL    HW117126   1.559   0.380   2.200 -0.9711 -2.4590  0.1543
 1889SOL    HW217127   1.422   0.391   2.158 -0.3123 -0.4892 -1.1877
 1890SOL     OW17128   0.248   0.205  13.728  0.2075  0.8577 -0.0138
 1890SOL    HW117129   0.341   0.184  13.736  0.1618  1.4008  1.8018
 1890SOL    HW217130   0.239   0.248  13.812 -0.7370  1.4564 -0.4218
 1891SOL     OW17131   2.644   3.069   8.795  0.2129 -0.4880  0.4289
 1891SOL    HW117132   2.635   3.157   8.758 -0.4640 -0.5295  0.4972
 1891SOL    HW217133   2.736   3.079   8.817  0.7838 -0.9566 -1.6991
 1892SOL     OW17134   1.302   3.147   5.376 -1.1714  0.1417 -0.1889
 1892SOL    HW117135   1.246   3.221   5.399 -1.8577 -0.4292  0.0094
 1892SOL    HW217136   1.391   3.182   5.369 -1.2821  0.3612 -0.4796
 1893SOL     OW17137   4.302   4.553   1.608 -0.4476 -0.0280  0.1047
 1893SOL    HW117138   4.338   4.611   1.541 -1.6833 -2.2440 -2.4621
 1893SOL    HW217139   4.258   4.614   1.668  2.8284  2.2339  0.2208
 1894SOL     OW17140   3.964   3.146   7.971  0.6855 -0.2718  0.4196
 1894SOL    HW117141   3.980   3.213   8.037  0.3787  2.4539 -2.2571
 1894SOL    HW217142   3.869   3.137   7.972  0.6761 -0.0404  1.3683
 1895SOL     OW17143   2.262   0.607   6.801 -0.5562  0.1007 -0.9435
 1895SOL    HW117144   2.269   0.536   6.737  1.0602  1.1855 -1.9984
 1895SOL    HW217145   2.220   0.560   6.873 -0.4175  0.4249 -0.6510
 1896SOL     OW17146   1.435   3.093   5.991  0.1047 -0.6769 -0.1437
 1896SOL    HW117147   1.523   3.057   5.984  1.2328  2.5510 -2.7500
 1896SOL    HW217148   1.433   3.142   6.073 -1.2281 -0.8025 -0.0975
 1897SOL     OW17149   1.532   3.351  15.201  0.0279 -0.5560 -0.3002
 1897SOL    HW117150   1.438   3.338  15.212  0.1930  0.4813  2.4883
 1897SOL    HW217151   1.526   3.424  15.140  1.9849  0.4805  0.7316
 1898SOL     OW17152   3.090   1.587   6.360  0.1151  0.0746  0.1279
 1898SOL    HW117153   3.120   1.606   6.271  1.0653  0.1404  0.4624
 1898SOL    HW217154   3.097   1.671   6.404  0.7635 -0.7978  1.6803
 1899SOL     OW17155   3.372   3.258   1.473  0.1046  0.5056 -0.8470
 1899SOL    HW117156   3.303   3.263   1.538  1.8808  1.4330  0.9778
 1899SOL    HW217157   3.315   3.239   1.398 -0.4857  0.9257 -0.5044
 1900SOL     OW17158   0.092   2.898   3.994 -0.4230 -0.5428  0.2133
 1900SOL    HW117159   0.038   2.975   4.010 -0.3556 -0.2485 -1.0166
 1900SOL    HW217160   0.081   2.879   3.901  1.2659  4.1884 -0.9513
 1901SOL     OW17161   0.664   0.724   5.224 -0.0698  0.1388 -0.4551
 1901SOL    HW117162   0.612   0.780   5.167 -1.9313 -0.6142  0.5069
 1901SOL    HW217163   0.629   0.637   5.205  0.2278 -0.2997  0.9888
 1902SOL     OW17164   0.047   0.511  17.298 -0.2129  0.0207 -0.0947
 1902SOL    HW117165   4.718   0.524  17.375 -1.1274 -0.5537 -0.6580
 1902SOL    HW217166   0.045   0.601  17.263  1.1661  0.0601 -0.0622
 1903SOL     OW17167   2.784   1.458   2.585 -0.3859 -0.4104 -0.6284
 1903SOL    HW117168   2.866   1.433   2.543  0.3540  1.0941 -0.0732
 1903SOL    HW217169   2.802   1.417   2.670 -0.3706  1.7618  0.4164
 1904SOL     OW17170   1.224   1.106   6.007 -0.0302 -0.0260 -0.3318
 1904SOL    HW117171   1.136   1.069   6.002  0.0223 -0.4358  1.6093
 1904SOL    HW217172   1.211   1.187   6.058 -1.3372  0.0955 -0.8478
 1905SOL     OW17173   4.491   1.693  11.637  0.2493 -0.9746  0.8026
 1905SOL    HW117174   4.539   1.622  11.680  1.6303  0.5627  1.8051
 1905SOL    HW217175   4.520   1.681  11.547  0.1667 -1.6268  0.8612
 1906SOL     OW17176   4.252   2.955   7.544 -0.4050  0.2895 -0.0259
 1906SOL    HW117177   4.183   2.890   7.562 -2.3405  1.9857 -1.3178
 1906SOL    HW217178   4.248   3.002   7.627 -2.4808 -0.8045  0.4925
 1907SOL     OW17179   2.995   0.108   2.774 -0.2009 -0.6411 -0.2771
 1907SOL    HW117180   2.910   0.142   2.801  0.7534  1.4144  0.1017
 1907SOL    HW217181   3.012   0.047   2.846  2.0356  1.1549  0.7155
 1908SOL     OW17182   0.714   4.029   2.577 -0.3255 -0.2169 -0.3271
 1908SOL    HW117183   0.705   4.043   2.483 -3.0668  0.1663 -0.0069
 1908SOL    HW217184   0.662   4.103   2.608 -0.5075 -0.6366  0.3574
 1909SOL     OW17185   2.918   4.291   3.630  0.1302  0.5005  0.1854
 1909SOL    HW117186   2.931   4.353   3.701 -0.5211 -2.0251  2.5252
 1909SOL    HW217187   2.984   4.311   3.564  0.0687 -2.1765 -0.7116
 1910SOL     OW17188   0.360   0.014   1.089  0.6920 -0.3353  0.7642
 1910SOL    HW117189   0.374   0.101   1.125 -0.0432  0.2468 -0.3449
 1910SOL    HW217190   0.287   0.022   1.027  1.8440  1.7892 -0.3171
 1911SOL     OW17191   1.705   3.177  16.130 -0.3442 -0.3447 -0.1043
 1911SOL    HW117192   1.727   3.170  16.038 -0.8933 -1.9086 -0.1229
 1911SOL    HW217193   1.761   3.251  16.152 -0.7287 -0.3691  0.9983
 1912SOL     OW17194   2.559   0.243   6.928 -0.1895 -0.3491  0.0316
 1912SOL    HW117195   2.526   0.165   6.972 -0.5948 -1.2031 -1.7748
 1912SOL    HW217196   2.644   0.251   6.969 -0.4351 -1.2782  0.7122
 1913SOL     OW17197   3.103   0.967  15.968  0.5901 -0.4190  0.0858
 1913SOL    HW117198   3.193   0.964  15.934 -0.3274 -0.9662 -2.3319
 1913SOL    HW217199   3.050   1.000  15.895  0.4138 -1.3742 -0.2242
 1914SOL     OW17200   0.791   2.018   5.617  0.6147 -0.0429 -0.3047
 1914SOL    HW117201   0.736   2.026   5.539 -0.4262  0.6939  0.5058
 1914SOL    HW217202   0.875   2.058   5.592  0.9496 -0.3320  0.3712
 1915SOL     OW17203   1.690   1.477   7.320 -0.5466 -0.3289  0.2218
 1915SOL    HW117204   1.768   1.505   7.272 -0.1367  0.0451  1.1129
 1915SOL    HW217205   1.728   1.393   7.348  0.7893  0.5692  1.0688
 1916SOL     OW17206   1.666   3.211   6.804  0.4800  0.0589  0.3886
 1916SOL    HW117207   1.585   3.234   6.758  1.7853  0.6916 -1.6320
 1916SOL    HW217208   1.658   3.245   6.892  0.6495 -1.4722  0.9968
 1917SOL     OW17209   0.470   1.203   5.333 -1.0653  0.2538 -0.5536
 1917SOL    HW117210   0.381   1.214   5.300 -1.3836  0.7172  0.4576
 1917SOL    HW217211   0.495   1.296   5.338  1.0074 -0.3623  0.5971
 1918SOL     OW17212   0.420   3.520   8.826  0.3034  0.3600  0.2712
 1918SOL    HW117213   0.351   3.544   8.765  0.2166  2.1125  1.0535
 1918SOL    HW217214   0.393   3.430   8.845  0.1954 -0.3738 -3.4957
 1919SOL     OW17215   0.146   3.850   4.918 -0.2382 -0.2772 -0.3693
 1919SOL    HW117216   0.223   3.904   4.902  0.2593 -0.2575  2.2234
 1919SOL    HW217217   0.176   3.804   4.996  3.0288  0.7191 -1.0589
 1920SOL     OW17218   1.044   1.259   1.570 -0.4106  0.4844 -0.1433
 1920SOL    HW117219   0.999   1.197   1.512  4.0325 -0.0135 -3.0471
 1920SOL    HW217220   1.038   1.336   1.513  1.2745  2.1773  1.9614
 1921SOL     OW17221   2.928   4.367   7.977 -0.0415  0.1035 -0.3939
 1921SOL    HW117222   3.015   4.328   7.975  0.2816  0.7184  2.6228
 1921SOL    HW217223   2.917   4.411   8.061  1.4922  2.0726 -1.2235
 1922SOL     OW17224   0.608   2.359   5.495  0.9574  0.5664 -0.0205
 1922SOL    HW117225   0.644   2.389   5.578  1.3683  0.1801 -0.0571
 1922SOL    HW217226   0.665   2.388   5.423  1.0896 -0.6972 -0.4275
 1923SOL     OW17227   1.974   3.624  16.203 -0.1922 -0.2224 -0.1679
 1923SOL    HW117228   1.966   3.699  16.144 -1.1916 -1.8553 -2.1339
 1923SOL    HW217229   2.067   3.623  16.224  0.2382 -3.3871 -2.0339
 1924SOL     OW17230   3.748   2.029   5.831  0.0531 -0.0980 -0.6314
 1924SOL    HW117231   3.766   2.120   5.805  2.7739 -0.4348  0.1303
 1924SOL    HW217232   3.774   2.039   5.923  0.5318  1.0725 -0.8836
 1925SOL     OW17233   2.237   1.943   5.443  0.1588  0.8029 -0.1386
 1925SOL    HW117234   2.315   1.968   5.492 -0.4443  2.8196 -0.2155
 1925SOL    HW217235   2.168   1.957   5.508 -0.3047 -0.7604 -0.2943
 1926SOL     OW17236   0.561   3.332   6.969 -0.4099 -0.1057 -0.7194
 1926SOL    HW117237   0.517   3.257   6.928  2.6274 -0.5574 -3.2347
 1926SOL    HW217238   0.647   3.289   6.965 -1.1897 -1.3936 -4.0113
 1927SOL     OW17239   4.183   2.070   7.878 -0.2915 -0.8166  0.1680
 1927SOL    HW117240   4.193   2.087   7.971  0.4409 -1.0075  0.1285
 1927SOL    HW217241   4.094   2.098   7.857 -1.0214 -2.3416  1.2998
 1928SOL     OW17242   0.924   4.578   4.499  0.7221  0.5028  0.3284
 1928SOL    HW117243   0.886   4.539   4.421  0.0851 -1.9552  1.8706
 1928SOL    HW217244   1.001   4.618   4.458  1.7444 -0.0662  1.6671
 1929SOL     OW17245   3.056   0.769  10.764 -0.0376  0.2742 -0.6234
 1929SOL    HW117246   3.016   0.710  10.700 -1.2095  1.4131 -0.9331
 1929SOL    HW217247   3.097   0.705  10.823  2.4123 -0.4296 -3.0735
 1930SOL     OW17248   2.053   2.553  12.487  0.5934 -0.1844 -0.1312
 1930SOL    HW117249   2.051   2.510  12.401 -0.4299 -0.1016 -0.1488
 1930SOL    HW217250   2.145   2.549  12.513  0.4290  1.2074  0.6354
 1931SOL     OW17251   3.924   1.869  17.346  0.0917 -0.4530  0.1458
 1931SOL    HW117252   3.982   1.872  17.269 -1.3885 -0.3336 -0.9587
 1931SOL    HW217253   3.988   1.867  17.417  0.5420  0.5744 -0.2162
 1932SOL     OW17254   2.351   1.618  16.627  0.6780  0.0918 -0.4713
 1932SOL    HW117255   2.314   1.704  16.608  0.1249  0.1580  0.8809
 1932SOL    HW217256   2.378   1.598  16.538 -1.7921  2.4215 -1.7330
 1933SOL     OW17257   0.657   4.499   3.980 -0.6501  0.1613  0.5713
 1933SOL    HW117258   0.613   4.584   3.969 -0.6472  0.0472 -0.3462
 1933SOL    HW217259   0.744   4.536   3.962 -0.4959 -0.0706  0.8550
 1934SOL     OW17260   4.653   3.201   6.719 -0.6000 -0.4892 -0.6446
 1934SOL    HW117261   4.581   3.146   6.750  0.1248 -1.2547 -0.3053
 1934SOL    HW217262   4.648   3.273   6.782 -3.2286 -0.5764 -0.7525
 1935SOL     OW17263   0.075   1.986   6.851  0.7935  0.0967 -0.2989
 1935SOL    HW117264   0.061   2.071   6.810 -0.3946 -0.2972 -0.6996
 1935SOL    HW217265   4.711   1.972   6.880  1.3719 -1.5589  0.7011
 1936SOL     OW17266   3.188   0.104   8.323  0.0658 -0.1964  0.3512
 1936SOL    HW117267   3.218   0.014   8.311  1.3559  0.5734 -2.0749
 1936SOL    HW217268   3.095   0.082   8.316 -0.1990  1.3276 -0.6485
 1937SOL     OW17269   0.680   4.108   9.233 -0.0231 -0.0312 -0.2975
 1937SOL    HW117270   0.626   4.185   9.245  0.4992  0.5498 -1.5849
 1937SOL    HW217271   0.621   4.046   9.190  0.4522  0.8227 -2.2146
 1938SOL     OW17272   3.013   2.437   5.345  0.4513  0.4141  0.0155
 1938SOL    HW117273   2.950   2.492   5.299  1.4376  1.3786 -0.1713
 1938SOL    HW217274   2.970   2.418   5.428 -1.3978  3.0087 -0.3652
 1939SOL     OW17275   4.317   3.018  14.077  0.0014  0.4561  0.0995
 1939SOL    HW117276   4.275   3.098  14.107  1.9561  0.5237  2.6131
 1939SOL    HW217277   4.253   2.992  14.011  0.3035 -1.5216  0.5596
 1940SOL     OW17278   0.379   2.052   3.903  0.1225  0.0060 -0.3471
 1940SOL    HW117279   0.321   1.976   3.910  0.2786  0.0237  1.1686
 1940SOL    HW217280   0.315   2.108   3.861  0.0617  0.2853  0.1196
 1941SOL     OW17281   1.571   4.076   1.467  0.2369  0.0745  0.5063
 1941SOL    HW117282   1.488   4.059   1.512 -0.2702 -0.3355 -0.5809
 1941SOL    HW217283   1.632   4.018   1.513 -0.4901 -1.4222 -0.4370
 1942SOL     OW17284   2.709   1.845   3.396  0.3647 -0.1600 -0.2862
 1942SOL    HW117285   2.667   1.760   3.386  0.4904  0.0377 -2.4893
 1942SOL    HW217286   2.802   1.831   3.410  0.3433 -0.6570 -0.6691
 1943SOL     OW17287   1.483   1.271   9.508 -0.5607 -0.2421 -0.1218
 1943SOL    HW117288   1.501   1.245   9.598 -0.3683  2.7082  0.6941
 1943SOL    HW217289   1.452   1.360   9.526  1.2544  0.6798 -1.5559
 1944SOL     OW17290   0.944   2.075   3.622  0.3909 -0.1621  0.4995
 1944SOL    HW117291   0.938   2.076   3.718 -2.2037 -1.3226  0.3680
 1944SOL    HW217292   0.849   2.071   3.607  0.1277  0.6042  1.9828
 1945SOL     OW17293   2.120   3.053   5.420  0.1805 -0.1008 -0.1678
 1945SOL    HW117294   2.061   3.098   5.360  0.0659  0.3541  0.2908
 1945SOL    HW217295   2.171   3.001   5.358 -0.9124 -0.0641 -1.1102
 1946SOL     OW17296   4.039   3.515   8.723  0.4634 -0.0518  0.2717
 1946SOL    HW117297   4.114   3.562   8.688  1.2315 -0.3518  1.5198
 1946SOL    HW217298   4.057   3.432   8.679 -1.5132 -0.2170 -0.2283
 1947SOL     OW17299   3.611   1.402   2.358  0.0599 -0.4651 -0.2031
 1947SOL    HW117300   3.680   1.422   2.295 -0.1017 -0.2492 -0.3109
 1947SOL    HW217301   3.644   1.445   2.437  2.7511  1.7420 -2.5389
 1948SOL     OW17302   2.237   1.321  12.566 -1.1037  0.1648 -0.4909
 1948SOL    HW117303   2.164   1.280  12.519 -0.0565 -1.6193 -0.5802
 1948SOL    HW217304   2.189   1.391  12.609 -2.7220  1.0633 -3.7300
 1949SOL     OW17305   1.806   0.401   4.782  0.4154 -0.3576 -0.4002
 1949SOL    HW117306   1.835   0.333   4.843 -0.6693 -0.2636  0.2114
 1949SOL    HW217307   1.757   0.460   4.840 -0.4055 -2.7777  1.3515
 1950SOL     OW17308   3.678   3.249   4.932  0.2134  0.3533  0.4204
 1950SOL    HW117309   3.740   3.298   4.878  1.1866 -1.2325  0.0931
 1950SOL    HW217310   3.648   3.318   4.992  2.2798  2.2638 -0.7171
 1951SOL     OW17311   0.420   2.130   0.852 -0.0755 -0.2168 -0.1694
 1951SOL    HW117312   0.453   2.168   0.770  0.6204 -0.5046 -0.0272
 1951SOL    HW217313   0.356   2.067   0.819  0.7057 -0.9152 -0.3669
 1952SOL     OW17314   2.366   0.333   7.619 -0.1341 -0.0820 -0.0236
 1952SOL    HW117315   2.426   0.362   7.550 -0.8703  1.6592  0.0543
 1952SOL    HW217316   2.433   0.301   7.680  0.4401 -0.1931 -0.7170
 1953SOL     OW17317   2.612   0.148   6.080  0.3120  0.9976  0.0148
 1953SOL    HW117318   2.522   0.155   6.114  0.7777  0.6763  1.3044
 1953SOL    HW217319   2.586   0.136   5.988 -1.2738 -0.0658  0.6008
 1954SOL     OW17320   2.976   3.250   4.079  0.2497 -0.2139  0.6720
 1954SOL    HW117321   3.005   3.248   3.988  0.1816 -1.1041  0.6726
 1954SOL    HW217322   3.059   3.274   4.119 -0.5098  0.5864  1.7786
 1955SOL     OW17323   2.130   2.047   7.086  0.0653  0.1257 -0.6633
 1955SOL    HW117324   2.144   2.126   7.137 -0.1520 -1.1795  1.4188
 1955SOL    HW217325   2.201   2.061   7.023  1.6698 -0.6029  0.9848
 1956SOL     OW17326   2.148   4.045  17.496  0.4243  0.0087  0.2853
 1956SOL    HW117327   2.217   4.010  17.439  0.1095 -0.3706  0.1332
 1956SOL    HW217328   2.075   3.988  17.472  0.8084  0.3373 -1.7270
 1957SOL     OW17329   3.781   2.268   5.634  0.2581  0.2048 -0.3182
 1957SOL    HW117330   3.717   2.211   5.593  0.5104 -1.0220  0.9920
 1957SOL    HW217331   3.841   2.276   5.560  1.1367 -2.0701  0.1419
 1958SOL     OW17332   0.416   1.030  16.266 -0.1341 -0.4092 -0.2272
 1958SOL    HW117333   0.403   1.067  16.353 -1.9514 -1.3640 -0.1027
 1958SOL    HW217334   0.377   0.943  16.267 -0.2516 -0.3532 -0.0049
 1959SOL     OW17335   1.035   1.009   2.453 -0.1091 -0.1546 -0.0865
 1959SOL    HW117336   1.111   1.049   2.409  0.6917  0.1982  1.6365
 1959SOL    HW217337   0.969   1.067   2.415  0.8119  1.0726  0.1822
 1960SOL     OW17338   3.563   1.860   3.679  0.1502  0.1148  0.1633
 1960SOL    HW117339   3.477   1.900   3.662 -0.0493 -0.3824  0.0184
 1960SOL    HW217340   3.545   1.829   3.767  1.4364 -0.1181  0.3440
 1961SOL     OW17341   1.344   4.270   9.244  0.3337 -0.8789  0.7233
 1961SOL    HW117342   1.374   4.197   9.298  0.1523 -0.3949  1.4744
 1961SOL    HW217343   1.292   4.326   9.301  1.8364  2.0438 -0.7710
 1962SOL     OW17344   3.377   2.920   6.188 -0.0499  0.7086 -0.4062
 1962SOL    HW117345   3.304   2.901   6.128 -0.9451 -1.9874  1.5654
 1962SOL    HW217346   3.330   2.971   6.254  0.8857 -0.0231  0.8152
 1963SOL     OW17347   1.063   4.368   3.416  0.4991  0.3374  0.2142
 1963SOL    HW117348   1.142   4.385   3.468 -0.3584  2.0415  0.9599
 1963SOL    HW217349   1.086   4.412   3.335 -0.6980  0.6660  0.0594
 1964SOL     OW17350   2.635   1.383   8.574  0.4722 -0.0587 -0.0030
 1964SOL    HW117351   2.700   1.314   8.589 -1.5602 -1.9836 -0.0991
 1964SOL    HW217352   2.553   1.350   8.610  0.3337 -0.8199 -1.0371
 1965SOL     OW17353   4.638   0.843   4.231  0.1934 -0.4188 -0.5495
 1965SOL    HW117354   4.564   0.797   4.190 -1.4412  1.8071 -0.1352
 1965SOL    HW217355   4.590   0.862   4.312  0.1600  0.2475 -0.7213
 1966SOL     OW17356   1.226   0.493   9.396 -0.2831 -0.1995  0.1857
 1966SOL    HW117357   1.312   0.458   9.369 -1.0172 -0.4764 -1.7995
 1966SOL    HW217358   1.229   0.456   9.484  3.6169 -2.0677 -0.7306
 1967SOL     OW17359   1.155   4.241  14.560  0.5512 -0.9104  0.0593
 1967SOL    HW117360   1.083   4.219  14.500 -0.7792  1.7791  0.6845
 1967SOL    HW217361   1.176   4.329  14.528  4.8586 -2.6735 -1.9492
 1968SOL     OW17362   3.261   2.837  17.001 -0.0348  0.6575 -0.3913
 1968SOL    HW117363   3.210   2.779  16.945  1.5684  0.8628 -2.0451
 1968SOL    HW217364   3.347   2.794  16.996 -1.2469 -1.5256 -2.2546
 1969SOL     OW17365   4.202   2.604   8.752  0.3603 -0.0987 -0.4072
 1969SOL    HW117366   4.200   2.699   8.761  1.7593 -0.3506  2.3703
 1969SOL    HW217367   4.166   2.572   8.835 -0.3983 -1.0354 -1.1025
 1970SOL     OW17368   2.966   3.553   3.737 -0.5406  0.2986 -0.2068
 1970SOL    HW117369   2.907   3.625   3.715  0.6170  1.7109  1.2765
 1970SOL    HW217370   3.049   3.601   3.749 -0.0038 -0.4803 -0.8289
 1971SOL     OW17371   1.770   2.948   2.021  0.1789  0.2599  0.3416
 1971SOL    HW117372   1.795   3.036   2.049  2.8240 -0.4060  0.1396
 1971SOL    HW217373   1.841   2.920   1.964 -0.8248 -1.6002  0.0033
 1972SOL     OW17374   3.339   2.812  14.029 -0.0448  0.2306  0.5593
 1972SOL    HW117375   3.278   2.883  14.050 -0.4193  0.1282 -0.1697
 1972SOL    HW217376   3.307   2.748  14.093 -0.8001  1.1621  1.1168
 1973SOL     OW17377   4.133   2.865   2.768 -0.3969 -0.2662 -0.2555
 1973SOL    HW117378   4.217   2.872   2.814  0.7050  0.2767 -2.3734
 1973SOL    HW217379   4.160   2.819   2.689 -1.1510  0.1160 -0.7410
 1974SOL     OW17380   0.336   0.328  14.650  0.5011 -0.5424 -0.0395
 1974SOL    HW117381   0.325   0.385  14.575  0.9135  0.6822  0.8340
 1974SOL    HW217382   0.322   0.244  14.607 -2.4337  0.6201 -1.3477
 1975SOL     OW17383   4.590   0.535   4.208  0.1644  0.3966 -0.6284
 1975SOL    HW117384   4.565   0.452   4.249  0.4758  1.1670  1.1496
 1975SOL    HW217385   4.551   0.530   4.121 -0.2922  1.0660 -0.4652
 1976SOL     OW17386   3.110   0.410   6.646  0.1055 -0.6504  0.4406
 1976SOL    HW117387   3.074   0.331   6.686  0.1011 -0.8521  0.0374
 1976SOL    HW217388   3.176   0.367   6.591 -1.1353 -1.4078 -0.4659
 1977SOL     OW17389   3.597   2.275   2.086 -0.4136 -0.0717 -0.7044
 1977SOL    HW117390   3.529   2.218   2.052 -0.8112 -0.2510  0.3744
 1977SOL    HW217391   3.678   2.239   2.050 -0.3788 -0.5716 -0.1271
 1978SOL     OW17392   1.412   4.568   6.991  0.8416 -0.1263 -0.8203
 1978SOL    HW117393   1.441   4.650   7.032  0.2837 -0.8890  1.0936
 1978SOL    HW217394   1.317   4.577   6.990  0.9684  1.5697  2.4580
 1979SOL     OW17395   2.953   4.717   4.954  0.0395 -0.3271  0.3134
 1979SOL    HW117396   2.873   4.668   4.973 -0.5174  0.5523  0.2456
 1979SOL    HW217397   3.019   4.650   4.976 -0.0034 -0.3566  0.3526
 1980SOL     OW17398   3.739   4.724   3.691 -0.2073 -0.0637  0.2233
 1980SOL    HW117399   3.799   0.023   3.761  0.1827  0.6870 -0.3771
 1980SOL    HW217400   3.792   4.671   3.632  0.0405  1.2669 -0.7573
 1981SOL     OW17401   1.192   4.709   3.736  0.1904  0.0905 -0.0032
 1981SOL    HW117402   1.188   0.078   3.742 -2.6995  0.0345 -1.2775
 1981SOL    HW217403   1.118   4.682   3.682  0.3095 -2.5563  1.1182
 1982SOL     OW17404   2.031   0.509  14.481  0.1409 -0.1842  0.3096
 1982SOL    HW117405   2.062   0.600  14.486 -1.5773  0.4358 -0.2156
 1982SOL    HW217406   1.951   0.517  14.533  0.2195 -2.1015  0.7134
 1983SOL     OW17407   4.364   0.349   4.448 -0.0632 -0.3332  0.6930
 1983SOL    HW117408   4.366   0.317   4.538 -3.0263 -2.9144 -0.1684
 1983SOL    HW217409   4.402   0.273   4.405 -2.1521 -0.6074 -0.7033
 1984SOL     OW17410   4.271   4.059   1.136 -0.1475 -0.8023 -0.2220
 1984SOL    HW117411   4.208   4.081   1.205  1.4917 -0.2521  1.0848
 1984SOL    HW217412   4.346   4.041   1.193 -0.2034  0.1197  0.1554
 1985SOL     OW17413   1.419   1.276  11.626  0.2987 -0.0815 -0.6045
 1985SOL    HW117414   1.495   1.268  11.569  0.6012  0.5969 -0.2958
 1985SOL    HW217415   1.466   1.304  11.704  1.3022 -2.4885 -0.3378
 1986SOL     OW17416   3.826   1.174   4.863  0.2439 -0.2299 -0.0032
 1986SOL    HW117417   3.784   1.218   4.789 -2.3635 -2.0062  0.4240
 1986SOL    HW217418   3.755   1.180   4.927 -2.0737 -1.6412 -2.4937
 1987SOL     OW17419   4.160   1.700   5.192  0.1544 -0.1352 -0.2344
 1987SOL    HW117420   4.172   1.793   5.212  0.2277 -0.2357  0.1724
 1987SOL    HW217421   4.066   1.709   5.173  0.0261  2.1294  1.4994
 1988SOL     OW17422   3.359   2.188   1.931  0.5580 -0.0492  0.3822
 1988SOL    HW117423   3.362   2.093   1.921  0.2978  0.0693 -0.7977
 1988SOL    HW217424   3.269   2.222   1.930  0.7178  0.3601 -0.0517
 1989SOL     OW17425   2.827   0.054   5.736 -0.1015  0.1664  0.4825
 1989SOL    HW117426   2.749   0.015   5.776 -1.3004 -0.6517 -2.6498
 1989SOL    HW217427   2.788   0.124   5.684  0.4938 -2.0076 -2.9334
 1990SOL     OW17428   1.846   1.510   4.006  0.4470 -0.5189 -0.8360
 1990SOL    HW117429   1.889   1.580   3.956 -0.7374  1.9255  1.5933
 1990SOL    HW217430   1.786   1.479   3.938 -1.1234  0.2602  0.2100
 1991SOL     OW17431   3.660   1.054   2.842 -0.2220  0.3929 -0.1514
 1991SOL    HW117432   3.609   0.992   2.895  0.5470 -2.0336 -2.2798
 1991SOL    HW217433   3.610   1.068   2.762 -0.4364 -0.1650 -0.1158
 1992SOL     OW17434   4.657   0.159  17.698 -0.0035  0.3295 -0.5537
 1992SOL    HW117435   4.694   0.151  17.610  2.7765 -0.2608  0.6712
 1992SOL    HW217436   0.009   0.130   0.040  0.7226  1.5949 -0.9790
 1993SOL     OW17437   3.105   2.835   4.263  0.2954 -0.4018 -0.0171
 1993SOL    HW117438   3.130   2.925   4.287 -1.9475 -0.3246  1.9661
 1993SOL    HW217439   3.094   2.841   4.168 -0.5540  1.3152  0.1756
 1994SOL     OW17440   3.952   2.620  13.161 -0.7619 -0.2328 -0.1821
 1994SOL    HW117441   3.936   2.553  13.096  1.3376 -0.0530 -0.8911
 1994SOL    HW217442   3.882   2.683  13.141 -0.0684  0.7365  0.4360
 1995SOL     OW17443   3.790   2.904   1.494 -0.3563  0.3087  0.0432
 1995SOL    HW117444   3.817   2.984   1.540 -0.9547  1.6825 -2.0031
 1995SOL    HW217445   3.724   2.932   1.431 -0.7821  3.1473  1.7516
 1996SOL     OW17446   2.886   3.658   2.747 -0.0647  0.1253 -0.3318
 1996SOL    HW117447   2.978   3.632   2.736  0.4927  0.6094  3.0126
 1996SOL    HW217448   2.891   3.745   2.788 -1.9835 -1.5894  3.5763
 1997SOL     OW17449   3.081   2.525  14.418 -0.2463  0.2748 -0.1207
 1997SOL    HW117450   3.090   2.553  14.509  4.1953 -0.0680 -0.4888
 1997SOL    HW217451   2.992   2.490  14.419 -0.4019  0.7485  2.5345
 1998SOL     OW17452   3.729   4.233   0.427  0.0338  0.2306  0.2098
 1998SOL    HW117453   3.662   4.177   0.388  1.4917 -1.1255 -0.3060
 1998SOL    HW217454   3.707   4.226   0.520 -2.2284  2.3374 -0.1329
 1999SOL     OW17455   0.728   2.971  15.496  0.0427 -0.5120 -0.0144
 1999SOL    HW117456   0.674   3.023  15.436  0.9596  0.0087 -0.3836
 1999SOL    HW217457   0.810   2.990  15.450 -0.1706 -0.3065 -0.3148
 2000SOL     OW17458   1.849   2.414   8.120 -0.2701 -0.2416 -0.4274
 2000SOL    HW117459   1.913   2.413   8.191 -0.0679 -0.8708 -0.6206
 2000SOL    HW217460   1.852   2.321   8.100  0.2605 -0.2124 -0.4981
 2001SOL     OW17461   4.015   3.787   7.591 -0.3844 -0.2741 -0.3102
 2001SOL    HW117462   4.001   3.743   7.675  0.6235 -0.9429 -0.4843
 2001SOL    HW217463   3.992   3.725   7.522 -1.4975  1.2849 -1.3255
 2002SOL     OW17464   1.721   2.164   8.250  0.1765  0.5900  0.5828
 2002SOL    HW117465   1.733   2.145   8.156  1.6636  2.8214  0.3338
 2002SOL    HW217466   1.753   2.081   8.284  0.7405 -1.0292 -3.8682
 2003SOL     OW17467   2.546   3.811   2.888  1.2311 -0.4119  0.2044
 2003SOL    HW117468   2.624   3.864   2.870  0.9755 -0.5522 -1.3259
 2003SOL    HW217469   2.503   3.880   2.938 -0.8717 -0.4167 -1.6104
 2004SOL     OW17470   0.009   1.052  15.345 -0.1929  0.5271  0.7365
 2004SOL    HW117471   4.685   0.995  15.403 -0.2599 -1.0759 -0.8768
 2004SOL    HW217472   4.674   1.076  15.275 -2.4822 -2.4006  1.7237
 2005SOL     OW17473   1.951   0.646   2.369 -0.0945  0.0113  0.5701
 2005SOL    HW117474   1.988   0.563   2.400 -0.5666 -0.4825 -0.1889
 2005SOL    HW217475   1.990   0.667   2.284  1.1118 -1.4867  0.7514
 2006SOL     OW17476   2.152   0.898   8.044 -0.0703  0.1094  0.4489
 2006SOL    HW117477   2.154   0.989   8.076 -1.8971  0.8598 -1.5922
 2006SOL    HW217478   2.163   0.920   7.951  0.2649 -1.3006  0.1554
 2007SOL     OW17479   3.383   1.381   5.140 -0.1094 -0.0243  0.4480
 2007SOL    HW117480   3.406   1.433   5.217  0.4203 -0.9261  0.8935
 2007SOL    HW217481   3.289   1.401   5.139  0.0991  0.9834  0.4175
 2008SOL     OW17482   2.811   2.078   2.404 -0.5068 -0.1533 -0.1507
 2008SOL    HW117483   2.716   2.083   2.389 -0.7590 -1.2092  1.0586
 2008SOL    HW217484   2.808   2.003   2.464 -0.7993 -1.9380 -2.3689
 2009SOL     OW17485   2.290   0.958   8.783  0.2613  0.4268  0.2139
 2009SOL    HW117486   2.247   1.000   8.858  3.1291  1.9589  1.0403
 2009SOL    HW217487   2.306   1.038   8.733  0.3781  1.3821  1.7466
 2010SOL     OW17488   1.557   1.699   7.399  0.2234 -0.0006 -0.0152
 2010SOL    HW117489   1.587   1.714   7.489 -1.9619 -1.8171  1.0149
 2010SOL    HW217490   1.620   1.632   7.373 -0.2304 -0.5629  0.3292
 2011SOL     OW17491   1.421   2.649  15.865 -0.1261  0.7612 -0.3445
 2011SOL    HW117492   1.419   2.651  15.961  1.9346 -1.6938 -0.2365
 2011SOL    HW217493   1.451   2.735  15.835 -0.4135  0.7495 -0.6674
 2012SOL     OW17494   0.519   4.685  10.167  0.0153  0.1176 -0.4318
 2012SOL    HW117495   0.428   4.713  10.156 -0.4422 -1.4327 -0.6010
 2012SOL    HW217496   0.504   4.597  10.133 -0.8344  0.0246  0.1956
 2013SOL     OW17497   0.308   1.527   3.791  0.4351  0.3968  0.7218
 2013SOL    HW117498   0.349   1.608   3.762 -0.4129  1.1584  1.6394
 2013SOL    HW217499   0.227   1.565   3.825 -0.3354  0.0938 -0.7519
 2014SOL     OW17500   4.084   3.759   8.386 -0.3258  0.0442  0.2132
 2014SOL    HW117501   3.999   3.771   8.429  0.2743 -0.0527  1.4372
 2014SOL    HW217502   4.046   3.730   8.303  2.2051 -1.2707 -0.4939
 2015SOL     OW17503   0.419   3.431   0.142 -0.3190  0.1848 -0.2948
 2015SOL    HW117504   0.427   3.526   0.152  0.6686  0.1052 -0.3112
 2015SOL    HW217505   0.370   3.431   0.060 -2.1715  2.7813  0.8354
 2016SOL     OW17506   1.605   3.134  16.460  0.1382  0.5541 -0.6688
 2016SOL    HW117507   1.598   3.128  16.364  1.5156 -1.8472 -0.6094
 2016SOL    HW217508   1.590   3.225  16.486 -1.9305  0.0546 -0.0945
 2017SOL     OW17509   1.323   2.692   3.672 -0.3422  0.9032  0.1343
 2017SOL    HW117510   1.360   2.779   3.653  0.3798  0.7185  0.7179
 2017SOL    HW217511   1.316   2.653   3.585 -0.4812  0.6445  0.2630
 2018SOL     OW17512   3.166   4.144   5.159  0.0885  0.1682  0.0597
 2018SOL    HW117513   3.082   4.178   5.191  0.1405  0.3965 -0.0500
 2018SOL    HW217514   3.180   4.199   5.082 -1.2106  0.4987  0.0614
 2019SOL     OW17515   0.719   4.035   6.731 -0.2362  0.4104  1.0066
 2019SOL    HW117516   0.694   4.058   6.642 -1.3024 -2.4726  0.5689
 2019SOL    HW217517   0.710   4.114   6.784  0.6129  1.2112 -0.0669
 2020SOL     OW17518   3.721   0.375   0.987 -0.0944  0.5996 -0.0795
 2020SOL    HW117519   3.790   0.329   0.940  1.7333  1.8317  1.3680
 2020SOL    HW217520   3.644   0.319   0.979 -0.1357  0.3706  1.9245
 2021SOL     OW17521   0.505   0.261   2.807  0.1776 -0.0942 -0.2535
 2021SOL    HW117522   0.463   0.344   2.787  1.2422  1.0426  2.2164
 2021SOL    HW217523   0.426   0.207   2.809 -3.0172  4.7210  0.8082
 2022SOL     OW17524   3.376   3.907   0.428  0.1339  0.5983  0.0762
 2022SOL    HW117525   3.301   3.967   0.435  0.4260  1.0561 -0.6978
 2022SOL    HW217526   3.416   3.933   0.511  0.6907 -0.9818  0.2894
 2023SOL     OW17527   2.450   2.923   7.340 -0.2001  0.1541 -0.1982
 2023SOL    HW117528   2.472   2.847   7.287 -1.5868 -0.6636  0.3944
 2023SOL    HW217529   2.499   2.908   7.421 -0.1620  0.3894 -0.1768
 2024SOL     OW17530   0.126   1.788  12.074 -0.1820 -0.1494  0.4056
 2024SOL    HW117531   0.133   1.754  11.985 -1.9730  1.4731 -0.3463
 2024SOL    HW217532   0.113   1.878  12.044 -0.1566 -0.9481 -1.9635
 2025SOL     OW17533   0.191   2.320  12.627 -0.4358 -0.3286  0.4282
 2025SOL    HW117534   0.250   2.317  12.551 -1.1255  2.2215 -0.1923
 2025SOL    HW217535   0.131   2.387  12.594  1.4374  1.5222  0.7408
 2026SOL     OW17536   2.061   2.757   7.290 -0.5028  0.1233 -0.3954
 2026SOL    HW117537   2.141   2.776   7.339 -0.4677  0.0725 -0.4333
 2026SOL    HW217538   1.992   2.769   7.355  0.2803 -0.3768  0.5312
 2027SOL     OW17539   3.402   4.420   6.340  0.1116  0.6547  0.4495
 2027SOL    HW117540   3.308   4.408   6.324 -0.0531  0.0646  1.8328
 2027SOL    HW217541   3.436   4.341   6.298 -0.0228  0.8191  0.0345
 2028SOL     OW17542   4.656   0.532   1.279  0.4753 -0.0510  0.4187
 2028SOL    HW117543   4.658   0.485   1.363  0.4624 -1.4930 -0.3880
 2028SOL    HW217544   4.574   0.582   1.275  0.0598 -0.7552  0.2235
 2029SOL     OW17545   4.152   0.373   7.113  0.0210  0.0523  0.0319
 2029SOL    HW117546   4.174   0.462   7.140  0.5453 -0.1284  0.2029
 2029SOL    HW217547   4.132   0.334   7.198 -0.8826  1.9609  0.6878
 2030SOL     OW17548   1.475   1.175   6.270  1.3165 -0.1521 -0.2053
 2030SOL    HW117549   1.472   1.087   6.233  2.4336 -0.8295  1.3140
 2030SOL    HW217550   1.561   1.206   6.243  0.5807  1.8050 -0.3107
 2031SOL     OW17551   0.793   3.986   8.113 -0.4698 -0.4040 -0.1114
 2031SOL    HW117552   0.704   4.009   8.140 -1.2056 -0.9686 -2.0472
 2031SOL    HW217553   0.847   4.063   8.129  0.8341 -1.1347 -1.0809
 2032SOL     OW17554   1.543   4.423   0.838  0.3318 -0.5571  0.2321
 2032SOL    HW117555   1.519   4.330   0.833 -2.7046  0.2511 -0.6812
 2032SOL    HW217556   1.455   4.462   0.837  0.5306 -0.1157 -0.0137
 2033SOL     OW17557   2.538   2.511   2.376 -0.1030  0.2006 -0.0429
 2033SOL    HW117558   2.493   2.433   2.343  1.9924  0.0237 -2.5177
 2033SOL    HW217559   2.458   2.562   2.380  0.3569  1.1026 -2.7609
 2034SOL     OW17560   3.666   3.285   1.471 -0.1474  0.4685 -0.0166
 2034SOL    HW117561   3.695   3.198   1.499 -2.7515 -0.3632  0.1551
 2034SOL    HW217562   3.571   3.280   1.460 -0.4603  0.7553  2.5955
 2035SOL     OW17563   0.992   2.122   8.961  0.4249 -0.2853  0.0429
 2035SOL    HW117564   0.968   2.056   8.896 -2.3402 -0.5947  1.3620
 2035SOL    HW217565   1.076   2.134   8.917  0.1016 -0.2563 -0.5578
 2036SOL     OW17566   0.658   4.507  11.033 -0.3606 -0.3390 -0.0043
 2036SOL    HW117567   0.667   4.557  11.114  0.7116 -1.5186  0.6029
 2036SOL    HW217568   0.663   4.576  10.967  3.9501 -0.3957  0.2883
 2037SOL     OW17569   2.054   0.003   2.347 -0.0625 -0.0818  0.0898
 2037SOL    HW117570   2.132   4.676   2.336 -1.8340 -2.4888 -0.7987
 2037SOL    HW217571   2.009   4.709   2.265 -2.0266  1.8770  0.6759
 2038SOL     OW17572   2.742   2.914   4.770  0.7086 -0.0665  0.1239
 2038SOL    HW117573   2.802   2.920   4.844 -1.2610  0.0075  1.7347
 2038SOL    HW217574   2.712   2.823   4.776 -1.0473  0.6071  1.5421
 2039SOL     OW17575   3.541   3.307  13.803 -0.0281  0.3468 -0.5935
 2039SOL    HW117576   3.529   3.358  13.883 -1.0295 -0.3560 -0.2988
 2039SOL    HW217577   3.453   3.277  13.778 -1.5056  3.3924  1.0778
 2040SOL     OW17578   2.010   0.791   5.116 -0.2095 -0.2398 -0.0467
 2040SOL    HW117579   2.003   0.814   5.023 -0.9695  1.4573  0.4181
 2040SOL    HW217580   1.916   0.786   5.137 -0.0272  0.4852  0.9261
 2041SOL     OW17581   3.197   4.424   5.449  0.0632 -0.2124  0.7345
 2041SOL    HW117582   3.288   4.407   5.472  1.2792 -0.0732 -4.1942
 2041SOL    HW217583   3.187   4.510   5.490 -0.8967 -0.4878  1.0939
 2042SOL     OW17584   1.137   4.587  10.808  0.3839 -0.2530  0.1931
 2042SOL    HW117585   1.088   4.512  10.842  0.7313 -1.0489 -1.0715
 2042SOL    HW217586   1.086   4.650  10.861 -2.2445  0.2732 -2.9716
 2043SOL     OW17587   1.113   3.942   7.612 -0.1939  0.5611  0.2546
 2043SOL    HW117588   1.088   4.029   7.640 -3.5374 -1.2440  2.8283
 2043SOL    HW217589   1.199   3.933   7.653 -0.8626  2.4733  2.0070
 2044SOL     OW17590   0.494   4.205   6.992 -0.3555 -0.1359  0.2728
 2044SOL    HW117591   0.484   4.237   6.902 -0.1204  2.2268  1.0887
 2044SOL    HW217592   0.537   4.283   7.029  1.2007 -2.1336  2.6430
 2045SOL     OW17593   1.952   1.363  15.571  0.1276  0.2725 -0.0920
 2045SOL    HW117594   1.926   1.277  15.537 -0.9837  0.2230  0.8854
 2045SOL    HW217595   1.948   1.416  15.491 -3.0729 -1.2006 -0.9048
 2046SOL     OW17596   3.837   2.564   6.437 -0.0887  0.0359  0.5239
 2046SOL    HW117597   3.897   2.626   6.395  0.3054  0.4178  1.6453
 2046SOL    HW217598   3.767   2.624   6.461 -3.0484 -2.8211 -0.9604
 2047SOL     OW17599   4.273   1.405   0.731 -0.2673  0.1779  0.0180
 2047SOL    HW117600   4.288   1.499   0.717 -1.1748  0.4780  1.0539
 2047SOL    HW217601   4.361   1.369   0.721  0.1207  1.4211 -1.1146
 2048SOL     OW17602   2.768   2.442   2.216  0.3104  0.7552 -0.5077
 2048SOL    HW117603   2.772   2.365   2.159 -0.4684 -0.0333  0.5019
 2048SOL    HW217604   2.681   2.439   2.255  0.0040  0.5179 -1.2088
 2049SOL     OW17605   2.182   1.383   3.295  0.3754  0.4196  0.6145
 2049SOL    HW117606   2.110   1.438   3.325  0.5824  0.1988  1.5111
 2049SOL    HW217607   2.140   1.319   3.237 -0.6818  0.9512  0.7903
 2050SOL     OW17608   1.268   3.411   6.579 -0.3123  0.1001  0.0010
 2050SOL    HW117609   1.173   3.399   6.582 -0.0723 -1.2255  2.6266
 2050SOL    HW217610   1.270   3.505   6.594  2.0254  0.0429 -0.0318
 2051SOL     OW17611   1.082   3.572   5.492  0.3464  0.0304 -0.6323
 2051SOL    HW117612   1.095   3.492   5.542 -0.4234  1.4159  1.8218
 2051SOL    HW217613   0.995   3.589   5.528 -0.4022 -1.4968 -1.7448
 2052SOL     OW17614   1.404   0.483   0.721  0.4142  0.5452  0.1212
 2052SOL    HW117615   1.478   0.503   0.663 -0.6322  1.6149 -0.8455
 2052SOL    HW217616   1.431   0.395   0.747  0.9451  1.7757  3.6854
 2053SOL     OW17617   1.468   3.383  11.524 -0.3634 -0.9724  0.8443
 2053SOL    HW117618   1.478   3.289  11.509 -3.2798 -0.9592 -1.0927
 2053SOL    HW217619   1.530   3.417  11.460  2.9082 -3.0589  2.8901
 2054SOL     OW17620   1.366   4.543   3.854  0.0056 -0.0467 -0.0732
 2054SOL    HW117621   1.294   4.582   3.804  1.8822 -0.6842 -3.2562
 2054SOL    HW217622   1.331   4.454   3.861  1.5908 -0.4746  2.1693
 2055SOL     OW17623   2.593   0.794   9.772  0.0008  0.1206 -0.7119
 2055SOL    HW117624   2.576   0.729   9.704  0.8773  0.4206 -1.2069
 2055SOL    HW217625   2.678   0.754   9.791 -0.1164  0.8493  1.3983
 2056SOL     OW17626   2.986   1.956   5.255  0.2737  0.2077  0.0974
 2056SOL    HW117627   3.031   2.031   5.295 -1.2801  1.4631 -0.5648
 2056SOL    HW217628   2.900   1.998   5.252 -0.5140 -1.3106  1.3332
 2057SOL     OW17629   0.920   2.727   4.035  0.5401 -0.1148  0.0158
 2057SOL    HW117630   0.850   2.779   3.996  0.7771 -0.3909 -0.7995
 2057SOL    HW217631   0.966   2.688   3.960 -0.1169  1.4042 -1.1744
 2058SOL     OW17632   2.083   1.401   6.151 -0.3948 -0.0430  0.4063
 2058SOL    HW117633   2.110   1.460   6.221  2.0325 -0.5973 -0.0925
 2058SOL    HW217634   2.067   1.321   6.200 -1.5516  0.3373  0.6494
 2059SOL     OW17635   2.033   0.392   3.077  0.3553  0.1284 -0.5940
 2059SOL    HW117636   2.050   0.345   2.996  0.6792 -3.1233  1.3487
 2059SOL    HW217637   2.044   0.483   3.050 -0.2927  0.1674 -0.7239
 2060SOL     OW17638   3.380   0.948  10.637  0.1490  0.3878 -0.3333
 2060SOL    HW117639   3.476   0.939  10.635 -0.1033 -2.5638  0.1757
 2060SOL    HW217640   3.362   0.913  10.724 -0.9714 -1.7034 -1.4079
 2061SOL     OW17641   2.634   2.898   1.839  0.2045 -0.2496  0.3435
 2061SOL    HW117642   2.586   2.850   1.772  0.3436 -0.9424  0.7386
 2061SOL    HW217643   2.610   2.990   1.829 -0.3451 -0.4396 -0.0707
 2062SOL     OW17644   0.439   0.295   1.041 -0.5257 -0.2536  0.1507
 2062SOL    HW117645   0.525   0.299   1.082  0.0189 -2.1082 -0.8017
 2062SOL    HW217646   0.378   0.339   1.099  0.2893  1.5505 -0.3810
 2063SOL     OW17647   2.147   4.387   2.597 -0.7055 -0.1417 -0.0410
 2063SOL    HW117648   2.212   4.356   2.660  0.5144 -0.0069 -1.2276
 2063SOL    HW217649   2.183   4.473   2.576  0.1724 -0.9453 -1.8329
 2064SOL     OW17650   2.343   0.164  17.543 -0.0113  0.8719  0.0456
 2064SOL    HW117651   2.316   0.148  17.633  1.3104  0.8854  0.4472
 2064SOL    HW217652   2.435   0.146  17.561 -0.6810 -1.7424  0.7994
 2065SOL     OW17653   3.940   2.984   6.091  0.0326 -0.2068 -0.2696
 2065SOL    HW117654   4.033   2.994   6.110 -0.2659  1.7788  0.1088
 2065SOL    HW217655   3.938   2.892   6.065  2.5191  0.2857 -2.2231
 2066SOL     OW17656   4.116   1.621   8.179 -0.5648  0.2219  0.3513
 2066SOL    HW117657   4.138   1.618   8.086  2.6290 -0.2253  1.1306
 2066SOL    HW217658   4.122   1.527   8.194 -1.3881  0.3191  1.3136
 2067SOL     OW17659   0.535   3.740   8.683  0.5274 -0.5474  0.3345
 2067SOL    HW117660   0.489   3.678   8.739 -0.3882  0.5633  0.8019
 2067SOL    HW217661   0.467   3.801   8.656  1.0597 -0.2624 -0.3531
 2068SOL     OW17662   1.670   2.065   4.791  0.2079  0.0280  0.1744
 2068SOL    HW117663   1.748   2.111   4.760  0.0276  1.1034  1.2909
 2068SOL    HW217664   1.612   2.129   4.834  0.9557  1.4975 -0.9969
 2069SOL     OW17665   2.256   4.389  14.072  0.0568  0.1773 -0.1137
 2069SOL    HW117666   2.193   4.454  14.102  0.0155 -0.2824  0.8106
 2069SOL    HW217667   2.325   4.396  14.138 -0.2975 -2.2020  0.5314
 2070SOL     OW17668   2.249   0.951   6.488  0.0316  0.1770  0.0589
 2070SOL    HW117669   2.306   0.988   6.555  1.1232  2.0723 -1.9385
 2070SOL    HW217670   2.320   0.942   6.425 -2.1855  0.7923 -2.5377
 2071SOL     OW17671   3.354   2.361   1.594  0.0792 -0.5159  0.3449
 2071SOL    HW117672   3.429   2.391   1.647 -1.5248  1.8176  1.2811
 2071SOL    HW217673   3.289   2.429   1.614 -1.7731 -1.7500 -1.5552
 2072SOL     OW17674   0.271   0.972   5.890 -0.2191  0.2699  0.0128
 2072SOL    HW117675   0.264   1.007   5.979  0.0159  0.0403  0.1215
 2072SOL    HW217676   0.192   1.016   5.859 -0.9122  0.4235  2.0222
 2073SOL     OW17677   1.563   3.386   8.882 -0.4588 -0.4127  0.3922
 2073SOL    HW117678   1.551   3.405   8.789 -0.4277 -0.9352  0.2794
 2073SOL    HW217679   1.585   3.293   8.874  0.2081  0.0192 -3.0106
 2074SOL     OW17680   3.403   3.587   2.140 -0.5700  0.2243 -0.0420
 2074SOL    HW117681   3.403   3.646   2.065 -1.3449 -2.2609 -1.9780
 2074SOL    HW217682   3.319   3.612   2.178 -0.1155 -0.1229  1.1865
 2075SOL     OW17683   1.221   0.288   3.124 -0.7023  0.0976 -0.2417
 2075SOL    HW117684   1.271   0.228   3.068 -2.0334  0.1855 -1.5226
 2075SOL    HW217685   1.130   0.275   3.098 -1.1307  2.6826  0.0062
 2076SOL     OW17686   0.339   3.724  15.777  0.3532 -0.1492  0.4270
 2076SOL    HW117687   0.319   3.653  15.839 -2.6945 -1.3295 -1.8681
 2076SOL    HW217688   0.251   3.734  15.741  0.9901  1.2221 -0.7204
 2077SOL     OW17689   4.245   2.674   9.865 -0.2666 -0.0261 -0.1695
 2077SOL    HW117690   4.300   2.601   9.893 -1.2887 -1.2645 -1.3894
 2077SOL    HW217691   4.175   2.614   9.841  1.2798 -0.9154 -2.3913
 2078SOL     OW17692   2.636   0.453   5.380 -0.1490 -0.6095 -0.2306
 2078SOL    HW117693   2.731   0.454   5.374 -0.2118 -0.1647 -1.2633
 2078SOL    HW217694   2.620   0.453   5.286 -2.9573  1.7855  0.2308
 2079SOL     OW17695   2.997   3.617  17.686 -0.0700  0.2019  0.7558
 2079SOL    HW117696   2.984   3.665  17.605 -1.7878 -1.0028  0.2995
 2079SOL    HW217697   2.941   3.661   0.044 -0.5744  0.9949 -0.2446
 2080SOL     OW17698   1.524   0.675   7.705  0.4687 -0.0823 -0.6982
 2080SOL    HW117699   1.563   0.755   7.670 -1.4066  1.7040  1.3715
 2080SOL    HW217700   1.574   0.604   7.664  0.7950 -0.5062  0.4272
 2081SOL     OW17701   2.669   2.624   5.100 -0.2694  0.4263 -0.2660
 2081SOL    HW117702   2.762   2.645   5.107 -0.1972 -1.0157  3.1753
 2081SOL    HW217703   2.657   2.562   5.172 -0.3005  0.0098 -0.6246
 2082SOL     OW17704   2.979   1.692   5.169  0.2859 -0.4901 -0.0019
 2082SOL    HW117705   2.956   1.716   5.079  2.4871  0.4614 -0.3161
 2082SOL    HW217706   2.965   1.781   5.200  1.9038 -0.4324  0.5546
 2083SOL     OW17707   1.654   4.423   7.864 -0.2406 -0.0565 -0.0203
 2083SOL    HW117708   1.593   4.492   7.836 -0.2958 -0.1280 -0.0783
 2083SOL    HW217709   1.714   4.471   7.920 -0.8351 -0.6265  1.1042
 2084SOL     OW17710   2.101   3.038   3.132  0.5577 -0.5367 -0.4837
 2084SOL    HW117711   2.016   3.018   3.170  0.0736 -0.7797 -1.6824
 2084SOL    HW217712   2.104   3.129   3.161 -0.5257 -0.1884 -1.4467
 2085SOL     OW17713   1.840   1.428   9.175 -0.2070 -0.4786  0.3998
 2085SOL    HW117714   1.882   1.509   9.205  1.4826 -1.5232  0.8733
 2085SOL    HW217715   1.827   1.375   9.253 -0.2185  0.7696  1.2524
 2086SOL     OW17716   0.523   1.366   8.184  0.5491 -0.5198 -0.5204
 2086SOL    HW117717   0.613   1.335   8.194 -0.1099 -1.0973  3.5293
 2086SOL    HW217718   0.522   1.379   8.089 -0.5815  0.1701 -0.4155
 2087SOL     OW17719   2.829   0.652  10.123 -0.2723  0.4045  0.0557
 2087SOL    HW117720   2.796   0.732  10.082 -0.6547  0.2083 -0.0228
 2087SOL    HW217721   2.915   0.661  10.084 -0.6028  0.3197 -0.6927
 2088SOL     OW17722   3.334   2.636  14.240 -0.2350  0.0997 -0.3046
 2088SOL    HW117723   3.408   2.576  14.253  0.0708  0.4952 -0.2341
 2088SOL    HW217724   3.314   2.667  14.329 -1.5200  0.2126 -0.6398
 2089SOL     OW17725   1.493   3.497   3.198  0.4195 -0.3777  0.2766
 2089SOL    HW117726   1.527   3.413   3.228  0.2120 -0.6640 -0.3038
 2089SOL    HW217727   1.571   3.547   3.172  0.0608  0.3550  0.5934
 2090SOL     OW17728   2.442   1.454   3.827  0.1594  0.5784  1.0672
 2090SOL    HW117729   2.410   1.445   3.737  1.6345 -0.5854  0.6824
 2090SOL    HW217730   2.373   1.419   3.883 -0.9377 -0.2103 -0.7899
 2091SOL     OW17731   1.137   1.829   6.117 -0.1039 -0.3994 -0.0938
 2091SOL    HW117732   1.047   1.849   6.094  0.1239 -0.6324 -1.1657
 2091SOL    HW217733   1.120   1.797   6.206 -1.2773  0.9178  0.1473
 2092SOL     OW17734   4.196   3.970   2.143 -0.4944 -0.3006  0.6848
 2092SOL    HW117735   4.125   3.945   2.201  0.0544 -2.5353  0.3966
 2092SOL    HW217736   4.148   4.027   2.082 -1.2841 -0.2618  1.3496
 2093SOL     OW17737   3.856   0.614   6.808  0.8040 -0.1283 -0.3942
 2093SOL    HW117738   3.947   0.612   6.837  0.5662  2.2317  0.4949
 2093SOL    HW217739   3.811   0.573   6.882  0.4326  0.6167 -0.2004
 2094SOL     OW17740   3.463   4.201   5.722 -0.5896  0.2358 -0.3340
 2094SOL    HW117741   3.475   4.121   5.670 -0.1115 -0.0302  0.1830
 2094SOL    HW217742   3.482   4.176   5.812  1.2160  0.1616 -0.7252
 2095SOL     OW17743   1.424   2.444   5.757  0.0086 -0.0543  0.0023
 2095SOL    HW117744   1.421   2.349   5.761 -0.4588 -0.0487 -0.2698
 2095SOL    HW217745   1.394   2.468   5.669 -2.2925  1.0364  1.1066
 2096SOL     OW17746   1.101   0.327   3.411  0.2665  0.3650  0.4709
 2096SOL    HW117747   1.086   0.400   3.350  0.3119  1.8225  2.1990
 2096SOL    HW217748   1.139   0.269   3.345 -0.2838 -1.1104  1.4700
 2097SOL     OW17749   4.165   2.137  10.885 -0.5966 -0.0087 -0.2576
 2097SOL    HW117750   4.126   2.146  10.798  0.1700 -1.8055 -0.7965
 2097SOL    HW217751   4.086   2.170  10.928  0.7899  1.2669  1.2540
 2098SOL     OW17752   3.062   0.317   8.808  0.3347  0.0446 -0.3408
 2098SOL    HW117753   3.016   0.272   8.737 -0.2772  1.2332 -0.6878
 2098SOL    HW217754   3.101   0.384   8.752  0.1618 -0.3261 -0.9132
 2099SOL     OW17755   3.678   1.965   1.488  0.0636  0.8707  0.1153
 2099SOL    HW117756   3.708   2.012   1.565  0.4830 -1.4965  1.3752
 2099SOL    HW217757   3.624   2.035   1.451 -1.7498 -0.5607  0.0752
 2100SOL     OW17758   4.590   2.982  13.267  0.1774  0.2720  0.1235
 2100SOL    HW117759   4.628   2.898  13.293  0.1690  0.7474  1.6747
 2100SOL    HW217760   4.546   2.953  13.187  0.9624 -0.2255 -0.1242
 2101SOL     OW17761   3.237   0.135   1.572  1.0413 -0.3124  0.3524
 2101SOL    HW117762   3.248   0.165   1.662  1.4369 -0.0136  0.2017
 2101SOL    HW217763   3.269   0.207   1.519  2.7620 -1.4953 -0.2086
 2102SOL     OW17764   0.737   0.244  16.880  0.2039 -0.1436 -0.4225
 2102SOL    HW117765   0.692   0.320  16.844  0.8400 -0.7765 -2.5256
 2102SOL    HW217766   0.770   0.278  16.963  0.0138  0.0110 -0.4114
 2103SOL     OW17767   0.742   3.610  13.830 -0.0141 -0.3496  0.3688
 2103SOL    HW117768   0.748   3.611  13.926  0.9996 -0.5793  0.2995
 2103SOL    HW217769   0.830   3.635  13.803  0.0018 -0.0613  0.6856
 2104SOL     OW17770   2.438   1.398   5.330 -0.0697 -0.2339  0.1148
 2104SOL    HW117771   2.481   1.468   5.282 -1.0048  1.0060  1.0917
 2104SOL    HW217772   2.372   1.371   5.266 -1.8192 -0.2195  1.9022
 2105SOL     OW17773   4.265   2.392   6.480  0.6312 -0.3271 -0.2557
 2105SOL    HW117774   4.278   2.347   6.396  1.3171 -1.1229  0.2664
 2105SOL    HW217775   4.258   2.479   6.442  3.1844 -1.0357 -2.4002
 2106SOL     OW17776   3.287   0.241  13.365  0.5367  0.0751  0.5017
 2106SOL    HW117777   3.337   0.255  13.445  1.5003 -1.4622  0.1825
 2106SOL    HW217778   3.238   0.323  13.361  0.7188  0.1522 -0.0712
 2107SOL     OW17779   2.301   3.443   8.524 -0.7554 -0.0698 -0.7506
 2107SOL    HW117780   2.291   3.527   8.570 -0.5728 -0.8631  0.7279
 2107SOL    HW217781   2.395   3.433   8.510 -0.5174 -1.4806  1.9033
 2108SOL     OW17782   1.597   0.984  11.714 -0.0263 -0.0126  0.1290
 2108SOL    HW117783   1.616   1.043  11.642  0.2637  1.7705  1.6575
 2108SOL    HW217784   1.504   0.994  11.734 -0.5271 -1.1554 -1.6507
 2109SOL     OW17785   2.909   0.024  16.596  0.2218 -0.0681  0.0305
 2109SOL    HW117786   2.952   0.088  16.540 -0.8513  0.6275 -0.0005
 2109SOL    HW217787   2.937   4.672  16.547  1.1576 -0.5080  1.2804
 2110SOL     OW17788   0.410   3.393   5.578  0.1840 -0.3066 -0.3773
 2110SOL    HW117789   0.443   3.430   5.496 -0.5271  2.0910  0.4278
 2110SOL    HW217790   0.342   3.333   5.549 -1.5568  1.4889  0.0607
 2111SOL     OW17791   2.527   3.541   4.223  0.3041  0.2567  0.4405
 2111SOL    HW117792   2.621   3.539   4.208 -0.2092 -0.1374 -2.6971
 2111SOL    HW217793   2.524   3.580   4.310 -0.6577 -0.2125  0.6266
 2112SOL     OW17794   2.208   0.461   7.212  0.0030 -0.4514 -0.3003
 2112SOL    HW117795   2.167   0.374   7.215 -0.8551 -0.0249  0.5808
 2112SOL    HW217796   2.147   0.517   7.165 -0.7453 -0.5430  0.5582
 2113SOL     OW17797   2.526   3.987   2.008  0.4314 -0.5886  0.0980
 2113SOL    HW117798   2.441   3.945   1.994  0.8454 -1.3032 -0.2888
 2113SOL    HW217799   2.525   4.031   2.093 -1.5454 -2.6184  1.1275
 2114SOL     OW17800   4.702   2.195   4.059  0.1670  0.4690 -0.0249
 2114SOL    HW117801   4.692   2.231   4.148  1.4520  2.6396 -0.7484
 2114SOL    HW217802   4.648   2.118   4.043 -0.3639  0.9170 -0.3813
 2115SOL     OW17803   1.321   0.371  10.339 -0.7591 -0.1490 -0.1898
 2115SOL    HW117804   1.348   0.417  10.260  0.3720  2.1189  1.5405
 2115SOL    HW217805   1.380   0.296  10.337  1.0885  1.3393 -1.5154
 2116SOL     OW17806   4.709   1.644   8.157  0.5411 -0.1136  0.0862
 2116SOL    HW117807   4.698   1.735   8.184  0.1310  0.3896 -1.7358
 2116SOL    HW217808   4.633   1.587   8.174 -0.3183  1.0177  0.0116
 2117SOL     OW17809   3.326   0.944   4.307 -0.3383 -0.3406 -0.1898
 2117SOL    HW117810   3.410   0.947   4.260 -0.7390  0.7334 -0.8622
 2117SOL    HW217811   3.264   0.948   4.234 -1.2388  0.0198  0.5896
 2118SOL     OW17812   0.187   3.378   4.586  0.6402 -0.0239  0.6818
 2118SOL    HW117813   0.182   3.472   4.605 -0.5249  0.2811 -1.1308
 2118SOL    HW217814   0.135   3.357   4.664  0.6041  0.1775  0.7123
 2119SOL     OW17815   0.333   3.546  10.602 -0.6258  0.0864 -0.7143
 2119SOL    HW117816   0.364   3.611  10.665 -0.5009 -0.1625 -0.5199
 2119SOL    HW217817   0.416   3.512  10.570  0.2717  2.0998 -0.5089
 2120SOL     OW17818   0.594   3.934   1.950  0.0864 -0.5970  0.3965
 2120SOL    HW117819   0.542   3.966   1.877  1.7024  0.2843 -0.3630
 2120SOL    HW217820   0.525   3.886   1.997 -0.3693 -1.2554 -0.9395
 2121SOL     OW17821   0.691   2.470  17.528  0.1703  0.3712 -0.2860
 2121SOL    HW117822   0.663   2.547  17.578 -0.4631 -0.0816  0.0492
 2121SOL    HW217823   0.677   2.405  17.596 -0.6154  1.4051  0.5446
 2122SOL     OW17824   0.141   1.159   1.883 -0.0833 -0.3133 -0.0919
 2122SOL    HW117825   0.227   1.179   1.920  0.2389  1.8613 -1.9789
 2122SOL    HW217826   0.160   1.147   1.790  0.8463  0.3991  0.0084
 2123SOL     OW17827   0.401   3.964   5.529 -0.2671  0.1616 -0.0110
 2123SOL    HW117828   0.445   3.941   5.446  0.2281  0.5258  0.1500
 2123SOL    HW217829   0.308   3.968   5.509 -0.0571 -1.1752 -1.3530
 2124SOL     OW17830   3.043   1.467   4.526  0.0460 -0.2870 -0.1956
 2124SOL    HW117831   3.076   1.396   4.472  0.4886 -0.0288 -0.2654
 2124SOL    HW217832   2.980   1.421   4.582 -0.9272  0.6196 -0.5542
 2125SOL     OW17833   3.785   4.493   7.630  0.6637 -0.6616 -0.0075
 2125SOL    HW117834   3.824   4.505   7.716  0.0033  1.5562 -0.0225
 2125SOL    HW217835   3.858   4.461   7.576  1.1468  0.2460  0.0931
 2126SOL     OW17836   1.923   3.494   8.726  0.2434  0.3230  0.3572
 2126SOL    HW117837   1.853   3.549   8.690  0.2712 -0.5226 -0.9898
 2126SOL    HW217838   1.929   3.435   8.651 -1.4236 -1.1992  1.4273
 2127SOL     OW17839   2.440   4.013  17.634  0.1880 -0.5292 -0.1147
 2127SOL    HW117840   2.382   3.995   0.002 -0.0777  1.2585  0.1095
 2127SOL    HW217841   2.425   4.107  17.629  0.7111 -0.4995 -0.9650
 2128SOL     OW17842   1.466   2.834   3.479  0.1020 -0.6501 -0.2881
 2128SOL    HW117843   1.398   2.869   3.422  1.7449  1.3155 -1.0489
 2128SOL    HW217844   1.542   2.844   3.421  1.1999  0.3602  1.3349
 2129SOL     OW17845   2.846   3.409   0.541  0.2801  0.0531  0.2294
 2129SOL    HW117846   2.768   3.392   0.488 -0.2997 -0.6527  1.3219
 2129SOL    HW217847   2.822   3.480   0.601 -1.5938  0.8317 -1.4378
 2130SOL     OW17848   1.222   4.261   8.012  0.6041  0.6487  0.3996
 2130SOL    HW117849   1.266   4.346   8.023  0.8201  0.3348  2.0000
 2130SOL    HW217850   1.282   4.187   8.008  0.9816  1.0675 -1.6318
 2131SOL     OW17851   2.324   4.675   7.433  0.2156 -0.3892  0.3780
 2131SOL    HW117852   2.316   4.581   7.452 -1.4417  0.1182  2.2238
 2131SOL    HW217853   2.411   4.697   7.466  0.3607  3.5320 -2.6576
 2132SOL     OW17854   4.485   4.679   7.306  0.3902  0.2623  0.1332
 2132SOL    HW117855   4.462   0.024   7.366 -0.6709 -0.6885  0.8548
 2132SOL    HW217856   4.437   4.608   7.348 -1.0265 -1.0218 -3.6755
 2133SOL     OW17857   0.463   1.121   4.247  0.1299 -0.1655 -0.7737
 2133SOL    HW117858   0.507   1.153   4.326  0.5109 -0.1630 -0.9887
 2133SOL    HW217859   0.502   1.184   4.187  1.8745 -0.0184  0.5197
 2134SOL     OW17860   0.113   1.358   7.581  0.1807 -0.0537 -0.1277
 2134SOL    HW117861   0.098   1.452   7.580 -1.6893 -0.3685 -0.7291
 2134SOL    HW217862   0.062   1.326   7.656 -0.0077  1.9266  0.5773
 2135SOL     OW17863   3.892   1.069   4.024 -0.0097 -0.3533 -0.0207
 2135SOL    HW117864   3.986   1.067   4.004 -0.1400 -0.1717 -0.6553
 2135SOL    HW217865   3.866   1.156   3.997 -0.1519 -0.4687 -0.2553
 2136SOL     OW17866   2.092   4.277   8.508  0.4481  0.0163 -0.4260
 2136SOL    HW117867   2.179   4.253   8.475  0.4184  0.1749 -0.6235
 2136SOL    HW217868   2.084   4.353   8.449 -0.4376  0.1282 -0.1565
 2137SOL     OW17869   1.590   3.918   8.051 -0.5316  0.2556 -0.7683
 2137SOL    HW117870   1.677   3.949   8.077 -2.4843  1.9116  3.7099
 2137SOL    HW217871   1.557   3.981   7.986  0.1831 -1.2294 -2.5652
 2138SOL     OW17872   3.584   2.647   9.907 -0.2751 -0.0972 -0.5208
 2138SOL    HW117873   3.593   2.740   9.891  0.3735 -0.2792 -1.2070
 2138SOL    HW217874   3.490   2.632   9.900 -0.1590 -1.9755  1.5677
 2139SOL     OW17875   0.559   3.168   8.489  0.1489 -0.2343 -0.4662
 2139SOL    HW117876   0.520   3.200   8.571  1.2992 -0.3040  0.1052
 2139SOL    HW217877   0.628   3.115   8.528 -1.8867 -0.5889  2.6542
 2140SOL     OW17878   0.915   3.780   3.532  0.2018 -0.3214  0.5965
 2140SOL    HW117879   0.942   3.779   3.440 -0.1591  0.9147  0.4777
 2140SOL    HW217880   0.919   3.873   3.555 -2.3613  0.7276 -3.3037
 2141SOL     OW17881   3.924   3.768   1.474 -0.3487  0.3778  0.1489
 2141SOL    HW117882   3.882   3.822   1.408  1.0807 -1.8194 -2.5533
 2141SOL    HW217883   3.884   3.686   1.446 -1.0525  0.0821  1.9904
 2142SOL     OW17884   3.227   3.106   3.511  0.2415  0.0622  0.0932
 2142SOL    HW117885   3.250   3.181   3.566 -0.4094  0.2503  0.1048
 2142SOL    HW217886   3.234   3.141   3.421  0.4243 -0.0786  0.0538
 2143SOL     OW17887   1.138   0.556   5.163 -0.2096 -0.0274 -0.4588
 2143SOL    HW117888   1.177   0.513   5.239  0.2564  0.0876 -0.6334
 2143SOL    HW217889   1.178   0.518   5.085 -2.7406 -0.6999 -1.4542
 2144SOL     OW17890   0.112   2.407   5.473  0.5141  0.0898 -0.1919
 2144SOL    HW117891   0.156   2.413   5.388 -0.5337 -1.4065 -0.8428
 2144SOL    HW217892   0.165   2.338   5.511  0.9133 -1.3413 -3.3335
 2145SOL     OW17893   4.382   4.012   8.164  0.0660  0.1886 -0.2716
 2145SOL    HW117894   4.424   4.098   8.167  1.2769 -0.4200  0.2759
 2145SOL    HW217895   4.332   4.012   8.245 -1.2678 -0.4474 -1.1009
 2146SOL     OW17896   2.918   1.068   2.869  0.0173 -0.2815  0.9008
 2146SOL    HW117897   2.948   1.035   2.785  0.6438 -0.5425  1.2208
 2146SOL    HW217898   2.903   0.982   2.908 -0.1349 -0.0810  1.2923
 2147SOL     OW17899   0.216   2.223   4.814  0.2223  0.1993 -0.0059
 2147SOL    HW117900   0.177   2.139   4.837 -0.2578  0.3823 -0.1510
 2147SOL    HW217901   0.238   2.203   4.723  0.9863 -1.2377  0.4908
 2148SOL     OW17902   3.995   0.252   3.048  0.3239  0.3209  0.1011
 2148SOL    HW117903   3.996   0.347   3.055 -1.5714  0.3722 -0.1619
 2148SOL    HW217904   4.003   0.242   2.953 -0.2362 -1.8587  0.2761
 2149SOL     OW17905   1.127   1.256   8.679 -0.4017 -0.2489  0.3881
 2149SOL    HW117906   1.071   1.329   8.653 -0.9916 -0.0667  2.2005
 2149SOL    HW217907   1.149   1.290   8.766  0.7146  1.2686 -0.4897
 2150SOL     OW17908   4.348   4.292  11.824 -0.0944 -0.0858  0.2203
 2150SOL    HW117909   4.338   4.387  11.831  0.1232  0.0575 -1.4827
 2150SOL    HW217910   4.257   4.268  11.804 -0.2170 -0.6600  1.4687
 2151SOL     OW17911   4.089   4.134   5.049  0.6394  0.6219 -0.0441
 2151SOL    HW117912   4.091   4.040   5.031  0.7666  0.5308  0.4501
 2151SOL    HW217913   4.100   4.144   5.143 -0.6062  0.7076  0.0864
 2152SOL     OW17914   2.641   3.900  10.036  0.2711 -0.2621 -0.2760
 2152SOL    HW117915   2.690   3.864  10.110  0.2047  0.7315  0.2546
 2152SOL    HW217916   2.715   3.935   9.987 -0.0882  2.5623  1.1931
 2153SOL     OW17917   4.421   1.859  16.082 -0.2436  0.2291 -0.3537
 2153SOL    HW117918   4.432   1.947  16.118 -1.0791 -0.1567  0.8394
 2153SOL    HW217919   4.338   1.830  16.120 -0.3135  0.8537 -0.0243
 2154SOL     OW17920   0.974   0.005   5.491  0.3170  0.1944  0.3111
 2154SOL    HW117921   0.903   4.669   5.506  0.4110  0.3446  1.3948
 2154SOL    HW217922   1.053   4.683   5.464 -0.9376 -1.9935  0.5570
 2155SOL     OW17923   3.827   2.100  10.506  0.0922 -0.1824 -0.1719
 2155SOL    HW117924   3.888   2.160  10.550  0.8883 -0.6929 -0.5665
 2155SOL    HW217925   3.797   2.039  10.574 -0.9460  0.7981  0.2411
 2156SOL     OW17926   1.459   1.602  13.932 -0.0548 -0.4124 -0.0809
 2156SOL    HW117927   1.426   1.652  13.858  1.8385  0.9687  0.0184
 2156SOL    HW217928   1.378   1.574  13.974  0.9893 -1.9365  0.9152
 2157SOL     OW17929   2.083   1.116   5.477 -0.1845 -0.2227 -0.2517
 2157SOL    HW117930   2.056   1.199   5.515 -0.2321 -0.9347  1.2833
 2157SOL    HW217931   1.999   1.096   5.435 -0.5934  1.1807 -0.0982
 2158SOL     OW17932   2.413   2.437   7.795 -0.4434  0.2847 -0.7546
 2158SOL    HW117933   2.431   2.348   7.763 -0.1443 -0.4020  1.3527
 2158SOL    HW217934   2.323   2.430   7.827 -0.8838  1.1815 -1.8013
 2159SOL     OW17935   4.298   1.966   3.469  0.1597 -0.1900 -0.2114
 2159SOL    HW117936   4.257   2.018   3.399 -1.6070 -0.2979  0.7288
 2159SOL    HW217937   4.330   2.044   3.514 -0.0309  1.5230 -3.0793
 2160SOL     OW17938   3.060   4.037   4.548  0.0020 -0.1582 -0.3586
 2160SOL    HW117939   3.032   4.120   4.510  1.4485  0.1942 -0.6615
 2160SOL    HW217940   3.063   3.976   4.474 -0.6263  1.4480 -1.7004
 2161SOL     OW17941   1.687   1.718  13.330 -0.2978 -0.4066 -0.0727
 2161SOL    HW117942   1.761   1.761  13.287 -1.4414  1.9955  0.3332
 2161SOL    HW217943   1.618   1.745  13.270  1.1661  1.4431 -0.9263
 2162SOL     OW17944   2.942   2.186   6.956 -0.4536 -0.0793 -0.4407
 2162SOL    HW117945   2.909   2.107   6.998 -0.9098 -0.1461 -0.9310
 2162SOL    HW217946   3.003   2.230   7.016  1.3565 -0.6388 -1.8976
 2163SOL     OW17947   2.689   4.076  11.601 -0.1930 -0.1881  0.0706
 2163SOL    HW117948   2.639   4.121  11.533 -0.0234 -1.0437 -0.6128
 2163SOL    HW217949   2.664   4.128  11.677  1.5769  1.1961 -0.2917
 2164SOL     OW17950   4.160   4.713   4.509 -0.4981  0.5706 -0.2715
 2164SOL    HW117951   4.077   4.722   4.556 -0.1565 -0.0311  0.4461
 2164SOL    HW217952   4.224   4.721   4.579 -1.0793  0.5661  0.2597
 2165SOL     OW17953   3.827   4.274  15.262  0.0203  0.2133  0.0032
 2165SOL    HW117954   3.870   4.196  15.228  3.1195  1.1262  1.8327
 2165SOL    HW217955   3.895   4.341  15.253 -0.7630  0.6792 -2.6462
 2166SOL     OW17956   2.867   4.409   2.036  0.5026 -0.3606  0.0854
 2166SOL    HW117957   2.783   4.450   2.054  1.2154  0.6294  1.1696
 2166SOL    HW217958   2.843   4.321   2.005  1.9856 -0.2045 -1.5418
 2167SOL     OW17959   3.156   3.885   4.793 -0.0428  0.4155  0.3922
 2167SOL    HW117960   3.250   3.899   4.805  0.1246 -1.4227  1.1740
 2167SOL    HW217961   3.138   3.909   4.702 -1.1144 -0.4306  0.3789
 2168SOL     OW17962   2.411   2.292   6.626  0.5342 -0.4576 -0.7579
 2168SOL    HW117963   2.385   2.256   6.542 -0.6364  0.8947 -0.9812
 2168SOL    HW217964   2.342   2.349   6.660 -0.2674 -2.4476  0.9502
 2169SOL     OW17965   1.780   2.697   6.771  0.0726 -0.4342 -0.4208
 2169SOL    HW117966   1.838   2.722   6.699 -1.3268 -0.6725 -1.6161
 2169SOL    HW217967   1.729   2.777   6.779  0.9169 -0.0497  1.1669
 2170SOL     OW17968   1.313   2.843  17.673 -0.0230  0.0522 -0.0966
 2170SOL    HW117969   1.221   2.822  17.689  1.0752 -2.3352  3.0792
 2170SOL    HW217970   1.314   2.877  17.583  0.4768  0.8053  0.1923
 2171SOL     OW17971   4.683   1.504   5.783  0.9477  0.0767 -0.2222
 2171SOL    HW117972   4.608   1.472   5.732  0.0793 -1.2327  1.8578
 2171SOL    HW217973   4.699   1.425   5.836 -0.2117  0.2100  0.3286
 2172SOL     OW17974   4.003   0.367   1.717 -0.0367  0.2130 -0.3246
 2172SOL    HW117975   3.994   0.285   1.765 -1.7847  1.4471  1.4380
 2172SOL    HW217976   4.080   0.412   1.753 -0.7936 -1.2682  3.0708
 2173SOL     OW17977   3.434   0.669   5.561  0.0187  0.1610 -0.3702
 2173SOL    HW117978   3.407   0.717   5.483  1.5542  2.3613  0.4482
 2173SOL    HW217979   3.358   0.688   5.616  0.5482  0.0702  0.4051
 2174SOL     OW17980   1.383   0.041   6.237 -0.0317  0.2257 -0.1129
 2174SOL    HW117981   1.309   4.708   6.220  1.2148 -0.6533 -2.4786
 2174SOL    HW217982   1.354   0.126   6.204  1.0640  0.8736  0.6119
 2175SOL     OW17983   0.026   0.005   5.567 -0.3103 -0.2463 -0.7566
 2175SOL    HW117984   0.054   0.021   5.657 -0.7582 -0.6879 -0.5411
 2175SOL    HW217985   4.694   4.658   5.582  0.7420 -0.4588  2.1786
 2176SOL     OW17986   1.825   3.341   8.294 -0.7560  0.0982 -0.0515
 2176SOL    HW117987   1.872   3.260   8.274  0.5276  0.8202  0.0805
 2176SOL    HW217988   1.756   3.304   8.349 -0.8891 -0.0034 -0.2852
 2177SOL     OW17989   3.098   4.614  12.663 -0.5493  0.2326  0.1162
 2177SOL    HW117990   3.038   4.685  12.684 -1.0174  0.2265 -1.1769
 2177SOL    HW217991   3.172   4.671  12.645 -0.3311  0.5014  1.8989
 2178SOL     OW17992   1.746   1.172   3.532  0.0706  0.4292  0.3887
 2178SOL    HW117993   1.788   1.110   3.473  0.2051  0.6757  0.2223
 2178SOL    HW217994   1.659   1.134   3.523 -0.3947  1.3020  1.2829
 2179SOL     OW17995   2.203   1.733   7.647 -0.5614 -0.3428  0.4904
 2179SOL    HW117996   2.291   1.704   7.623 -1.2379  0.4445 -2.8562
 2179SOL    HW217997   2.173   1.666   7.709 -0.4566 -1.6737 -0.9061
 2180SOL     OW17998   4.671   1.194   1.062 -0.0688 -0.3993  0.1215
 2180SOL    HW117999   4.593   1.213   1.112  0.0820  3.5126 -1.1530
 2180SOL    HW218000   4.700   1.111   1.099 -1.9134 -0.6570  0.9650
 2181SOL     OW18001   2.104   1.040   4.507 -0.1037  0.3762 -0.4152
 2181SOL    HW118002   2.146   1.043   4.420  0.1392 -0.3078 -0.3189
 2181SOL    HW218003   2.126   0.953   4.540 -0.9947  0.5844  0.7156
 2182SOL     OW18004   2.597   2.368  15.716 -0.0706  0.9939 -0.6973
 2182SOL    HW118005   2.675   2.374  15.661 -0.8979  0.7763 -1.9106
 2182SOL    HW218006   2.543   2.441  15.687 -0.4465  1.1509  0.4245
 2183SOL     OW18007   2.870   0.525   5.237 -0.7862  0.2953  0.3740
 2183SOL    HW118008   2.889   0.448   5.185 -2.7350 -0.8145  1.3275
 2183SOL    HW218009   2.951   0.577   5.238 -0.7030  0.1826 -0.4110
 2184SOL     OW18010   0.651   2.594  15.372 -0.2896  0.0958  0.1329
 2184SOL    HW118011   0.689   2.518  15.414  1.5302  1.1039  0.2961
 2184SOL    HW218012   0.733   2.641  15.358 -1.0782  1.1691 -1.0116
 2185SOL     OW18013   1.597   4.018   3.900 -0.2941  0.1571 -0.3588
 2185SOL    HW118014   1.534   3.956   3.864 -2.2581  1.3523  1.0542
 2185SOL    HW218015   1.542   4.092   3.926  0.8592  1.2248 -0.9287
 2186SOL     OW18016   1.688   3.666  16.321 -0.3933  0.1281  0.3812
 2186SOL    HW118017   1.645   3.622  16.248 -0.1692  1.8981 -0.8078
 2186SOL    HW218018   1.777   3.631  16.319 -0.2503  0.4728  0.7758
 2187SOL     OW18019   3.959   0.098  14.669  0.1293 -0.7090  0.5955
 2187SOL    HW118020   3.930   0.178  14.713  1.8886 -0.7899  1.9210
 2187SOL    HW218021   3.946   0.122  14.578 -0.5733 -0.4156  0.7720
 2188SOL     OW18022   3.170   2.106   8.537 -0.0047  0.5263  0.4955
 2188SOL    HW118023   3.137   2.136   8.622 -2.2699 -0.7642  0.0806
 2188SOL    HW218024   3.167   2.195   8.501  0.3027  0.2913 -0.1029
 2189SOL     OW18025   3.568   4.302   1.992 -0.0061 -0.1850  0.1660
 2189SOL    HW118026   3.660   4.318   2.011  0.1266 -2.2313  1.2207
 2189SOL    HW218027   3.557   4.384   1.943 -3.0877 -2.2255 -2.5149
 2190SOL     OW18028   3.824   3.006  15.146  0.5326  0.2870  0.4260
 2190SOL    HW118029   3.806   3.000  15.240 -1.1603  3.2635  0.2697
 2190SOL    HW218030   3.844   2.914  15.127  1.2496  0.5270  0.0176
 2191SOL     OW18031   3.624   4.541  14.706 -0.5386 -0.0945  0.0044
 2191SOL    HW118032   3.665   4.547  14.620  0.3935  0.7561  0.5030
 2191SOL    HW218033   3.596   4.631  14.722  2.7544  1.0350 -0.5088
 2192SOL     OW18034   3.505   0.200   4.417 -0.3659 -0.3858 -0.1664
 2192SOL    HW118035   3.429   0.227   4.468 -0.4789 -0.4025 -0.3255
 2192SOL    HW218036   3.469   0.146   4.347  0.6517  0.3635 -1.2681
 2193SOL     OW18037   2.609   2.602   8.427  0.0448 -0.1635  0.3282
 2193SOL    HW118038   2.682   2.542   8.415  0.5302  0.0619  2.1954
 2193SOL    HW218039   2.561   2.552   8.493 -0.4634  1.1668  0.9639
 2194SOL     OW18040   0.915   3.570   9.344 -0.8342  0.2310 -0.5725
 2194SOL    HW118041   0.929   3.647   9.399  0.5246 -0.4559  0.0268
 2194SOL    HW218042   0.945   3.601   9.258  0.8580 -1.9244 -0.7503
 2195SOL     OW18043   4.062   3.496   2.319 -0.7052 -0.2508 -0.3656
 2195SOL    HW118044   4.127   3.474   2.252  1.2941 -2.3834  2.2795
 2195SOL    HW218045   4.044   3.408   2.353 -1.4060  0.1088  0.1851
 2196SOL     OW18046   0.984   1.809   5.748 -0.6866  0.3617  0.0560
 2196SOL    HW118047   1.078   1.813   5.732 -0.8629  2.8378 -0.4097
 2196SOL    HW218048   0.942   1.873   5.689 -2.6274  1.0702  2.2248
 2197SOL     OW18049   2.545   4.520  11.535  0.2847  0.4839 -0.6591
 2197SOL    HW118050   2.485   4.594  11.543 -0.2276 -0.0807  0.5518
 2197SOL    HW218051   2.623   4.555  11.579  0.6158  0.9706 -1.6160
 2198SOL     OW18052   1.851   1.254   9.461  0.7737 -0.4845  0.7330
 2198SOL    HW118053   1.803   1.176   9.491 -2.1146  0.1667 -2.2052
 2198SOL    HW218054   1.811   1.325   9.511  3.0998  0.7191  0.8704
 2199SOL     OW18055   0.766   1.809   7.505  0.1334 -0.4685 -0.4034
 2199SOL    HW118056   0.764   1.719   7.473 -1.9952 -0.7501  0.5756
 2199SOL    HW218057   0.847   1.808   7.557  1.8266 -0.0309 -2.9761
 2200SOL     OW18058   0.946   0.969  16.467 -0.4156 -0.5958 -0.0922
 2200SOL    HW118059   0.946   0.936  16.377  0.6133 -2.0733  0.4510
 2200SOL    HW218060   1.035   1.005  16.475  0.1794 -2.0544 -0.2759
 2201SOL     OW18061   1.534   3.603   6.804 -0.1933  0.2621  0.2688
 2201SOL    HW118062   1.496   3.691   6.812  2.3430  1.3514  0.0297
 2201SOL    HW218063   1.511   3.570   6.892 -1.9219 -1.9829 -1.0081
 2202SOL     OW18064   2.251   4.505   4.137 -0.2324 -0.8003  0.2261
 2202SOL    HW118065   2.173   4.481   4.189 -2.5094  0.6378 -2.5287
 2202SOL    HW218066   2.210   4.533   4.055 -0.4335  0.2311  0.6819
 2203SOL     OW18067   3.897   2.368   3.369 -0.7433  1.0318  0.4674
 2203SOL    HW118068   3.935   2.282   3.383  0.4112  1.7958  2.0660
 2203SOL    HW218069   3.844   2.353   3.291  1.4657  0.2123 -0.8680
 2204SOL     OW18070   2.632   3.319   6.883 -0.1306  0.1446  0.0882
 2204SOL    HW118071   2.595   3.402   6.853  0.0261 -0.6176 -2.2108
 2204SOL    HW218072   2.697   3.288   6.821 -0.6860 -0.7729 -0.0300
 2205SOL     OW18073   3.900   1.177   8.338  0.4227 -0.1805 -0.3755
 2205SOL    HW118074   3.833   1.153   8.402 -1.2421  1.5278 -1.4748
 2205SOL    HW218075   3.849   1.234   8.281  1.3142 -0.5737 -1.5574
 2206SOL     OW18076   2.815   1.519  13.627  1.0310 -0.2224  0.1114
 2206SOL    HW118077   2.863   1.445  13.589 -2.8568 -1.9371 -1.5126
 2206SOL    HW218078   2.880   1.539  13.694  0.7823  1.1307 -0.0572
 2207SOL     OW18079   3.289   4.259   8.525  0.2761 -0.6059 -0.2196
 2207SOL    HW118080   3.213   4.211   8.493 -0.3486  1.5634 -1.9966
 2207SOL    HW218081   3.286   4.257   8.621 -1.1852 -1.1701 -0.2697
 2208SOL     OW18082   3.595   3.932   3.151 -0.0239 -0.3734 -0.6259
 2208SOL    HW118083   3.528   3.889   3.203  1.3499 -0.3779  1.1734
 2208SOL    HW218084   3.558   4.019   3.135  0.5364 -0.1557 -0.7544
 2209SOL     OW18085   3.311   1.267   8.695  0.2240 -0.0109 -0.3894
 2209SOL    HW118086   3.250   1.233   8.630 -0.5292  0.4916  0.0514
 2209SOL    HW218087   3.310   1.194   8.758 -1.6815 -2.0917 -2.8458
 2210SOL     OW18088   0.957   4.708   3.014  0.0300 -0.4792 -0.2612
 2210SOL    HW118089   0.894   4.704   2.942  0.9571 -4.0931 -0.8657
 2210SOL    HW218090   0.992   0.070   2.998  0.9879 -0.7242  0.4691
 2211SOL     OW18091   2.640   2.225  11.555 -0.6437  0.1677 -0.1641
 2211SOL    HW118092   2.677   2.311  11.538  0.6342  0.0623  2.1452
 2211SOL    HW218093   2.564   2.249  11.607 -1.7844 -2.8014 -0.4279
 2212SOL     OW18094   2.715   3.992   3.477  0.0176  0.0049  0.0755
 2212SOL    HW118095   2.643   3.956   3.425  0.2502 -1.8974  1.0861
 2212SOL    HW218096   2.736   4.070   3.425  3.4785 -0.7851  0.3564
 2213SOL     OW18097   2.919   2.603   5.865 -0.9480  0.0440 -0.2359
 2213SOL    HW118098   2.924   2.584   5.959 -1.8438 -0.5124 -0.3017
 2213SOL    HW218099   3.011   2.593   5.841 -1.3082  1.2176 -2.1189
 2214SOL     OW18100   0.292   3.737   8.021  0.0510 -0.0377  0.2067
 2214SOL    HW118101   0.303   3.667   7.957 -1.5525 -0.9789  0.9454
 2214SOL    HW218102   0.378   3.743   8.063  0.4522  1.4964 -0.8464
 2215SOL     OW18103   2.349   4.371   3.756 -0.3801 -0.2445 -0.3517
 2215SOL    HW118104   2.353   4.327   3.841 -1.6914 -2.5472 -1.4742
 2215SOL    HW218105   2.309   4.456   3.772 -0.0440  0.0587 -1.1262
 2216SOL     OW18106   0.947   0.482  15.873 -0.8647  0.3011  0.0766
 2216SOL    HW118107   0.940   0.391  15.843  1.5183  0.5509 -1.2242
 2216SOL    HW218108   0.931   0.471  15.967 -0.4488  1.6261  0.3005
 2217SOL     OW18109   3.673   3.307   9.704 -0.4914 -0.0564  0.4764
 2217SOL    HW118110   3.649   3.235   9.762  2.7780 -2.5355 -1.2221
 2217SOL    HW218111   3.742   3.265   9.652 -0.3348 -0.6876  1.2027
 2218SOL     OW18112   3.722   0.201   5.320  0.3043 -0.6506 -0.0203
 2218SOL    HW118113   3.743   0.160   5.404  1.3611  0.2679  0.1684
 2218SOL    HW218114   3.790   0.268   5.317  0.2938 -0.5447  2.5381
 2219SOL     OW18115   1.785   2.824   8.509 -0.1267  0.6186  0.0557
 2219SOL    HW118116   1.842   2.752   8.481 -2.2563 -1.3890  0.8903
 2219SOL    HW218117   1.843   2.882   8.557 -1.5086  3.3505 -1.5008
 2220SOL     OW18118   0.893   3.575   4.455  0.1028  0.6226  0.3040
 2220SOL    HW118119   0.948   3.653   4.460  1.9627 -0.6492 -0.3076
 2220SOL    HW218120   0.928   3.519   4.525  0.7965 -0.9246 -1.2698
 2221SOL     OW18121   3.845   4.432   6.736  0.3284 -0.2085 -0.2285
 2221SOL    HW118122   3.819   4.374   6.808  1.4819 -0.7149 -0.2176
 2221SOL    HW218123   3.779   4.414   6.670  1.0622  2.1608 -1.6157
 2222SOL     OW18124   4.206   3.672   6.895 -0.5978  0.5724 -0.9921
 2222SOL    HW118125   4.169   3.659   6.808  0.1901  1.6758 -1.4960
 2222SOL    HW218126   4.130   3.708   6.940  0.7500  1.9295  0.1910
 2223SOL     OW18127   3.008   1.390   0.004 -0.0784 -0.4223 -0.4445
 2223SOL    HW118128   2.918   1.356   0.004 -0.2774  0.0978 -0.5272
 2223SOL    HW218129   3.024   1.403   0.097 -0.8335  2.5955 -0.7083
 2224SOL     OW18130   0.167   1.641   1.277  0.5677  0.2974 -0.1605
 2224SOL    HW118131   0.162   1.553   1.240 -1.7044 -1.3824  4.1276
 2224SOL    HW218132   0.087   1.641   1.328  1.1338 -3.3710  0.7196
 2225SOL     OW18133   1.269   2.917   8.492  0.1780  0.2003  1.0465
 2225SOL    HW118134   1.199   2.956   8.545 -0.2398  0.1162  0.5541
 2225SOL    HW218135   1.303   2.996   8.451 -1.3514  1.4536  2.1833
 2226SOL     OW18136   0.079   1.246   0.418 -0.0628 -0.0177  0.6471
 2226SOL    HW118137   4.711   1.232   0.428 -0.0311  0.5820  1.7851
 2226SOL    HW218138   0.104   1.160   0.451 -2.0141 -1.6669 -2.1586
 2227SOL     OW18139   3.161   2.506   6.527 -0.1091  0.7412 -0.0980
 2227SOL    HW118140   3.106   2.440   6.483  2.9314 -1.0490 -1.2077
 2227SOL    HW218141   3.110   2.505   6.608  0.3160  1.9981  0.1811
 2228SOL     OW18142   0.938   2.842   5.725  0.0114  0.3076  0.1001
 2228SOL    HW118143   0.871   2.774   5.728  0.4468 -0.1044  0.4808
 2228SOL    HW218144   0.883   2.906   5.769 -0.1265  0.5103 -0.3623
 2229SOL     OW18145   4.363   1.648   6.535 -0.0639  0.1442  0.1320
 2229SOL    HW118146   4.445   1.668   6.489 -0.0349 -1.4252 -0.4801
 2229SOL    HW218147   4.350   1.555   6.517 -0.8747  0.3103 -0.1192
 2230SOL     OW18148   3.664   2.494   5.350  0.2916  0.1967 -0.2112
 2230SOL    HW118149   3.623   2.576   5.324  1.9084  1.1368  0.2219
 2230SOL    HW218150   3.603   2.439   5.301 -0.1026  0.4851 -0.0392
 2231SOL     OW18151   2.939   4.311   9.822  0.3828 -0.1810  0.6519
 2231SOL    HW118152   2.957   4.251   9.750 -1.6117  0.2772 -0.2323
 2231SOL    HW218153   2.979   4.395   9.801  0.0290 -0.1023  0.2935
 2232SOL     OW18154   4.202   2.872   2.290  0.3011 -0.4788  0.3601
 2232SOL    HW118155   4.231   2.960   2.314  0.8854 -0.1567 -1.5571
 2232SOL    HW218156   4.280   2.819   2.301  0.8404  0.4055  0.7826
 2233SOL     OW18157   4.698   4.616   7.541  0.0195  0.1071 -0.3114
 2233SOL    HW118158   4.661   4.701   7.521  0.0672 -0.4473 -2.7645
 2233SOL    HW218159   4.659   4.595   7.626  0.8184 -0.3382 -0.0531
 2234SOL     OW18160   3.684   4.380   9.226  0.5658 -0.2071 -0.0473
 2234SOL    HW118161   3.662   4.457   9.279  1.7043 -0.3018  0.5557
 2234SOL    HW218162   3.771   4.360   9.259  0.0401 -0.2836  1.2663
 2235SOL     OW18163   1.433   0.757  12.190 -0.0585  0.0305  0.1937
 2235SOL    HW118164   1.423   0.675  12.142 -1.4812 -0.2248  0.9173
 2235SOL    HW218165   1.376   0.737  12.264  0.8232 -0.6586  0.6966
 2236SOL     OW18166   3.654   1.792  13.595  0.2845 -0.1033 -0.6007
 2236SOL    HW118167   3.618   1.773  13.508  3.1964 -1.9327 -1.3999
 2236SOL    HW218168   3.676   1.885  13.589  1.8648 -0.4604 -0.1248
 2237SOL     OW18169   4.433   1.482   0.177  0.2283 -0.1698 -0.3263
 2237SOL    HW118170   4.403   1.526   0.256  0.2642 -1.6278  0.4981
 2237SOL    HW218171   4.526   1.504   0.166  0.2158  0.5125  1.0009
 2238SOL     OW18172   3.808   4.103   4.439  0.4059 -0.0184 -0.4913
 2238SOL    HW118173   3.717   4.112   4.467  0.4088 -2.8342  0.4072
 2238SOL    HW218174   3.846   4.058   4.513 -0.3254 -0.1505 -0.1970
 2239SOL     OW18175   1.081   1.446   1.347  0.1218 -0.1349 -0.1083
 2239SOL    HW118176   1.119   1.458   1.260 -0.6455 -0.9814 -0.5590
 2239SOL    HW218177   0.990   1.421   1.329  0.3636  0.4641 -2.1202
 2240SOL     OW18178   2.993   0.887  11.741 -0.4432 -0.0025 -0.2350
 2240SOL    HW118179   3.070   0.942  11.753 -0.1580 -0.6668  1.0745
 2240SOL    HW218180   3.025   0.799  11.763 -2.3100 -0.6824 -0.1864
 2241SOL     OW18181   3.845   0.725   2.976 -0.1503 -0.4445 -0.1121
 2241SOL    HW118182   3.901   0.712   2.900 -0.7629 -0.4877 -0.5541
 2241SOL    HW218183   3.761   0.720   2.930  0.9153 -0.4271 -2.0441
 2242SOL     OW18184   2.461   2.597   6.072 -0.0254 -0.1323 -0.2002
 2242SOL    HW118185   2.370   2.579   6.096 -0.2024  2.2389  0.8935
 2242SOL    HW218186   2.465   2.522   6.013  0.2551  0.7612 -1.3220
 2243SOL     OW18187   3.255   1.761   8.153 -0.0385  0.2021  0.2182
 2243SOL    HW118188   3.224   1.811   8.228 -0.3596  0.2968  0.0214
 2243SOL    HW218189   3.310   1.691   8.188  0.5762  0.1395 -0.8666
 2244SOL     OW18190   0.098   3.732   4.306 -0.2196  0.0144 -0.4227
 2244SOL    HW118191   0.046   3.813   4.308 -1.8391 -1.0817  1.2103
 2244SOL    HW218192   0.142   3.727   4.221 -1.4627 -0.9762 -0.9985
 2245SOL     OW18193   3.804   4.282   4.705 -0.2997 -0.4896  0.6824
 2245SOL    HW118194   3.726   4.334   4.726  0.1756  0.6088 -0.3166
 2245SOL    HW218195   3.767   4.223   4.639 -2.0828  1.6385 -0.2013
 2246SOL     OW18196   0.741   2.720   9.520 -0.6724  0.5447  0.0047
 2246SOL    HW118197   0.716   2.776   9.593  0.6057  0.2636  0.6586
 2246SOL    HW218198   0.833   2.700   9.534 -0.5182 -1.1066 -3.3781
 2247SOL     OW18199   0.590   0.040   3.009 -0.5585  0.7167 -0.0297
 2247SOL    HW118200   0.497   0.027   2.992 -0.6973  0.2223  1.1402
 2247SOL    HW218201   0.629   4.708   2.943 -1.6013  0.4253 -0.3969
 2248SOL     OW18202   0.885   1.089   7.986  0.2596  0.0647 -0.1232
 2248SOL    HW118203   0.967   1.060   7.947  0.4061  0.7872 -0.3371
 2248SOL    HW218204   0.910   1.071   8.077  0.7053 -0.2190 -0.3016
 2249SOL     OW18205   0.151   3.155   6.578 -0.2654  0.3229  0.5776
 2249SOL    HW118206   0.063   3.162   6.613  0.0116 -0.2754  1.4082
 2249SOL    HW218207   0.200   3.138   6.659 -0.5403 -4.9153 -0.3203
 2250SOL     OW18208   2.164   3.706  17.664 -0.3290 -0.6575 -0.1730
 2250SOL    HW118209   2.178   3.778  17.603  0.3109 -0.6913 -0.0717
 2250SOL    HW218210   2.071   3.693  17.644 -0.8043  1.1173  0.8643
 2251SOL     OW18211   0.836   1.156   4.767 -0.4061 -0.0000 -0.2749
 2251SOL    HW118212   0.889   1.122   4.695  0.8476  0.6238  0.3427
 2251SOL    HW218213   0.771   1.204   4.717 -1.6630 -0.0531  1.3027
 2252SOL     OW18214   1.899   3.007   1.071 -0.3771 -0.1259  0.7476
 2252SOL    HW118215   1.875   3.098   1.088  0.6821  0.0448  1.3273
 2252SOL    HW218216   1.993   3.006   1.090 -0.3032  0.0906  0.4018
 2253SOL     OW18217   0.665   3.497  16.772  0.2454 -0.4355 -0.1492
 2253SOL    HW118218   0.660   3.583  16.730 -0.3939 -0.5326 -0.2612
 2253SOL    HW218219   0.575   3.467  16.776  0.5448 -1.8046 -3.6227
 2254SOL     OW18220   2.190   3.553  10.759 -0.0280  0.6918  0.5080
 2254SOL    HW118221   2.218   3.586  10.674 -0.4090  1.4043  0.6594
 2254SOL    HW218222   2.161   3.637  10.795  2.0604  2.2217 -1.3742
 2255SOL     OW18223   1.087   2.380   4.850 -0.2462 -0.0571 -0.2145
 2255SOL    HW118224   1.156   2.425   4.802  0.3158 -0.4554  0.2172
 2255SOL    HW218225   1.102   2.287   4.836  2.9054  0.3844  0.2488
 2256SOL     OW18226   2.680   2.150   8.912  0.0574  0.4275  0.0933
 2256SOL    HW118227   2.667   2.229   8.964 -0.2929 -0.3085  1.1232
 2256SOL    HW218228   2.758   2.113   8.953 -0.1716  1.6163  1.6147
 2257SOL     OW18229   2.288   2.035   8.070 -0.1343  0.2435 -0.1260
 2257SOL    HW118230   2.213   1.981   8.095 -0.8301  0.7643 -1.0686
 2257SOL    HW218231   2.328   2.051   8.155 -1.7790  1.7317  0.3876
 2258SOL     OW18232   1.074   0.581   1.084  0.2068 -0.4936  0.2975
 2258SOL    HW118233   1.002   0.637   1.114  0.6771 -0.3085  1.0760
 2258SOL    HW218234   1.104   0.633   1.010  0.2528  0.2440  0.8353
 2259SOL     OW18235   3.763   4.136   6.403  0.0959 -0.1699 -0.0131
 2259SOL    HW118236   3.811   4.125   6.485  0.9420  1.2533 -0.3093
 2259SOL    HW218237   3.820   4.100   6.335 -1.5330 -1.8297 -0.4928
 2260SOL     OW18238   2.062   4.320  13.900 -0.2091  0.0441  0.1722
 2260SOL    HW118239   2.112   4.380  13.845  0.4962 -0.3451  0.3907
 2260SOL    HW218240   2.103   4.325  13.986 -0.4368 -0.2706  0.2976
 2261SOL     OW18241   0.715   2.610   8.161  0.8387 -0.2190  0.0607
 2261SOL    HW118242   0.694   2.521   8.136  0.4368 -0.7480  2.2370
 2261SOL    HW218243   0.808   2.592   8.175  0.9996 -1.6383 -3.0106
 2262SOL     OW18244   0.599   1.555   3.010 -0.2940  0.2205  0.1930
 2262SOL    HW118245   0.608   1.581   2.918 -1.1782  0.0666  0.0575
 2262SOL    HW218246   0.687   1.524   3.028 -0.0131 -0.5557 -2.5138
 2263SOL     OW18247   0.136   3.622   9.015 -0.3234 -0.0078  0.2381
 2263SOL    HW118248   0.205   3.586   9.072  1.4368  0.2945 -1.7064
 2263SOL    HW218249   0.122   3.547   8.957 -1.2120  0.6218 -0.3372
 2264SOL     OW18250   2.081   3.356  15.526 -0.4115 -0.1060 -0.0599
 2264SOL    HW118251   2.132   3.436  15.537 -0.8390  0.4858 -2.4917
 2264SOL    HW218252   2.067   3.335  15.619 -0.8262  0.2959 -0.0331
 2265SOL     OW18253   0.890   0.402   1.963  0.8884  0.0182 -0.3492
 2265SOL    HW118254   0.941   0.374   1.887 -1.5391 -2.1431 -1.1818
 2265SOL    HW218255   0.924   0.366   2.045 -0.0065  1.0665  0.4768
 2266SOL     OW18256   4.178   2.635   5.163 -0.3609 -0.1270  0.4768
 2266SOL    HW118257   4.231   2.572   5.211 -1.1518 -0.0914  1.3902
 2266SOL    HW218258   4.240   2.705   5.141  1.3737 -1.5524  0.8662
 2267SOL     OW18259   1.669   0.695   4.648  0.4080 -0.0018 -0.3312
 2267SOL    HW118260   1.618   0.755   4.594  0.0640 -0.1203 -0.1395
 2267SOL    HW218261   1.667   0.747   4.728  1.9192  1.0748 -0.9944
 2268SOL     OW18262   0.470   1.379   6.668 -0.8290 -0.3714 -0.4903
 2268SOL    HW118263   0.443   1.458   6.620 -0.5993 -0.2916 -0.4884
 2268SOL    HW218264   0.495   1.410   6.755 -2.2592  1.5826 -0.7835
 2269SOL     OW18265   0.957   2.971  10.697 -0.1084  0.3876 -0.2612
 2269SOL    HW118266   1.005   2.899  10.739  0.7991 -0.2256 -2.3828
 2269SOL    HW218267   0.928   3.018  10.775 -0.8676 -0.1990 -0.1897
 2270SOL     OW18268   0.647   0.345   2.225  0.1266 -0.4588 -0.6274
 2270SOL    HW118269   0.647   0.441   2.217  1.1939 -0.5985 -2.2384
 2270SOL    HW218270   0.687   0.316   2.143 -1.3979  1.1798 -1.9594
 2271SOL     OW18271   2.521   2.317   1.534  0.1667  0.3065  0.6362
 2271SOL    HW118272   2.445   2.317   1.593 -0.5574 -2.1220 -0.2936
 2271SOL    HW218273   2.516   2.405   1.496 -1.4478  1.6567  3.9596
 2272SOL     OW18274   3.792   1.571   2.572  0.1496 -0.1228 -0.5276
 2272SOL    HW118275   3.851   1.625   2.625 -1.6012  1.0937  0.1586
 2272SOL    HW218276   3.826   1.487   2.604  3.1499  0.6528 -1.6091
 2273SOL     OW18277   2.377   4.556   8.937 -0.2118 -0.6390 -0.0469
 2273SOL    HW118278   2.355   4.558   9.030  1.9564 -0.1737  0.4550
 2273SOL    HW218279   2.458   4.506   8.947  0.9442  1.4718  1.1663
 2274SOL     OW18280   0.366   2.815   4.293 -0.4959 -0.7448 -0.0174
 2274SOL    HW118281   0.285   2.862   4.314  0.4296  0.1037  1.7006
 2274SOL    HW218282   0.381   2.764   4.373  0.4597 -0.5591 -0.0723
 2275SOL     OW18283   2.357   1.214  16.520 -0.4792 -0.5307  0.1058
 2275SOL    HW118284   2.390   1.292  16.474 -0.9110 -0.5341 -0.2158
 2275SOL    HW218285   2.264   1.233  16.512  0.0456  2.1665  0.3478
 2276SOL     OW18286   3.736   0.456  14.387  0.1682  0.2250 -0.8637
 2276SOL    HW118287   3.803   0.504  14.338  0.6918  0.4870  0.0988
 2276SOL    HW218288   3.668   0.523  14.374 -1.3184 -0.9255  1.0265
 2277SOL     OW18289   2.192   0.369   5.337  0.0273 -0.4344  0.0080
 2277SOL    HW118290   2.223   0.457   5.315  2.2412 -1.3336 -0.5357
 2277SOL    HW218291   2.159   0.344   5.251  0.5437  1.3545 -0.7035
 2278SOL     OW18292   2.860   2.914   5.259 -0.2446  0.1199 -0.1632
 2278SOL    HW118293   2.846   2.914   5.354  2.6070 -1.1746  0.2575
 2278SOL    HW218294   2.914   2.992   5.242  2.0816 -1.8203 -1.6257
 2279SOL     OW18295   1.634   2.104   5.816 -0.9211  0.2939 -1.4144
 2279SOL    HW118296   1.541   2.105   5.793 -0.2286  1.1680 -4.2248
 2279SOL    HW218297   1.638   2.014   5.846  2.2752  0.5466 -1.1211
 2280SOL     OW18298   2.591   1.577  10.660  0.0477 -0.0998 -0.0794
 2280SOL    HW118299   2.526   1.614  10.600  2.6233  0.2530 -2.7073
 2280SOL    HW218300   2.539   1.558  10.737 -0.3974  0.6504 -0.1960
 2281SOL     OW18301   3.559   3.325  10.430  0.2490 -0.6990 -1.0899
 2281SOL    HW118302   3.621   3.375  10.483  0.8885  0.7888 -3.2274
 2281SOL    HW218303   3.607   3.297  10.352 -0.3230 -2.0629 -0.9450
 2282SOL     OW18304   4.442   2.789   6.691  0.1742  0.4051  0.0622
 2282SOL    HW118305   4.449   2.706   6.738  1.1143  0.2520 -0.3438
 2282SOL    HW218306   4.370   2.782   6.629 -1.2751  0.8670  1.7106
 2283SOL     OW18307   4.279   0.298   8.423 -0.1513 -0.5845  0.2101
 2283SOL    HW118308   4.359   0.349   8.435  0.5247 -1.3335 -1.1072
 2283SOL    HW218309   4.306   0.206   8.426  0.4029 -0.3801  1.1454
 2284SOL     OW18310   1.948   2.511  13.684  0.3419  0.0193 -0.0922
 2284SOL    HW118311   1.872   2.465  13.649  1.1769 -0.8148 -0.8153
 2284SOL    HW218312   1.936   2.489  13.776 -1.7238  0.9740 -0.1497
 2285SOL     OW18313   1.922   3.769   9.170 -0.1413 -0.3902 -0.2517
 2285SOL    HW118314   1.904   3.688   9.219 -0.1889 -1.4206 -1.9483
 2285SOL    HW218315   1.835   3.797   9.143 -0.5903  0.8838  2.5355
 2286SOL     OW18316   1.362   2.678   7.486 -0.3811 -0.5581  0.2323
 2286SOL    HW118317   1.454   2.653   7.491 -0.2116 -0.3115 -1.7399
 2286SOL    HW218318   1.341   2.649   7.398 -2.1604  0.6637  0.2519
 2287SOL     OW18319   1.075   3.058   0.245  0.4159  0.3659  0.1734
 2287SOL    HW118320   1.005   3.102   0.197 -1.7581 -0.5708  2.4915
 2287SOL    HW218321   1.044   2.968   0.259 -1.8158  1.5986  3.0162
 2288SOL     OW18322   0.987   2.963  12.935 -0.2112  0.0849 -0.1554
 2288SOL    HW118323   0.976   2.925  12.848  2.8629  1.5162 -1.1800
 2288SOL    HW218324   1.068   2.924  12.970  0.8809  3.0648  0.6271
 2289SOL     OW18325   0.951   1.070   8.255 -0.1122  0.2383 -0.0786
 2289SOL    HW118326   1.022   1.021   8.296 -0.2497  0.1131  0.0130
 2289SOL    HW218327   0.938   1.132   8.326 -0.7660  0.4385 -0.3671
 2290SOL     OW18328   3.001   3.000   3.202 -0.3056 -0.3263 -0.0889
 2290SOL    HW118329   3.082   3.026   3.244 -1.1791 -0.1760  1.4943
 2290SOL    HW218330   3.001   3.033   3.112 -1.9106 -0.8638 -0.2823
 2291SOL     OW18331   1.075   0.007  14.985 -0.4245 -0.1968 -0.5425
 2291SOL    HW118332   1.143   0.024  15.050  2.1460 -1.9153 -2.7695
 2291SOL    HW218333   1.011   0.054  15.039  0.0315 -0.7844  0.5168
 2292SOL     OW18334   4.363   2.567   7.382 -0.5760  0.6849  0.7007
 2292SOL    HW118335   4.417   2.501   7.339 -2.9026  0.9534 -2.5824
 2292SOL    HW218336   4.375   2.640   7.321  0.7346 -0.2384 -0.1556
 2293SOL     OW18337   3.465   3.111  16.716 -0.0418  0.2723 -0.3546
 2293SOL    HW118338   3.452   3.145  16.804  1.0946 -0.0821 -0.0603
 2293SOL    HW218339   3.396   3.045  16.707  1.1579 -1.0239  0.0297
 2294SOL     OW18340   3.297   4.013   9.754  0.2142 -0.3012  0.1765
 2294SOL    HW118341   3.361   3.947   9.729  0.2750 -0.0843 -0.2387
 2294SOL    HW218342   3.351   4.090   9.775 -0.9520  0.1471  1.6164
 2295SOL     OW18343   2.565   4.709  12.026  0.5131 -0.3377  0.2483
 2295SOL    HW118344   2.514   0.046  11.976  3.4476  0.9930 -1.0317
 2295SOL    HW218345   2.534   4.709  12.117 -1.7707 -1.6554 -0.5320
 2296SOL     OW18346   1.021   3.777   3.284  0.9158 -0.3318  0.0334
 2296SOL    HW118347   1.114   3.779   3.308  1.1386  2.8607 -1.0774
 2296SOL    HW218348   1.024   3.783   3.189  2.3120 -0.5455  0.0565
 2297SOL     OW18349   4.629   2.499   4.274  0.3179  0.4347  0.1354
 2297SOL    HW118350   4.538   2.515   4.297 -0.2422 -2.7578  0.1395
 2297SOL    HW218351   4.627   2.542   4.188  1.0756  1.3340  0.5711
 2298SOL     OW18352   0.924   2.605   4.644  0.2611  0.2850 -0.0718
 2298SOL    HW118353   1.015   2.623   4.618  0.4220 -1.9686 -1.1361
 2298SOL    HW218354   0.940   2.560   4.727  0.4807  1.0483  0.2997
 2299SOL     OW18355   0.040   2.759   6.767  0.0315 -0.2542  0.3275
 2299SOL    HW118356   4.674   2.784   6.769 -0.3526 -1.6622  0.1497
 2299SOL    HW218357   0.037   2.714   6.683 -1.4814  2.4994 -1.0797
 2300SOL     OW18358   1.535   2.721  10.789  0.3814 -0.1589 -0.4015
 2300SOL    HW118359   1.601   2.664  10.750  0.6965 -0.0013 -0.1017
 2300SOL    HW218360   1.457   2.714  10.733 -0.1717 -0.0720  0.3497
 2301SOL     OW18361   1.764   0.195   3.076  0.3262 -0.1833 -0.2170
 2301SOL    HW118362   1.815   0.115   3.089 -0.4244 -0.5536  0.4808
 2301SOL    HW218363   1.791   0.210   2.985 -3.6805  0.0829 -1.3756
 2302SOL     OW18364   4.549   3.545  10.807 -0.4238  0.7795  0.1623
 2302SOL    HW118365   4.578   3.505  10.725 -0.7808 -0.0936  0.4610
 2302SOL    HW218366   4.469   3.496  10.827 -1.6043  1.3536 -3.0748
 2303SOL     OW18367   2.040   0.683   0.619  0.4771  0.0850  0.1798
 2303SOL    HW118368   1.999   0.617   0.564  2.2155 -1.1038  0.3270
 2303SOL    HW218369   2.131   0.683   0.591  0.4493 -0.7128  0.1153
 2304SOL     OW18370   4.416   0.029   2.727 -0.3418  0.0454 -0.0976
 2304SOL    HW118371   4.357   0.021   2.802 -2.2764 -0.7820 -1.7103
 2304SOL    HW218372   4.376   4.694   2.665  2.3896 -2.0344  0.1931
 2305SOL     OW18373   0.401   0.742   2.238  0.8211 -0.1097 -0.0384
 2305SOL    HW118374   0.471   0.807   2.247 -0.0141  0.8149 -0.2703
 2305SOL    HW218375   0.323   0.792   2.215  0.3654  0.0613  1.8628
 2306SOL     OW18376   3.099   1.341  13.656 -0.2034  0.4477 -0.0604
 2306SOL    HW118377   3.170   1.301  13.705  0.3907 -1.5290 -2.5184
 2306SOL    HW218378   3.025   1.293  13.694  0.4905 -1.4886 -1.1205
 2307SOL     OW18379   3.857   3.645   9.866  0.9736 -0.0338 -0.3945
 2307SOL    HW118380   3.906   3.708   9.918  2.3926 -2.5797  1.3335
 2307SOL    HW218381   3.904   3.671   9.787  1.2040 -0.2170 -0.3179
 2308SOL     OW18382   1.695   0.482   4.053  0.6403  0.3208  0.6709
 2308SOL    HW118383   1.643   0.452   3.979  0.1137  1.5191  0.5487
 2308SOL    HW218384   1.641   0.439   4.118  0.1159  1.9442  1.3148
 2309SOL     OW18385   1.165   1.463   5.556 -0.3143  0.0354  0.1182
 2309SOL    HW118386   1.215   1.470   5.637  0.3192  0.1508 -0.2796
 2309SOL    HW218387   1.163   1.368   5.543 -0.7373 -0.0934  1.1569
 2310SOL     OW18388   1.809   0.848   9.714  0.3175  0.5421  0.5212
 2310SOL    HW118389   1.826   0.880   9.802  1.8519 -0.2237  0.5087
 2310SOL    HW218390   1.893   0.801   9.708 -0.1727 -0.1792 -0.6362
 2311SOL     OW18391   1.209   1.330   8.944  0.2754 -0.0604  0.1356
 2311SOL    HW118392   1.239   1.241   8.965 -0.6634 -0.7232 -1.2763
 2311SOL    HW218393   1.114   1.330   8.953  0.2380 -1.0771 -0.2531
 2312SOL     OW18394   1.141   0.861   4.382  0.1612  0.4333  0.2887
 2312SOL    HW118395   1.129   0.769   4.356  2.5412  0.4794 -0.9720
 2312SOL    HW218396   1.134   0.903   4.296  2.0954 -1.8722 -0.9882
 2313SOL     OW18397   3.001   1.058   0.543 -0.8122  0.1372 -0.5888
 2313SOL    HW118398   3.096   1.044   0.546 -0.7839  0.6508  0.7141
 2313SOL    HW218399   2.965   0.970   0.545  1.7005 -0.9060 -0.9290
 2314SOL     OW18400   2.028   4.306   6.904 -0.0112  0.0916  0.2165
 2314SOL    HW118401   2.070   4.373   6.957 -2.4746  0.6193  1.5004
 2314SOL    HW218402   1.973   4.261   6.968 -0.1001 -2.0393 -1.3254
 2315SOL     OW18403   3.957   2.196  15.675 -0.1932  0.3914  0.0861
 2315SOL    HW118404   4.048   2.209  15.647  0.4399 -1.2909  1.3813
 2315SOL    HW218405   3.915   2.234  15.598 -1.2299  0.3236  0.6269
 2316SOL     OW18406   3.112   2.768  13.199 -0.3329 -0.0351 -0.2489
 2316SOL    HW118407   3.118   2.852  13.244 -0.0532 -0.4013  0.3931
 2316SOL    HW218408   3.148   2.802  13.117  1.1891  0.0436  0.4471
 2317SOL     OW18409   1.521   1.644   4.826  0.5707  0.1624 -0.4100
 2317SOL    HW118410   1.605   1.599   4.836  0.8121  0.8090  0.4506
 2317SOL    HW218411   1.556   1.691   4.750 -1.0378  1.5193 -0.3108
 2318SOL     OW18412   4.527   1.886   6.984  0.1072 -0.0941 -0.0274
 2318SOL    HW118413   4.519   1.798   6.947  0.8399  0.0441 -0.5077
 2318SOL    HW218414   4.590   1.872   7.055 -0.4517 -1.3869  0.2158
 2319SOL     OW18415   2.468   1.749   6.346 -0.3103  0.1859  0.3981
 2319SOL    HW118416   2.510   1.834   6.357 -0.4706  0.0504  2.0855
 2319SOL    HW218417   2.505   1.722   6.262 -0.7061  2.2430 -0.4298
 2320SOL     OW18418   3.339   0.600   0.413  0.1285 -0.4974 -0.7232
 2320SOL    HW118419   3.433   0.617   0.417 -0.0308  0.7041 -2.4080
 2320SOL    HW218420   3.345   0.539   0.487 -0.9201  0.2045 -0.0645
 2321SOL     OW18421   1.975   0.030  11.621 -0.6361 -0.1618 -0.1632
 2321SOL    HW118422   2.008   4.717  11.540 -2.5252 -1.1513 -0.4507
 2321SOL    HW218423   2.048   0.082  11.655  0.2481 -0.9162 -0.9183
 2322SOL     OW18424   2.616   4.189   2.641  0.0180 -0.2380  0.0881
 2322SOL    HW118425   2.707   4.174   2.615  0.8747 -0.7279  3.4125
 2322SOL    HW218426   2.573   4.135   2.574  0.1850 -0.2899  0.0220
 2323SOL     OW18427   2.458   0.757  15.209 -0.2325 -0.0940  0.1434
 2323SOL    HW118428   2.514   0.765  15.286  1.6686  0.3767 -1.2524
 2323SOL    HW218429   2.396   0.689  15.232  1.7026 -0.9871  2.7093
 2324SOL     OW18430   1.497   1.222   0.933  1.0524 -0.2787 -0.1419
 2324SOL    HW118431   1.484   1.299   0.876  1.1603 -0.9039 -1.0188
 2324SOL    HW218432   1.413   1.178   0.924  0.6182  0.6080 -0.4187
 2325SOL     OW18433   2.298   0.814   2.011 -0.2063  0.5795 -0.2596
 2325SOL    HW118434   2.322   0.905   1.993 -0.4872  0.5532 -0.7563
 2325SOL    HW218435   2.371   0.775   1.963  1.2414 -1.4561  3.5239
 2326SOL     OW18436   4.600   3.197   2.597 -0.0496  0.2847 -0.2870
 2326SOL    HW118437   4.536   3.232   2.534  1.2237  1.4201 -0.9373
 2326SOL    HW218438   4.638   3.120   2.557 -3.1577 -1.4327  0.0065
 2327SOL     OW18439   4.681   3.502   4.415  0.0657 -0.0994  0.0157
 2327SOL    HW118440   4.712   3.592   4.409 -3.4336  1.1656  1.5895
 2327SOL    HW218441   0.037   3.452   4.420 -0.7613 -1.3808  0.6466
 2328SOL     OW18442   1.542   3.223  15.772  0.1490 -0.0352  0.0932
 2328SOL    HW118443   1.574   3.291  15.712 -0.8436  0.5826  0.2740
 2328SOL    HW218444   1.614   3.159  15.778 -0.1316 -0.1203  2.6114
 2329SOL     OW18445   3.693   1.277   3.192 -0.1795 -0.2930 -0.4396
 2329SOL    HW118446   3.771   1.287   3.247  1.6598  1.4889 -3.3999
 2329SOL    HW218447   3.747   1.239   3.123  0.6351  2.4143 -1.2784
 2330SOL     OW18448   4.215   2.065   8.138  0.1244 -0.3418 -0.5279
 2330SOL    HW118449   4.307   2.076   8.158 -0.3412  2.9483 -0.2454
 2330SOL    HW218450   4.202   1.984   8.188 -0.6319 -0.3437 -0.7251
 2331SOL     OW18451   1.199   3.845   5.949  0.0658 -0.8233 -0.0007
 2331SOL    HW118452   1.228   3.788   6.021  1.0978 -0.5714 -0.2192
 2331SOL    HW218453   1.241   3.931   5.963 -1.4350  0.0435 -0.8544
 2332SOL     OW18454   2.905   0.763   9.376 -0.2971  0.5594 -0.1101
 2332SOL    HW118455   2.879   0.685   9.326  1.1041  0.5662 -0.8434
 2332SOL    HW218456   2.998   0.749   9.359 -0.6197  0.9395 -2.1672
 2333SOL     OW18457   4.639   4.377  11.815  0.3668  0.3689 -0.4790
 2333SOL    HW118458   4.707   4.313  11.792  1.2186 -0.2778  3.7643
 2333SOL    HW218459   4.561   4.322  11.818 -1.7545  3.3551 -1.6095
 2334SOL     OW18460   4.409   0.472   9.282 -0.1955  0.1105 -0.4050
 2334SOL    HW118461   4.363   0.535   9.227  0.0030  0.6103  0.0051
 2334SOL    HW218462   4.486   0.450   9.228 -0.8998 -1.9421 -0.5911
 2335SOL     OW18463   1.627   3.559   4.523  0.3691 -0.3971 -0.7680
 2335SOL    HW118464   1.594   3.587   4.608  2.6974  3.2718 -1.0999
 2335SOL    HW218465   1.566   3.609   4.468  0.0357 -0.2319 -0.2455
 2336SOL     OW18466   4.166   3.398  15.709 -0.7801 -0.0836 -0.3861
 2336SOL    HW118467   4.223   3.475  15.700 -0.0939 -0.3606  1.7939
 2336SOL    HW218468   4.226   3.324  15.708 -0.6008  0.0687 -1.9191
 2337SOL     OW18469   0.817   1.362   4.986 -0.6788  0.0260 -0.1198
 2337SOL    HW118470   0.752   1.308   5.030  1.6580 -2.6979 -0.0383
 2337SOL    HW218471   0.857   1.305   4.920 -1.3218 -2.1721  1.4053
 2338SOL     OW18472   1.871   2.832   7.482 -0.2051 -0.3664 -0.3516
 2338SOL    HW118473   1.902   2.843   7.572  0.0106  0.6167 -0.5519
 2338SOL    HW218474   1.833   2.919   7.474  3.5449  1.0313 -2.6946
 2339SOL     OW18475   0.463   0.978   9.182  0.2965  0.7355  0.2293
 2339SOL    HW118476   0.517   1.052   9.154  1.1940  0.2618  0.6802
 2339SOL    HW218477   0.386   0.974   9.125  0.1704 -0.5279  0.4805
 2340SOL     OW18478   0.731   4.478   7.531 -0.1510 -0.2545  0.2386
 2340SOL    HW118479   0.746   4.505   7.621 -0.6818 -1.0104  0.5518
 2340SOL    HW218480   0.707   4.386   7.545 -1.2889  0.2610  1.6672
 2341SOL     OW18481   2.063   1.079   7.096 -0.1679  0.0548 -0.6363
 2341SOL    HW118482   2.094   1.039   7.015 -2.7443  1.7852 -2.4957
 2341SOL    HW218483   2.099   1.027   7.167  0.6358  0.5620 -0.6756
 2342SOL     OW18484   3.393   0.396   4.903 -0.4167 -0.6102  0.0826
 2342SOL    HW118485   3.480   0.435   4.897 -1.4114  1.2177 -2.1648
 2342SOL    HW218486   3.355   0.413   4.818 -2.1801 -0.0399  0.9944
 2343SOL     OW18487   4.260   2.909  13.354 -0.0050  0.4404  0.5154
 2343SOL    HW118488   4.333   2.931  13.295  0.8674 -0.8219  1.1330
 2343SOL    HW218489   4.283   2.820  13.378  2.3822  1.0601  0.5052
 2344SOL     OW18490   1.899   3.125   4.883 -0.6474 -0.0468 -0.1922
 2344SOL    HW118491   1.943   3.199   4.840 -0.0550 -1.8743 -2.7013
 2344SOL    HW218492   1.819   3.122   4.831 -2.8207 -0.0378  3.1763
 2345SOL     OW18493   2.073   4.339   4.822  0.2933 -0.3941 -0.2590
 2345SOL    HW118494   2.154   4.362   4.868 -0.9881  0.9661  1.2968
 2345SOL    HW218495   2.060   4.417   4.770 -0.6126 -0.6605 -0.4284
 2346SOL     OW18496   2.009   2.606   4.754  0.4551 -0.0081 -0.4866
 2346SOL    HW118497   1.924   2.581   4.790  0.3875 -0.0676 -0.6898
 2346SOL    HW218498   2.007   2.697   4.782 -0.2856 -0.2556  0.2479
 2347SOL     OW18499   0.084   4.312  14.073 -0.2510  0.0513 -0.5234
 2347SOL    HW118500   0.097   4.240  14.135 -2.4771 -0.3874 -0.5434
 2347SOL    HW218501   0.011   4.362  14.110  0.0007 -0.4474  0.6291
 2348SOL     OW18502   1.141   3.863  10.521  0.7309  0.0268 -0.3308
 2348SOL    HW118503   1.095   3.944  10.498 -1.4539 -1.0855  0.0616
 2348SOL    HW218504   1.147   3.804  10.446  0.1642  1.1348 -1.2432
 2349SOL     OW18505   2.493   4.400  10.442  0.4020 -0.2982  0.2298
 2349SOL    HW118506   2.465   4.362  10.359  0.1021  1.8095 -0.6556
 2349SOL    HW218507   2.583   4.370  10.442  0.3745 -0.3333  2.8958
 2350SOL     OW18508   0.663   0.606   8.465 -1.0036  0.1395  0.2429
 2350SOL    HW118509   0.587   0.581   8.413 -0.2319 -1.5394 -0.0888
 2350SOL    HW218510   0.676   0.528   8.519 -0.0858 -0.4723 -0.8745
 2351SOL     OW18511   0.700   1.111   8.603  0.0022  0.2032  0.5005
 2351SOL    HW118512   0.632   1.056   8.566 -0.0041  0.5854 -0.0558
 2351SOL    HW218513   0.732   1.046   8.666 -0.4653 -1.0509 -0.5582
 2352SOL     OW18514   2.101   4.510  17.532 -0.0026  0.0377  0.0096
 2352SOL    HW118515   2.015   4.472  17.550  0.2786 -0.3269  0.6034
 2352SOL    HW218516   2.159   4.442  17.566 -0.5946 -0.5589 -0.1662
 2353SOL     OW18517   2.955   0.759   4.475 -0.3834 -0.0017 -0.1210
 2353SOL    HW118518   3.039   0.746   4.520  0.0555 -0.9360 -1.1956
 2353SOL    HW218519   2.955   0.691   4.407 -0.9208 -0.6152  0.4939
 2354SOL     OW18520   3.167   3.657   5.725  0.1146  0.6206  0.1413
 2354SOL    HW118521   3.162   3.609   5.808  0.6631 -0.6534 -0.5698
 2354SOL    HW218522   3.111   3.599   5.674  0.8346  2.2804 -2.5391
 2355SOL     OW18523   2.155   0.612   5.733  0.4578 -0.1310 -0.1061
 2355SOL    HW118524   2.241   0.655   5.735 -0.1261  0.9483  2.3271
 2355SOL    HW218525   2.102   0.669   5.678 -0.3855 -0.2513  0.5810
 2356SOL     OW18526   0.262   0.482  10.801  0.4943 -0.2450  0.1171
 2356SOL    HW118527   0.332   0.516  10.856 -0.3959 -1.9249  2.2908
 2356SOL    HW218528   0.246   0.557  10.744 -4.1885  0.1661  1.9498
 2357SOL     OW18529   0.429   1.438  15.022 -0.3652  0.0705  0.3674
 2357SOL    HW118530   0.431   1.530  15.050  0.5303 -0.1857  1.1734
 2357SOL    HW218531   0.344   1.430  14.979  0.1571  0.6852 -0.7725
 2358SOL     OW18532   1.976   3.223  13.493  0.3444  0.3288 -0.2155
 2358SOL    HW118533   1.923   3.147  13.472  3.9999 -2.1785 -0.4256
 2358SOL    HW218534   1.939   3.292  13.437 -1.9575 -1.3679 -0.7794
 2359SOL     OW18535   4.570   3.272   5.173 -0.5859 -0.2941  0.5039
 2359SOL    HW118536   4.567   3.247   5.080 -1.1529  0.8734  0.2122
 2359SOL    HW218537   4.537   3.361   5.184 -1.5518 -0.3728 -1.7189
 2360SOL     OW18538   3.432   0.297   1.413  0.2939 -0.5978  0.3564
 2360SOL    HW118539   3.519   0.268   1.442  1.1540  1.6135 -0.0094
 2360SOL    HW218540   3.449   0.391   1.417  0.4965 -0.7089  2.1801
 2361SOL     OW18541   2.635   0.320  17.469 -0.0142 -0.2470 -0.1495
 2361SOL    HW118542   2.691   0.273  17.407  1.7122 -1.7994  2.6043
 2361SOL    HW218543   2.638   0.250  17.534  0.6124  1.1806  1.3298
 2362SOL     OW18544   2.179   4.679   4.893  0.4492  0.1548  0.5621
 2362SOL    HW118545   2.168   0.034   4.842  1.0613 -1.3111 -1.8988
 2362SOL    HW218546   2.193   0.004   4.973 -1.2768 -1.2560  1.7776
 2363SOL     OW18547   0.356   2.303  15.758  0.0544  0.3481 -0.3724
 2363SOL    HW118548   0.299   2.264  15.692  1.3031 -0.2605 -1.0826
 2363SOL    HW218549   0.341   2.395  15.733  0.6631  0.9052  1.3057
 2364SOL     OW18550   0.279   2.187  12.943  0.4421  0.0166  0.7055
 2364SOL    HW118551   0.318   2.204  13.029  3.5220  3.7003 -1.4029
 2364SOL    HW218552   0.263   2.275  12.909 -1.2219 -0.4728  0.1914
 2365SOL     OW18553   0.338   2.443   2.962  0.0520 -0.0023 -0.3782
 2365SOL    HW118554   0.334   2.349   2.978  2.6421 -0.5097 -2.7275
 2365SOL    HW218555   0.245   2.465   2.973 -0.2716 -1.2771 -0.5267
 2366SOL     OW18556   1.593   3.153  14.910  0.0243 -0.0916  0.2990
 2366SOL    HW118557   1.637   3.234  14.937  0.7758 -0.7190  0.9810
 2366SOL    HW218558   1.652   3.110  14.847 -0.3536 -2.0698  1.3034
 2367SOL     OW18559   1.863   2.333  17.198  0.5970  0.0086  0.3791
 2367SOL    HW118560   1.805   2.258  17.187 -1.6693  1.8713 -0.2336
 2367SOL    HW218561   1.800   2.400  17.223  0.4213  0.3033 -0.8638
 2368SOL     OW18562   0.892   1.834   8.185  0.3763  0.6814 -0.1990
 2368SOL    HW118563   0.987   1.834   8.168  0.1943 -0.8741 -1.2462
 2368SOL    HW218564   0.899   1.801   8.275 -0.6720 -0.4145 -0.5146
 2369SOL     OW18565   4.186   3.084  10.499 -0.0560  0.0317 -0.7186
 2369SOL    HW118566   4.095   3.087  10.471 -0.2269  0.3773 -0.1357
 2369SOL    HW218567   4.212   3.007  10.449  1.0122 -0.5398  0.7071
 2370SOL     OW18568   0.310   3.108   7.778 -0.1225 -0.2101 -0.2124
 2370SOL    HW118569   0.236   3.091   7.719 -0.1668 -0.3438 -0.1191
 2370SOL    HW218570   0.329   3.021   7.814  0.6433  1.3668  3.1262
 2371SOL     OW18571   4.661   2.557  11.907  0.2853 -0.6118 -0.1382
 2371SOL    HW118572   4.638   2.520  11.822  0.1592 -2.2789  0.6157
 2371SOL    HW218573   0.023   2.577  11.875 -0.2358  1.7758 -0.0567
 2372SOL     OW18574   0.590   0.530  14.930  0.0288 -0.3200  0.2260
 2372SOL    HW118575   0.585   0.556  14.838  1.6085  1.9531  0.7632
 2372SOL    HW218576   0.568   0.437  14.925 -2.8910  0.4564 -0.9327
 2373SOL     OW18577   2.667   1.356   9.259 -0.4052 -0.6322 -0.4784
 2373SOL    HW118578   2.686   1.441   9.298  1.7252 -1.9074  1.3256
 2373SOL    HW218579   2.754   1.322   9.236 -0.3140 -0.0597 -0.9667
 2374SOL     OW18580   0.893   0.676   0.852  0.2550  0.0306 -0.0274
 2374SOL    HW118581   0.980   0.636   0.851 -0.6362 -1.9227  0.1652
 2374SOL    HW218582   0.878   0.700   0.761  0.3467 -2.6786 -0.7752
 2375SOL     OW18583   1.170   4.479   9.369 -0.1047  0.4525  0.2005
 2375SOL    HW118584   1.119   4.531   9.430  0.5980 -0.5464  1.6250
 2375SOL    HW218585   1.111   4.481   9.294 -0.3304  2.6998  0.4392
 2376SOL     OW18586   0.158   4.089   3.639  0.2849  0.5247  0.1428
 2376SOL    HW118587   0.063   4.103   3.647 -0.2276 -1.6528 -2.1634
 2376SOL    HW218588   0.183   4.141   3.563 -1.4039  0.4949 -0.4432
 2377SOL     OW18589   3.973   1.837   4.091 -0.3209  0.0626  0.5225
 2377SOL    HW118590   4.002   1.828   4.001 -0.5186  0.2973  0.4349
 2377SOL    HW218591   4.001   1.753   4.128 -2.3863 -0.6588  0.4575
 2378SOL     OW18592   2.599   4.459   2.061  0.5541  0.1587  0.1917
 2378SOL    HW118593   2.540   4.429   2.130 -0.5906  2.4659  0.2102
 2378SOL    HW218594   2.570   4.549   2.047 -0.1873  0.1362  1.6585
 2379SOL     OW18595   2.233   3.057   7.412  0.0272 -0.1736  0.0137
 2379SOL    HW118596   2.313   3.013   7.382 -0.7821 -1.4452 -0.2825
 2379SOL    HW218597   2.257   3.073   7.504  0.5308  0.3821 -0.2152
 2380SOL     OW18598   0.202   3.111   9.132 -0.3688  0.0757  0.1464
 2380SOL    HW118599   0.186   3.043   9.197 -0.1450 -0.1056  0.0119
 2380SOL    HW218600   0.242   3.055   9.066 -0.1151  0.3749  0.0479
 2381SOL     OW18601   2.291   3.401  11.784 -0.0430  0.2986 -0.4104
 2381SOL    HW118602   2.219   3.464  11.784 -0.9089 -0.7190  1.9594
 2381SOL    HW218603   2.254   3.324  11.826 -1.3808  0.8288 -0.5902
 2382SOL     OW18604   1.011   1.665  12.075 -0.4024  0.5728 -0.2158
 2382SOL    HW118605   1.042   1.725  12.008  0.8750 -0.4521 -0.5487
 2382SOL    HW218606   1.026   1.575  12.045 -1.3054 -1.0220  4.0379
 2383SOL     OW18607   0.450   3.087   3.936  0.3843  0.4637  0.4792
 2383SOL    HW118608   0.360   3.118   3.934  0.1689 -0.1594  0.4000
 2383SOL    HW218609   0.432   2.999   3.970  0.4471  0.4608  0.5057
 2384SOL     OW18610   1.136   0.386   0.619  0.2366 -0.1265  0.1154
 2384SOL    HW118611   1.209   0.444   0.638 -1.4032  2.7521 -2.3013
 2384SOL    HW218612   1.182   0.317   0.570  0.9941 -1.8154  3.2534
 2385SOL     OW18613   2.363   0.968  12.140  0.5015  0.6323  0.3928
 2385SOL    HW118614   2.372   1.052  12.094  1.5605 -0.0687 -0.6840
 2385SOL    HW218615   2.283   0.940  12.095  1.7277 -0.5767 -1.0247
 2386SOL     OW18616   3.945   3.809   2.811 -0.2360 -0.2024  0.7121
 2386SOL    HW118617   3.970   3.895   2.779 -0.1061 -0.2087  0.7967
 2386SOL    HW218618   4.021   3.756   2.787 -0.9560 -1.0418  0.2644
 2387SOL     OW18619   0.058   1.830  12.913 -0.5131 -0.5606  0.2550
 2387SOL    HW118620   0.085   1.739  12.928  3.0510  0.3351 -0.7413
 2387SOL    HW218621   4.690   1.819  12.898 -0.9700  1.3355  1.6794
 2388SOL     OW18622   0.344   4.636   4.559 -0.4845  0.3310  0.1581
 2388SOL    HW118623   0.369   4.601   4.645 -0.5569  1.7378  0.7547
 2388SOL    HW218624   0.380   4.724   4.570  0.5573  0.0695 -1.0630
 2389SOL     OW18625   1.465   2.323   3.303 -0.1023 -0.1529  0.0547
 2389SOL    HW118626   1.557   2.322   3.328 -0.3839 -0.2408  1.1029
 2389SOL    HW218627   1.449   2.251   3.242  1.4275  0.7193 -1.3629
 2390SOL     OW18628   0.258   0.117   5.465  0.3439  0.7075  0.6533
 2390SOL    HW118629   0.178   0.072   5.493  0.4305 -0.1386 -0.4430
 2390SOL    HW218630   0.239   0.098   5.373 -0.7465  1.8169  0.6470
 2391SOL     OW18631   3.408   4.196   2.803  0.0575  0.2983 -1.0824
 2391SOL    HW118632   3.435   4.247   2.727 -0.4867 -0.4975 -1.8119
 2391SOL    HW218633   3.478   4.213   2.867  0.8733 -1.1100 -1.5903
 2392SOL     OW18634   4.174   1.616   7.910 -0.2161  0.5628 -0.1533
 2392SOL    HW118635   4.191   1.536   7.861  0.9374  0.8246 -0.1816
 2392SOL    HW218636   4.230   1.677   7.862  3.9842 -1.3166  2.3134
 2393SOL     OW18637   0.302   0.119   4.280  0.1765  0.1460 -0.3155
 2393SOL    HW118638   0.225   0.162   4.242 -0.5624 -1.0088 -0.1241
 2393SOL    HW218639   0.343   0.193   4.324  0.2190 -0.8452  1.3204
 2394SOL     OW18640   0.969   3.083   8.210 -0.4034 -0.2728 -0.5886
 2394SOL    HW118641   1.022   3.162   8.196 -1.1512  0.3131 -0.0808
 2394SOL    HW218642   0.881   3.118   8.219 -1.1219 -1.8722 -1.3876
 2395SOL     OW18643   0.037   1.906  13.840 -0.1906 -0.5652  0.3148
 2395SOL    HW118644   4.689   1.903  13.901 -0.2442  0.3863  0.3040
 2395SOL    HW218645   0.109   1.855  13.877  3.0713  3.0580 -0.9811
 2396SOL     OW18646   0.215   1.575   9.264 -0.0578 -0.2252 -0.0457
 2396SOL    HW118647   0.133   1.603   9.305  1.2755 -1.1440  3.1950
 2396SOL    HW218648   0.268   1.551   9.340  0.1100 -0.1111 -0.1255
 2397SOL     OW18649   4.175   0.217   3.823 -0.4950 -0.0995 -0.5065
 2397SOL    HW118650   4.097   0.178   3.785  0.6178 -0.9126 -1.9692
 2397SOL    HW218651   4.177   0.308   3.792  0.0254 -0.2737 -0.9867
 2398SOL     OW18652   2.231   3.837   3.000 -0.7822  0.1429 -0.4079
 2398SOL    HW118653   2.215   3.882   2.918  1.9110  0.9245 -0.4933
 2398SOL    HW218654   2.238   3.750   2.960 -2.5503  0.0433 -0.5116
 2399SOL     OW18655   0.771   2.862   5.965 -0.1442 -0.3548  0.1565
 2399SOL    HW118656   0.825   2.813   6.027 -0.4005 -1.1315 -0.2419
 2399SOL    HW218657   0.731   2.792   5.914  0.9647 -0.7299 -0.1898
 2400SOL     OW18658   3.018   0.614  10.393 -0.0172  0.1557  0.4146
 2400SOL    HW118659   2.960   0.589  10.464  0.7030 -0.2918  0.8527
 2400SOL    HW218660   2.960   0.622  10.317 -1.1974 -2.6080  1.0141
 2401SOL     OW18661   0.093   2.477   8.979 -0.0903 -0.0134  0.3689
 2401SOL    HW118662   0.146   2.436   8.911 -0.5386 -0.6635  0.4044
 2401SOL    HW218663   0.149   2.464   9.055  2.6814  4.7779 -0.8432
 2402SOL     OW18664   1.189   1.580   8.002  0.0993  0.4499 -0.1050
 2402SOL    HW118665   1.159   1.648   8.062 -1.1240 -2.2812  2.4255
 2402SOL    HW218666   1.263   1.615   7.952 -1.4023  2.1436 -1.1074
 2403SOL     OW18667   1.662   3.213   1.900 -0.2743  0.1152  0.7035
 2403SOL    HW118668   1.610   3.294   1.905 -1.7759 -0.7206 -1.7134
 2403SOL    HW218669   1.719   3.230   1.975 -0.0203 -0.4524  0.6304
 2404SOL     OW18670   3.695   3.223  10.875 -0.5970 -0.2321  0.0716
 2404SOL    HW118671   3.777   3.223  10.826 -1.2325 -2.0917 -0.9843
 2404SOL    HW218672   3.726   3.287  10.939  0.9091 -1.5217  0.6120
 2405SOL     OW18673   0.894   3.735   5.174  0.0768  0.4944  0.0939
 2405SOL    HW118674   0.912   3.642   5.185 -2.9930 -0.0223  0.7572
 2405SOL    HW218675   0.947   3.755   5.097  2.6688 -2.1137  1.2071
 2406SOL     OW18676   2.332   2.361  13.838  0.1019  0.2400  0.0582
 2406SOL    HW118677   2.306   2.268  13.840  0.7574  0.0907  1.4632
 2406SOL    HW218678   2.426   2.347  13.841  0.1701  1.2808  2.1273
 2407SOL     OW18679   0.291   3.735   1.179  0.1213 -0.3556  0.1801
 2407SOL    HW118680   0.329   3.669   1.122  2.7073  0.2253  1.2567
 2407SOL    HW218681   0.367   3.746   1.235  1.8418  2.6814 -2.7732
 2408SOL     OW18682   0.553   2.999   7.216 -0.1695 -0.0361 -0.3669
 2408SOL    HW118683   0.486   3.028   7.154  1.3424  2.2432 -0.9211
 2408SOL    HW218684   0.486   2.985   7.283 -0.0083 -0.2356 -0.2457
 2409SOL     OW18685   0.265   0.239  10.667  0.0685  0.5862 -0.2086
 2409SOL    HW118686   0.205   0.176  10.706 -1.7487  1.9298 -0.8516
 2409SOL    HW218687   0.271   0.315  10.726 -1.3142  1.5667 -1.3334
 2410SOL     OW18688   4.617   1.907  10.244  0.0193  0.0232  0.0577
 2410SOL    HW118689   4.689   1.878  10.300  0.4851  0.6958 -0.1866
 2410SOL    HW218690   4.654   1.942  10.163  0.6631  1.6818  1.0789
 2411SOL     OW18691   4.322   1.292  10.077 -0.1718 -0.5321 -0.0520
 2411SOL    HW118692   4.350   1.320  10.164 -0.0961 -1.0660  0.0954
 2411SOL    HW218693   4.226   1.290  10.083 -0.1833  1.7079  0.3465
 2412SOL     OW18694   3.343   0.629  15.473  0.2389  0.0172  0.3781
 2412SOL    HW118695   3.310   0.544  15.502 -1.1148 -0.1609 -1.6495
 2412SOL    HW218696   3.417   0.598  15.421  0.9413  2.7721 -0.2882
 2413SOL     OW18697   2.366   0.434   2.853 -0.2858 -0.3315 -0.8141
 2413SOL    HW118698   2.343   0.519   2.816 -0.6924 -0.4908 -0.9234
 2413SOL    HW218699   2.461   0.436   2.843 -0.4449  3.2463 -1.6042
 2414SOL     OW18700   1.674   4.134   9.094  0.4118 -0.0853 -0.0517
 2414SOL    HW118701   1.692   4.218   9.052 -0.2650  1.7615  3.3489
 2414SOL    HW218702   1.684   4.168   9.182  4.6009  1.4274 -1.0827
 2415SOL     OW18703   2.794   2.486  16.037  0.3812  0.0034 -0.4679
 2415SOL    HW118704   2.777   2.392  16.047  3.3130 -0.4725  0.1477
 2415SOL    HW218705   2.721   2.524  16.085 -2.1577 -1.3608 -3.2688
 2416SOL     OW18706   4.078   3.350   4.045  0.1390 -0.4167  0.2918
 2416SOL    HW118707   4.162   3.308   4.060  0.3122 -0.3414 -0.4358
 2416SOL    HW218708   4.100   3.441   4.067 -1.1160  0.2215 -1.0833
 2417SOL     OW18709   1.864   4.116   7.028 -0.1380 -0.2961 -0.6455
 2417SOL    HW118710   1.803   4.162   7.085  0.8662  1.3092 -0.8725
 2417SOL    HW218711   1.839   4.026   7.049  0.2697 -0.1978  0.2470
 2418SOL     OW18712   3.262   1.291   6.375 -0.2412  0.2870  0.5850
 2418SOL    HW118713   3.219   1.263   6.294  2.0940 -3.1879  0.5183
 2418SOL    HW218714   3.296   1.205   6.399  0.6055  0.9471  1.7194
 2419SOL     OW18715   4.295   2.135   3.693  0.1176  0.1032 -0.3168
 2419SOL    HW118716   4.276   2.044   3.719  0.6477 -0.3804 -1.6274
 2419SOL    HW218717   4.226   2.194   3.724  0.2835  0.0597  0.1321
 2420SOL     OW18718   0.045   3.809   8.592 -0.6455  0.3018  0.4198
 2420SOL    HW118719   4.703   3.748   8.617  1.1253 -1.1601  1.6684
 2420SOL    HW218720   4.715   3.861   8.534 -2.2092 -0.2421  1.4817
 2421SOL     OW18721   1.546   3.038   2.783  0.0752  0.1533  0.0174
 2421SOL    HW118722   1.511   3.115   2.739 -0.4701  0.7133  1.4053
 2421SOL    HW218723   1.532   3.065   2.874  0.1417  1.0095 -0.2309
 2422SOL     OW18724   2.431   4.701   3.541 -0.4389  0.3783  0.0105
 2422SOL    HW118725   2.346   0.016   3.555 -0.2758  0.6301  0.2447
 2422SOL    HW218726   2.482   0.038   3.591  0.9911 -1.0150  0.3043
 2423SOL     OW18727   2.308   3.990   6.351  0.0847  0.1702 -0.1641
 2423SOL    HW118728   2.274   3.980   6.262 -0.2941  1.5002 -0.1699
 2423SOL    HW218729   2.232   4.024   6.398 -0.9056 -1.5313 -0.5361
 2424SOL     OW18730   0.135   0.904  10.282  0.2700 -0.3368 -0.1358
 2424SOL    HW118731   0.068   0.871  10.222 -0.8760 -1.4661  1.7752
 2424SOL    HW218732   0.078   0.903  10.359  0.1560  2.3189 -0.1883
 2425SOL     OW18733   4.175   0.567   4.562 -0.2863 -0.7772  0.8122
 2425SOL    HW118734   4.169   0.472   4.556 -1.1414 -0.5394 -1.9810
 2425SOL    HW218735   4.110   0.593   4.496 -0.2393 -0.9760  0.6888
 2426SOL     OW18736   2.632   1.915   2.101  0.4020  0.5454  0.2556
 2426SOL    HW118737   2.665   1.991   2.054  2.8758 -0.4949  0.3491
 2426SOL    HW218738   2.698   1.848   2.086  0.4738 -0.1689  3.7041
 2427SOL     OW18739   3.137   2.971   5.788  0.0306 -0.0911 -0.6218
 2427SOL    HW118740   3.095   2.940   5.868  1.0598  1.8417  0.6421
 2427SOL    HW218741   3.159   2.888   5.744  0.7146  1.0535 -2.4557
 2428SOL     OW18742   0.371   1.539   2.142 -0.2117  0.3984 -0.0503
 2428SOL    HW118743   0.380   1.573   2.232 -0.8678 -1.4443  0.7123
 2428SOL    HW218744   0.295   1.482   2.150  0.1883  0.2171  2.5671
 2429SOL     OW18745   2.495   1.181   6.245  0.1936  0.3571  0.6868
 2429SOL    HW118746   2.524   1.194   6.335  0.5276  1.0013  0.4854
 2429SOL    HW218747   2.536   1.250   6.193  0.0149 -0.9311 -1.2039
 2430SOL     OW18748   0.055   0.143  14.856  0.2349 -0.6027  0.5404
 2430SOL    HW118749   0.046   0.143  14.761  0.2416  0.1065  0.5426
 2430SOL    HW218750   4.705   0.095  14.888  0.3690 -1.6682 -0.7120
 2431SOL     OW18751   0.218   2.281   6.531 -0.1875  0.0543 -0.1062
 2431SOL    HW118752   0.288   2.217   6.537  0.5819  0.8441 -0.6514
 2431SOL    HW218753   0.252   2.349   6.589  2.6101 -1.4211 -0.0330
 2432SOL     OW18754   0.290   3.466  17.154  0.6165  0.1604 -0.0185
 2432SOL    HW118755   0.230   3.403  17.114  0.2642  0.3300  0.2414
 2432SOL    HW218756   0.235   3.525  17.207 -0.5866  0.2438 -1.3720
 2433SOL     OW18757   4.441   3.363   2.359  0.4382  0.2260  0.3978
 2433SOL    HW118758   4.396   3.410   2.429 -0.8610  0.2369 -0.4363
 2433SOL    HW218759   4.531   3.393   2.354  0.0645  1.7439  3.3876
 2434SOL     OW18760   3.164   0.926   4.092 -0.1474 -0.0822  0.3886
 2434SOL    HW118761   3.237   0.892   4.039 -0.8638  0.9894 -1.3090
 2434SOL    HW218762   3.164   1.015   4.056  0.6275 -0.0514  0.4508
 2435SOL     OW18763   3.882   1.281   6.226 -0.2703  0.2484  0.0414
 2435SOL    HW118764   3.912   1.226   6.154  1.6057  2.7855 -1.0892
 2435SOL    HW218765   3.916   1.367   6.202 -0.0838 -0.2635 -1.5507
 2436SOL     OW18766   2.599   3.358   7.891  0.4340 -0.6827 -0.4545
 2436SOL    HW118767   2.666   3.392   7.831 -0.5009 -0.9969 -1.6665
 2436SOL    HW218768   2.562   3.442   7.920  1.4169 -0.3997  0.0063
 2437SOL     OW18769   4.535   1.525   7.094  0.0594 -0.2831 -0.5127
 2437SOL    HW118770   4.499   1.571   7.018 -0.9853  1.0802  0.8143
 2437SOL    HW218771   4.629   1.519   7.075  0.0956 -1.4402  0.0356
 2438SOL     OW18772   1.376   1.060  12.379  0.0985 -0.3302 -0.3570
 2438SOL    HW118773   1.400   1.049  12.472  3.4116  0.9757 -1.0610
 2438SOL    HW218774   1.286   1.028  12.373  0.5103 -1.8014  1.0170
 2439SOL     OW18775   4.297   0.954   4.614  0.6341 -0.3098  0.3804
 2439SOL    HW118776   4.218   0.997   4.649 -0.3429 -1.4823 -0.3795
 2439SOL    HW218777   4.318   0.885   4.676 -0.4831  0.6826  1.8595
 2440SOL     OW18778   0.623   2.375  15.194  0.2877 -0.4578  0.5383
 2440SOL    HW118779   0.623   2.423  15.111  1.8924 -0.1156  0.7279
 2440SOL    HW218780   0.614   2.444  15.260 -0.3864  1.3945 -1.4759
 2441SOL     OW18781   4.545   1.226   6.808 -0.0616  0.1450 -0.5616
 2441SOL    HW118782   4.626   1.176   6.799 -0.1908 -0.4847  1.9137
 2441SOL    HW218783   4.587   1.312   6.797  2.6281 -0.7616  2.3437
 2442SOL     OW18784   0.858   1.246   6.604 -0.0817 -0.0161  0.4688
 2442SOL    HW118785   0.923   1.179   6.624  3.1141  1.9791 -3.0215
 2442SOL    HW218786   0.905   1.280   6.527  0.1883  0.2263  0.7414
 2443SOL     OW18787   4.409   2.878  12.643 -0.2819  0.1708 -0.3784
 2443SOL    HW118788   4.463   2.955  12.661 -0.2232  0.6730 -2.6554
 2443SOL    HW218789   4.322   2.897  12.678  0.2049 -1.0974  1.5442
 2444SOL     OW18790   0.464   4.590  17.416  0.1141 -0.6059  0.0034
 2444SOL    HW118791   0.508   4.669  17.383 -0.7856  1.0431  2.6777
 2444SOL    HW218792   0.466   4.527  17.344 -0.3024  0.7388 -1.1904
 2445SOL     OW18793   3.199   2.632  13.854  0.5766  0.0216 -0.8194
 2445SOL    HW118794   3.255   2.707  13.876 -0.1176  0.3014 -0.0262
 2445SOL    HW218795   3.125   2.671  13.807  1.9485  2.5075 -0.9157
 2446SOL     OW18796   1.222   2.564   7.727 -0.1968  0.2316  0.2298
 2446SOL    HW118797   1.250   2.579   7.637  0.5321 -1.4678  0.1679
 2446SOL    HW218798   1.216   2.469   7.719  0.1399  0.0277  2.3696
 2447SOL     OW18799   2.294   2.800   9.074  0.3477 -0.0789 -0.1227
 2447SOL    HW118800   2.338   2.821   8.992  1.4517  1.1055  0.7732
 2447SOL    HW218801   2.337   2.717   9.092  1.4888  0.4419 -0.4801
 2448SOL     OW18802   3.328   1.956   9.764  0.0035  0.8122 -1.0961
 2448SOL    HW118803   3.345   1.936   9.672 -0.9139 -0.4149 -0.9976
 2448SOL    HW218804   3.419   1.944   9.793 -0.3533 -0.3291 -0.4228
 2449SOL     OW18805   0.275   3.408   5.117 -0.4258  0.1373 -0.4584
 2449SOL    HW118806   0.255   3.365   5.034  0.9378 -1.4597  0.0410
 2449SOL    HW218807   0.227   3.490   5.105  0.2027  0.2396 -2.2016
 2450SOL     OW18808   0.307   3.492   9.222 -0.5398  0.4518 -0.5342
 2450SOL    HW118809   0.311   3.472   9.316  2.2342 -1.6051 -1.1122
 2450SOL    HW218810   0.346   3.418   9.177 -1.0669  0.6850 -1.3628
 2451SOL     OW18811   1.912   2.484  16.986  0.4957 -0.3902 -0.2581
 2451SOL    HW118812   1.912   2.427  17.062  2.0667 -3.3380 -2.4424
 2451SOL    HW218813   1.840   2.441  16.940  0.1159  2.1822 -2.0469
 2452SOL     OW18814   2.583   1.179   3.678  0.3689 -0.7487 -0.0488
 2452SOL    HW118815   2.494   1.211   3.660 -0.1622 -1.6856  0.9453
 2452SOL    HW218816   2.569   1.085   3.668 -1.6869 -0.2128 -2.3426
 2453SOL     OW18817   0.121   3.050  13.201 -0.0433 -0.6285 -0.1924
 2453SOL    HW118818   0.037   3.033  13.244 -1.0589  0.7168 -1.6081
 2453SOL    HW218819   0.111   3.011  13.114 -0.1434 -0.7772 -0.1150
 2454SOL     OW18820   1.955   1.309   4.893  0.2754  0.4393  0.3486
 2454SOL    HW118821   2.015   1.283   4.823  1.2841 -0.6623  1.6200
 2454SOL    HW218822   1.899   1.373   4.850  0.4770 -0.1255 -0.7587
 2455SOL     OW18823   2.423   2.889  10.394 -0.2362  0.1690  0.0910
 2455SOL    HW118824   2.380   2.889  10.480  0.5297 -0.8151  0.4835
 2455SOL    HW218825   2.443   2.796  10.380 -0.8555 -0.1395  1.2049
 2456SOL     OW18826   1.667   3.442   5.221 -0.2915 -0.3257 -0.2516
 2456SOL    HW118827   1.762   3.451   5.226 -0.3871 -0.2198  1.7562
 2456SOL    HW218828   1.663   3.356   5.264  0.2906 -0.1043  0.2397
 2457SOL     OW18829   1.991   0.236   5.800 -0.0546 -0.4639 -0.5587
 2457SOL    HW118830   2.051   0.165   5.822 -0.0207 -0.4937 -0.7513
 2457SOL    HW218831   2.038   0.262   5.721  2.5585 -1.8880  0.5144
 2458SOL     OW18832   3.021   1.825   5.540  0.1866  0.5080  0.2685
 2458SOL    HW118833   3.028   1.729   5.543  4.1140  0.7895  0.1164
 2458SOL    HW218834   3.022   1.847   5.446 -1.1358  0.6407  0.2929
 2459SOL     OW18835   1.975   0.444   6.097 -0.5218 -0.0401 -0.7958
 2459SOL    HW118836   2.061   0.403   6.089 -0.0285  0.3852  2.2301
 2459SOL    HW218837   1.944   0.451   6.007  1.4790 -1.2659 -1.5840
 2460SOL     OW18838   1.685   0.958   8.942 -0.3847 -0.4144 -0.4448
 2460SOL    HW118839   1.710   1.005   9.022  0.1778 -0.2439 -0.7171
 2460SOL    HW218840   1.597   0.988   8.920  0.9656  2.8681 -1.5171
 2461SOL     OW18841   2.493   0.686   6.073  0.1722 -0.4954 -0.2570
 2461SOL    HW118842   2.452   0.767   6.042 -0.8304 -0.9425 -0.0762
 2461SOL    HW218843   2.568   0.674   6.014  1.5895  1.4338  1.1488
 2462SOL     OW18844   0.079   4.176   4.211  0.0819  0.1431 -0.4538
 2462SOL    HW118845   0.121   4.118   4.147 -1.5948  1.1344 -2.4732
 2462SOL    HW218846   0.023   4.230   4.156  1.1187  0.3908 -1.2769
 2463SOL     OW18847   0.727   3.837   0.263 -0.1241  0.6248  0.4468
 2463SOL    HW118848   0.772   3.900   0.318  1.8610  0.9104 -1.4834
 2463SOL    HW218849   0.738   3.871   0.174 -0.5316 -0.4431 -0.0073
 2464SOL     OW18850   2.438   3.519   2.391  0.6067  0.5039 -0.4449
 2464SOL    HW118851   2.395   3.450   2.339  1.4685 -1.0178  0.8543
 2464SOL    HW218852   2.502   3.558   2.332  3.1941 -1.4284  1.0978
 2465SOL     OW18853   2.856   2.483  14.800 -0.5223 -0.5778  0.5812
 2465SOL    HW118854   2.940   2.512  14.764 -2.7554  1.5972 -2.8916
 2465SOL    HW218855   2.794   2.556  14.803  1.3532  0.9578  1.9856
 2466SOL     OW18856   2.954   3.713   5.177  0.7523  0.1057 -0.1409
 2466SOL    HW118857   2.996   3.783   5.127  0.2406  0.5367  0.0297
 2466SOL    HW218858   2.938   3.655   5.103 -1.5790  1.1702 -0.4666
 2467SOL     OW18859   0.684   0.939   3.939 -0.4322  0.6400 -0.2710
 2467SOL    HW118860   0.630   0.897   4.006 -1.2672 -0.8044 -1.8327
 2467SOL    HW218861   0.753   0.973   3.996  0.7898 -0.5732 -1.0026
 2468SOL     OW18862   3.454   0.989   3.023  0.3956 -0.3124  0.8030
 2468SOL    HW118863   3.383   0.937   3.059 -1.7972  1.7418 -0.5611
 2468SOL    HW218864   3.444   1.068   3.076 -1.8587  0.0615 -0.2044
 2469SOL     OW18865   3.157   2.580   7.598  0.5982  0.1413  0.0292
 2469SOL    HW118866   3.086   2.642   7.614 -1.1159 -1.2022 -2.3978
 2469SOL    HW218867   3.106   2.503   7.624  2.4303 -1.6395 -1.7376
 2470SOL     OW18868   4.056   1.311   0.879  0.2187  0.0633  0.3504
 2470SOL    HW118869   4.058   1.351   0.965 -0.4655 -1.1095  0.9171
 2470SOL    HW218870   4.130   1.358   0.841  0.2746  1.1934  1.8781
 2471SOL     OW18871   3.486   0.544   6.282 -0.2475  0.4009  0.5896
 2471SOL    HW118872   3.410   0.579   6.235  2.0607  3.5837 -0.7932
 2471SOL    HW218873   3.468   0.454   6.311  1.7284  0.2770  1.3857
 2472SOL     OW18874   1.652   1.711   7.682 -0.8714  0.3467 -0.1572
 2472SOL    HW118875   1.722   1.744   7.738 -0.2925  1.6571 -1.6705
 2472SOL    HW218876   1.580   1.771   7.704  1.4711  2.5173  1.5951
 2473SOL     OW18877   0.644   3.264   0.132 -0.1017  0.5101  0.5128
 2473SOL    HW118878   0.677   3.244   0.220  0.6410  3.7507  0.9602
 2473SOL    HW218879   0.574   3.327   0.146  0.1830  0.9269  0.0484
 2474SOL     OW18880   1.407   4.376  13.522 -0.2949  0.2083 -0.6123
 2474SOL    HW118881   1.313   4.370  13.504 -0.3362  1.2675 -0.7348
 2474SOL    HW218882   1.404   4.422  13.606 -0.1903  1.3270 -1.2164
 2475SOL     OW18883   1.650   3.638   4.782 -0.2790 -1.1141  0.5805
 2475SOL    HW118884   1.726   3.624   4.726 -0.4057 -2.6440  0.7852
 2475SOL    HW218885   1.684   3.707   4.839  0.4429 -0.4581 -0.6465
 2476SOL     OW18886   2.495   4.011   5.343 -0.0080  0.1195 -0.2561
 2476SOL    HW118887   2.550   4.018   5.265  0.7964  1.8069  0.4576
 2476SOL    HW218888   2.484   3.917   5.335  2.4895 -0.2260  0.2948
 2477SOL     OW18889   3.325   3.091   5.053  0.1266 -0.3379  0.1533
 2477SOL    HW118890   3.401   3.041   5.083 -0.0611 -0.8644 -0.2448
 2477SOL    HW218891   3.285   3.037   4.985 -0.9390  2.0120 -1.1005
 2478SOL     OW18892   3.757   3.492   2.480  0.0011 -1.1312 -0.1551
 2478SOL    HW118893   3.707   3.414   2.455 -2.1651  1.2827 -3.2522
 2478SOL    HW218894   3.728   3.547   2.408  3.2055 -0.7793 -1.1778
 2479SOL     OW18895   1.845   4.039   3.801 -0.0403 -0.4715 -0.0889
 2479SOL    HW118896   1.771   4.050   3.861 -0.5956 -2.5228 -0.4021
 2479SOL    HW218897   1.835   3.959   3.749 -0.4256  0.2880 -1.1743
 2480SOL     OW18898   4.260   2.816   4.400  0.4689  0.4444  0.1168
 2480SOL    HW118899   4.335   2.837   4.455  1.4708 -2.1813 -0.2503
 2480SOL    HW218900   4.190   2.846   4.458  1.2464 -0.4061  1.4878
 2481SOL     OW18901   1.633   3.466  13.360  0.2391 -0.7587 -0.3695
 2481SOL    HW118902   1.548   3.448  13.401  0.8195 -0.1138  1.0934
 2481SOL    HW218903   1.611   3.542  13.305 -0.5059 -0.4303  0.3800
 2482SOL     OW18904   2.472   2.683   0.121 -0.0714 -0.2626  0.4407
 2482SOL    HW118905   2.447   2.591   0.133 -1.4629  0.2420  1.4403
 2482SOL    HW218906   2.430   2.695   0.036  0.8154  1.7389  0.2926
 2483SOL     OW18907   2.795   3.475   4.137 -0.1924  0.0889 -0.0215
 2483SOL    HW118908   2.871   3.515   4.178  0.6682 -0.2622 -1.2938
 2483SOL    HW218909   2.828   3.385   4.139 -0.0599  0.1572  1.3059
 2484SOL     OW18910   4.687   0.817   0.517 -0.1279 -0.3671 -0.3063
 2484SOL    HW118911   0.006   0.844   0.438  0.3690 -1.8183 -0.5152
 2484SOL    HW218912   0.022   0.830   0.590  3.1926 -1.9384 -2.8689
 2485SOL     OW18913   1.613   3.410  17.138  0.6871  0.2180 -0.0465
 2485SOL    HW118914   1.590   3.317  17.129  0.6792  0.3395 -1.3385
 2485SOL    HW218915   1.544   3.439  17.198  1.8692  0.0022  1.3948
 2486SOL     OW18916   1.151   2.387   1.735 -0.0991  0.5884 -0.0193
 2486SOL    HW118917   1.203   2.315   1.771 -1.0012 -0.3528 -0.5885
 2486SOL    HW218918   1.208   2.463   1.744  0.2347  0.4450 -1.0018
 2487SOL     OW18919   1.270   1.383   3.710  0.2700 -0.4843 -0.0645
 2487SOL    HW118920   1.242   1.375   3.801 -0.5080  1.3091 -0.1656
 2487SOL    HW218921   1.211   1.447   3.670  0.4588 -0.1799  0.1464
 2488SOL     OW18922   2.788   3.431   1.499  0.2959 -0.4508  0.5744
 2488SOL    HW118923   2.801   3.432   1.594 -0.5765 -1.0762  0.7014
 2488SOL    HW218924   2.829   3.347   1.476  2.2389  0.5326  0.4596
 2489SOL     OW18925   1.300   3.551   3.414 -0.5130  0.6042 -0.7266
 2489SOL    HW118926   1.341   3.531   3.330 -1.0018  0.3335 -0.9024
 2489SOL    HW218927   1.376   3.589   3.458 -0.6924 -0.0955  0.2025
 2490SOL     OW18928   4.110   0.355   9.471 -0.0627  0.3912 -0.1927
 2490SOL    HW118929   4.173   0.345   9.542  0.7670  2.4875 -0.6510
 2490SOL    HW218930   4.170   0.322   9.404 -0.5975 -2.5173  0.7552
 2491SOL     OW18931   2.957   3.413  14.253 -0.5023  0.8792 -0.4381
 2491SOL    HW118932   2.952   3.494  14.202  0.1634  0.9766 -0.3620
 2491SOL    HW218933   2.989   3.450  14.336  2.8710  0.7210 -1.6645
 2492SOL     OW18934   2.800   0.603   7.464 -0.4478  0.0008 -0.4110
 2492SOL    HW118935   2.767   0.533   7.520 -0.1118 -1.9155 -2.6153
 2492SOL    HW218936   2.792   0.556   7.381 -0.0542  0.0589 -0.4819
 2493SOL     OW18937   3.833   0.633   8.829 -0.0497  0.3990 -0.2212
 2493SOL    HW118938   3.830   0.588   8.744  0.6720  2.7604 -1.4934
 2493SOL    HW218939   3.906   0.695   8.823  0.3016 -0.0001 -0.0313
 2494SOL     OW18940   1.575   0.910  10.600  0.0357  0.0817  0.1207
 2494SOL    HW118941   1.573   1.000  10.633  0.4245  0.2045 -0.2070
 2494SOL    HW218942   1.512   0.901  10.529 -0.7402 -0.9507  0.9239
 2495SOL     OW18943   4.160   4.200   5.315  0.0100 -0.0695  0.2410
 2495SOL    HW118944   4.113   4.151   5.383 -0.3103  1.0443  0.8092
 2495SOL    HW218945   4.244   4.220   5.356 -0.7616  0.2219  1.6566
 2496SOL     OW18946   2.857   0.728   8.514 -0.3944  0.1956  0.0068
 2496SOL    HW118947   2.800   0.728   8.437 -0.6216 -1.7630  0.1905
 2496SOL    HW218948   2.794   0.688   8.575 -0.0418 -1.2872 -0.6068
 2497SOL     OW18949   3.050   3.331  12.236 -0.0487 -0.1536 -0.2937
 2497SOL    HW118950   3.051   3.345  12.331  2.1329 -1.9569 -0.0292
 2497SOL    HW218951   2.960   3.329  12.203  0.3187  0.7000 -1.3600
 2498SOL     OW18952   2.739   3.724   4.327 -0.0841 -0.1235  0.1038
 2498SOL    HW118953   2.663   3.768   4.289 -1.0683 -1.8610  0.0373
 2498SOL    HW218954   2.728   3.740   4.421 -0.0215  5.4873 -0.8689
 2499SOL     OW18955   0.205   1.489   8.745  1.0218  0.2758 -0.3492
 2499SOL    HW118956   0.151   1.549   8.797 -1.7511  0.5572 -3.5310
 2499SOL    HW218957   0.239   1.558   8.688 -0.1424  1.0414 -0.1245
 2500SOL     OW18958   2.862   2.698   3.607 -0.2234  0.0581 -0.3696
 2500SOL    HW118959   2.920   2.769   3.634  0.4126 -0.8649  0.6453
 2500SOL    HW218960   2.831   2.743   3.528 -0.7182 -0.8466 -0.6836
 2501SOL     OW18961   4.387   0.520   7.395 -0.0400 -0.0324 -0.2223
 2501SOL    HW118962   4.432   0.604   7.391  0.0824  0.0520  2.5220
 2501SOL    HW218963   4.409   0.490   7.483  0.4593 -1.6350 -0.8890
 2502SOL     OW18964   1.741   0.288   3.513 -0.0374  0.4414  0.4097
 2502SOL    HW118965   1.773   0.377   3.494  1.3085 -0.2710 -0.6605
 2502SOL    HW218966   1.710   0.260   3.427  0.8224  0.2598  0.1584
 2503SOL     OW18967   0.883   4.673   0.047  0.1479  0.3805  0.5854
 2503SOL    HW118968   0.900   0.034   0.084  1.0840  0.8126 -0.8664
 2503SOL    HW218969   0.803   4.683  17.702  0.5619  0.3456 -0.0596
 2504SOL     OW18970   0.395   1.951  16.059  0.5542  0.6883  0.0785
 2504SOL    HW118971   0.301   1.958  16.077  0.5148 -1.9768  0.8346
 2504SOL    HW218972   0.404   1.979  15.968 -1.6847  1.9993  0.2528
 2505SOL     OW18973   2.504   3.731   9.305  0.2610 -0.2146  0.3021
 2505SOL    HW118974   2.490   3.761   9.395 -0.0704 -0.0138  0.1836
 2505SOL    HW218975   2.595   3.702   9.302  0.1106 -0.7209  0.7062
 2506SOL     OW18976   3.211   2.075   6.130 -0.3538 -0.2189  0.2814
 2506SOL    HW118977   3.261   2.084   6.211  0.4374 -3.2831  0.1557
 2506SOL    HW218978   3.262   2.129   6.070  0.8101 -2.4037 -0.7078
 2507SOL     OW18979   4.374   1.578   4.543 -0.1890  0.2301 -0.0370
 2507SOL    HW118980   4.290   1.622   4.527  0.0750  0.3348 -1.1523
 2507SOL    HW218981   4.346   1.488   4.553  1.1297  0.0750  2.2448
 2508SOL     OW18982   4.330   3.919   0.256 -0.3129  0.0940  0.0484
 2508SOL    HW118983   4.342   3.889   0.166 -0.9532 -1.0581  0.3455
 2508SOL    HW218984   4.384   3.856   0.304 -0.7940 -0.2055  0.2039
 2509SOL     OW18985   1.571   3.160   7.353 -0.6594  0.2601  0.5839
 2509SOL    HW118986   1.580   3.120   7.439  0.6863 -0.9090 -0.0920
 2509SOL    HW218987   1.659   3.189   7.328 -0.7224 -0.5655 -0.5811
 2510SOL     OW18988   4.202   3.121  12.651 -0.1627  0.1894 -0.6585
 2510SOL    HW118989   4.157   3.109  12.734  0.1307 -0.2420 -0.5642
 2510SOL    HW218990   4.128   3.113  12.591 -0.9608  0.5793  0.2764
 2511SOL     OW18991   0.554   4.512   3.615 -0.3815 -0.3900 -0.6434
 2511SOL    HW118992   0.514   4.502   3.529  3.7841 -0.4416 -2.5885
 2511SOL    HW218993   0.490   4.464   3.667 -0.1993 -1.8178 -1.7532
 2512SOL     OW18994   0.258   3.256   8.623  0.0182 -0.2771 -0.3192
 2512SOL    HW118995   0.242   3.281   8.714 -1.6638  3.2782 -1.5963
 2512SOL    HW218996   0.274   3.344   8.587 -2.3788  1.0590  1.8342
 2513SOL     OW18997   3.430   4.617   5.974 -0.9897 -0.2864  0.7048
 2513SOL    HW118998   3.454   4.665   6.053 -0.4406  0.4268  0.1136
 2513SOL    HW218999   3.391   4.688   5.924 -2.4516 -1.8294 -0.3463
 2514SOL     OW19000   1.755   3.142   3.149 -0.3451 -0.5237 -0.3000
 2514SOL    HW119001   1.670   3.160   3.111 -0.5832 -0.4848  0.2501
 2514SOL    HW219002   1.804   3.096   3.081  0.1117 -0.6968  0.1414
 2515SOL     OW19003   0.425   1.227  13.394 -0.1419 -0.1448  0.2073
 2515SOL    HW119004   0.345   1.233  13.446  1.0196  1.1730  1.8616
 2515SOL    HW219005   0.495   1.210  13.458 -0.8358 -1.6775  0.5711
 2516SOL     OW19006   0.171   1.891   2.368  0.3181 -0.4230  0.2136
 2516SOL    HW119007   0.238   1.958   2.356  0.4669 -0.6406 -0.1785
 2516SOL    HW219008   0.090   1.940   2.351  0.6369  0.1843  0.4516
 2517SOL     OW19009   2.863   3.576   4.751  0.4081 -0.0797  0.1548
 2517SOL    HW119010   2.872   3.668   4.724  1.4488  0.1924  1.4442
 2517SOL    HW219011   2.888   3.534   4.669  1.0411  1.7673 -0.6094
 2518SOL     OW19012   1.861   1.859  15.579  0.1783  0.7218 -0.1996
 2518SOL    HW119013   1.875   1.933  15.519 -1.2466  0.9392 -0.2559
 2518SOL    HW219014   1.771   1.886  15.595  0.6053  0.9048  1.9408
 2519SOL     OW19015   2.351   0.730  17.628 -0.6079  0.4743 -0.0864
 2519SOL    HW119016   2.358   0.654  17.570 -0.5374  0.5345 -0.1553
 2519SOL    HW219017   2.273   0.701  17.676  1.1405 -1.1303  1.7809
 2520SOL     OW19018   4.715   0.293   6.979  0.2764  0.6503  0.5169
 2520SOL    HW119019   4.680   0.241   7.052 -1.1902  1.3924  0.3557
 2520SOL    HW219020   0.053   0.228   6.951 -0.9841 -0.1593 -0.5238
 2521SOL     OW19021   1.088   3.254   1.876 -0.5981  0.6229  0.5956
 2521SOL    HW119022   1.073   3.189   1.945  0.8302 -0.7634 -0.4087
 2521SOL    HW219023   1.047   3.209   1.802  0.8756  1.8493 -0.9609
 2522SOL     OW19024   2.608   1.312   0.558 -0.1397  0.0986 -0.4454
 2522SOL    HW119025   2.518   1.293   0.530  0.4281 -0.1414 -2.1451
 2522SOL    HW219026   2.619   1.278   0.646 -2.5714 -2.1347 -1.0104
 2523SOL     OW19027   4.529   0.280  15.060 -0.6100 -0.0969  0.0874
 2523SOL    HW119028   4.510   0.189  15.041  0.9231 -0.9490  2.6032
 2523SOL    HW219029   4.512   0.319  14.974 -2.8963 -0.1163  0.5156
 2524SOL     OW19030   0.798   3.747   2.042  0.3546  0.4520 -0.0576
 2524SOL    HW119031   0.808   3.700   1.959 -2.7629  1.7532 -1.1633
 2524SOL    HW219032   0.721   3.802   2.026  0.5308  0.5311 -0.6442
 2525SOL     OW19033   1.755   4.614   5.675 -0.0241  0.1290  0.0556
 2525SOL    HW119034   1.842   4.642   5.704 -0.2245  0.1119  0.6788
 2525SOL    HW219035   1.719   4.597   5.762  2.1064  0.2081  0.9622
 2526SOL     OW19036   4.016   3.134   7.669  0.8127 -0.1663 -0.0015
 2526SOL    HW119037   4.044   3.148   7.759  1.5238 -1.4314 -0.0314
 2526SOL    HW219038   3.946   3.071   7.690  1.4680 -1.0597 -0.4710
 2527SOL     OW19039   0.851   2.329   9.993  0.2859 -0.2697 -0.2746
 2527SOL    HW119040   0.828   2.240  10.017 -0.4011  0.8957  3.4068
 2527SOL    HW219041   0.933   2.353  10.036  1.0503  1.2000 -2.5637
 2528SOL     OW19042   0.631   4.643  14.656  0.3618 -0.1163 -1.2562
 2528SOL    HW119043   0.706   4.617  14.709 -1.2247 -1.0660  0.5087
 2528SOL    HW219044   0.676   4.677  14.578  3.4447  1.6069  1.2978
 2529SOL     OW19045   0.572   2.206   7.641  0.1671  0.0430  0.0379
 2529SOL    HW119046   0.634   2.217   7.713 -2.0387 -0.0633  1.9419
 2529SOL    HW219047   0.629   2.167   7.574  2.8136  1.5893  1.3670
 2530SOL     OW19048   1.508   1.286   8.116  0.0723 -0.2503 -0.5448
 2530SOL    HW119049   1.458   1.238   8.182 -1.1750 -0.0414 -1.3465
 2530SOL    HW219050   1.522   1.367   8.165  0.5654  0.5452 -1.9954
 2531SOL     OW19051   2.416   1.675   6.725  0.2032  0.7789 -0.1715
 2531SOL    HW119052   2.379   1.639   6.805 -1.0892 -4.1437 -2.9609
 2531SOL    HW219053   2.341   1.655   6.668 -0.6845  0.1190  1.2300
 2532SOL     OW19054   0.023   1.325  13.878 -0.0644  0.1637  0.2968
 2532SOL    HW119055   0.046   1.413  13.852  0.5488  0.1055  0.6459
 2532SOL    HW219056   4.714   1.342  13.966 -0.0837 -3.6412  1.0540
 2533SOL     OW19057   1.814   0.426   0.105  0.2724  1.0316 -0.1264
 2533SOL    HW119058   1.723   0.416   0.130  0.6756 -1.7226  0.1746
 2533SOL    HW219059   1.817   0.509   0.057  2.3629  1.1978  0.2622
 2534SOL     OW19060   2.443   2.171   8.766  0.7130  0.0578  0.0161
 2534SOL    HW119061   2.410   2.217   8.844 -2.8145 -3.1710  0.4059
 2534SOL    HW219062   2.526   2.140   8.803  0.4511  1.7244  2.0319
 2535SOL     OW19063   3.038   3.154   4.782  0.1157 -0.4791 -0.2752
 2535SOL    HW119064   2.965   3.163   4.720 -1.3573  0.2142  1.5628
 2535SOL    HW219065   3.017   3.225   4.843  1.4460 -0.2245 -0.1321
 2536SOL     OW19066   0.763   2.957   3.977  0.0928  0.0189  0.4215
 2536SOL    HW119067   0.728   3.044   3.956  0.0213  0.0197  0.5373
 2536SOL    HW219068   0.721   2.929   4.059 -2.2569  0.2824 -0.6865
 2537SOL     OW19069   2.450   0.505   7.347  0.0277 -0.6227  0.5319
 2537SOL    HW119070   2.364   0.480   7.313 -0.5446  0.2701  1.3052
 2537SOL    HW219071   2.501   0.501   7.266  0.2333  0.8314  0.5795
 2538SOL     OW19072   0.721   3.562   1.824 -0.0495 -0.1791  0.0959
 2538SOL    HW119073   0.810   3.527   1.835  0.5083  1.9104  2.1318
 2538SOL    HW219074   0.679   3.490   1.778  3.0434 -2.2467  0.4959
 2539SOL     OW19075   1.641   3.481  10.882 -0.0241 -0.8687  0.3960
 2539SOL    HW119076   1.594   3.437  10.953  0.4503 -0.2693  1.0795
 2539SOL    HW219077   1.670   3.412  10.822  1.2135  0.7810 -0.8842
 2540SOL     OW19078   3.185   2.630   5.832  0.1361 -0.3513 -0.3496
 2540SOL    HW119079   3.274   2.597   5.823  0.8532  1.4991  0.0259
 2540SOL    HW219080   3.181   2.676   5.749  0.7383  2.0954  0.9594
 2541SOL     OW19081   2.751   3.660   9.398 -0.2474  0.4708  0.1054
 2541SOL    HW119082   2.835   3.701   9.417 -1.3188  2.4444  0.6171
 2541SOL    HW219083   2.708   3.673   9.483  2.6957 -2.2725  2.0156
 2542SOL     OW19084   3.994   0.587  14.304  0.4107  0.2590 -0.2253
 2542SOL    HW119085   3.995   0.658  14.368  2.9802  0.4035 -0.4547
 2542SOL    HW219086   4.087   0.569  14.313  0.7561  2.0906 -0.1822
 2543SOL     OW19087   0.676   0.182   1.972 -0.5015  0.1836 -0.1373
 2543SOL    HW119088   0.587   0.147   1.983 -0.9691  1.2603 -0.4735
 2543SOL    HW219089   0.711   0.103   1.932 -1.6938 -0.4694  0.0814
 2544SOL     OW19090   1.708   1.457   2.011 -0.6595  0.3528 -0.1609
 2544SOL    HW119091   1.741   1.440   2.099 -0.4107 -0.4720 -0.4172
 2544SOL    HW219092   1.625   1.411   2.020 -0.5802  0.0525 -0.9671
 2545SOL     OW19093   3.529   1.180   5.699  0.3651 -0.0005 -0.3858
 2545SOL    HW119094   3.608   1.128   5.685 -0.4218 -1.1225 -0.6675
 2545SOL    HW219095   3.564   1.269   5.689 -0.8450  0.6148  0.7810
 2546SOL     OW19096   3.149   0.127   2.527 -0.2889  0.0976  0.3174
 2546SOL    HW119097   3.080   0.097   2.586 -0.8112 -0.0967 -0.4110
 2546SOL    HW219098   3.210   0.054   2.518 -2.7973 -1.7966 -1.1765
 2547SOL     OW19099   2.126   0.662   8.481  0.3910 -0.3340 -0.4032
 2547SOL    HW119100   2.068   0.693   8.412 -1.3071  0.4499  1.3553
 2547SOL    HW219101   2.086   0.699   8.560  1.6208 -0.3105  0.2186
 2548SOL     OW19102   2.800   4.123  10.016  0.1904  0.5322 -0.1577
 2548SOL    HW119103   2.813   4.202   9.964  0.5556  2.0797  2.2730
 2548SOL    HW219104   2.873   4.076   9.976 -0.5061 -1.9850  1.5540
 2549SOL     OW19105   3.667   1.204   6.791  0.0204 -0.2180  0.0621
 2549SOL    HW119106   3.595   1.176   6.847 -0.8866  1.1277 -0.4222
 2549SOL    HW219107   3.725   1.238   6.859 -1.1643  0.4749  0.7170
 2550SOL     OW19108   2.311   2.682  15.370  0.4573 -0.3586 -0.1629
 2550SOL    HW119109   2.224   2.688  15.410  0.8462  0.3480  0.5794
 2550SOL    HW219110   2.289   2.603  15.320 -1.2206  1.2847 -2.0266
 2551SOL     OW19111   3.699   2.161  16.496  0.2729  0.4359 -0.5145
 2551SOL    HW119112   3.668   2.250  16.515 -0.3632  0.6560 -2.5710
 2551SOL    HW219113   3.742   2.160  16.410 -0.3624  0.3285 -0.8314
 2552SOL     OW19114   0.454   2.860  13.751  0.0755 -0.1611 -0.3490
 2552SOL    HW119115   0.393   2.909  13.806 -0.4697 -0.1550 -0.9535
 2552SOL    HW219116   0.509   2.935  13.727 -2.3215  1.1778 -1.6334
 2553SOL     OW19117   2.443   4.567  15.333  0.2329  0.0887  0.0236
 2553SOL    HW119118   2.379   4.495  15.335 -0.6201  0.8070 -1.6832
 2553SOL    HW219119   2.455   4.576  15.428 -1.2787 -1.1310  0.3320
 2554SOL     OW19120   2.628   0.884   0.172  0.4763  0.5210  0.1854
 2554SOL    HW119121   2.583   0.928   0.244 -1.2913 -1.2886  0.1655
 2554SOL    HW219122   2.701   0.943   0.151  0.1376  0.4334 -1.2099
 2555SOL     OW19123   1.194   4.011   2.749 -0.2995  0.0461 -0.1848
 2555SOL    HW119124   1.127   3.988   2.686  0.1398 -0.3576 -0.5048
 2555SOL    HW219125   1.229   4.087   2.702 -1.0120  0.2701 -0.3563
 2556SOL     OW19126   0.153   3.884  13.633  0.6917  0.0264  0.0660
 2556SOL    HW119127   0.236   3.919  13.599  0.7395  1.4678  1.6374
 2556SOL    HW219128   0.158   3.917  13.723 -0.2237 -1.9840  0.8369
 2557SOL     OW19129   4.277   4.526   8.815 -0.7534  0.5802  0.0046
 2557SOL    HW119130   4.207   4.579   8.854 -2.2823 -1.5332  0.1302
 2557SOL    HW219131   4.243   4.437   8.823  1.3206 -0.2840 -0.8656
 2558SOL     OW19132   2.423   3.530   6.529 -1.0108  0.1253 -0.2923
 2558SOL    HW119133   2.429   3.523   6.624  0.6089 -0.5746 -0.4587
 2558SOL    HW219134   2.426   3.625   6.515 -1.5449  0.0262 -1.1156
 2559SOL     OW19135   3.440   2.422   3.677  0.2230  0.0342 -0.9622
 2559SOL    HW119136   3.485   2.480   3.616  1.6573  0.8590  0.8394
 2559SOL    HW219137   3.369   2.473   3.716  1.2288  0.3226  0.5055
 2560SOL     OW19138   3.133   1.822   6.516  0.1903 -0.3827  0.0573
 2560SOL    HW119139   3.107   1.911   6.541 -1.2251 -0.8150  0.1124
 2560SOL    HW219140   3.216   1.839   6.471 -0.9557 -0.1451 -1.9738
 2561SOL     OW19141   0.012   0.743   8.805  0.7620  0.3719  0.3171
 2561SOL    HW119142   0.070   0.809   8.844  0.4197  0.1575  1.1701
 2561SOL    HW219143   4.654   0.756   8.848  0.5221  1.3615 -0.4430
 2562SOL     OW19144   0.779   1.060  12.320  0.7202 -0.1435  0.2969
 2562SOL    HW119145   0.810   1.151  12.318  0.3293 -0.0397 -1.0004
 2562SOL    HW219146   0.831   1.004  12.263 -0.1957 -1.8644  1.1483
 2563SOL     OW19147   1.023   2.105  10.443  0.0665  0.1391 -0.7164
 2563SOL    HW119148   0.971   2.059  10.377 -2.7363  2.4896 -0.1768
 2563SOL    HW219149   1.092   2.044  10.466 -1.9793 -1.3469  1.4982
 2564SOL     OW19150   4.098   2.252   2.246  0.1830 -0.1075 -0.7312
 2564SOL    HW119151   4.014   2.213   2.273  1.0383 -0.1540  1.8246
 2564SOL    HW219152   4.081   2.280   2.156 -1.2312 -1.0232 -0.7630
 2565SOL     OW19153   0.969   4.242   7.265  0.1366 -0.4919 -0.3878
 2565SOL    HW119154   1.006   4.154   7.257  0.8222 -0.2562  0.1417
 2565SOL    HW219155   0.936   4.235   7.355  1.0300 -1.1449 -0.1053
 2566SOL     OW19156   3.661   2.275   3.468 -0.1602 -0.1727  0.1212
 2566SOL    HW119157   3.750   2.307   3.460 -0.1707 -0.2007 -0.1203
 2566SOL    HW219158   3.630   2.348   3.523 -1.0252 -1.3378  1.1882
 2567SOL     OW19159   1.150   4.692  15.875  0.0247 -0.6545 -0.2053
 2567SOL    HW119160   1.158   4.602  15.844  3.1556 -0.8762  1.2514
 2567SOL    HW219161   1.178   4.680  15.966  0.7903  1.1862 -0.1928
 2568SOL     OW19162   0.436   1.293  16.792  0.4184 -0.2228 -0.1466
 2568SOL    HW119163   0.348   1.329  16.802  0.6969  0.4646 -0.1707
 2568SOL    HW219164   0.484   1.367  16.829  0.6006 -0.8974  0.9660
 2569SOL     OW19165   4.598   4.265  15.783 -0.2962  0.3772 -0.1697
 2569SOL    HW119166   4.666   4.298  15.725  1.3854 -3.0346 -0.1088
 2569SOL    HW219167   4.518   4.305  15.747  0.5802  1.5195 -0.8398
 2570SOL     OW19168   0.392   1.815   4.187  0.5208  0.1778 -0.0279
 2570SOL    HW119169   0.432   1.728   4.195  2.1053  0.9512  0.2207
 2570SOL    HW219170   0.415   1.846   4.274 -0.5940  2.5437 -0.5775
 2571SOL     OW19171   0.917   4.711   3.684  0.8568  0.0852  0.1513
 2571SOL    HW119172   0.909   0.077   3.658  0.7278 -0.3330 -1.3072
 2571SOL    HW219173   0.936   4.668   3.601  1.3417  1.0718 -0.2387
 2572SOL     OW19174   3.011   2.469  12.206  0.1336  0.0066 -0.0304
 2572SOL    HW119175   3.001   2.552  12.252  0.9998 -0.9282  1.8045
 2572SOL    HW219176   3.051   2.498  12.124 -0.6495  0.9591 -0.0814
 2573SOL     OW19177   2.012   2.543   4.171 -0.0392 -0.0747 -0.1119
 2573SOL    HW119178   2.095   2.553   4.216 -0.9285  1.0300  1.2669
 2573SOL    HW219179   1.940   2.545   4.234 -0.2500  0.1988 -0.3604
 2574SOL     OW19180   1.223   4.111   7.229 -0.1469  0.0964  0.1212
 2574SOL    HW119181   1.212   4.197   7.270  0.3738  0.3280 -0.2271
 2574SOL    HW219182   1.212   4.146   7.140 -2.2991  0.8071  0.6875
 2575SOL     OW19183   4.478   0.746   5.371  0.4432  1.0629  0.3346
 2575SOL    HW119184   4.566   0.773   5.397  1.4753 -2.3472  0.3848
 2575SOL    HW219185   4.487   0.654   5.344 -0.5208  0.9586  0.3542
 2576SOL     OW19186   4.383   3.081   2.084  0.2578 -0.5865 -0.4084
 2576SOL    HW119187   4.337   3.114   2.161 -0.5243 -0.7386 -0.8076
 2576SOL    HW219188   4.473   3.107   2.103  0.2448 -1.1266  0.3975
 2577SOL     OW19189   0.453   0.216   6.295 -0.1445  0.2377 -0.2612
 2577SOL    HW119190   0.475   0.252   6.209 -1.6417  2.3392  0.2199
 2577SOL    HW219191   0.358   0.225   6.283  0.0505  0.7961 -1.4185
 2578SOL     OW19192   0.976   1.785   8.457 -0.1017 -0.1372  0.5890
 2578SOL    HW119193   0.887   1.782   8.493 -0.8208 -1.2195 -1.2921
 2578SOL    HW219194   1.021   1.840   8.520 -0.0271  0.4383  0.0281
 2579SOL     OW19195   2.575   3.738  17.121 -0.6341 -0.0153 -0.1789
 2579SOL    HW119196   2.552   3.724  17.029 -0.2045 -1.1155 -0.1201
 2579SOL    HW219197   2.626   3.820  17.123 -2.1169  0.8516  1.9153
 2580SOL     OW19198   0.601   3.365  13.730  0.6050  0.4161  0.2655
 2580SOL    HW119199   0.664   3.410  13.786  0.0610  1.2609  0.1910
 2580SOL    HW219200   0.606   3.424  13.655  3.7266 -1.1386 -0.7294
 2581SOL     OW19201   3.670   4.404   3.830 -0.1790  0.1827 -0.0457
 2581SOL    HW119202   3.751   4.374   3.871  0.6201 -0.9232 -2.4035
 2581SOL    HW219203   3.678   4.353   3.749  0.4043  0.5517 -0.2232
 2582SOL     OW19204   2.012   1.002   7.589 -0.2369  0.1866  0.6617
 2582SOL    HW119205   2.040   1.093   7.604  1.1958 -0.6139  2.8709
 2582SOL    HW219206   1.950   0.994   7.660 -0.7125 -3.6235 -0.2189
 2583SOL     OW19207   4.531   0.684   5.891 -0.3684  0.1915  0.1837
 2583SOL    HW119208   4.578   0.713   5.969  1.1375  0.6926 -0.8854
 2583SOL    HW219209   4.593   0.721   5.828  0.4470 -0.5214  0.5655
 2584SOL     OW19210   1.057   3.085  10.161 -0.4408  0.2191  0.1673
 2584SOL    HW119211   1.034   3.030  10.237  0.5658  2.8429  2.3617
 2584SOL    HW219212   0.996   3.156  10.181 -0.2819  0.1927  0.7480
 2585SOL     OW19213   0.714   4.554   1.603 -0.4982 -0.5316  0.5979
 2585SOL    HW119214   0.708   4.612   1.527 -0.5548 -1.3888 -0.0487
 2585SOL    HW219215   0.752   4.480   1.557  2.8684  0.8979  1.1193
 2586SOL     OW19216   1.600   1.243   2.313 -0.2329 -0.2239  0.4895
 2586SOL    HW119217   1.668   1.306   2.290  2.0687 -2.5848  0.7651
 2586SOL    HW219218   1.617   1.181   2.241  1.4718 -0.3485  0.9841
 2587SOL     OW19219   1.575   2.666   7.017 -1.0700 -0.1549  0.1023
 2587SOL    HW119220   1.635   2.625   7.078 -2.2713 -2.1833 -0.0777
 2587SOL    HW219221   1.573   2.599   6.949  0.7268 -1.3228  1.2104
 2588SOL     OW19222   2.539   2.705   0.987  0.5067  0.3410 -0.2595
 2588SOL    HW119223   2.500   2.675   1.069  0.5858  3.4832  0.9307
 2588SOL    HW219224   2.532   2.631   0.926 -0.2714 -0.6365  1.0242
 2589SOL     OW19225   1.265   4.311  12.048 -0.1772  0.5387  0.0762
 2589SOL    HW119226   1.348   4.268  12.071 -0.7675  0.0397  1.2695
 2589SOL    HW219227   1.276   4.403  12.072 -3.0126  1.3217 -1.6608
 2590SOL     OW19228   1.073   2.892   9.180  1.0400  0.0009  0.1344
 2590SOL    HW119229   1.139   2.900   9.111  1.7878 -0.1102  0.8342
 2590SOL    HW219230   1.057   2.798   9.185  0.3599  0.0757 -0.6703
 2591SOL     OW19231   0.687   3.037   1.886 -0.4070  0.1161  0.3543
 2591SOL    HW119232   0.646   3.005   1.966 -1.0369 -0.2231 -0.1019
 2591SOL    HW219233   0.776   3.003   1.879 -0.1762  1.0278 -1.3277
 2592SOL     OW19234   2.220   0.876   0.289  0.7477  0.0973  0.3926
 2592SOL    HW119235   2.242   0.895   0.380  3.6271 -0.1121 -0.2852
 2592SOL    HW219236   2.203   0.967   0.266  0.8216 -0.0206 -0.1283
 2593SOL     OW19237   0.339   4.595   4.191  0.0615 -0.3356 -0.2953
 2593SOL    HW119238   0.311   4.619   4.103 -0.0908  1.8141  0.3393
 2593SOL    HW219239   0.350   4.681   4.233  0.7073 -0.0812 -0.9733
 2594SOL     OW19240   4.030   1.340   5.132  0.0762  0.2239  0.4504
 2594SOL    HW119241   4.044   1.309   5.043 -0.3520 -0.1880  0.5286
 2594SOL    HW219242   4.110   1.317   5.181  0.2675 -0.1108 -0.0190
 2595SOL     OW19243   3.259   3.289  10.438 -0.0122  0.1455 -0.3088
 2595SOL    HW119244   3.350   3.319  10.440  0.4787 -1.4271  0.7487
 2595SOL    HW219245   3.241   3.286  10.532 -0.0006  0.9204 -0.2796
 2596SOL     OW19246   0.543   0.901   8.512 -0.2781  0.3265  0.3091
 2596SOL    HW119247   0.517   0.907   8.420  0.4714  3.4274  0.3143
 2596SOL    HW219248   0.610   0.833   8.504  0.9606  1.5302  0.4796
 2597SOL     OW19249   4.594   1.105   3.056 -0.6500  0.3965 -0.0045
 2597SOL    HW119250   4.548   1.150   3.126 -2.6084  0.3511 -1.2694
 2597SOL    HW219251   4.659   1.175   3.049  1.9016 -1.8957  0.6629
 2598SOL     OW19252   0.770   0.260   0.353 -0.2440 -0.6922  0.4669
 2598SOL    HW119253   0.784   0.299   0.439 -2.7146  0.5354  0.3065
 2598SOL    HW219254   0.675   0.249   0.350 -0.2827 -0.1790 -0.4568
 2599SOL     OW19255   0.997   0.282   1.743 -0.5211 -0.0202 -0.0314
 2599SOL    HW119256   1.067   0.265   1.680 -0.3179 -2.0831  0.7398
 2599SOL    HW219257   0.925   0.283   1.680 -1.0124 -1.2200  0.5155
 2600SOL     OW19258   1.722   3.413   1.668  0.2736 -0.2304  0.7468
 2600SOL    HW119259   1.643   3.359   1.668 -0.2244  0.5018 -0.1183
 2600SOL    HW219260   1.789   3.365   1.620  0.4787  1.6021 -0.7887
 2601SOL     OW19261   3.371   4.359  11.854  0.3166  0.1438 -0.0970
 2601SOL    HW119262   3.389   4.289  11.917 -2.6435  0.4705  1.1316
 2601SOL    HW219263   3.295   4.330  11.803 -0.8144  0.8865  1.1446
 2602SOL     OW19264   1.472   1.854   8.540 -1.0283 -0.0360  0.1215
 2602SOL    HW119265   1.548   1.846   8.597 -1.1719  0.6077  0.3926
 2602SOL    HW219266   1.477   1.942   8.504 -0.4430 -0.7394 -1.5433
 2603SOL     OW19267   2.669   4.218  16.370  0.4575  0.1274 -0.5048
 2603SOL    HW119268   2.590   4.174  16.399 -0.0247  0.5626 -1.1776
 2603SOL    HW219269   2.667   4.214  16.275 -2.5539 -0.2441 -0.4006
 2604SOL     OW19270   2.981   1.050   9.870 -0.3580 -0.5350  0.0480
 2604SOL    HW119271   2.978   1.128   9.925 -0.4951  0.2998 -1.1479
 2604SOL    HW219272   2.900   1.072   9.825  0.8924  1.3612 -1.2670
 2605SOL     OW19273   4.117   3.776  17.022  0.2889  0.4377 -0.0407
 2605SOL    HW119274   4.056   3.840  16.985  0.6920  0.0165 -1.4262
 2605SOL    HW219275   4.131   3.717  16.948 -1.6826 -2.2934  1.7200
 2606SOL     OW19276   1.668   1.778  12.856 -0.4765 -0.5134 -0.2076
 2606SOL    HW119277   1.598   1.814  12.911  2.2801 -1.1850  3.7993
 2606SOL    HW219278   1.625   1.806  12.776 -1.3968  1.2685  0.9157
 2607SOL     OW19279   2.392   0.455   8.992 -0.1269 -0.4878  0.7542
 2607SOL    HW119280   2.326   0.472   8.925  1.7823  1.7109 -0.5743
 2607SOL    HW219281   2.415   0.362   8.988  0.9980 -0.1498 -0.7964
 2608SOL     OW19282   4.302   2.717  11.860 -0.8921  0.3070  0.1935
 2608SOL    HW119283   4.244   2.793  11.862 -1.4994 -0.1669  0.7275
 2608SOL    HW219284   4.386   2.764  11.853 -0.4627 -0.4763  0.0921
 2609SOL     OW19285   4.343   0.962   6.560 -0.4551 -0.2393 -0.0627
 2609SOL    HW119286   4.331   0.996   6.649 -1.9734  2.2197 -1.1933
 2609SOL    HW219287   4.381   0.878   6.583 -1.6665 -1.0637 -1.0658
 2610SOL     OW19288   1.744   2.392  13.545 -0.3589 -0.2039 -0.3661
 2610SOL    HW119289   1.714   2.310  13.585  0.7466 -1.4526 -2.1089
 2610SOL    HW219290   1.700   2.379  13.460  1.1988 -1.1357 -1.0156
 2611SOL     OW19291   0.249   0.919   8.138 -0.0303 -0.1049 -0.3475
 2611SOL    HW119292   0.191   0.871   8.079 -2.4967  4.4115 -1.6875
 2611SOL    HW219293   0.204   0.923   8.222 -0.0272 -2.3776 -0.2610
 2612SOL     OW19294   0.601   2.403   2.920 -0.0654  0.6253  0.2665
 2612SOL    HW119295   0.509   2.429   2.910 -1.1822 -3.2130  0.6288
 2612SOL    HW219296   0.644   2.457   2.854  1.9916  1.8294  2.6339
 2613SOL     OW19297   4.259   3.832   2.521  0.6951 -0.7450 -0.0503
 2613SOL    HW119298   4.175   3.789   2.537  0.2871 -0.5798 -1.7505
 2613SOL    HW219299   4.281   3.806   2.431  0.2857 -1.8123  0.1549
 2614SOL     OW19300   1.911   4.612   2.140 -0.0746  0.3568 -0.1434
 2614SOL    HW119301   1.961   4.585   2.063 -0.3528  0.4110 -0.3467
 2614SOL    HW219302   1.873   4.531   2.172 -1.0304  1.6644  2.0726
 2615SOL     OW19303   1.305   3.011   3.028  0.1947 -0.3657 -0.0370
 2615SOL    HW119304   1.221   3.056   3.020 -0.5375 -1.5208  1.1386
 2615SOL    HW219305   1.299   2.942   2.963  0.8395 -1.1910  0.7861
 2616SOL     OW19306   2.834   4.085   7.214 -0.6777  0.0191 -0.1695
 2616SOL    HW119307   2.773   4.017   7.182 -1.0744 -0.2853  1.2197
 2616SOL    HW219308   2.867   4.034   7.288  1.3004  0.1103 -0.9934
 2617SOL     OW19309   1.375   3.566   2.383 -0.1899 -0.3616  0.5294
 2617SOL    HW119310   1.421   3.531   2.306 -0.2545 -1.4889  1.0051
 2617SOL    HW219311   1.443   3.611   2.433 -1.5097 -0.9347  2.8205
 2618SOL     OW19312   2.442   3.299   4.617 -0.1236  0.1583 -0.1882
 2618SOL    HW119313   2.509   3.362   4.593 -0.3245  1.1147  1.7894
 2618SOL    HW219314   2.459   3.305   4.711  1.6281 -0.5951 -0.4566
 2619SOL     OW19315   3.139   0.627  11.527  0.3428 -0.5222  0.2101
 2619SOL    HW119316   3.057   0.578  11.525  0.0229  0.0559 -1.0808
 2619SOL    HW219317   3.172   0.604  11.613 -1.3495 -2.2303  0.3969
 2620SOL     OW19318   4.026   3.581   4.725 -0.0780  0.2988  0.7092
 2620SOL    HW119319   4.092   3.567   4.793  1.3748  0.5327 -0.6374
 2620SOL    HW219320   4.031   3.676   4.721 -0.7033  0.2481 -1.1628
 2621SOL     OW19321   4.244   0.495   6.264 -0.2003  0.0168 -0.1171
 2621SOL    HW119322   4.318   0.555   6.278 -1.2225  1.3345 -0.3744
 2621SOL    HW219323   4.183   0.566   6.246 -1.3219 -1.5008 -2.3146
 2622SOL     OW19324   2.047   0.064   3.995  0.0907 -0.1539 -0.5399
 2622SOL    HW119325   1.962   0.027   4.021  0.7197 -1.2577 -0.0556
 2622SOL    HW219326   2.024   0.157   4.003 -1.6547 -0.6049 -0.1849
 2623SOL     OW19327   0.397   3.241   8.252 -0.2931 -0.7042 -0.3233
 2623SOL    HW119328   0.404   3.151   8.219  1.8205 -1.1150  1.2051
 2623SOL    HW219329   0.428   3.230   8.342  0.9688 -2.4300 -0.9765
 2624SOL     OW19330   2.643   0.947   5.457  0.4489 -0.3708 -0.0102
 2624SOL    HW119331   2.658   1.041   5.463  0.8740 -0.3096 -1.9501
 2624SOL    HW219332   2.693   0.921   5.535  0.4898  1.0786  0.4450
 2625SOL     OW19333   3.661   3.620  16.683  0.4181  0.1723  0.0017
 2625SOL    HW119334   3.660   3.715  16.673 -2.2602 -0.0006 -1.3712
 2625SOL    HW219335   3.738   3.603  16.629 -0.3048 -1.6330 -0.4461
 2626SOL     OW19336   1.477   3.101   8.733 -0.4158 -0.5322  0.0566
 2626SOL    HW119337   1.566   3.117   8.703  0.2441 -0.2016  2.2765
 2626SOL    HW219338   1.471   3.007   8.716 -0.5822 -0.3740 -0.8004
 2627SOL     OW19339   1.984   1.894  11.467 -0.0658 -0.1834 -0.4306
 2627SOL    HW119340   1.917   1.914  11.532  0.6329 -0.0798  0.2584
 2627SOL    HW219341   1.947   1.828  11.409 -0.2104 -0.8221  0.3851
 2628SOL     OW19342   3.289   0.945   5.717  0.3897  0.2210  0.0666
 2628SOL    HW119343   3.197   0.967   5.730  0.2536 -0.9692  1.1027
 2628SOL    HW219344   3.300   0.920   5.625 -0.5548  1.5617 -0.3942
 2629SOL     OW19345   4.354   3.085  11.687  0.5021 -0.4691 -0.1112
 2629SOL    HW119346   4.355   3.133  11.604 -2.7168 -0.3408 -0.0698
 2629SOL    HW219347   4.417   3.137  11.736 -1.0539  0.6089  0.7474
 2630SOL     OW19348   0.935   0.261  15.499 -0.1328  0.1218 -0.0046
 2630SOL    HW119349   0.959   0.300  15.583 -2.0469 -0.3164  0.7378
 2630SOL    HW219350   1.002   0.192  15.494  0.3694  0.6974 -1.5005
 2631SOL     OW19351   0.984   1.768   7.636  0.1028 -0.1477  0.2259
 2631SOL    HW119352   1.008   1.753   7.545  1.0662 -0.9684  0.6088
 2631SOL    HW219353   0.941   1.688   7.668 -0.6064 -0.0672 -0.5228
 2632SOL     OW19354   3.052   1.579   8.680 -0.0072 -0.5827 -0.1179
 2632SOL    HW119355   3.047   1.491   8.643  1.7554 -1.0207  0.6964
 2632SOL    HW219356   2.959   1.603   8.684  0.0676 -0.3889  0.5837
 2633SOL     OW19357   1.045   1.714   7.371  0.2616 -0.0781 -0.2847
 2633SOL    HW119358   1.093   1.723   7.288  1.8691 -2.2242  0.4078
 2633SOL    HW219359   1.084   1.634   7.405  0.4465  1.0046  2.0185
 2634SOL     OW19360   1.209   1.752   7.140  0.3469  1.0201 -0.5695
 2634SOL    HW119361   1.258   1.803   7.076  2.3403 -2.6135 -1.9670
 2634SOL    HW219362   1.248   1.783   7.221  1.1207  0.6832 -0.8140
 2635SOL     OW19363   2.133   0.137   5.129 -0.2525  0.5713  0.1805
 2635SOL    HW119364   2.228   0.140   5.112 -0.1159  1.7333  1.1239
 2635SOL    HW219365   2.116   0.128   5.222  1.8403  1.4484  0.6507
 2636SOL     OW19366   3.860   3.725   4.401 -0.0591  0.4060 -0.2714
 2636SOL    HW119367   3.784   3.722   4.342  1.0162  0.8742 -1.6756
 2636SOL    HW219368   3.828   3.774   4.477  0.4652 -1.6168  1.2270
 2637SOL     OW19369   3.900   1.002   7.031  0.4779  0.0579  0.4406
 2637SOL    HW119370   3.970   0.972   6.975  0.3705  0.8714 -0.1331
 2637SOL    HW219371   3.833   0.936   7.013 -0.1766  0.4860  1.2371
 2638SOL     OW19372   0.072   1.902  13.177 -0.2606 -0.5235  0.1383
 2638SOL    HW119373   0.073   1.858  13.093 -1.0933 -2.4338  1.1224
 2638SOL    HW219374   4.708   1.934  13.187 -0.2761 -0.7889  0.8545
 2639SOL     OW19375   4.710   3.172   4.484  0.1217 -0.0857  0.5296
 2639SOL    HW119376   4.708   3.122   4.402 -2.7861 -0.4635  0.8473
 2639SOL    HW219377   0.071   3.210   4.495 -0.1014  0.2014  1.3208
 2640SOL     OW19378   0.549   3.926  13.132  0.4615  0.0462 -0.0332
 2640SOL    HW119379   0.476   3.871  13.161  0.5880 -0.9657 -1.5950
 2640SOL    HW219380   0.588   3.855  13.081 -0.6343 -0.1486 -0.6051
 2641SOL     OW19381   1.410   3.892   3.769 -0.1393 -0.0679 -0.2449
 2641SOL    HW119382   1.338   3.907   3.708 -1.9026 -2.6948  1.2100
 2641SOL    HW219383   1.370   3.826   3.826 -0.7637  0.8709  0.4108
 2642SOL     OW19384   4.190   0.166  10.879 -0.2118  0.2033 -0.9112
 2642SOL    HW119385   4.194   0.143  10.786  0.3808 -0.3105 -0.7548
 2642SOL    HW219386   4.283   0.158  10.897 -0.3375  2.5270  0.7216
 2643SOL     OW19387   1.332   3.998   4.761  0.4380  0.0280  0.4025
 2643SOL    HW119388   1.248   4.031   4.794  1.5803  0.9344  2.4057
 2643SOL    HW219389   1.355   3.928   4.822  1.1483  0.6860  0.8901
 2644SOL     OW19390   1.983   2.168   7.827 -0.0206  0.9055  0.0112
 2644SOL    HW119391   2.040   2.108   7.779 -0.0605  1.1488 -0.3426
 2644SOL    HW219392   2.058   2.214   7.865  0.9061  0.4566 -1.2955
 2645SOL     OW19393   1.891   1.779  17.539 -0.2285  0.3425 -0.2441
 2645SOL    HW119394   1.881   1.732  17.456 -2.1831  1.9306 -0.9057
 2645SOL    HW219395   1.985   1.799  17.533 -0.0343 -0.2026  0.9634
 2646SOL     OW19396   4.057   2.132   5.674  0.1557 -0.2887  0.4530
 2646SOL    HW119397   4.131   2.119   5.615 -1.1005  0.2192 -1.2120
 2646SOL    HW219398   3.991   2.114   5.608 -1.3546  0.3984  1.7883
 2647SOL     OW19399   0.356   4.108   2.670  0.1923  0.4153  0.7005
 2647SOL    HW119400   0.304   4.112   2.590  0.4906  0.4108  0.5059
 2647SOL    HW219401   0.291   4.122   2.739 -1.0193 -2.0368  0.0557
 2648SOL     OW19402   3.567   0.741   2.083 -0.0942 -0.1990 -0.1156
 2648SOL    HW119403   3.599   0.777   2.166 -0.4190  1.2789 -0.6420
 2648SOL    HW219404   3.492   0.694   2.118 -0.1124  0.4708  0.7211
 2649SOL     OW19405   0.963   4.458   9.203  0.7710  0.2809  0.0101
 2649SOL    HW119406   0.927   4.377   9.239 -1.0007  0.7893 -0.5995
 2649SOL    HW219407   0.915   4.524   9.254 -0.0071 -1.5176  1.6031
 2650SOL     OW19408   2.860   0.546   3.080  0.2803 -0.0605 -0.1892
 2650SOL    HW119409   2.939   0.573   3.128  0.3036 -1.1903  0.4016
 2650SOL    HW219410   2.913   0.522   3.004 -1.6909  1.3882 -2.0117
 2651SOL     OW19411   1.302   1.201   1.507 -0.2143  0.6345 -0.8771
 2651SOL    HW119412   1.208   1.190   1.516 -0.6114  3.1964 -1.7304
 2651SOL    HW219413   1.309   1.206   1.412 -0.9831  0.2081 -0.9543
 2652SOL     OW19414   2.805   2.210   3.594  0.6173  0.1704 -0.0885
 2652SOL    HW119415   2.823   2.271   3.523  1.2442  1.1749  0.9313
 2652SOL    HW219416   2.722   2.171   3.568  0.7914 -1.5710  1.9285
 2653SOL     OW19417   2.082   4.107   2.598 -0.3003 -0.4846 -0.2571
 2653SOL    HW119418   2.119   4.190   2.567  0.5366 -1.4280 -1.8024
 2653SOL    HW219419   2.002   4.141   2.637 -0.0528 -0.6677  0.4039
 2654SOL     OW19420   0.490   0.661  15.348 -0.3238 -0.4267 -0.1094
 2654SOL    HW119421   0.429   0.616  15.290 -0.2343 -0.9403  0.1926
 2654SOL    HW219422   0.490   0.755  15.331 -1.7082 -0.1135  1.6563
 2655SOL     OW19423   3.173   1.577  17.583 -0.3165 -0.1396 -0.4091
 2655SOL    HW119424   3.173   1.583  17.487 -1.0994  0.9528 -0.3393
 2655SOL    HW219425   3.139   1.489  17.598  0.7497 -0.9059 -2.3359
 2656SOL     OW19426   0.827   4.598   1.087 -0.1093 -0.4712 -0.4376
 2656SOL    HW119427   0.844   4.579   0.994  0.3652  2.4115 -0.9453
 2656SOL    HW219428   0.918   4.614   1.114 -0.7185 -0.2908  1.4536
 2657SOL     OW19429   2.953   0.101   3.660  0.0975 -1.0772 -0.5604
 2657SOL    HW119430   2.986   0.191   3.664 -1.6575 -0.5084  0.7654
 2657SOL    HW219431   3.000   0.057   3.589  2.9099  1.8974 -0.5829
 2658SOL     OW19432   3.528   3.575   7.882  0.1183 -0.3855  0.0660
 2658SOL    HW119433   3.434   3.589   7.884  0.2567  1.0520 -2.4442
 2658SOL    HW219434   3.562   3.655   7.842 -0.0232 -0.8241 -0.9378
 2659SOL     OW19435   0.179   4.130  14.699  0.7834  0.2193 -0.1227
 2659SOL    HW119436   0.234   4.106  14.774 -0.4561  1.8711  1.3128
 2659SOL    HW219437   0.122   4.198  14.736 -0.6140 -1.0500  0.0747
 2660SOL     OW19438   1.814   4.523   6.436 -0.0142 -0.1677  0.2292
 2660SOL    HW119439   1.833   4.603   6.485 -1.2565 -0.4819  1.2398
 2660SOL    HW219440   1.754   4.550   6.366  0.5678  0.0738 -0.1741
 2661SOL     OW19441   3.275   4.134   3.960  0.2249 -0.5106  0.1693
 2661SOL    HW119442   3.201   4.166   4.012 -0.2727  1.4850 -1.7458
 2661SOL    HW219443   3.359   4.164   3.997 -0.5647  2.8496 -0.7571
 2662SOL     OW19444   3.584   2.292   2.905  0.0214  0.0341  0.5286
 2662SOL    HW119445   3.626   2.217   2.862  1.2863 -0.6589  2.9791
 2662SOL    HW219446   3.593   2.357   2.835  1.1707 -0.6771  0.0134
 2663SOL     OW19447   0.990   1.489   8.598  0.4229 -0.8855  0.0612
 2663SOL    HW119448   0.918   1.487   8.661 -0.9822 -2.0815 -1.5524
 2663SOL    HW219449   1.046   1.552   8.642  2.7084 -2.1314 -1.0363
 2664SOL     OW19450   0.124   2.824  12.984 -0.7309  0.8045  0.1327
 2664SOL    HW119451   0.083   2.740  13.004  0.8601 -0.2798 -1.0824
 2664SOL    HW219452   0.084   2.856  12.903 -0.3061 -2.0510 -1.2047
 2665SOL     OW19453   4.672   1.173   8.415  0.3873 -1.0655 -0.3434
 2665SOL    HW119454   4.665   1.147   8.507 -0.8668 -1.6490 -0.6021
 2665SOL    HW219455   4.598   1.232   8.399  1.7504  0.5079 -0.7820
 2666SOL     OW19456   3.043   2.943   3.652 -0.2582 -0.2485  0.1668
 2666SOL    HW119457   3.055   2.902   3.566 -1.4313 -1.0053  0.3630
 2666SOL    HW219458   3.123   2.995   3.646 -1.0935  0.9480 -0.5887
 2667SOL     OW19459   4.060   2.789   5.750  0.0414  0.4370 -0.2453
 2667SOL    HW119460   4.030   2.874   5.718  0.3344  0.6602  0.0730
 2667SOL    HW219461   4.155   2.791   5.736  0.0718 -2.4418 -0.3016
 2668SOL     OW19462   1.360   3.605  15.825 -0.1632  0.3956 -0.3009
 2668SOL    HW119463   1.372   3.531  15.884  1.9252  1.5950  0.7762
 2668SOL    HW219464   1.349   3.668  15.896 -0.7380  0.0368 -0.0682
 2669SOL     OW19465   0.631   0.934   3.066  0.3095  0.1466  0.5092
 2669SOL    HW119466   0.582   0.939   3.148 -0.8632 -1.2426 -0.1178
 2669SOL    HW219467   0.615   1.022   3.030 -0.4408  0.4678  1.6400
 2670SOL     OW19468   0.079   3.228  16.767 -0.2531 -0.3049  0.2563
 2670SOL    HW119469   0.137   3.236  16.691 -0.0106  1.8452  0.6578
 2670SOL    HW219470   0.140   3.202  16.837 -1.0647  1.3559  1.5690
 2671SOL     OW19471   0.181   0.104   4.913  0.2000  0.0740  0.5838
 2671SOL    HW119472   0.273   0.123   4.893  1.3220 -2.2045  3.5335
 2671SOL    HW219473   0.138   0.165   4.853 -0.2100 -2.5055 -1.7621
 2672SOL     OW19474   0.526   3.977   2.895 -0.1047 -0.1936 -0.1657
 2672SOL    HW119475   0.496   3.940   2.812 -0.7858 -1.6299  0.7290
 2672SOL    HW219476   0.621   3.979   2.880 -0.0302  2.5741  0.6608
 2673SOL     OW19477   3.151   1.107   7.366  0.4239 -0.1141 -0.3579
 2673SOL    HW119478   3.088   1.048   7.326  1.3156  1.0160 -3.4410
 2673SOL    HW219479   3.230   1.053   7.368 -0.6957 -1.7229  0.6090
 2674SOL     OW19480   4.039   3.086   5.083  0.2777 -0.2552 -0.1296
 2674SOL    HW119481   3.958   3.123   5.116 -0.1861 -0.9536 -0.5027
 2674SOL    HW219482   4.104   3.146   5.120 -3.2999  3.2572  0.4219
 2675SOL     OW19483   2.300   1.771   4.870  0.3312 -0.2829 -0.2288
 2675SOL    HW119484   2.213   1.763   4.831  1.0249 -0.0276 -1.8353
 2675SOL    HW219485   2.312   1.865   4.854 -2.3993  0.0525 -0.2003
 2676SOL     OW19486   3.163   2.839   9.521 -0.1553  0.1791  0.2739
 2676SOL    HW119487   3.086   2.875   9.566 -0.7522 -0.9828  0.1821
 2676SOL    HW219488   3.123   2.812   9.439  0.2808 -1.7235  0.6916
 2677SOL     OW19489   3.385   0.832   8.694  0.0552  0.1156 -0.4557
 2677SOL    HW119490   3.361   0.914   8.739 -0.4979 -0.7355  0.7942
 2677SOL    HW219491   3.480   0.831   8.708  0.2754  2.5041 -1.8518
 2678SOL     OW19492   4.412   2.062   2.358 -0.1305 -0.5003  0.7227
 2678SOL    HW119493   4.347   1.998   2.329 -0.4929 -0.2794  1.0439
 2678SOL    HW219494   4.477   2.062   2.288 -0.3896 -0.1963  0.4800
 2679SOL     OW19495   2.620   1.189   3.943 -0.1753 -0.4624 -0.5832
 2679SOL    HW119496   2.688   1.123   3.929 -1.8789 -2.5161  0.7960
 2679SOL    HW219497   2.603   1.211   3.851  3.0825  1.3349 -0.7608
 2680SOL     OW19498   2.829   3.529   5.007 -0.2770  0.2188  0.2229
 2680SOL    HW119499   2.767   3.598   5.029  0.2860  1.0072 -0.6663
 2680SOL    HW219500   2.823   3.542   4.912  0.3536  1.2182  0.3205
 2681SOL     OW19501   1.172   4.429   8.700 -0.1550  0.1835  0.2038
 2681SOL    HW119502   1.096   4.418   8.643 -0.5660 -0.2652  0.8394
 2681SOL    HW219503   1.167   4.351   8.756 -0.6080  0.4773  0.5735
 2682SOL     OW19504   1.206   3.175   6.901 -0.4634  0.7016  0.6233
 2682SOL    HW119505   1.151   3.114   6.950  1.1933 -1.9687 -0.7972
 2682SOL    HW219506   1.226   3.236   6.971 -0.3538  0.5646  0.7108
 2683SOL     OW19507   3.846   3.429   2.742  0.5034 -0.0642  0.4263
 2683SOL    HW119508   3.818   3.414   2.652 -0.4613 -2.0265  1.0693
 2683SOL    HW219509   3.770   3.464   2.789 -0.6864  2.6600 -3.4912
 2684SOL     OW19510   2.500   2.671  12.867  0.2543  0.0933  0.1872
 2684SOL    HW119511   2.497   2.764  12.891 -2.4667  0.3158 -1.0442
 2684SOL    HW219512   2.515   2.632  12.953  0.8380  1.4931  0.7278
 2685SOL     OW19513   4.109   1.746   6.928  0.3304  0.2365 -0.2658
 2685SOL    HW119514   4.028   1.728   6.881 -0.9626 -0.6196  2.3116
 2685SOL    HW219515   4.136   1.657   6.949 -0.5057  0.5631  2.1689
 2686SOL     OW19516   1.471   3.740   8.344  0.8386  0.1245 -0.3998
 2686SOL    HW119517   1.420   3.790   8.280  0.3435  0.4979  0.2843
 2686SOL    HW219518   1.561   3.760   8.319  2.5319 -2.9033  3.2057
 2687SOL     OW19519   2.448   2.675   7.168 -0.2776  0.5218  0.0152
 2687SOL    HW119520   2.383   2.647   7.103  0.3300  0.2549 -0.4788
 2687SOL    HW219521   2.496   2.594   7.187 -1.5589 -0.0389  0.8486
 2688SOL     OW19522   0.191   1.883  12.321  0.2009  0.1964 -0.7277
 2688SOL    HW119523   0.147   1.829  12.256 -2.3590 -0.6812  1.7359
 2688SOL    HW219524   0.113   1.893  12.376  1.4554  0.9756  0.9044
 2689SOL     OW19525   3.588   0.995  13.271  0.3153  0.2287  0.6838
 2689SOL    HW119526   3.556   0.973  13.359  0.3802  1.1989  0.9520
 2689SOL    HW219527   3.667   0.946  13.294  0.1820 -0.6650 -0.7425
 2690SOL     OW19528   1.454   4.321  12.436  0.4301 -0.5716 -0.1186
 2690SOL    HW119529   1.370   4.363  12.455  0.0889 -0.1209 -2.6277
 2690SOL    HW219530   1.502   4.382  12.492  2.3214 -1.9530 -0.2542
 2691SOL     OW19531   1.322   4.710   9.525 -0.2677  1.1157  0.6895
 2691SOL    HW119532   1.256   4.699   9.594  0.2168 -0.4692  0.9040
 2691SOL    HW219533   1.273   0.036   9.463  0.3584 -0.7426 -1.3916
 2692SOL     OW19534   4.509   2.885  10.981  0.3189  0.2680  0.3933
 2692SOL    HW119535   4.477   2.822  11.045 -1.5833 -1.0306 -1.8058
 2692SOL    HW219536   4.448   2.956  10.995 -0.3645 -0.4487  1.0191
 2693SOL     OW19537   4.509   2.742   7.586  0.7287  0.1484  0.1125
 2693SOL    HW119538   4.446   2.751   7.514 -0.7761  2.1217  1.6634
 2693SOL    HW219539   4.465   2.780   7.662  0.5307 -1.1252  0.6291
 2694SOL     OW19540   2.446   3.090   4.428 -0.3184  0.3882  0.1527
 2694SOL    HW119541   2.472   3.162   4.486 -0.1073 -0.1187  0.6808
 2694SOL    HW219542   2.532   3.079   4.387  0.0907  1.5355  0.6988
 2695SOL     OW19543   4.578   2.154   7.208  0.1006  0.2679 -0.0126
 2695SOL    HW119544   4.563   2.221   7.275  0.8700  0.2778  0.1443
 2695SOL    HW219545   4.638   2.195   7.146 -0.0050 -1.0573 -0.9879
 2696SOL     OW19546   4.225   3.385   7.360 -0.4025 -0.2611  0.0159
 2696SOL    HW119547   4.290   3.427   7.304  1.1652  1.6318  3.3280
 2696SOL    HW219548   4.194   3.315   7.301  1.9233 -1.5212  0.3065
 2697SOL     OW19549   3.754   1.665   4.288  0.4866  0.0678 -0.2075
 2697SOL    HW119550   3.747   1.691   4.196 -0.9894 -3.0337 -0.9686
 2697SOL    HW219551   3.848   1.649   4.287  0.1639 -1.8279 -1.3122
 2698SOL     OW19552   2.090   2.454  17.253 -0.4927  0.2274  0.0156
 2698SOL    HW119553   2.065   2.545  17.237  0.1267  0.0404 -1.9918
 2698SOL    HW219554   2.009   2.405  17.246  0.6889 -1.5646 -0.9494
 2699SOL     OW19555   1.347   3.772   3.072  0.0749  0.0740 -0.0680
 2699SOL    HW119556   1.318   3.829   3.143 -0.1142  2.7870 -2.3142
 2699SOL    HW219557   1.354   3.683   3.107  4.5218  0.2457 -0.5633
 2700SOL     OW19558   3.748   2.229   5.041 -0.2051 -0.3762 -0.2443
 2700SOL    HW119559   3.677   2.275   4.997  0.4217 -2.5041 -3.4812
 2700SOL    HW219560   3.816   2.204   4.979  2.6392 -3.3330  4.0668
 2701SOL     OW19561   0.000   2.425  14.258 -0.3159  0.4817 -0.2149
 2701SOL    HW119562   0.011   2.338  14.221 -0.2885  0.0290  0.8684
 2701SOL    HW219563   4.633   2.431  14.238 -0.3321 -2.3369 -0.9917
 2702SOL     OW19564   1.721   0.814   5.094 -0.0473 -0.2243  0.1130
 2702SOL    HW119565   1.690   0.800   5.005 -0.6512  1.3228  0.0919
 2702SOL    HW219566   1.658   0.760   5.142 -2.6860  1.9012 -0.9480
 2703SOL     OW19567   1.172   1.685   5.388  0.1649  0.4223 -0.2735
 2703SOL    HW119568   1.170   1.604   5.439 -0.4641 -0.4124 -1.6201
 2703SOL    HW219569   1.181   1.652   5.298  0.6726 -0.8816  0.2534
 2704SOL     OW19570   1.242   1.212  10.596 -0.2463 -0.3543  0.2022
 2704SOL    HW119571   1.338   1.215  10.593 -0.1808 -1.3283  1.5357
 2704SOL    HW219572   1.209   1.248  10.513  2.3857 -1.6521 -1.4079
 2705SOL     OW19573   3.781   2.099   6.089  0.0412 -0.2393 -0.6234
 2705SOL    HW119574   3.708   2.136   6.138  0.2566  1.0839 -1.3332
 2705SOL    HW219575   3.825   2.070   6.170 -2.0728  2.6466  1.5583
 2706SOL     OW19576   1.238   1.168  10.278 -0.3995  0.0548 -0.0571
 2706SOL    HW119577   1.189   1.249  10.266  1.5553  1.4552  1.5336
 2706SOL    HW219578   1.303   1.189  10.345 -0.5764  2.7692 -0.7563
 2707SOL     OW19579   3.914   2.209   4.636 -0.1860  0.4779  0.3275
 2707SOL    HW119580   3.903   2.227   4.543 -2.2441 -0.6531  0.3359
 2707SOL    HW219581   3.837   2.153   4.646  0.8877 -1.0724 -0.0039
 2708SOL     OW19582   0.217   3.989  17.614 -0.1443 -0.0044  0.5724
 2708SOL    HW119583   0.304   3.949  17.617 -0.2983 -0.4990 -1.1972
 2708SOL    HW219584   0.174   3.971  17.698 -0.3146 -0.9730  0.2847
 2709SOL     OW19585   4.103   3.321   1.472 -0.4740  0.1193  0.0976
 2709SOL    HW119586   4.198   3.321   1.465 -0.4691 -2.0868  0.0249
 2709SOL    HW219587   4.089   3.401   1.522 -0.6775  0.5782 -0.6990
 2710SOL     OW19588   3.761   2.286   0.364 -0.7192  0.8827  0.2374
 2710SOL    HW119589   3.815   2.365   0.367 -1.4398  1.4187 -1.3754
 2710SOL    HW219590   3.827   2.228   0.326 -1.4132 -0.1387  0.6085
 2711SOL     OW19591   2.716   4.396   4.739 -0.2843  0.5514  0.4329
 2711SOL    HW119592   2.708   4.462   4.808 -2.2582  1.0762 -0.3077
 2711SOL    HW219593   2.713   4.455   4.664  1.0395 -0.5514 -0.4882
 2712SOL     OW19594   3.054   4.722   6.402  0.4554  0.1384 -0.0619
 2712SOL    HW119595   3.054   0.055   6.327 -0.5252 -0.5665 -0.6217
 2712SOL    HW219596   2.963   0.012   6.428  0.0627 -1.0075 -0.6919
 2713SOL     OW19597   2.547   4.271  11.443 -0.1193 -0.5368 -0.3696
 2713SOL    HW119598   2.549   4.361  11.477 -2.1115 -0.7567  0.3377
 2713SOL    HW219599   2.615   4.262  11.377 -0.5299  0.8662 -0.9791
 2714SOL     OW19600   0.218   0.028  12.183 -0.5369 -0.0231 -0.0470
 2714SOL    HW119601   0.183   0.116  12.168 -1.5984 -0.2660  0.9818
 2714SOL    HW219602   0.171   0.007  12.264 -2.6445 -0.0527 -1.2694
 2715SOL     OW19603   3.798   3.524   7.130  0.6920 -0.3237 -0.2669
 2715SOL    HW119604   3.767   3.504   7.218  0.3871  1.3351  0.0042
 2715SOL    HW219605   3.714   3.553   7.094 -0.0727 -0.6792  1.2343
 2716SOL     OW19606   3.071   0.135   7.737  0.0265 -0.0445  0.0108
 2716SOL    HW119607   3.012   0.185   7.794 -0.6478  1.1435 -1.7066
 2716SOL    HW219608   3.108   0.075   7.801  0.2705 -0.7958 -0.8370
 2717SOL     OW19609   1.614   1.593  15.667  0.0774 -0.0722  0.0032
 2717SOL    HW119610   1.685   1.624  15.611  0.3979 -0.4314  0.2198
 2717SOL    HW219611   1.562   1.673  15.676 -2.8534 -2.1257  1.2632
 2718SOL     OW19612   0.879   2.140   9.212  0.1167  0.2713  0.4037
 2718SOL    HW119613   0.941   2.098   9.271 -0.8889 -0.9807  0.5772
 2718SOL    HW219614   0.920   2.140   9.125 -1.0207  2.8751 -0.1393
 2719SOL     OW19615   4.312   3.683  11.150  0.0500  0.1019  0.0556
 2719SOL    HW119616   4.384   3.668  11.211  0.9943 -1.0392 -1.3348
 2719SOL    HW219617   4.273   3.596  11.150 -1.7312  0.9030 -0.9044
 2720SOL     OW19618   4.005   0.047   6.162  0.0375  0.0627 -0.1801
 2720SOL    HW119619   3.992   0.134   6.199  1.6050 -0.1343  0.8345
 2720SOL    HW219620   3.955   4.714   6.218  1.0895 -1.6906 -1.0769
 2721SOL     OW19621   1.353   4.447  13.784  0.7506 -0.2819 -0.3391
 2721SOL    HW119622   1.441   4.429  13.816  0.2173  2.7391  2.7891
 2721SOL    HW219623   1.330   4.524  13.836 -1.7438 -1.1624 -0.1234
 2722SOL     OW19624   0.454   4.524   5.567 -0.4725 -0.1505  0.0543
 2722SOL    HW119625   0.405   4.522   5.649 -0.6467 -1.5695 -0.0860
 2722SOL    HW219626   0.473   4.431   5.554 -1.6194 -0.4077  0.1512
 2723SOL     OW19627   1.770   1.480   0.928 -0.0222  0.0881 -0.0050
 2723SOL    HW119628   1.697   1.445   0.877  0.5155 -1.2609  0.1635
 2723SOL    HW219629   1.783   1.404   0.985 -0.7497  0.5241  0.7467
 2724SOL     OW19630   0.320   0.541   6.668  0.1227 -0.4263 -0.3395
 2724SOL    HW119631   0.374   0.555   6.591  1.1595 -1.4190  0.1993
 2724SOL    HW219632   0.324   0.447   6.653  0.3468 -0.1981 -1.6937
 2725SOL     OW19633   3.277   4.023  15.747  0.4218 -0.3655 -0.6053
 2725SOL    HW119634   3.268   3.928  15.735  0.3510 -0.9746  4.4572
 2725SOL    HW219635   3.353   4.048  15.694  1.8545 -3.6834 -0.1031
 2726SOL     OW19636   3.587   1.983  15.647 -0.5702 -0.0295 -0.5766
 2726SOL    HW119637   3.563   2.073  15.629  1.8127  0.7733  0.1939
 2726SOL    HW219638   3.677   1.985  15.680  0.0005 -0.6598 -2.0742
 2727SOL     OW19639   1.815   3.838   2.956 -0.2569  0.0212  0.5501
 2727SOL    HW119640   1.837   3.824   2.864  0.1336  1.0238  0.4899
 2727SOL    HW219641   1.731   3.793   2.960  0.1131 -0.8607 -1.7713
 2728SOL     OW19642   2.083   4.581   6.628 -0.1738  0.1506 -0.6091
 2728SOL    HW119643   2.039   4.496   6.623 -0.4716  0.3422 -1.1277
 2728SOL    HW219644   2.013   4.645   6.622 -0.4425  0.1938  2.6668
 2729SOL     OW19645   0.607   0.040   3.694 -0.8477  0.4715  0.2986
 2729SOL    HW119646   0.691   0.069   3.658  0.6434 -2.0340  1.8055
 2729SOL    HW219647   0.597   4.679   3.655 -1.1610  0.6481 -0.0158
 2730SOL     OW19648   3.101   3.810   3.653  0.2610  0.9338  0.7559
 2730SOL    HW119649   3.175   3.861   3.685  1.3670  1.3750 -2.4420
 2730SOL    HW219650   3.032   3.876   3.656 -0.1190  0.6307 -0.8147
 2731SOL     OW19651   0.244   3.761   3.663 -0.3304 -0.6249 -0.5248
 2731SOL    HW119652   0.330   3.795   3.687 -0.2356 -2.4232  1.7254
 2731SOL    HW219653   0.236   3.807   3.579  2.9171  1.5509  0.3442
 2732SOL     OW19654   3.395   0.156   3.425 -0.0980  0.1353  0.3989
 2732SOL    HW119655   3.451   0.089   3.464  1.2854  2.0544  1.7672
 2732SOL    HW219656   3.416   0.150   3.332  0.9287 -1.1295  0.7176
 2733SOL     OW19657   0.014   2.710   2.119 -0.0564 -0.2684 -0.6028
 2733SOL    HW119658   4.720   2.631   2.070  1.7626 -0.1492 -1.5532
 2733SOL    HW219659   4.718   2.684   2.209  1.8688 -2.0186 -0.6277
 2734SOL     OW19660   3.123   3.281   1.898 -0.9278  0.1008  0.1283
 2734SOL    HW119661   3.042   3.240   1.928  0.4036 -1.4979  1.4869
 2734SOL    HW219662   3.174   3.275   1.979 -2.1330 -0.0702  0.8821
 2735SOL     OW19663   4.694   3.277   5.728 -0.1707 -0.0657 -0.2642
 2735SOL    HW119664   4.622   3.260   5.668  0.0347  2.1110 -1.1424
 2735SOL    HW219665   4.706   3.372   5.718 -0.7134  0.0555  0.2729
 2736SOL     OW19666   0.735   1.849  10.907  0.2928  0.0854 -0.3087
 2736SOL    HW119667   0.791   1.789  10.955  0.8777  0.6559 -0.2819
 2736SOL    HW219668   0.657   1.803  10.939 -0.4532  1.0975 -0.6708
 2737SOL     OW19669   4.264   0.926   5.501  0.2115 -0.2149 -0.8650
 2737SOL    HW119670   4.358   0.916   5.488  0.1083 -1.4993 -0.5841
 2737SOL    HW219671   4.238   0.960   5.416 -2.2965 -1.7379 -0.7322
 2738SOL     OW19672   3.690   4.237  14.185 -0.1593  0.2088  0.8800
 2738SOL    HW119673   3.647   4.157  14.213 -0.2048 -1.6644 -4.5651
 2738SOL    HW219674   3.749   4.245  14.260  2.1641 -0.7617 -0.8230
 2739SOL     OW19675   3.915   3.966   4.637  0.2294  0.0565  0.3282
 2739SOL    HW119676   3.849   3.931   4.696  1.3309 -0.4878  1.2391
 2739SOL    HW219677   3.994   3.913   4.649  0.0296 -0.4222 -0.4547
 2740SOL     OW19678   1.150   0.948   8.395 -0.4910  0.8461  0.1059
 2740SOL    HW119679   1.164   0.854   8.386 -0.1016  0.9177 -0.0719
 2740SOL    HW219680   1.125   0.953   8.487 -0.2921 -0.1526  0.2069
 2741SOL     OW19681   0.172   4.361   2.561  0.5538 -0.1632 -0.2442
 2741SOL    HW119682   0.193   4.287   2.504  1.8609  2.3006 -2.9092
 2741SOL    HW219683   0.214   4.433   2.515  3.6549 -1.8305 -0.0167
 2742SOL     OW19684   0.166   1.992   1.546 -0.1186 -0.5679 -0.3687
 2742SOL    HW119685   0.246   2.042   1.530  0.1113  0.0105  2.7647
 2742SOL    HW219686   0.133   1.983   1.456 -0.7994 -2.3170  0.0549
 2743SOL     OW19687   0.850   1.148   2.738 -0.1102 -0.1785 -0.0443
 2743SOL    HW119688   0.811   1.147   2.651 -1.3422 -0.1663  0.5160
 2743SOL    HW219689   0.780   1.186   2.791  1.1226  0.8211  0.8536
 2744SOL     OW19690   4.525   0.869   2.965 -0.2744 -0.6232  0.3319
 2744SOL    HW119691   4.528   0.952   3.012 -0.0025 -0.8816  0.7739
 2744SOL    HW219692   4.579   0.819   3.026  0.8211 -1.3621 -1.2369
 2745SOL     OW19693   3.285   1.945  12.482 -0.0687  1.4063  0.2304
 2745SOL    HW119694   3.273   1.870  12.424  0.2764  0.6273  1.1569
 2745SOL    HW219695   3.286   2.013  12.415  2.2284  2.5163  1.3683
 2746SOL     OW19696   1.503   4.206  11.258 -0.1002 -1.3404 -0.2593
 2746SOL    HW119697   1.411   4.178  11.259 -0.5470  0.0085 -1.8311
 2746SOL    HW219698   1.557   4.129  11.272  0.9430 -0.6288 -0.3345
 2747SOL     OW19699   0.824   4.146   5.795 -0.3652 -0.1762 -0.0064
 2747SOL    HW119700   0.759   4.077   5.781 -0.3462 -0.1955  0.0009
 2747SOL    HW219701   0.813   4.190   5.711 -0.4277 -0.9330 -0.3894
 2748SOL     OW19702   3.898   0.860   5.033  0.1400 -0.0105  0.1213
 2748SOL    HW119703   3.831   0.859   5.102  0.1022 -1.9597  0.0444
 2748SOL    HW219704   3.873   0.927   4.969  1.6807 -0.5532 -1.0607
 2749SOL     OW19705   1.276   4.626  14.098  0.2621  0.5376  0.0787
 2749SOL    HW119706   1.281   4.532  14.111  3.8824  0.7143 -0.0631
 2749SOL    HW219707   1.331   4.643  14.176 -0.6081 -1.2644  1.0699
 2750SOL     OW19708   2.560   2.860  11.394 -0.0336  0.1275 -0.5975
 2750SOL    HW119709   2.595   2.945  11.422  1.8653 -1.1150  0.7956
 2750SOL    HW219710   2.614   2.842  11.317 -2.6184  1.0008 -2.5893
 2751SOL     OW19711   2.236   2.231   3.837  0.4839  0.5073  0.8385
 2751SOL    HW119712   2.329   2.216   3.818 -0.9126  0.6744 -6.0078
 2751SOL    HW219713   2.218   2.208   3.928  2.2758 -1.8893  0.5817
 2752SOL     OW19714   3.388   4.102   5.274 -0.1085  0.4991  0.0519
 2752SOL    HW119715   3.401   4.195   5.257 -1.9033  0.3868 -1.9454
 2752SOL    HW219716   3.305   4.101   5.225  0.2505  1.5960 -0.5813
 2753SOL     OW19717   0.942   0.481   4.125  0.2885 -0.6225  0.0877
 2753SOL    HW119718   0.949   0.496   4.219  1.9709 -0.2026 -0.1105
 2753SOL    HW219719   0.879   0.551   4.104 -0.8765 -0.8644  2.9155
 2754SOL     OW19720   4.630   3.987  15.849 -0.5113 -0.3014 -0.3284
 2754SOL    HW119721   4.710   3.991  15.797 -0.2495  0.2757  0.1223
 2754SOL    HW219722   4.597   4.075  15.829 -2.4721 -0.9132  0.1220
 2755SOL     OW19723   0.424   1.334   8.732 -0.0122  0.2911  0.7004
 2755SOL    HW119724   0.339   1.378   8.742 -0.3860 -0.1314 -0.6117
 2755SOL    HW219725   0.439   1.346   8.639  0.3808 -2.2747  0.4558
 2756SOL     OW19726   2.225   1.319   7.125  0.4864 -0.0326  0.5205
 2756SOL    HW119727   2.176   1.237   7.119  1.2465 -0.5205  0.8957
 2756SOL    HW219728   2.226   1.341   7.032  0.5985 -2.2258 -0.0015
 2757SOL     OW19729   2.718   4.423  13.998 -0.2360 -0.0401  0.9494
 2757SOL    HW119730   2.812   4.424  14.015  0.2192  1.4051 -1.5678
 2757SOL    HW219731   2.707   4.481  13.922  0.8721 -0.7583  0.2365
 2758SOL     OW19732   2.095   0.650  17.364 -0.4774 -0.3799  0.0462
 2758SOL    HW119733   2.148   0.652  17.444  0.6178 -0.6120 -0.6745
 2758SOL    HW219734   2.160   0.671  17.297 -0.0779  1.2271  0.9490
 2759SOL     OW19735   1.199   1.571   2.994  0.5649  0.0823 -0.1520
 2759SOL    HW119736   1.277   1.560   3.049  0.4216 -3.0423 -0.5498
 2759SOL    HW219737   1.215   1.659   2.960 -3.0023  0.2061 -1.4395
 2760SOL     OW19738   2.034   4.533   5.517  0.1597  0.8559  0.2189
 2760SOL    HW119739   1.950   4.537   5.562 -0.4357 -2.2289 -0.6276
 2760SOL    HW219740   2.006   4.559   5.430  0.4295  0.3813 -0.0098
 2761SOL     OW19741   2.611   1.184  13.900 -0.4025  0.0637 -0.0270
 2761SOL    HW119742   2.542   1.211  13.960 -1.0533 -2.0702  0.1679
 2761SOL    HW219743   2.557   1.116  13.858  3.1003 -0.5528 -3.5406
 2762SOL     OW19744   2.567   3.902   2.487  0.2045  0.0707 -0.3303
 2762SOL    HW119745   2.506   3.861   2.548  2.3395  1.9553  3.0977
 2762SOL    HW219746   2.641   3.842   2.476  0.6315  0.6032 -0.4001
 2763SOL     OW19747   4.310   1.639  15.844  0.5659  0.0558 -0.1084
 2763SOL    HW119748   4.257   1.662  15.920 -1.1521 -1.8120 -0.7276
 2763SOL    HW219749   4.352   1.560  15.878  2.0771  0.0286 -2.0419
 2764SOL     OW19750   2.419   0.448  15.833  0.1556  0.4446  0.1645
 2764SOL    HW119751   2.429   0.525  15.778  0.0454  0.7869  0.6264
 2764SOL    HW219752   2.463   0.479  15.913 -1.2479  1.6182  0.4885
 2765SOL     OW19753   3.033   4.188  10.290 -0.2008 -0.3835 -0.0269
 2765SOL    HW119754   3.009   4.253  10.224 -1.5147 -2.3776 -1.5254
 2765SOL    HW219755   3.061   4.121  10.227 -2.1660 -1.6242  0.4209
 2766SOL     OW19756   1.564   0.619   2.877  0.5381  0.7026 -0.5956
 2766SOL    HW119757   1.474   0.646   2.898  0.3760 -0.6227  0.4751
 2766SOL    HW219758   1.567   0.632   2.783 -0.0277 -0.7993 -0.8241
 2767SOL     OW19759   3.564   3.337   6.844 -0.4137 -0.1552 -0.1022
 2767SOL    HW119760   3.648   3.315   6.805 -0.1264 -0.7594  0.8545
 2767SOL    HW219761   3.507   3.331   6.768 -0.8251 -0.8023  0.2533
 2768SOL     OW19762   4.260   1.067   3.085 -0.1373  0.6469 -0.4770
 2768SOL    HW119763   4.299   1.136   3.031  4.8446  1.6867  4.4269
 2768SOL    HW219764   4.198   1.022   3.027 -0.2685  0.5777 -0.2828
 2769SOL     OW19765   1.690   1.830   4.662 -0.0951 -0.1822  0.5938
 2769SOL    HW119766   1.690   1.895   4.732  1.2153  0.0576  0.3540
 2769SOL    HW219767   1.694   1.879   4.580  0.2534  0.0728  0.7667
 2770SOL     OW19768   1.853   1.502   7.622  0.0693 -0.3594  0.3038
 2770SOL    HW119769   1.780   1.557   7.594  0.4469 -0.4141 -0.7567
 2770SOL    HW219770   1.801   1.435   7.667  0.3486 -1.0062 -0.3412
 2771SOL     OW19771   1.601   2.332   4.245  0.2686 -0.5234 -0.2279
 2771SOL    HW119772   1.512   2.360   4.222  0.2613 -1.0664 -0.8619
 2771SOL    HW219773   1.650   2.330   4.163 -2.3330  1.0125 -1.8391
 2772SOL     OW19774   1.506   1.046   3.471 -0.5246 -0.3311  0.7683
 2772SOL    HW119775   1.438   0.985   3.500 -0.5798 -0.9627 -0.6863
 2772SOL    HW219776   1.495   1.052   3.376  2.5256  2.3373  0.5740
 2773SOL     OW19777   0.064   0.557   0.310 -0.2372 -0.5063 -0.0228
 2773SOL    HW119778   0.088   0.508   0.231  0.6299  1.9429 -1.2797
 2773SOL    HW219779   0.098   0.640   0.278 -0.1457 -2.0788 -4.0068
 2774SOL     OW19780   0.078   0.985   3.557 -0.4487 -0.0456 -0.3417
 2774SOL    HW119781   0.086   1.066   3.506  1.1196  0.3212  0.4736
 2774SOL    HW219782   0.041   0.929   3.489 -0.5627 -2.0417  1.3637
 2775SOL     OW19783   0.743   4.071   2.299  0.3063 -0.0306  0.8157
 2775SOL    HW119784   0.823   4.053   2.251 -0.2480  0.7579 -0.4215
 2775SOL    HW219785   0.708   4.150   2.257 -1.6747 -0.7117  1.1762
 2776SOL     OW19786   1.967   2.280   8.858 -0.0715  0.3895  0.2276
 2776SOL    HW119787   1.878   2.315   8.852 -0.0398  0.4625  0.1813
 2776SOL    HW219788   1.992   2.326   8.938 -1.1645  1.2793  0.0617
 2777SOL     OW19789   2.796   3.023  12.932 -0.4747 -0.3520  0.0623
 2777SOL    HW119790   2.854   3.081  12.981 -1.0083 -1.6253  2.1783
 2777SOL    HW219791   2.854   2.977  12.872  0.1277 -1.7880  1.7733
 2778SOL     OW19792   0.215   0.126   0.685 -0.1915 -0.2118 -0.2840
 2778SOL    HW119793   0.284   0.181   0.722 -0.0129 -0.2072 -0.6166
 2778SOL    HW219794   0.187   0.087   0.767 -0.0252  0.2860  0.0068
 2779SOL     OW19795   1.945   2.596   5.464  0.4385  0.2737 -0.1105
 2779SOL    HW119796   1.935   2.687   5.493 -0.8199 -0.3550  1.4594
 2779SOL    HW219797   2.002   2.602   5.388  0.5686 -0.9697 -0.1177
 2780SOL     OW19798   3.945   0.518   3.118 -0.0607 -0.1641  0.0188
 2780SOL    HW119799   3.943   0.536   3.212 -0.4211  0.0738 -0.0357
 2780SOL    HW219800   3.893   0.588   3.079  1.0003 -0.3173 -1.6885
 2781SOL     OW19801   1.335   2.419   6.047  0.2615  0.3524  0.2443
 2781SOL    HW119802   1.380   2.446   5.967  0.6449 -1.4698 -0.1468
 2781SOL    HW219803   1.248   2.393   6.017  0.8524 -1.1104 -0.1932
 2782SOL     OW19804   4.322   1.496   1.975  0.7419  0.0402 -0.1371
 2782SOL    HW119805   4.363   1.503   1.889  0.5105 -2.5160 -0.4417
 2782SOL    HW219806   4.293   1.587   1.978  0.9469  0.1123 -0.3987
 2783SOL     OW19807   4.541   4.099   0.176 -0.4381 -0.3217  0.0186
 2783SOL    HW119808   4.635   4.082   0.179 -0.4727 -0.6530 -0.7716
 2783SOL    HW219809   4.510   4.045   0.248  2.1292 -0.3643  1.1051
 2784SOL     OW19810   2.713   4.481  16.380  0.4488 -0.1840  0.1965
 2784SOL    HW119811   2.722   4.386  16.391  1.3415  0.0470  1.4787
 2784SOL    HW219812   2.805   4.500  16.401 -0.1129  2.0225  0.5767
 2785SOL     OW19813   3.238   0.961   9.921  0.3756  0.1916 -0.4244
 2785SOL    HW119814   3.146   0.963   9.894  0.0444 -0.3653  0.6608
 2785SOL    HW219815   3.262   1.054   9.914  2.4505 -0.2599  0.6366
 2786SOL     OW19816   1.337   4.380   9.013  0.0834 -0.2233  0.0011
 2786SOL    HW119817   1.344   4.319   9.086  0.7831 -0.6159 -0.3943
 2786SOL    HW219818   1.350   4.315   8.944 -1.0983 -1.2196  0.7025
 2787SOL     OW19819   0.853   0.831  13.390 -0.3561  0.4762 -0.1400
 2787SOL    HW119820   0.924   0.841  13.326  0.6348  0.4612  0.9590
 2787SOL    HW219821   0.850   0.736  13.377  2.0759  0.0120  2.8112
 2788SOL     OW19822   1.265   1.084   9.061 -0.1402  0.3620 -0.4727
 2788SOL    HW119823   1.319   1.149   9.106 -1.8476 -0.3531  2.5840
 2788SOL    HW219824   1.294   0.999   9.094  2.5486  2.4623  2.5726
 2789SOL     OW19825   1.036   2.505  11.358  0.0073  0.1611 -0.0235
 2789SOL    HW119826   0.971   2.514  11.288 -0.7978  1.0651  0.8480
 2789SOL    HW219827   1.010   2.570  11.422 -0.5373  1.5803 -1.6811
 2790SOL     OW19828   2.696   0.588   8.688 -0.1707  0.2788  0.3461
 2790SOL    HW119829   2.611   0.630   8.702  0.0865  1.0018 -0.2208
 2790SOL    HW219830   2.688   0.505   8.735  0.4889 -0.3943 -0.7278
 2791SOL     OW19831   2.143   3.130  12.440  0.4798  0.4088  0.2554
 2791SOL    HW119832   2.219   3.072  12.444  0.1339 -0.3090 -3.2663
 2791SOL    HW219833   2.164   3.217  12.475 -3.6014  0.9377  1.4855
 2792SOL     OW19834   1.594   4.368   6.063  0.0717  0.5007  0.1581
 2792SOL    HW119835   1.593   4.292   6.004 -1.0551  0.0554  0.7645
 2792SOL    HW219836   1.690   4.374   6.056  0.0575 -0.3542 -0.8960
 2793SOL     OW19837   3.857   0.449   7.023 -0.2451 -0.1165  0.4289
 2793SOL    HW119838   3.806   0.453   7.104 -0.9390 -1.9498  0.0818
 2793SOL    HW219839   3.946   0.434   7.053  0.1451 -2.5341 -1.9122
 2794SOL     OW19840   0.958   4.112  12.991  0.7223  0.4196  0.0672
 2794SOL    HW119841   1.031   4.136  13.048 -0.1286  0.3178  1.1961
 2794SOL    HW219842   0.914   4.197  12.992 -0.0198  0.0384 -0.6336
 2795SOL     OW19843   3.767   2.680   7.808  0.3624 -0.8247  0.0020
 2795SOL    HW119844   3.756   2.674   7.903 -0.1017 -2.9942 -0.1849
 2795SOL    HW219845   3.810   2.596   7.791 -1.1054 -1.4432 -0.6875
 2796SOL     OW19846   3.000   2.432   8.046 -0.9378 -0.8301  0.3516
 2796SOL    HW119847   2.931   2.492   8.018 -0.5844 -1.7111 -2.3709
 2796SOL    HW219848   3.016   2.383   7.965 -1.9798  3.2873 -2.3604
 2797SOL     OW19849   0.877   4.725   9.222  0.0434 -0.9649 -0.9835
 2797SOL    HW119850   0.945   4.724   9.155  1.5247  1.7069  0.4532
 2797SOL    HW219851   0.831   0.081   9.203 -0.7512 -0.9925  0.8780
 2798SOL     OW19852   2.536   0.044  16.662  0.0722 -0.9171  0.7978
 2798SOL    HW119853   2.558   0.137  16.656  0.5971 -1.1208 -0.4391
 2798SOL    HW219854   2.603   0.013  16.723  0.1431 -1.0293  0.6627
 2799SOL     OW19855   2.806   1.743   6.363  0.2612  0.6298 -0.1204
 2799SOL    HW119856   2.869   1.699   6.420 -0.5967 -1.6260 -0.9472
 2799SOL    HW219857   2.739   1.773   6.424 -1.3590 -1.3379 -0.9388
 2800SOL     OW19858   2.114   4.278   2.934 -0.2777 -0.5021  0.5027
 2800SOL    HW119859   2.048   4.347   2.941 -0.2725 -0.4987  0.5174
 2800SOL    HW219860   2.055   4.206   2.909  1.4135 -1.5580 -0.4536
 2801SOL     OW19861   4.304   1.506   3.080  0.1097 -0.2335  0.1494
 2801SOL    HW119862   4.313   1.586   3.132  2.3628 -1.0861  1.0464
 2801SOL    HW219863   4.395   1.506   3.051 -0.1541 -1.4319 -0.6547
 2802SOL     OW19864   2.041   3.382   2.031  0.4834  0.0078 -0.1664
 2802SOL    HW119865   2.088   3.299   2.024  0.8386  0.2871 -1.0751
 2802SOL    HW219866   2.029   3.416   1.943  0.4736 -2.6450 -1.1770
 2803SOL     OW19867   1.092   0.841   5.246  0.0155  0.7809  0.3352
 2803SOL    HW119868   1.090   0.751   5.214 -1.3786  0.8269  0.3108
 2803SOL    HW219869   1.138   0.878   5.171  0.1325 -2.5918 -1.2631
 2804SOL     OW19870   2.146   0.187   8.699  0.4406  0.7168  0.2102
 2804SOL    HW119871   2.109   0.237   8.626  0.3281 -1.4110 -1.2201
 2804SOL    HW219872   2.212   0.234   8.749  3.1405 -0.2147 -2.4785
 2805SOL     OW19873   0.438   0.996   6.395 -0.1566  0.4664  0.2356
 2805SOL    HW119874   0.491   0.927   6.435  0.7048  1.2772  0.4820
 2805SOL    HW219875   0.482   1.079   6.412  0.9565 -0.0521 -0.1326
 2806SOL     OW19876   0.524   1.238   9.113 -0.1207 -0.6707  0.1074
 2806SOL    HW119877   0.512   1.198   9.027 -0.0184 -0.7265  0.1196
 2806SOL    HW219878   0.488   1.326   9.105 -0.5585 -0.9167 -0.6565
 2807SOL     OW19879   2.474   2.199   7.222  0.1502  0.1043 -0.1953
 2807SOL    HW119880   2.385   2.229   7.242  0.0638 -1.6487  2.0528
 2807SOL    HW219881   2.451   2.109   7.197 -1.4000  0.3384  0.3611
 2808SOL     OW19882   4.654   2.056   2.225 -0.2797  0.2094  0.8260
 2808SOL    HW119883   4.610   1.974   2.203 -1.5554  1.1916 -0.3760
 2808SOL    HW219884   4.628   2.104   2.146 -2.1793  0.8142  1.8206
 2809SOL     OW19885   2.467   3.462   2.654 -0.0470  0.2143 -0.1663
 2809SOL    HW119886   2.396   3.403   2.627  1.8938 -0.6953 -3.2162
 2809SOL    HW219887   2.488   3.489   2.564  2.1279 -2.7753 -0.5594
 2810SOL     OW19888   0.552   2.805   2.730 -0.4050  1.1115 -0.1879
 2810SOL    HW119889   0.588   2.775   2.814 -1.4020 -0.4908 -0.3237
 2810SOL    HW219890   0.521   2.721   2.696 -0.2666  0.6908  0.7010
 2811SOL     OW19891   0.921   4.393   7.039 -0.0294 -0.9912  0.7864
 2811SOL    HW119892   0.928   4.338   7.116  0.1588 -0.5281  1.1010
 2811SOL    HW219893   0.834   4.432   7.047  0.0916  0.1664 -3.1871
 2812SOL     OW19894   1.526   0.465  12.377 -0.6863  0.0332 -0.1991
 2812SOL    HW119895   1.505   0.375  12.354  4.0045 -1.1654  0.0189
 2812SOL    HW219896   1.621   0.467  12.392 -1.0771  1.3229  2.1250
 2813SOL     OW19897   1.435   4.588   1.989  0.5016 -0.2110 -0.0312
 2813SOL    HW119898   1.439   4.525   1.916 -0.6058 -0.7725  0.4016
 2813SOL    HW219899   1.366   4.644   1.953  2.6274  4.1585  2.6664
 2814SOL     OW19900   0.212   2.692  11.306 -0.1164 -0.1011  0.0640
 2814SOL    HW119901   0.124   2.667  11.335 -0.3736  1.0128  0.2413
 2814SOL    HW219902   0.191   2.733  11.222  0.0854  0.3774  0.2490
 2815SOL     OW19903   3.316   3.346  17.555  0.2481 -0.0434  0.2712
 2815SOL    HW119904   3.409   3.358  17.538 -0.8244  1.6583 -4.5083
 2815SOL    HW219905   3.300   3.426  17.605 -0.8414 -0.2822  0.3160
 2816SOL     OW19906   2.962   4.114  16.303 -0.0482 -0.6289  0.0810
 2816SOL    HW119907   2.874   4.084  16.325 -0.8389 -1.0174 -3.5613
 2816SOL    HW219908   2.965   4.070  16.217  1.1950 -0.0900 -0.1593
 2817SOL     OW19909   3.074   0.253   6.934 -0.7070  0.0992 -0.1414
 2817SOL    HW119910   3.129   0.330   6.949 -0.2161 -0.1656 -0.5538
 2817SOL    HW219911   3.137   0.202   6.882  1.0763  1.2659  0.9005
 2818SOL     OW19912   0.945   3.739   5.897  0.3897 -0.0590  0.3468
 2818SOL    HW119913   0.973   3.657   5.856 -0.3708 -1.0696  1.8501
 2818SOL    HW219914   1.029   3.783   5.911 -0.1718  0.8049  1.0186
 2819SOL     OW19915   1.066   3.042   2.052  0.1517 -0.7033 -0.0781
 2819SOL    HW119916   1.063   2.952   2.081  0.3977  0.5534  3.7992
 2819SOL    HW219917   1.161   3.047   2.049  0.1660 -1.9147 -1.6472
 2820SOL     OW19918   2.381   0.610   5.275  0.0443  0.0033 -0.1999
 2820SOL    HW119919   2.450   0.625   5.339 -0.0197 -0.3589 -0.0465
 2820SOL    HW219920   2.351   0.701   5.266 -0.2407 -0.0528  0.1880
 2821SOL     OW19921   0.854   0.803   5.430 -0.0651  0.6391 -0.2091
 2821SOL    HW119922   0.792   0.784   5.360 -1.5597  0.8760  1.0621
 2821SOL    HW219923   0.900   0.719   5.438  1.4972  1.4247 -0.8821
 2822SOL     OW19924   3.350   2.869   3.804 -0.2831 -0.5488  0.1961
 2822SOL    HW119925   3.409   2.923   3.855 -0.8863  0.6101 -0.3472
 2822SOL    HW219926   3.383   2.883   3.715 -2.0776 -0.1109 -0.3973
 2823SOL     OW19927   0.647   4.532   9.162 -0.5242  0.5345 -0.2393
 2823SOL    HW119928   0.640   4.503   9.253 -0.1496 -1.0824 -0.7303
 2823SOL    HW219929   0.733   4.575   9.168  0.4466 -1.2734 -1.1879
 2824SOL     OW19930   3.066   1.745   0.074  0.1298  0.3209 -0.2487
 2824SOL    HW119931   3.088   1.703  17.697 -1.2457 -0.3291 -0.2882
 2824SOL    HW219932   3.154   1.760   0.109 -0.0957  1.0253  0.0193
 2825SOL     OW19933   3.104   0.905  14.433  0.4121  0.6368 -0.1184
 2825SOL    HW119934   3.120   0.994  14.462  1.5715  1.0412 -2.0128
 2825SOL    HW219935   3.139   0.903  14.344 -1.9662 -0.4147 -1.0331
 2826SOL     OW19936   1.699   4.171   2.480 -0.4988  0.1360  0.1341
 2826SOL    HW119937   1.654   4.148   2.399 -1.1914  1.3379  0.1787
 2826SOL    HW219938   1.635   4.133   2.540 -0.7690 -0.5273 -0.5748
 2827SOL     OW19939   1.046   0.795   4.807  0.6216 -0.1556 -0.0952
 2827SOL    HW119940   1.030   0.710   4.767 -0.6717  0.7459 -1.5026
 2827SOL    HW219941   0.996   0.780   4.887  0.4687  1.4547  0.1233
 2828SOL     OW19942   3.584   1.629   8.877  0.4372  0.4245  0.4461
 2828SOL    HW119943   3.580   1.645   8.971 -2.4212 -0.3915  0.4716
 2828SOL    HW219944   3.671   1.668   8.871 -0.0562  1.5934  0.8806
 2829SOL     OW19945   2.892   2.576   6.148 -0.3946  0.2599 -0.2628
 2829SOL    HW119946   2.967   2.606   6.199 -1.2301  1.5742  0.1810
 2829SOL    HW219947   2.814   2.599   6.198 -0.0389  0.1781  0.3286
 2830SOL     OW19948   1.019   0.578   0.372 -0.2218 -0.2017  0.1159
 2830SOL    HW119949   1.037   0.485   0.367 -1.5679 -0.3574 -1.9401
 2830SOL    HW219950   1.086   0.592   0.438 -0.4729  1.2525  0.0756
 2831SOL     OW19951   4.279   2.414   5.842 -0.0270 -0.1543 -0.2994
 2831SOL    HW119952   4.366   2.387   5.815  0.1987 -0.2825  0.5610
 2831SOL    HW219953   4.249   2.453   5.760  0.8860 -0.0755 -0.5878
 2832SOL     OW19954   1.592   4.595   6.247  0.3441 -0.3753 -0.1668
 2832SOL    HW119955   1.582   4.536   6.172 -1.2932  1.7997 -1.7076
 2832SOL    HW219956   1.519   4.654   6.226  1.3060  0.6812 -0.5799
 2833SOL     OW19957   1.443   2.391   8.360  0.4996 -0.5497  0.0156
 2833SOL    HW119958   1.490   2.414   8.280 -0.2603 -1.4910 -0.7088
 2833SOL    HW219959   1.459   2.471   8.410 -0.1822 -1.7502  2.1689
 2834SOL     OW19960   1.050   4.687   0.861 -0.3898 -0.5868  0.3284
 2834SOL    HW119961   1.084   4.606   0.823 -1.9324  0.6153 -3.6235
 2834SOL    HW219962   0.999   4.717   0.785 -0.6093  0.3740  0.8562
 2835SOL     OW19963   0.018   4.661   6.173  0.4544 -0.1416  0.4621
 2835SOL    HW119964   0.020   4.593   6.105 -0.0315  0.1953  0.1148
 2835SOL    HW219965   4.719   4.614   6.253 -1.0528 -1.0672 -0.5565
 2836SOL     OW19966   3.305   4.708   5.739  0.2068  0.2100  0.2618
 2836SOL    HW119967   3.313   4.613   5.730 -0.3415  0.1514  0.3786
 2836SOL    HW219968   3.226   4.716   5.792  0.3258  0.5207  0.3906
 2837SOL     OW19969   2.740   3.683   5.813 -0.1992  0.5438 -0.4141
 2837SOL    HW119970   2.815   3.635   5.848 -1.7222 -0.8445  0.9549
 2837SOL    HW219971   2.766   3.764   5.856  0.2215  0.1355  0.0926
 2838SOL     OW19972   3.919   4.701   3.918 -0.1821  0.7047  0.6290
 2838SOL    HW119973   3.881   0.040   3.977 -1.3448  1.0353 -0.4844
 2838SOL    HW219974   3.942   4.636   3.984 -1.4262 -1.7608 -1.3609
 2839SOL     OW19975   2.788   0.971   3.867 -0.3444  0.2524  0.2534
 2839SOL    HW119976   2.816   0.926   3.946 -0.0260 -0.7401 -0.4284
 2839SOL    HW219977   2.756   0.898   3.813  0.5876 -0.5941  0.8453
 2840SOL     OW19978   0.698   0.314  17.633  0.3997 -0.5664 -0.2060
 2840SOL    HW119979   0.634   0.249  17.605  0.2298 -0.7218  0.5384
 2840SOL    HW219980   0.772   0.262  17.663 -0.0717  0.0037  1.9729
 2841SOL     OW19981   3.430   2.459   4.324  0.3660 -0.2288 -0.2326
 2841SOL    HW119982   3.361   2.453   4.390  0.8399 -1.7061  0.1232
 2841SOL    HW219983   3.465   2.548   4.332  0.4162 -0.3866  1.3153
 2842SOL     OW19984   3.084   4.006  10.633  0.2264 -0.1880  0.3116
 2842SOL    HW119985   3.117   3.948  10.565 -2.8617 -1.4361 -0.1296
 2842SOL    HW219986   3.050   3.937  10.691  0.9562 -1.0250 -0.2669
 2843SOL     OW19987   3.548   1.474   3.846  0.3997 -0.1481  0.2570
 2843SOL    HW119988   3.550   1.555   3.896  0.2583 -0.1769  0.3105
 2843SOL    HW219989   3.461   1.437   3.861  1.2247 -1.3436  2.2322
 2844SOL     OW19990   1.011   2.451   5.970 -0.0868  0.3567 -0.3452
 2844SOL    HW119991   0.945   2.485   6.030 -1.0185 -1.3151 -0.4343
 2844SOL    HW219992   1.057   2.532   5.949 -1.3667  0.9318 -0.9048
 2845SOL     OW19993   3.510   3.516   3.193 -1.0264 -0.1395 -0.1096
 2845SOL    HW119994   3.419   3.500   3.217 -1.9777  2.3964 -2.0526
 2845SOL    HW219995   3.519   3.605   3.225 -3.4060  0.0762 -0.0410
 2846SOL     OW19996   2.842   4.083  15.024  0.3618  0.9717 -0.3553
 2846SOL    HW119997   2.916   4.057  14.969 -0.5983  0.2794 -1.2966
 2846SOL    HW219998   2.857   4.037  15.107 -0.6186  0.8996 -0.2205
 2847SOL     OW19999   3.306   0.467  10.848 -0.7873 -0.2350 -0.0188
 2847SOL    HW120000   3.258   0.461  10.766 -0.8050  0.9131 -0.0910
 2847SOL    HW220001   3.244   0.524  10.894  0.6768  0.1819  1.4268
 2848SOL     OW20002   2.703   3.086   2.801  0.0303 -0.5254 -0.7901
 2848SOL    HW120003   2.663   3.054   2.882  0.9789  0.1609 -0.0494
 2848SOL    HW220004   2.797   3.098   2.817  0.0777  0.0182 -1.4271
 2849SOL     OW20005   4.470   0.056   2.374  0.0819 -0.2345  0.3336
 2849SOL    HW120006   4.414   0.089   2.304  1.1075 -1.6937 -1.1837
 2849SOL    HW220007   4.537   0.125   2.374  0.8736 -0.9916 -1.3833
 2850SOL     OW20008   2.084   4.352   9.222  0.4667 -0.0291  0.4030
 2850SOL    HW120009   2.080   4.257   9.216  0.5059  0.0063 -0.1931
 2850SOL    HW220010   2.177   4.369   9.239  0.7311  0.2253 -1.2565
 2851SOL     OW20011   0.467   0.166   4.587 -0.1538 -0.2275  0.4467
 2851SOL    HW120012   0.553   0.176   4.547 -0.8807  0.7576 -0.8964
 2851SOL    HW220013   0.492   0.169   4.679 -2.6294 -3.0337  1.2232
 2852SOL     OW20014   2.575   1.445  15.042  0.9789  0.8679  0.1387
 2852SOL    HW120015   2.640   1.485  15.099 -0.2534  0.4791  1.8029
 2852SOL    HW220016   2.507   1.420  15.104 -1.1680  1.1495 -2.1138
 2853SOL     OW20017   1.189   4.378   6.526  0.3825  0.5777 -0.2905
 2853SOL    HW120018   1.149   4.450   6.477  1.9480 -0.2087 -2.6945
 2853SOL    HW220019   1.278   4.411   6.539  0.6852  0.0341 -1.0061
 2854SOL     OW20020   0.914   3.545   2.410  0.0545  0.2371 -0.4597
 2854SOL    HW120021   0.840   3.583   2.362 -1.2111 -2.0861 -0.3550
 2854SOL    HW220022   0.982   3.604   2.379  0.1259  1.5401  2.1944
 2855SOL     OW20023   1.735   3.787  15.359  0.8364  0.0652  0.4892
 2855SOL    HW120024   1.645   3.795  15.392  0.4060 -0.4596 -0.5669
 2855SOL    HW220025   1.724   3.763  15.267  0.2504  1.4757  0.1975
 2856SOL     OW20026   4.678   0.335   3.619  0.0360 -0.1405  0.5061
 2856SOL    HW120027   4.686   0.278   3.695 -0.5785  1.9795  2.1565
 2856SOL    HW220028   4.712   0.419   3.650  1.8801  0.3985 -2.9272
 2857SOL     OW20029   4.526   1.176   0.452 -0.0536 -0.2143 -0.4037
 2857SOL    HW120030   4.502   1.117   0.381  0.2074  0.4946 -1.0857
 2857SOL    HW220031   4.521   1.118   0.529  1.0277 -0.9392 -0.8775
 2858SOL     OW20032   4.120   0.166   0.115  0.1313 -0.1151 -0.0669
 2858SOL    HW120033   4.088   0.083   0.151 -1.3208 -0.9010 -3.1755
 2858SOL    HW220034   4.173   0.202   0.186  0.7687 -0.5660 -0.3190
 2859SOL     OW20035   1.225   3.784   5.586  0.2134 -0.2350  0.5457
 2859SOL    HW120036   1.262   3.699   5.610  0.6975  0.1233  1.0540
 2859SOL    HW220037   1.144   3.741   5.557 -0.7181  1.6092  0.4527
 2860SOL     OW20038   3.983   2.494  10.366 -0.5712 -0.1736  0.1820
 2860SOL    HW120039   4.008   2.527  10.280 -0.9434  1.5185  0.7242
 2860SOL    HW220040   3.973   2.401  10.344 -0.8383 -0.7590  2.7836
 2861SOL     OW20041   0.357   0.917   7.093 -0.2828  0.5357 -0.4800
 2861SOL    HW120042   0.416   0.965   7.035  0.5442  2.2205  1.7589
 2861SOL    HW220043   0.301   0.873   7.029 -1.6777  1.8067 -0.1571
 2862SOL     OW20044   0.195   3.147   3.883  0.5165 -0.5356 -0.0690
 2862SOL    HW120045   0.116   3.135   3.935 -0.9416  2.1568 -1.6361
 2862SOL    HW220046   0.152   3.170   3.800  0.5572 -0.3988 -0.0517
 2863SOL     OW20047   3.683   3.315   3.228  0.7467 -0.1330  0.1729
 2863SOL    HW120048   3.616   3.382   3.238  1.0882  0.6138 -2.6758
 2863SOL    HW220049   3.643   3.264   3.158 -0.3073 -1.5420  1.7901
 2864SOL     OW20050   3.561   1.763  16.505  0.7181  0.4104  1.3991
 2864SOL    HW120051   3.541   1.730  16.593 -1.0152  0.9089  1.1852
 2864SOL    HW220052   3.509   1.703  16.452  2.8246  0.6624 -0.9128
 2865SOL     OW20053   2.751   4.718  16.807 -0.0604 -0.1488  0.2529
 2865SOL    HW120054   2.814   0.038  16.861 -0.1554 -0.0438  0.2757
 2865SOL    HW220055   2.798   4.726  16.724  0.2056 -0.3163  0.3892
 2866SOL     OW20056   4.112   1.950   7.086  0.5150 -0.0917 -0.4255
 2866SOL    HW120057   4.189   1.992   7.047  1.1086 -0.9258 -0.1400
 2866SOL    HW220058   4.109   1.871   7.033  2.0846 -0.7573  0.4840
 2867SOL     OW20059   1.566   3.545  16.094  0.4103  0.3468 -0.1814
 2867SOL    HW120060   1.515   3.470  16.063 -0.0974  0.4187  0.4725
 2867SOL    HW220061   1.565   3.597  16.014 -0.9867 -0.5133 -0.7272
 2868SOL     OW20062   1.414   4.645   5.023 -0.3454 -0.5157  0.2803
 2868SOL    HW120063   1.485   4.619   5.081 -1.6191 -3.0790  0.6691
 2868SOL    HW220064   1.429   4.602   4.940 -0.2012 -2.4385  1.3137
 2869SOL     OW20065   3.362   2.752   8.167 -0.7501  0.3346 -0.1948
 2869SOL    HW120066   3.300   2.679   8.177  0.4969 -0.5580  0.9617
 2869SOL    HW220067   3.374   2.768   8.260 -0.6550  0.8875 -0.3058
 2870SOL     OW20068   3.490   3.270   3.932 -0.0031  0.2937 -0.7540
 2870SOL    HW120069   3.526   3.184   3.912  1.6314  1.0048 -0.9081
 2870SOL    HW220070   3.435   3.246   4.006  0.7282 -1.3304 -0.7456
 2871SOL     OW20071   2.554   3.684  17.376 -0.2499  0.3944  0.5642
 2871SOL    HW120072   2.583   3.754  17.435 -0.5227  1.9369 -1.1279
 2871SOL    HW220073   2.581   3.727  17.294 -1.3328 -1.2327 -0.6444
 2872SOL     OW20074   1.735   3.692   8.876  0.6416 -0.2657  0.5210
 2872SOL    HW120075   1.707   3.755   8.942 -1.8989  0.3807 -1.1663
 2872SOL    HW220076   1.693   3.608   8.896  1.5999 -0.6699  0.8351
 2873SOL     OW20077   3.511   4.408  14.376 -0.4152 -0.0700  0.0969
 2873SOL    HW120078   3.428   4.417  14.423  0.2055  0.7388  1.0411
 2873SOL    HW220079   3.480   4.382  14.289  0.2214 -1.4678  0.2847
 2874SOL     OW20080   0.625   2.038   8.369 -0.0956  0.4985 -0.5906
 2874SOL    HW120081   0.700   2.077   8.324  0.6454  1.9274  1.8716
 2874SOL    HW220082   0.556   2.050   8.304 -1.7096  1.3421  1.2760
 2875SOL     OW20083   0.763   0.004   4.697 -0.9084 -0.0361 -0.7621
 2875SOL    HW120084   0.831   4.709   4.634  0.3524 -3.2794  1.7090
 2875SOL    HW220085   0.800   0.069   4.757 -2.1826  0.3814 -0.4202
 2876SOL     OW20086   2.817   4.521  10.663  0.0636 -0.2028  0.0750
 2876SOL    HW120087   2.870   4.463  10.609  0.9265 -0.6901  1.4630
 2876SOL    HW220088   2.872   4.598  10.673  1.1494 -0.7780 -1.4702
 2877SOL     OW20089   4.230   0.173   6.859  0.0610 -0.1196  0.0880
 2877SOL    HW120090   4.219   0.234   6.932 -0.0037  0.2287 -0.2161
 2877SOL    HW220091   4.252   0.098   6.914  0.1268 -0.2542 -0.1208
 2878SOL     OW20092   3.499   0.679   0.025 -0.2225  0.3641 -0.3671
 2878SOL    HW120093   3.405   0.678   0.042 -0.3111  2.5389 -0.6724
 2878SOL    HW220094   3.523   0.597   0.067  0.0611  0.4367 -0.3863
 2879SOL     OW20095   2.565   1.752   8.637  0.7475 -0.5666 -0.1478
 2879SOL    HW120096   2.519   1.832   8.608  3.1436 -0.1678 -2.8271
 2879SOL    HW220097   2.495   1.688   8.631  0.9631 -0.8126  0.0074
 2880SOL     OW20098   0.336   2.168   2.953 -0.0367  0.6085 -0.5870
 2880SOL    HW120099   0.317   2.125   2.870 -2.5500 -2.2060  1.4528
 2880SOL    HW220100   0.420   2.132   2.981  0.1644  1.2631 -0.3542
 2881SOL     OW20101   2.850   2.998  16.956 -0.4609  0.0204 -0.0209
 2881SOL    HW120102   2.815   3.068  17.012  0.6084 -0.0123  0.6991
 2881SOL    HW220103   2.782   2.990  16.890  0.2240 -1.5188 -0.5536
 2882SOL     OW20104   2.784   1.440   4.925 -0.1647  0.7865  0.3635
 2882SOL    HW120105   2.849   1.409   4.989  1.0235  0.8229 -0.8258
 2882SOL    HW220106   2.705   1.396   4.958  0.2828  0.3704  0.8948
 2883SOL     OW20107   2.980   2.862   7.013  0.4767 -0.1610 -0.0596
 2883SOL    HW120108   2.937   2.803   6.951 -0.5989  0.2792  0.2748
 2883SOL    HW220109   2.992   2.945   6.967 -1.8320  0.8362  1.1858
 2884SOL     OW20110   1.054   4.230   5.625  0.1673 -0.1361 -0.2651
 2884SOL    HW120111   1.031   4.301   5.684 -1.8308  1.0441 -2.4845
 2884SOL    HW220112   1.084   4.159   5.681 -0.0591  2.0125  2.5915
 2885SOL     OW20113   4.518   3.614  11.334 -0.0047  0.0337  0.2535
 2885SOL    HW120114   4.535   3.520  11.333 -0.4575 -0.0446  0.4532
 2885SOL    HW220115   4.606   3.646  11.355 -0.0884  1.3683 -1.4375
 2886SOL     OW20116   3.367   1.174   2.179  0.0499  0.6897 -0.0082
 2886SOL    HW120117   3.300   1.235   2.149 -1.7746 -1.6035 -0.5971
 2886SOL    HW220118   3.382   1.209   2.267 -0.2568  0.4919  0.1201
 2887SOL     OW20119   0.521   4.550  13.633  0.7218 -0.4785  0.1081
 2887SOL    HW120120   0.476   4.474  13.595 -2.1089  1.8029 -1.0306
 2887SOL    HW220121   0.528   4.606  13.555 -0.6216 -1.7865 -0.9589
 2888SOL     OW20122   2.332   2.370   4.965 -0.6869 -0.0078 -0.3680
 2888SOL    HW120123   2.358   2.377   4.874  2.2604 -0.6570  0.4363
 2888SOL    HW220124   2.279   2.449   4.976  1.7594  1.6142 -0.2895
 2889SOL     OW20125   1.935   3.603   5.753  0.3902  0.7693 -0.3150
 2889SOL    HW120126   1.962   3.515   5.778  1.0720  1.7818  2.4849
 2889SOL    HW220127   2.014   3.624   5.702  0.1026 -1.2695 -1.6021
 2890SOL     OW20128   1.557   0.687  13.482  0.1814  0.0245  0.0601
 2890SOL    HW120129   1.536   0.776  13.453 -0.2466  0.0762  0.5259
 2890SOL    HW220130   1.507   0.691  13.564  0.4119 -1.5105  0.2824
 2891SOL     OW20131   2.310   3.547   5.631  0.0925 -0.0679  0.2649
 2891SOL    HW120132   2.253   3.624   5.620 -1.1122 -1.0774 -0.4943
 2891SOL    HW220133   2.318   3.521   5.539 -0.7685 -1.2285  0.5238
 2892SOL     OW20134   2.910   3.252   3.504  0.1478 -0.2644  0.5595
 2892SOL    HW120135   2.989   3.260   3.558  0.8280 -0.0991 -0.4588
 2892SOL    HW220136   2.833   3.279   3.553 -1.5511  1.9309 -3.3692
 2893SOL     OW20137   3.111   3.535   8.127 -0.2686  0.0127  0.1390
 2893SOL    HW120138   3.023   3.496   8.126 -0.0589 -0.4626 -0.0948
 2893SOL    HW220139   3.159   3.466   8.080  0.9593 -0.4985  2.1546
 2894SOL     OW20140   1.137   2.594   2.988  0.2345 -0.3098 -0.0396
 2894SOL    HW120141   1.106   2.526   2.928 -0.0679 -0.9646  0.8538
 2894SOL    HW220142   1.179   2.534   3.050  0.9969 -0.6250 -0.8551
 2895SOL     OW20143   1.867   0.542   7.415  0.6539 -0.6424  0.7723
 2895SOL    HW120144   1.838   0.526   7.505  1.0350  0.2588  1.0545
 2895SOL    HW220145   1.895   0.453   7.391  0.8904 -0.5445  0.6870
 2896SOL     OW20146   1.512   0.379   4.250  0.0453  0.1619  0.0121
 2896SOL    HW120147   1.534   0.343   4.336 -1.1777 -1.1542 -0.2154
 2896SOL    HW220148   1.480   0.298   4.210 -0.9984  1.8623 -2.5837
 2897SOL     OW20149   3.655   0.247   0.625  0.3911 -0.0011  0.6103
 2897SOL    HW120150   3.669   0.341   0.639 -0.6771  0.3177 -0.4286
 2897SOL    HW220151   3.563   0.246   0.599  0.0743 -0.2350  1.7519
 2898SOL     OW20152   1.204   0.669  13.581  0.3301  0.7869  0.2789
 2898SOL    HW120153   1.283   0.616  13.590 -0.9977 -1.3853 -0.7741
 2898SOL    HW220154   1.129   0.615  13.607  1.6158 -0.8152  0.7063
 2899SOL     OW20155   1.448   0.843   4.014  1.2058  0.0120  0.3815
 2899SOL    HW120156   1.495   0.794   4.082  2.3667 -1.2913 -1.3401
 2899SOL    HW220157   1.500   0.820   3.937  0.4278 -0.6723  0.0613
 2900SOL     OW20158   2.000   3.894  15.346  0.1749 -0.0370  0.3208
 2900SOL    HW120159   2.045   3.896  15.262  0.3632 -0.7093  0.4070
 2900SOL    HW220160   1.938   3.822  15.332 -0.0514  0.1901  0.1356
 2901SOL     OW20161   2.929   2.268   9.913 -0.5610  0.2576 -0.4007
 2901SOL    HW120162   2.900   2.180   9.892  0.5829  0.3156 -2.2054
 2901SOL    HW220163   2.847   2.316   9.899  0.4158  2.4108  1.2906
 2902SOL     OW20164   0.330   3.775   2.004  0.1538  0.1262 -0.1703
 2902SOL    HW120165   0.389   3.700   1.998  0.0045  0.0943 -1.2880
 2902SOL    HW220166   0.295   3.761   1.916  2.9144  0.6593 -1.3338
 2903SOL     OW20167   0.510   4.118   4.168  0.1797 -0.3962  0.5591
 2903SOL    HW120168   0.438   4.092   4.224 -0.8312 -0.1867 -0.6515
 2903SOL    HW220169   0.474   4.190   4.116  0.8988 -0.2274  0.2848
 2904SOL     OW20170   0.492   3.931  10.154  0.0066  0.5590  0.3342
 2904SOL    HW120171   0.446   3.961  10.076  1.7205  2.5787  0.0856
 2904SOL    HW220172   0.529   3.846  10.130  0.9885  1.2129 -0.5015
 2905SOL     OW20173   4.169   4.363   3.370  0.0639 -0.0849  0.3457
 2905SOL    HW120174   4.102   4.303   3.403 -2.0059  2.1707  0.2204
 2905SOL    HW220175   4.208   4.311   3.300 -0.8186 -1.1439  0.6350
 2906SOL     OW20176   3.423   3.718   0.969 -0.1070 -0.0977 -0.3051
 2906SOL    HW120177   3.507   3.750   0.938 -0.6415  1.1223 -0.4693
 2906SOL    HW220178   3.409   3.784   1.037 -2.3787 -1.7863  0.8753
 2907SOL     OW20179   0.313   2.788  16.589  0.3532 -0.1566  1.0379
 2907SOL    HW120180   0.395   2.783  16.638 -0.7823 -0.8872  2.8565
 2907SOL    HW220181   0.323   2.879  16.560 -0.9482 -1.1008 -2.3217
 2908SOL     OW20182   1.460   3.044   1.869 -0.4460  0.0693 -0.2107
 2908SOL    HW120183   1.538   3.098   1.881 -0.7196  0.2780  0.6440
 2908SOL    HW220184   1.441   3.022   1.961  0.9384  1.3604  0.3863
 2909SOL     OW20185   0.518   1.452   5.410 -0.0832  0.1822  0.5352
 2909SOL    HW120186   0.518   1.485   5.320  0.0555  0.8740  0.7873
 2909SOL    HW220187   0.592   1.507   5.437 -0.0866 -0.4089  1.7381
 2910SOL     OW20188   2.813   3.597  11.760  0.7285  0.0598 -0.8610
 2910SOL    HW120189   2.836   3.534  11.691  1.8856 -0.5196  0.0522
 2910SOL    HW220190   2.798   3.676  11.708  0.8214 -0.2478 -1.3548
 2911SOL     OW20191   4.011   1.991   2.409  0.3051  0.1571  0.3787
 2911SOL    HW120192   4.074   1.951   2.349  1.2497 -0.5858  1.8766
 2911SOL    HW220193   3.958   2.044   2.349 -0.3373  1.4145  2.0498
 2912SOL     OW20194   1.100   2.718  13.793 -0.0415  0.0634  0.0447
 2912SOL    HW120195   1.159   2.650  13.762  0.1683  0.3222 -0.1175
 2912SOL    HW220196   1.099   2.692  13.885  0.4274  0.5784  0.1994
 2913SOL     OW20197   2.710   2.143  14.040  0.3725 -0.0471  0.1285
 2913SOL    HW120198   2.654   2.182  14.107 -0.3221 -1.3666  0.3315
 2913SOL    HW220199   2.789   2.131  14.092 -0.8854 -1.3904  1.7462
 2914SOL     OW20200   2.735   3.794   3.681  0.9843 -0.4188 -0.0120
 2914SOL    HW120201   2.688   3.723   3.637  3.6914 -0.1313 -3.3050
 2914SOL    HW220202   2.725   3.873   3.628  3.3891 -1.6302 -2.2474
 2915SOL     OW20203   0.625   3.344  10.301 -0.2167 -0.0557 -0.1197
 2915SOL    HW120204   0.533   3.327  10.280  0.5837 -0.6800 -3.0660
 2915SOL    HW220205   0.615   3.407  10.372  2.2722 -0.8710  0.9587
 2916SOL     OW20206   4.138   0.693   8.099 -0.4498  0.4574 -0.1714
 2916SOL    HW120207   4.157   0.753   8.171  1.2898 -1.5074  0.9919
 2916SOL    HW220208   4.129   0.608   8.142 -0.2865  0.2658 -0.5236
 2917SOL     OW20209   3.071   3.431  10.255 -0.0219  0.2935  0.5693
 2917SOL    HW120210   3.151   3.399  10.296  1.1996  3.2886  0.5747
 2917SOL    HW220211   3.011   3.442  10.328  1.0056 -2.2073  1.7823
 2918SOL     OW20212   3.902   0.410   5.758  0.4535  0.3602 -0.4144
 2918SOL    HW120213   3.810   0.395   5.735  0.4449 -1.4211  0.7945
 2918SOL    HW220214   3.931   0.331   5.804  1.6061  0.7616 -0.4389
 2919SOL     OW20215   4.534   1.175   0.778  0.1407 -0.2896  0.3027
 2919SOL    HW120216   4.561   1.264   0.756 -1.3850  0.5985  1.9873
 2919SOL    HW220217   4.515   1.183   0.872  2.7446  0.6030  0.7440
 2920SOL     OW20218   0.850   1.233   3.130  0.0733  0.5641 -0.4301
 2920SOL    HW120219   0.918   1.172   3.103  0.6198  0.8749  0.2502
 2920SOL    HW220220   0.850   1.224   3.225  1.8221 -1.4284 -0.6368
 2921SOL     OW20221   2.936   1.602   3.303  0.0179  0.3667 -0.4611
 2921SOL    HW120222   2.848   1.587   3.339  1.0450 -1.2637  1.3992
 2921SOL    HW220223   2.980   1.658   3.367  0.9585 -0.0978 -0.7045
 2922SOL     OW20224   3.651   0.060   5.087 -0.0394  0.3887 -0.1866
 2922SOL    HW120225   3.688   0.119   5.152 -0.0366  0.7137 -0.4816
 2922SOL    HW220226   3.594   0.014   5.149  1.8612  2.0644  2.8023
 2923SOL     OW20227   1.337   0.272  10.593  0.0545  0.3890 -0.7990
 2923SOL    HW120228   1.336   0.177  10.587 -1.7807  0.5022 -2.3880
 2923SOL    HW220229   1.324   0.308  10.505 -0.4823 -1.1406 -1.3347
 2924SOL     OW20230   4.653   3.900  11.626 -0.0776  0.2246  0.2708
 2924SOL    HW120231   4.640   3.962  11.698 -1.9342 -0.4157  0.4983
 2924SOL    HW220232   0.008   3.859  11.655 -0.5477 -0.1643  1.0546
 2925SOL     OW20233   3.369   0.401   5.676 -0.3180 -0.2810 -0.3949
 2925SOL    HW120234   3.381   0.477   5.619 -1.5427  0.9022  0.9368
 2925SOL    HW220235   3.457   0.383   5.710 -0.6414  0.5057  0.8569
 2926SOL     OW20236   3.493   3.033   5.458 -0.2064  0.8390  0.3522
 2926SOL    HW120237   3.572   2.986   5.433 -0.6118 -0.0719  0.7979
 2926SOL    HW220238   3.487   3.002   5.548 -1.1238 -0.9103 -0.3070
 2927SOL     OW20239   1.021   4.327   0.876  0.6030  0.2665 -0.1120
 2927SOL    HW120240   1.041   4.277   0.955  0.7909 -1.7085 -1.3997
 2927SOL    HW220241   1.096   4.313   0.819  0.3226 -1.1213 -0.1370
 2928SOL     OW20242   3.220   4.586   3.702  0.1393 -0.3545  0.3643
 2928SOL    HW120243   3.204   4.492   3.702 -5.2213  0.5764  1.2753
 2928SOL    HW220244   3.311   4.586   3.734  0.2724 -0.3274 -0.0137
 2929SOL     OW20245   2.067   1.693   3.442 -0.2271 -0.3859 -0.4543
 2929SOL    HW120246   2.139   1.729   3.390 -1.1120 -0.3489 -1.6415
 2929SOL    HW220247   1.997   1.720   3.383 -0.3341 -0.2288 -0.2586
 2930SOL     OW20248   4.576   2.376   5.467  0.6412 -0.2551 -0.5843
 2930SOL    HW120249   4.548   2.441   5.531  0.4292 -1.2714  0.3561
 2930SOL    HW220250   4.670   2.390   5.478  0.1658  1.8983  0.6540
 2931SOL     OW20251   4.057   4.095   1.358  0.1456  0.3146  0.3144
 2931SOL    HW120252   4.020   4.132   1.438 -3.7142 -0.6993 -1.0159
 2931SOL    HW220253   3.993   4.025   1.346  3.0926 -2.2484 -0.6043
 2932SOL     OW20254   3.783   4.208  12.955  0.0681  0.1785 -0.3559
 2932SOL    HW120255   3.746   4.218  13.043 -2.7820 -0.3568 -1.4939
 2932SOL    HW220256   3.699   4.207  12.908 -2.0200 -1.2720  3.3694
 2933SOL     OW20257   0.123   4.145   0.987  0.1111 -0.3020  0.4154
 2933SOL    HW120258   0.096   4.079   1.052 -1.8481 -0.0011 -0.1011
 2933SOL    HW220259   0.062   4.217   1.001  1.4866  0.7436  1.0112
 2934SOL     OW20260   0.830   0.328   7.447  0.3362  0.2085 -0.3866
 2934SOL    HW120261   0.873   0.244   7.428  0.8986 -0.1397  2.4401
 2934SOL    HW220262   0.793   0.309   7.533 -0.2247 -0.1982 -0.7199
 2935SOL     OW20263   3.360   3.885   6.454 -0.0039 -0.5611  0.6097
 2935SOL    HW120264   3.395   3.926   6.533 -1.0000  1.4978 -0.0483
 2935SOL    HW220265   3.288   3.831   6.487 -0.6834 -0.2539 -0.3938
 2936SOL     OW20266   3.494   1.930   8.015  0.0755 -0.0333  0.3597
 2936SOL    HW120267   3.410   1.907   7.977  0.1580  4.3569 -2.5100
 2936SOL    HW220268   3.509   1.848   8.062 -0.2348 -0.0698  0.3903
 2937SOL     OW20269   0.315   2.020  12.129  0.1051 -0.7487 -0.1875
 2937SOL    HW120270   0.233   2.030  12.080 -0.9784 -0.2779  1.7312
 2937SOL    HW220271   0.278   1.971  12.203  1.5993 -1.2975  0.1938
 2938SOL     OW20272   4.216   2.606   6.030  0.4502  0.2226  0.6600
 2938SOL    HW120273   4.277   2.676   6.008  0.5495  0.0760  0.4687
 2938SOL    HW220274   4.239   2.548   5.957 -2.8951  1.0529 -1.0376
 2939SOL     OW20275   0.378   1.461   3.487  0.2762  0.0952 -0.6119
 2939SOL    HW120276   0.322   1.507   3.424 -0.3725 -2.0198 -1.5995
 2939SOL    HW220277   0.365   1.514   3.566  0.2731  0.9442 -1.1804
 2940SOL     OW20278   0.643   3.418   4.402 -0.2669  0.0285 -0.3549
 2940SOL    HW120279   0.696   3.346   4.367 -0.1259 -0.2195  0.3694
 2940SOL    HW220280   0.711   3.484   4.419  0.8994 -1.7275  1.6958
 2941SOL     OW20281   1.662   2.797   3.025 -0.1655 -0.3522 -0.0753
 2941SOL    HW120282   1.616   2.781   2.942  0.8896 -0.9202 -0.5624
 2941SOL    HW220283   1.612   2.734   3.076 -2.1339  0.8275 -0.5375
 2942SOL     OW20284   3.781   2.072  12.985  0.1935  0.6514 -0.2216
 2942SOL    HW120285   3.708   2.098  12.929  0.7002  0.9338 -0.7506
 2942SOL    HW220286   3.756   2.117  13.065 -1.7297 -2.3306  0.8579
 2943SOL     OW20287   4.715   4.254   7.980 -0.0147  0.2779 -0.3316
 2943SOL    HW120288   4.644   4.268   7.917  0.2434 -0.3457 -0.7654
 2943SOL    HW220289   4.662   4.253   8.060 -0.2110 -0.5380 -0.4681
 2944SOL     OW20290   2.381   0.462   4.782 -0.8399 -0.0780 -0.4367
 2944SOL    HW120291   2.419   0.536   4.830 -0.7374  0.4259 -1.3081
 2944SOL    HW220292   2.424   0.473   4.698  0.6761 -2.4495  0.0157
 2945SOL     OW20293   2.713   2.005   5.905  0.1965 -0.3835 -0.6209
 2945SOL    HW120294   2.698   1.910   5.902  2.0716 -0.7608  1.7231
 2945SOL    HW220295   2.705   2.026   5.998  0.7444  1.2119 -0.9328
 2946SOL     OW20296   1.588   0.002   4.753  0.1264 -0.1697  0.1846
 2946SOL    HW120297   1.665   4.722   4.697 -1.0594 -1.1406 -1.3706
 2946SOL    HW220298   1.620   0.044   4.832  1.6663  1.0253 -1.0832
 2947SOL     OW20299   2.734   2.532   1.854  0.7279 -0.8445 -0.3695
 2947SOL    HW120300   2.757   2.443   1.828  0.4700 -1.0999  0.2670
 2947SOL    HW220301   2.640   2.532   1.838  0.8514 -1.3097 -1.1113
 2948SOL     OW20302   4.398   3.758   5.264 -0.1439  0.1267  0.3251
 2948SOL    HW120303   4.475   3.806   5.232 -1.1623  1.0734 -0.7074
 2948SOL    HW220304   4.385   3.810   5.344  1.1543  0.8647  0.0679
 2949SOL     OW20305   4.422   3.871   4.113  0.1769  0.2433  0.0891
 2949SOL    HW120306   4.420   3.966   4.100  0.5061  0.0726 -1.2410
 2949SOL    HW220307   4.508   3.841   4.083 -0.0037 -1.2645  1.0764
 2950SOL     OW20308   0.169   1.062  16.606  0.0553 -0.1525 -0.4269
 2950SOL    HW120309   0.169   0.997  16.676 -1.9307  1.5663  1.1401
 2950SOL    HW220310   0.114   1.009  16.547 -0.6893  0.7444 -0.5361
 2951SOL     OW20311   1.366   1.590   9.069 -0.1367  0.0571  0.4811
 2951SOL    HW120312   1.307   1.529   9.113 -1.3661 -0.0495 -1.2878
 2951SOL    HW220313   1.363   1.676   9.110 -1.9568 -0.6476  1.8025
 2952SOL     OW20314   1.376   1.291   1.260  0.0506 -0.1015  0.2702
 2952SOL    HW120315   1.319   1.269   1.186  1.1563  0.0183 -0.6282
 2952SOL    HW220316   1.425   1.361   1.216 -0.5351  0.7338  0.9546
 2953SOL     OW20317   3.543   1.063   4.599 -0.2195  0.2905 -0.0038
 2953SOL    HW120318   3.588   1.145   4.619 -0.2944 -0.0027  1.4006
 2953SOL    HW220319   3.581   1.057   4.512 -0.5474 -0.5031 -0.0928
 2954SOL     OW20320   1.647   2.633   7.503 -0.4356 -0.0687 -0.7349
 2954SOL    HW120321   1.684   2.721   7.510  0.4850 -0.4255 -1.1486
 2954SOL    HW220322   1.680   2.614   7.415 -0.2445 -1.2616 -0.3936
 2955SOL     OW20323   3.530   0.035   5.561 -0.2169  0.0215  0.1734
 2955SOL    HW120324   3.613   0.028   5.608 -1.3439  0.7415  2.2473
 2955SOL    HW220325   3.469   4.722   5.623 -1.2694 -1.1837 -1.6236
 2956SOL     OW20326   1.202   3.769   8.737  0.1320 -0.0460 -0.0567
 2956SOL    HW120327   1.274   3.799   8.682  0.3892  1.7687  1.2664
 2956SOL    HW220328   1.179   3.690   8.687 -1.0482  0.4934 -0.3486
 2957SOL     OW20329   4.481   4.011   1.755  0.2211  0.2527  0.0018
 2957SOL    HW120330   4.434   4.032   1.836  0.6254  0.5304  0.1658
 2957SOL    HW220331   4.444   4.069   1.689 -1.5967 -0.8993  0.0157
 2958SOL     OW20332   0.023   4.315   7.367 -0.4184 -0.0891  0.3145
 2958SOL    HW120333   4.711   4.315   7.455  0.7921  0.5954  0.8366
 2958SOL    HW220334   4.669   4.323   7.315 -0.7592  1.0148  1.0007
 2959SOL     OW20335   1.621   0.254  12.665 -0.1596 -0.2416  0.8727
 2959SOL    HW120336   1.689   0.187  12.676 -0.3209 -0.2428  1.8660
 2959SOL    HW220337   1.584   0.229  12.580  0.0961 -0.1881  0.7451
 2960SOL     OW20338   1.816   2.707   3.467  0.1202  0.1935  0.2470
 2960SOL    HW120339   1.782   2.792   3.439 -1.0572 -0.1591  0.5879
 2960SOL    HW220340   1.884   2.732   3.529 -0.2132 -0.0785  0.7225
 2961SOL     OW20341   4.578   2.491   3.793  0.3680  0.0217 -0.0820
 2961SOL    HW120342   4.486   2.507   3.815 -0.0016  0.1198 -1.7017
 2961SOL    HW220343   4.596   2.560   3.729 -1.5623 -1.3120 -2.0620
 2962SOL     OW20344   3.980   3.114   6.570  0.3928  0.1027  0.4632
 2962SOL    HW120345   3.980   3.029   6.614  0.3974  0.4878  1.2051
 2962SOL    HW220346   4.039   3.083   6.501  1.5900  0.8111  1.1739
 2963SOL     OW20347   4.403   2.353   1.875  0.1386 -0.5117 -0.0707
 2963SOL    HW120348   4.478   2.349   1.815  0.2141  1.6075 -0.0902
 2963SOL    HW220349   4.375   2.439   1.845 -1.1751 -0.6507  0.7745
 2964SOL     OW20350   3.904   2.496   4.691 -0.2907 -1.2837  0.0612
 2964SOL    HW120351   3.809   2.499   4.707 -0.3056 -2.0715  0.1068
 2964SOL    HW220352   3.904   2.402   4.678 -0.5960 -1.1491 -0.8982
 2965SOL     OW20353   1.051   4.696  14.326  0.1380  0.0117  0.4115
 2965SOL    HW120354   1.075   0.061  14.344  0.0227  0.4945 -1.8336
 2965SOL    HW220355   0.995   4.707  14.249 -1.8396  0.9203  1.9636
 2966SOL     OW20356   0.671   2.255   4.284  0.3351 -0.2498 -0.5154
 2966SOL    HW120357   0.696   2.177   4.332  0.6984 -0.0153 -0.3211
 2966SOL    HW220358   0.713   2.323   4.337  3.3659 -2.7985  0.2878
 2967SOL     OW20359   1.794   4.341  16.501 -0.3853 -0.4148 -0.1766
 2967SOL    HW120360   1.824   4.373  16.416  0.5054  1.5129  0.8566
 2967SOL    HW220361   1.713   4.391  16.510 -0.4824 -0.4935 -0.6222
 2968SOL     OW20362   2.941   3.009   6.212 -0.3726 -0.0599 -0.4873
 2968SOL    HW120363   2.854   2.972   6.226 -0.1174 -0.3746  0.2624
 2968SOL    HW220364   2.997   2.932   6.198 -1.8294 -0.8805 -1.8577
 2969SOL     OW20365   1.358   0.022  13.863  0.0351 -0.1045  0.1187
 2969SOL    HW120366   1.318   4.719  13.944  1.4042 -1.7968  0.1714
 2969SOL    HW220367   1.418   0.093  13.888 -1.6260  1.8591 -1.4076
 2970SOL     OW20368   2.972   4.618   5.507 -0.0771  0.6867  0.7730
 2970SOL    HW120369   2.969   4.527   5.538  1.1625  0.2287 -0.4235
 2970SOL    HW220370   2.946   4.674   5.579  0.4018 -0.6034  1.9524
 2971SOL     OW20371   3.411   1.808   7.676  0.1288  0.0576  0.0613
 2971SOL    HW120372   3.429   1.749   7.603  1.9541  0.0101  0.5511
 2971SOL    HW220373   3.502   1.832   7.696 -0.3889  1.3318  0.9096
 2972SOL     OW20374   0.937   2.567  14.881 -0.2537  0.5158  0.4249
 2972SOL    HW120375   0.970   2.479  14.862  0.1910  0.8799 -0.4553
 2972SOL    HW220376   0.964   2.617  14.804  2.6352 -1.3482  0.2160
 2973SOL     OW20377   1.692   2.331   8.901 -0.1928 -0.6967  0.6112
 2973SOL    HW120378   1.674   2.411   8.950  3.9718  0.7730 -0.2628
 2973SOL    HW220379   1.684   2.263   8.968  0.2596 -0.5557  0.8084
 2974SOL     OW20380   4.354   4.456   7.409  0.3443 -0.3492 -0.2078
 2974SOL    HW120381   4.295   4.477   7.337  0.3723  0.9294  0.1395
 2974SOL    HW220382   4.299   4.480   7.483  0.7438 -1.1708  0.3603
 2975SOL     OW20383   3.107   1.967  12.876  0.1488  0.0648 -0.0699
 2975SOL    HW120384   3.112   2.031  12.804 -2.2604 -1.1615 -1.3154
 2975SOL    HW220385   3.036   1.920  12.833  0.0818 -0.2412  0.3899
 2976SOL     OW20386   4.357   3.875  13.377 -0.0149 -0.2166  0.1433
 2976SOL    HW120387   4.391   3.843  13.460 -0.9581  0.4883  0.7941
 2976SOL    HW220388   4.280   3.921  13.409 -1.4740 -2.2095 -0.5407
 2977SOL     OW20389   4.582   4.592   7.046 -0.0561 -0.3676  0.3260
 2977SOL    HW120390   4.576   4.632   7.132  1.4377  2.6975 -1.0164
 2977SOL    HW220391   4.669   4.552   7.045  0.8647  1.6660 -2.6399
 2978SOL     OW20392   3.566   0.700   6.472  0.6543 -0.9211  0.9349
 2978SOL    HW120393   3.620   0.653   6.535 -0.0370  1.8766  3.6348
 2978SOL    HW220394   3.543   0.633   6.407  0.3452 -0.7978  0.9163
 2979SOL     OW20395   1.762   1.259   9.924 -0.2536  0.0413 -0.3026
 2979SOL    HW120396   1.753   1.298  10.011  0.6563 -0.5692  0.0721
 2979SOL    HW220397   1.835   1.198   9.938 -0.9882 -0.4256  1.5747
 2980SOL     OW20398   4.509   3.301   0.924 -0.0794 -0.2911 -0.5199
 2980SOL    HW120399   4.481   3.219   0.966 -0.9224 -0.4657 -1.4359
 2980SOL    HW220400   4.520   3.360   0.999 -0.9652  0.6326 -1.1130
 2981SOL     OW20401   3.263   4.666  14.269  0.1181  0.2942 -0.2301
 2981SOL    HW120402   3.232   4.589  14.222 -0.3217 -0.0350  0.6120
 2981SOL    HW220403   3.183   4.697  14.310  0.7199  0.2478  0.9627
 2982SOL     OW20404   0.666   3.998  17.337  0.3965 -0.5486 -0.9973
 2982SOL    HW120405   0.601   4.052  17.292 -1.6875 -0.8907  1.6121
 2982SOL    HW220406   0.638   4.022  17.426 -0.5050 -3.3938 -0.5200
 2983SOL     OW20407   3.511   4.589   2.376 -0.0259  0.1095 -0.1540
 2983SOL    HW120408   3.582   4.543   2.421 -1.3854 -1.1765  0.6840
 2983SOL    HW220409   3.553   4.674   2.361  0.3423 -0.3490 -1.7561
 2984SOL     OW20410   3.228   2.099   4.177 -0.5554  0.2685 -0.3487
 2984SOL    HW120411   3.148   2.066   4.218 -1.1047 -0.0108 -1.6459
 2984SOL    HW220412   3.285   2.022   4.169  1.0404  1.3976  0.0194
 2985SOL     OW20413   1.508   3.343  16.845 -0.7893  0.2878  0.3334
 2985SOL    HW120414   1.422   3.379  16.824 -0.9812 -1.6227 -2.2085
 2985SOL    HW220415   1.498   3.250  16.823 -0.4752 -0.1232  1.9042
 2986SOL     OW20416   1.364   4.499   7.970  0.1753  0.8475 -0.6839
 2986SOL    HW120417   1.405   4.538   8.047  2.8802 -1.4728 -0.9604
 2986SOL    HW220418   1.429   4.526   7.906  1.7332  0.7817  0.8623
 2987SOL     OW20419   2.604   3.824  17.625  0.2876 -0.5149  0.0643
 2987SOL    HW120420   2.542   3.897  17.619 -1.4020 -1.9947 -0.5994
 2987SOL    HW220421   2.593   3.799   0.011 -1.3188  0.9927  0.2829
 2988SOL     OW20422   3.429   0.674   5.202  0.2670  0.3861  0.1527
 2988SOL    HW120423   3.357   0.634   5.250 -0.8925  0.5831 -1.4126
 2988SOL    HW220424   3.391   0.742   5.147 -2.5235 -1.6278 -0.4037
 2989SOL     OW20425   1.477   4.134  14.910  0.3434  0.1511 -0.1060
 2989SOL    HW120426   1.441   4.180  14.986 -1.1993 -0.5466 -0.4073
 2989SOL    HW220427   1.439   4.184  14.837 -0.3022 -0.7444 -0.3885
 2990SOL     OW20428   0.107   1.453   7.328  0.0578 -0.1404 -1.0158
 2990SOL    HW120429   0.110   1.395   7.405  0.1944  1.6482  0.3247
 2990SOL    HW220430   0.074   1.527   7.380  1.6097  0.1556 -0.4418
 2991SOL     OW20431   0.060   2.494   4.693 -0.0113 -0.2748  0.4575
 2991SOL    HW120432   0.109   2.415   4.672 -0.1758  0.1980 -1.7078
 2991SOL    HW220433   0.098   2.557   4.632  0.2209 -0.6724  0.1952
 2992SOL     OW20434   4.198   2.690  11.211  0.3346 -0.3242  0.7768
 2992SOL    HW120435   4.153   2.631  11.151 -1.9625  2.9123 -0.6799
 2992SOL    HW220436   4.128   2.736  11.257 -1.1049 -1.3582 -0.3863
 2993SOL     OW20437   2.428   1.010   8.344 -0.0933 -0.3367 -0.1389
 2993SOL    HW120438   2.511   0.997   8.298  0.7734  0.2923  1.2446
 2993SOL    HW220439   2.378   0.934   8.313 -0.9793 -0.3849  1.3574
 2994SOL     OW20440   1.085   1.443   9.499 -0.1966  0.6739  0.2537
 2994SOL    HW120441   1.037   1.488   9.429  0.0328 -2.3670 -1.8501
 2994SOL    HW220442   1.020   1.447   9.568 -0.3145  0.0364  0.1737
 2995SOL     OW20443   0.106   1.060   7.914 -0.7713 -0.1929  0.1632
 2995SOL    HW120444   0.186   1.015   7.940 -0.6978 -0.5061 -0.6378
 2995SOL    HW220445   0.116   1.141   7.965  4.7557 -0.2904 -0.8523
 2996SOL     OW20446   1.037   2.531   8.637  0.1195  0.5231 -0.5219
 2996SOL    HW120447   0.967   2.593   8.620  0.7337  0.9665 -1.4313
 2996SOL    HW220448   0.980   2.454   8.645 -0.0588  0.7461  0.4474
 2997SOL     OW20449   0.047   0.220   0.284  0.1761  0.3449 -0.3466
 2997SOL    HW120450   0.069   0.294   0.341  0.1953  0.3823 -0.4023
 2997SOL    HW220451   0.074   0.146   0.339  1.4867  0.4529 -0.8481
 2998SOL     OW20452   1.031   1.954  13.568  0.0461  0.3012  0.2643
 2998SOL    HW120453   0.951   1.999  13.541 -0.3718 -0.7457 -0.2312
 2998SOL    HW220454   0.999   1.864  13.577 -1.5769  0.7423 -1.1524
 2999SOL     OW20455   2.379   0.977   3.132 -0.6044 -0.3874  0.3385
 2999SOL    HW120456   2.383   1.049   3.068 -0.5752 -1.0762 -0.4266
 2999SOL    HW220457   2.472   0.961   3.145 -0.6241 -0.0889  0.8896
 3000SOL     OW20458   1.083   0.684   8.538 -0.3837 -0.2441  0.0584
 3000SOL    HW120459   1.020   0.714   8.603  0.2660 -0.5697  0.8291
 3000SOL    HW220460   1.049   0.595   8.533 -0.3063 -0.3402  1.3198
 3001SOL     OW20461   4.235   2.620   6.293 -0.3600 -0.2686 -0.3936
 3001SOL    HW120462   4.228   2.624   6.198  0.5958  0.9745 -0.4121
 3001SOL    HW220463   4.327   2.637   6.311  0.2873 -1.8022 -2.3541
 3002SOL     OW20464   1.610   3.145   8.391  0.1440  0.0541 -0.2719
 3002SOL    HW120465   1.627   3.144   8.486 -2.1864 -2.5859  0.1150
 3002SOL    HW220466   1.695   3.112   8.361  0.1812 -0.1376  0.0350
 3003SOL     OW20467   4.564   2.606   4.815 -0.0843 -0.1485 -0.6776
 3003SOL    HW120468   4.637   2.559   4.774  1.2207  1.8465 -0.6401
 3003SOL    HW220469   4.608   2.690   4.829  4.0948 -2.2199 -1.6552
 3004SOL     OW20470   3.821   3.513   8.557 -0.1486 -0.2967 -0.4933
 3004SOL    HW120471   3.834   3.606   8.537 -1.0459 -0.6948 -2.8861
 3004SOL    HW220472   3.889   3.496   8.622 -0.4194  2.8784  0.6614
 3005SOL     OW20473   3.016   4.228   4.027  0.2338  0.4205  0.1193
 3005SOL    HW120474   2.926   4.252   4.047  0.2067  0.1781  0.2882
 3005SOL    HW220475   2.993   4.140   3.995 -1.3212  1.7887 -2.5615
 3006SOL     OW20476   3.544   2.186   6.586 -0.4646  0.1941 -0.1086
 3006SOL    HW120477   3.509   2.259   6.637 -1.5614 -2.0385  2.3637
 3006SOL    HW220478   3.582   2.137   6.659  1.8082 -0.0823 -1.4867
 3007SOL     OW20479   0.582   2.536   4.187 -0.0040  0.0399 -0.5702
 3007SOL    HW120480   0.613   2.566   4.101 -0.8307 -2.9655 -1.9354
 3007SOL    HW220481   0.652   2.472   4.200  0.8827  1.0693 -0.3286
 3008SOL     OW20482   3.157   0.915  13.042 -0.1288 -0.6123  0.3958
 3008SOL    HW120483   3.134   1.008  13.053 -1.0278 -0.8442  0.4855
 3008SOL    HW220484   3.219   0.910  12.969 -1.2591 -0.3086 -0.5952
 3009SOL     OW20485   0.171   1.959   4.284  0.5897 -0.0782  0.5309
 3009SOL    HW120486   0.241   1.916   4.234  0.3545 -2.6695  2.3950
 3009SOL    HW220487   0.097   1.949   4.225 -3.4088 -0.4670  5.5938
 3010SOL     OW20488   0.517   1.569   4.243 -0.0622 -0.3815  0.4596
 3010SOL    HW120489   0.531   1.497   4.182  1.1552  1.1737 -1.0907
 3010SOL    HW220490   0.467   1.523   4.310 -1.0129 -0.2879 -0.1848
 3011SOL     OW20491   0.258   2.734  10.040 -0.5855 -0.3612 -0.1228
 3011SOL    HW120492   0.322   2.676   9.999 -0.8395  1.4403 -3.0611
 3011SOL    HW220493   0.195   2.750   9.970 -1.5375 -4.5745 -0.2400
 3012SOL     OW20494   2.865   2.207  14.863 -0.5069  0.4240 -0.1071
 3012SOL    HW120495   2.838   2.288  14.821  0.5056  0.1135 -1.3411
 3012SOL    HW220496   2.937   2.237  14.919  0.4408 -1.2198 -0.4389
 3013SOL     OW20497   2.389   3.581  12.687 -0.0749 -0.3003  0.0272
 3013SOL    HW120498   2.482   3.606  12.686 -0.1775  0.1327  1.3036
 3013SOL    HW220499   2.356   3.641  12.754  2.7716  1.4667 -0.1607
 3014SOL     OW20500   2.048   2.847  15.908 -0.3733  0.3018 -0.1693
 3014SOL    HW120501   2.023   2.755  15.897 -1.4334  0.6287 -0.5527
 3014SOL    HW220502   2.135   2.846  15.869  0.5727 -1.5892  2.0073
 3015SOL     OW20503   1.112   3.689   7.736  0.9100  0.3523 -0.2248
 3015SOL    HW120504   1.119   3.783   7.719 -0.5263  0.6256  0.7029
 3015SOL    HW220505   1.052   3.703   7.809  3.5315 -1.0567  2.1765
 3016SOL     OW20506   3.017   2.779  16.835 -0.1285 -0.5055  0.1449
 3016SOL    HW120507   2.983   2.838  16.902 -1.0584 -2.1320  1.1208
 3016SOL    HW220508   2.966   2.699  16.849 -0.5509 -0.1598  0.5770
 3017SOL     OW20509   2.784   0.135   7.167 -0.4670  0.5783 -0.2896
 3017SOL    HW120510   2.793   0.180   7.251  1.4709  0.3053 -0.3421
 3017SOL    HW220511   2.853   0.178   7.115  1.8910 -0.3579  2.0474
 3018SOL     OW20512   0.902   2.368   7.086  0.3471 -0.1716 -0.6543
 3018SOL    HW120513   0.926   2.419   7.009 -1.0373 -0.2143 -1.1205
 3018SOL    HW220514   0.872   2.287   7.045 -2.3531  1.0109 -1.0208
 3019SOL     OW20515   2.373   1.342   8.185  0.1413 -0.3296 -0.4408
 3019SOL    HW120516   2.449   1.360   8.240  0.5308  0.2160 -1.1468
 3019SOL    HW220517   2.423   1.330   8.104 -1.8641 -1.3065 -1.5089
 3020SOL     OW20518   0.425   2.406   6.299 -0.4431  0.0519 -0.1097
 3020SOL    HW120519   0.462   2.461   6.369 -1.1873  0.5228 -0.0780
 3020SOL    HW220520   0.369   2.472   6.257 -2.1413 -0.9260  0.6199
 3021SOL     OW20521   4.407   3.749   4.875 -0.2615 -0.4430 -0.2714
 3021SOL    HW120522   4.412   3.837   4.912  3.5519 -1.3082  1.2617
 3021SOL    HW220523   4.497   3.721   4.887 -0.5899 -1.8907 -1.2131
 3022SOL     OW20524   3.846   3.141   5.883  0.4371  0.3463  0.2045
 3022SOL    HW120525   3.912   3.125   5.951 -0.6834  1.6257  1.6212
 3022SOL    HW220526   3.775   3.087   5.916  0.6667 -0.0898 -0.0239
 3023SOL     OW20527   0.818   1.913   2.332  0.1803 -0.0297  0.1617
 3023SOL    HW120528   0.867   1.936   2.253  0.5113  0.4141  0.4953
 3023SOL    HW220529   0.864   1.977   2.387  1.1401  0.1731 -0.8862
 3024SOL     OW20530   4.381   1.687   8.315 -0.0809 -0.6955 -0.8123
 3024SOL    HW120531   4.294   1.727   8.316  1.0918  1.7999  1.9433
 3024SOL    HW220532   4.427   1.766   8.286  0.8532 -0.1358  2.2094
 3025SOL     OW20533   2.611   4.068   5.092 -0.3305  0.4874 -0.2616
 3025SOL    HW120534   2.679   4.121   5.135  0.7216 -2.7395  2.0072
 3025SOL    HW220535   2.546   4.138   5.090  0.4393  1.2457  1.1247
 3026SOL     OW20536   2.083   2.968   9.053  0.2288  0.5764  0.3917
 3026SOL    HW120537   2.093   3.060   9.029 -0.7963  0.4847 -0.3715
 3026SOL    HW220538   2.171   2.933   9.066  0.5814  0.1332 -3.1871
 3027SOL     OW20539   0.625   1.701   5.713 -0.1544 -0.3647 -0.2568
 3027SOL    HW120540   0.660   1.741   5.793 -1.3557  2.5001 -1.1648
 3027SOL    HW220541   0.680   1.623   5.712  0.0636 -0.2209  0.2362
 3028SOL     OW20542   3.503   4.050   9.334 -0.0686  0.1281 -0.4803
 3028SOL    HW120543   3.585   4.020   9.294 -0.4478  1.3437 -2.1826
 3028SOL    HW220544   3.512   4.145   9.348  0.6179  0.1185 -0.8580
 3029SOL     OW20545   1.775   3.242   9.156 -0.3733 -0.0645  0.4938
 3029SOL    HW120546   1.827   3.318   9.182 -0.3765  0.2647 -0.4716
 3029SOL    HW220547   1.800   3.241   9.064  0.3465  3.2330  0.6564
 3030SOL     OW20548   3.618   1.252   4.161  0.4231  0.7933 -0.1650
 3030SOL    HW120549   3.665   1.237   4.079  1.9482  1.2131  0.6380
 3030SOL    HW220550   3.536   1.288   4.126 -0.4686 -0.6267  0.4814
 3031SOL     OW20551   4.237   3.257   3.252  0.0333 -0.0538  0.3441
 3031SOL    HW120552   4.250   3.339   3.299 -1.4176  0.2853  0.1481
 3031SOL    HW220553   4.168   3.206   3.296  0.3297  0.5158  1.4645
 3032SOL     OW20554   1.339   4.271   5.239  0.0365 -0.9480  1.0983
 3032SOL    HW120555   1.284   4.200   5.269  1.7793 -2.1635  1.4364
 3032SOL    HW220556   1.301   4.283   5.152 -1.6090  0.6932  2.0527
 3033SOL     OW20557   2.039   2.018   2.412 -0.1964 -0.1644 -0.4325
 3033SOL    HW120558   2.037   2.112   2.396 -0.7640 -0.1412 -0.2349
 3033SOL    HW220559   2.130   2.002   2.389  0.2336  0.5280  0.8736
 3034SOL     OW20560   4.271   2.011   8.494  0.0677  0.8429  0.3561
 3034SOL    HW120561   4.251   1.947   8.426 -1.1216 -0.6365  2.1135
 3034SOL    HW220562   4.225   2.089   8.463  0.6854  0.3901 -1.7024
 3035SOL     OW20563   2.562   0.433  11.518 -0.1880 -0.1463  0.3186
 3035SOL    HW120564   2.615   0.426  11.598  0.5379  0.0380 -0.1447
 3035SOL    HW220565   2.605   0.369  11.462 -0.7662 -0.8487  0.6864
 3036SOL     OW20566   2.038   0.516  16.726 -0.0709 -0.3646 -0.3254
 3036SOL    HW120567   2.129   0.497  16.748 -0.1502 -0.4499 -0.0720
 3036SOL    HW220568   2.032   0.479  16.638 -0.8856 -1.6728  0.2769
 3037SOL     OW20569   3.635   2.998   5.976 -0.3078 -0.3107  0.3828
 3037SOL    HW120570   3.558   3.025   6.027 -0.1530  0.3129  0.2887
 3037SOL    HW220571   3.668   2.936   6.041 -1.3593 -0.4966  0.7470
 3038SOL     OW20572   0.735   3.033   3.321 -0.3360  0.0089 -0.9106
 3038SOL    HW120573   0.742   2.968   3.391  0.8784 -0.8118 -1.7901
 3038SOL    HW220574   0.639   3.031   3.315 -0.2412 -2.1982 -1.7333
 3039SOL     OW20575   2.950   3.790  11.929  0.0114 -0.3612  0.0198
 3039SOL    HW120576   2.886   3.755  11.867 -1.1471 -0.1833  1.1094
 3039SOL    HW220577   3.006   3.713  11.941 -0.1703 -0.7134 -1.4130
 3040SOL     OW20578   2.465   1.891   3.152  0.4441  0.2268 -0.3073
 3040SOL    HW120579   2.391   1.908   3.092  1.0331 -0.2457 -1.1720
 3040SOL    HW220580   2.539   1.910   3.095 -1.2971 -1.0413 -3.0628
 3041SOL     OW20581   4.045   4.127   1.982  0.1656  0.6190 -0.0072
 3041SOL    HW120582   4.028   4.187   1.909  0.4894 -1.4363 -1.7776
 3041SOL    HW220583   4.014   4.041   1.955  1.1681  0.4883 -0.7493
 3042SOL     OW20584   0.342   3.458   9.804 -0.3596 -0.2688 -0.0899
 3042SOL    HW120585   0.297   3.539   9.826  1.6964  0.7380  0.3853
 3042SOL    HW220586   0.420   3.465   9.859  1.2998 -0.6638 -2.3789
 3043SOL     OW20587   1.542   0.912   9.601 -0.1727  0.0520 -0.2397
 3043SOL    HW120588   1.603   0.950   9.664 -0.5474 -1.0500  0.7821
 3043SOL    HW220589   1.597   0.908   9.523 -1.0485 -0.7968 -0.8064
 3044SOL     OW20590   1.934   1.791   0.733 -0.2484  0.2168  0.5004
 3044SOL    HW120591   1.991   1.819   0.662 -1.4150  1.0845 -0.0934
 3044SOL    HW220592   1.859   1.846   0.710  1.6748  1.7293 -2.1052
 3045SOL     OW20593   1.717   0.196  10.126  0.1847 -0.2290 -0.5255
 3045SOL    HW120594   1.661   0.200  10.049  2.6910  3.6900 -2.1757
 3045SOL    HW220595   1.644   0.181  10.186 -0.2776 -0.3861 -1.1344
 3046SOL     OW20596   1.341   3.175  16.313 -0.1653  0.5535  0.2179
 3046SOL    HW120597   1.389   3.235  16.370  1.5318  1.1718 -1.8543
 3046SOL    HW220598   1.310   3.237  16.247 -1.0010 -0.4575 -0.3569
 3047SOL     OW20599   2.434   0.979  17.185  0.2738  0.2295  0.6032
 3047SOL    HW120600   2.522   1.017  17.179  0.2427  0.2895  0.5202
 3047SOL    HW220601   2.389   1.039  17.125 -0.3583 -0.7287  0.1199
 3048SOL     OW20602   1.381   1.879   3.578 -0.0513 -0.5789 -0.2093
 3048SOL    HW120603   1.384   1.880   3.673  0.6796 -4.0302 -0.2118
 3048SOL    HW220604   1.380   1.786   3.557 -1.7566 -0.8507  1.0855
 3049SOL     OW20605   2.259   3.902   1.984  0.4236  0.1663  0.1608
 3049SOL    HW120606   2.190   3.904   2.050 -0.9616  0.8406 -1.3209
 3049SOL    HW220607   2.220   3.921   1.899 -0.0614 -1.2958  0.0572
 3050SOL     OW20608   3.799   2.241   6.815  0.1946  0.3782  0.0354
 3050SOL    HW120609   3.712   2.223   6.851  0.9471 -1.0918  1.1024
 3050SOL    HW220610   3.829   2.317   6.866 -0.2038 -0.1910  1.1219
 3051SOL     OW20611   2.624   1.968   9.230 -0.4763 -0.1020 -0.3084
 3051SOL    HW120612   2.696   2.008   9.182 -0.1504 -1.3333 -0.8375
 3051SOL    HW220613   2.674   1.940   9.307 -1.8701 -1.5991  0.0604
 3052SOL     OW20614   4.318   0.174  15.532  0.2840 -0.2757  0.5582
 3052SOL    HW120615   4.343   0.106  15.470 -0.8651  0.3047 -0.5507
 3052SOL    HW220616   4.232   0.191  15.494 -0.5172 -1.9079  1.6568
 3053SOL     OW20617   4.370   1.258   2.907 -0.3288 -0.8429 -0.0304
 3053SOL    HW120618   4.458   1.235   2.879  0.1288  0.2931  0.4871
 3053SOL    HW220619   4.331   1.255   2.819  0.3463 -1.2213 -0.3167
 3054SOL     OW20620   1.409   1.940   7.059  0.4616 -0.0141  0.1458
 3054SOL    HW120621   1.438   1.971   7.145  0.7789 -0.2858  0.1379
 3054SOL    HW220622   1.473   1.987   7.005  1.9146 -0.4205  1.5388
 3055SOL     OW20623   4.258   3.373   0.678 -0.1020 -0.3154  0.0584
 3055SOL    HW120624   4.225   3.461   0.698 -4.0724 -2.0392  1.0619
 3055SOL    HW220625   4.227   3.340   0.762  2.3881 -0.4902  0.8981
 3056SOL     OW20626   1.172   2.586  13.462  0.1778  0.1128  0.2217
 3056SOL    HW120627   1.258   2.599  13.504  0.3268  1.7034 -0.5618
 3056SOL    HW220628   1.189   2.499  13.426 -2.1785  0.3979 -1.5419
 3057SOL     OW20629   1.759   3.932   1.615 -0.4618 -0.0014  0.2323
 3057SOL    HW120630   1.845   3.973   1.613 -1.3111  1.7565 -0.4470
 3057SOL    HW220631   1.744   3.912   1.708  1.5693  0.7695  0.7184
 3058SOL     OW20632   3.450   1.823   1.710 -0.4530  0.1086  0.2388
 3058SOL    HW120633   3.453   1.733   1.676 -1.1558  0.4183 -0.6228
 3058SOL    HW220634   3.535   1.843   1.750 -1.1981 -1.1382  2.4895
 3059SOL     OW20635   1.843   1.911   8.345  0.2215  0.1184  0.0407
 3059SOL    HW120636   1.870   1.824   8.314 -1.9452 -1.1957  1.9189
 3059SOL    HW220637   1.819   1.882   8.433  1.3794  0.2350  0.3944
 3060SOL     OW20638   0.297   2.172   6.034  0.3864 -0.7387  0.0261
 3060SOL    HW120639   0.360   2.123   6.087  0.2923 -1.7872 -0.8535
 3060SOL    HW220640   0.249   2.209   6.108  0.4621  1.0072 -0.7962
 3061SOL     OW20641   0.947   3.037   8.624  0.1730 -0.1679 -0.1101
 3061SOL    HW120642   0.987   3.006   8.705 -0.1065 -1.2445 -0.3922
 3061SOL    HW220643   1.004   3.112   8.606 -0.3904 -0.4998 -3.2471
 3062SOL     OW20644   2.106   4.582   4.470 -0.1270  0.2235  0.1177
 3062SOL    HW120645   2.039   4.526   4.510 -0.7412  1.0735  0.2866
 3062SOL    HW220646   2.072   4.670   4.484  1.9730  1.1504 -0.6937
 3063SOL     OW20647   1.647   4.356   8.803  0.1153 -0.0365  0.0305
 3063SOL    HW120648   1.675   4.369   8.713  0.2321  0.9349  0.2099
 3063SOL    HW220649   1.706   4.415   8.850  0.9973 -0.6122 -0.3533
 3064SOL     OW20650   3.485   4.417   8.392 -0.4244  0.5905  0.3967
 3064SOL    HW120651   3.418   4.361   8.431 -0.5092 -0.0743 -0.6958
 3064SOL    HW220652   3.552   4.352   8.372 -1.9211 -1.1286  0.9584
 3065SOL     OW20653   0.330   2.256   5.507 -0.1422  0.0548  0.7217
 3065SOL    HW120654   0.421   2.283   5.494 -0.5585  1.4892  0.7797
 3065SOL    HW220655   0.348   2.191   5.575  3.6416 -0.0033 -0.3387
 3066SOL     OW20656   1.609   4.140  16.218 -0.1472  0.2435 -0.0579
 3066SOL    HW120657   1.596   4.100  16.303 -1.2779  1.3952  0.3075
 3066SOL    HW220658   1.515   4.146  16.203 -0.0295  2.3528  0.0969
 3067SOL     OW20659   2.495   1.112  10.881  0.0117  0.0634  0.1749
 3067SOL    HW120660   2.450   1.172  10.941 -1.1801  0.6928 -1.3580
 3067SOL    HW220661   2.536   1.171  10.818 -0.4697  0.2336  0.0210
 3068SOL     OW20662   0.769   2.952   7.035 -0.1380 -0.0768 -0.4676
 3068SOL    HW120663   0.680   2.979   7.058  0.3842  0.9302  0.3618
 3068SOL    HW220664   0.760   2.858   7.051  0.7696  0.3683  2.8249
 3069SOL     OW20665   1.596   1.972  15.585 -0.4468 -0.2002 -0.1213
 3069SOL    HW120666   1.560   2.028  15.516 -1.9672 -2.7559 -1.3975
 3069SOL    HW220667   1.518   1.924  15.611 -0.3085  0.1430  0.9236
 3070SOL     OW20668   2.913   3.086   4.484 -0.2697  0.1618  0.2732
 3070SOL    HW120669   2.864   3.132   4.552 -1.2531 -0.0269 -0.3100
 3070SOL    HW220670   2.837   3.057   4.435 -0.5122 -2.6080  2.3580
 3071SOL     OW20671   1.182   1.329  13.847 -0.0694 -0.0222  0.3388
 3071SOL    HW120672   1.268   1.295  13.871 -0.2559  1.6298  3.3633
 3071SOL    HW220673   1.221   1.368  13.769  2.1477 -0.4761  1.2350
 3072SOL     OW20674   1.047   2.425   2.801 -0.3018  0.9193  0.2216
 3072SOL    HW120675   0.959   2.458   2.780  0.3733  1.3738 -1.8401
 3072SOL    HW220676   1.083   2.452   2.716  0.1688  1.6237  0.6461
 3073SOL     OW20677   1.219   1.908   3.814 -0.1709 -0.5832 -0.5750
 3073SOL    HW120678   1.153   1.852   3.855 -0.3570  1.7847  2.4203
 3073SOL    HW220679   1.284   1.910   3.884 -0.0446 -0.3539 -0.6969
 3074SOL     OW20680   3.962   3.120   3.903  0.8563 -0.3248 -0.0291
 3074SOL    HW120681   3.983   3.190   3.965 -0.4550 -0.6160  0.7427
 3074SOL    HW220682   4.043   3.119   3.851  2.1820 -2.6492  2.0681
 3075SOL     OW20683   2.341   2.785   5.847 -0.6063  0.1589  0.4167
 3075SOL    HW120684   2.380   2.786   5.760 -0.8302  0.5344  0.3229
 3075SOL    HW220685   2.420   2.792   5.901 -0.3840  1.7875 -0.1306
 3076SOL     OW20686   0.220   0.269  17.345  0.0491 -0.2475  0.1389
 3076SOL    HW120687   0.164   0.347  17.341 -0.6584 -0.7127  0.9706
 3076SOL    HW220688   0.160   0.195  17.341  1.0625 -0.8843 -2.9358
 3077SOL     OW20689   2.270   3.771  17.402 -0.4521  0.0933 -0.2244
 3077SOL    HW120690   2.276   3.833  17.330 -2.6431  1.3963  0.7134
 3077SOL    HW220691   2.359   3.738  17.407 -0.8906 -0.9292  0.7246
 3078SOL     OW20692   1.760   3.790   3.991 -0.1403  0.0194 -0.1137
 3078SOL    HW120693   1.744   3.871   3.941 -1.2067  1.1116  1.9834
 3078SOL    HW220694   1.815   3.738   3.933  0.4753 -0.5270  0.9664
 3079SOL     OW20695   1.700   4.472   4.793 -0.2961  0.1194 -0.1807
 3079SOL    HW120696   1.651   4.554   4.792  0.9638  0.9128  2.6388
 3079SOL    HW220697   1.708   4.444   4.884 -3.6820  0.0347  0.1002
 3080SOL     OW20698   4.454   1.112   3.681  0.1380  0.2420  0.2330
 3080SOL    HW120699   4.422   1.190   3.635 -1.3624 -0.9375 -0.7070
 3080SOL    HW220700   4.508   1.159   3.745  0.2122 -0.9804  1.0552
 3081SOL     OW20701   1.397   0.060  15.729  0.2533  0.2285  0.2373
 3081SOL    HW120702   1.357   0.142  15.701 -0.9243 -0.3097  0.3742
 3081SOL    HW220703   1.327   0.031  15.787 -1.7680  4.2610 -0.1535
 3082SOL     OW20704   4.369   0.039   7.754  0.2269 -0.0342  0.5353
 3082SOL    HW120705   4.445   0.086   7.787  0.4047  0.2814 -0.3078
 3082SOL    HW220706   4.312   0.057   7.829 -0.2776  1.1828 -0.1202
 3083SOL     OW20707   2.456   1.509  16.887  0.3770  0.0246 -0.0155
 3083SOL    HW120708   2.410   1.528  16.805  0.9278 -3.1826 -1.0933
 3083SOL    HW220709   2.454   1.593  16.931 -0.0247 -0.5696  1.0930
 3084SOL     OW20710   4.069   2.559   4.915  0.3589  0.3527  0.3754
 3084SOL    HW120711   4.027   2.543   4.831 -0.7082 -1.4032  1.2467
 3084SOL    HW220712   4.157   2.528   4.893  0.6064  0.2121  1.5789
 3085SOL     OW20713   3.493   1.685   7.452 -0.4954  0.2347 -0.1889
 3085SOL    HW120714   3.576   1.638   7.456 -0.1430  0.7744 -1.0811
 3085SOL    HW220715   3.452   1.677   7.365  1.0319 -1.0179 -0.7876
 3086SOL     OW20716   3.083   3.161  17.573  0.1312  0.1606 -0.0436
 3086SOL    HW120717   3.108   3.200  17.657 -0.7012  0.8844 -0.1269
 3086SOL    HW220718   2.995   3.198  17.566  0.2435  0.6054  0.8272
 3087SOL     OW20719   0.192   0.472   7.167  0.3683 -0.4304 -0.0098
 3087SOL    HW120720   0.279   0.478   7.130 -0.0449  0.5339 -0.8511
 3087SOL    HW220721   0.165   0.560   7.139  0.4383 -0.6143 -0.6401
 3088SOL     OW20722   1.566   4.389   4.419  0.1767  0.0769 -0.8869
 3088SOL    HW120723   1.549   4.370   4.327  0.8977  0.4071 -1.0932
 3088SOL    HW220724   1.488   4.441   4.433  0.4719  0.2918 -0.0567
 3089SOL     OW20725   2.199   1.325   5.929 -0.0899 -0.6847  0.2089
 3089SOL    HW120726   2.124   1.282   5.887  0.1134 -4.2717  3.4700
 3089SOL    HW220727   2.151   1.362   6.002 -0.8684 -1.5602  0.1437
 3090SOL     OW20728   3.272   3.982  11.882 -0.0539  0.1122  0.4390
 3090SOL    HW120729   3.363   3.955  11.896 -0.1256 -0.1029  0.4852
 3090SOL    HW220730   3.259   3.961  11.790 -2.5304  0.5301  0.7075
 3091SOL     OW20731   4.564   2.884  15.819  0.1364 -0.1359 -0.0246
 3091SOL    HW120732   4.587   2.796  15.790 -0.4579 -0.5868  0.8825
 3091SOL    HW220733   4.492   2.877  15.882 -0.0150 -0.0564 -0.1893
 3092SOL     OW20734   1.705   1.228   5.889  0.2151 -0.2371 -0.6761
 3092SOL    HW120735   1.664   1.190   5.812  0.9041  2.1641 -2.2177
 3092SOL    HW220736   1.628   1.280   5.913  2.8815  2.9743  1.0379
 3093SOL     OW20737   0.423   0.321   0.770  0.2866 -0.3873 -0.6231
 3093SOL    HW120738   0.511   0.357   0.774 -0.4896  1.4896 -0.3174
 3093SOL    HW220739   0.413   0.290   0.860 -1.8142 -0.6134 -0.9227
 3094SOL     OW20740   0.871   0.079   4.254  0.6376  0.0355  0.5550
 3094SOL    HW120741   0.824   0.008   4.298  1.1569 -0.2699  0.6133
 3094SOL    HW220742   0.800   0.142   4.239 -0.1672 -1.3769 -1.5231
 3095SOL     OW20743   2.919   1.633  15.115 -0.2524 -0.2604  0.9513
 3095SOL    HW120744   2.959   1.566  15.060  0.8687 -0.1434  1.6057
 3095SOL    HW220745   2.843   1.592  15.155 -0.3049  0.8745  2.0414
 3096SOL     OW20746   4.260   3.459   3.423  0.2049  0.3040 -0.2818
 3096SOL    HW120747   4.282   3.552   3.424  0.7632  0.1644  0.3527
 3096SOL    HW220748   4.169   3.461   3.452 -0.1463  0.1031 -1.3622
 3097SOL     OW20749   1.829   2.696   9.282 -0.2273  0.0908 -0.0147
 3097SOL    HW120750   1.833   2.785   9.247 -1.5673  0.6559  1.2993
 3097SOL    HW220751   1.921   2.671   9.293 -0.0247  0.5528 -0.6492
 3098SOL     OW20752   0.210   3.502   2.202 -0.2524  0.1546 -0.1402
 3098SOL    HW120753   0.193   3.457   2.285  1.6238 -1.3056 -0.5556
 3098SOL    HW220754   0.304   3.515   2.209 -0.5919  2.6691 -0.0004
 3099SOL     OW20755   0.597   0.248   8.444  0.2298 -0.4099 -0.6272
 3099SOL    HW120756   0.618   0.197   8.522 -0.0120  0.2158 -0.1591
 3099SOL    HW220757   0.502   0.251   8.456 -0.1021 -1.9345 -2.7043
 3100SOL     OW20758   2.421   2.454   7.467  0.3246  0.5945  0.0211
 3100SOL    HW120759   2.387   2.530   7.514  0.2518  0.2392  0.5495
 3100SOL    HW220760   2.392   2.383   7.525  0.5291  1.6004  1.3272
 3101SOL     OW20761   3.139   4.274  15.790  0.0706  0.5435  0.1266
 3101SOL    HW120762   3.216   4.300  15.739  0.2205 -1.0876 -0.5051
 3101SOL    HW220763   3.151   4.179  15.798  0.4316  0.6530  0.8610
 3102SOL     OW20764   3.078   1.427   0.297 -0.6559  0.4041  0.1383
 3102SOL    HW120765   3.098   1.398   0.386  0.5452 -1.8380 -0.8611
 3102SOL    HW220766   3.052   1.518   0.309  0.2457  0.7199 -0.2650
 3103SOL     OW20767   0.750   2.253  13.402  0.5511  0.1479 -0.6635
 3103SOL    HW120768   0.720   2.304  13.326  2.4317  1.2917 -0.6356
 3103SOL    HW220769   0.739   2.310  13.478  0.3706 -0.5602 -0.1571
 3104SOL     OW20770   0.165   3.919  14.551  0.0490  0.7286  0.6125
 3104SOL    HW120771   0.229   3.937  14.483  0.9442  2.2152  1.8507
 3104SOL    HW220772   0.161   4.003  14.598 -0.0777  0.8140  0.4468
 3105SOL     OW20773   1.281   0.333   9.653  0.0906 -0.2925 -0.0533
 3105SOL    HW120774   1.245   0.298   9.735  0.4833  1.1974  0.7519
 3105SOL    HW220775   1.374   0.329   9.673 -0.0694  0.3891  0.8232
 3106SOL     OW20776   0.038   3.059   8.060 -0.3920 -0.7005 -0.3102
 3106SOL    HW120777   0.107   2.995   8.040 -1.3549 -1.9242  0.2684
 3106SOL    HW220778   0.028   3.107   7.978 -2.1180 -0.1077  0.2607
 3107SOL     OW20779   0.193   1.131   4.536 -0.1405  0.1700 -0.1279
 3107SOL    HW120780   0.214   1.042   4.508  1.4275  0.4535  0.1536
 3107SOL    HW220781   0.103   1.138   4.503  0.4858  0.3645 -1.8042
 3108SOL     OW20782   1.946   0.324  16.358 -0.3303 -0.2481 -0.2953
 3108SOL    HW120783   2.042   0.322  16.356 -0.3672  0.7854 -3.0730
 3108SOL    HW220784   1.932   0.251  16.419 -1.1194 -0.3853 -0.6364
 3109SOL     OW20785   4.598   1.615   4.108  0.1533 -0.5786  0.2997
 3109SOL    HW120786   4.557   1.576   4.031  2.5037  1.6855 -2.0910
 3109SOL    HW220787   4.690   1.609   4.083  0.0970 -0.3223  0.0313
 3110SOL     OW20788   0.672   2.670  12.216 -0.3768 -0.7876 -0.2037
 3110SOL    HW120789   0.677   2.576  12.232  3.1591 -0.9625 -2.3565
 3110SOL    HW220790   0.613   2.704  12.283  1.6899 -0.7749  1.5688
 3111SOL     OW20791   1.390   2.880   4.724 -0.0532 -0.1108 -0.0376
 3111SOL    HW120792   1.341   2.958   4.699 -2.3433 -1.6964 -0.5352
 3111SOL    HW220793   1.452   2.918   4.786 -0.4902  1.5703 -0.6371
 3112SOL     OW20794   0.820   2.789  13.868 -0.0402 -0.6290 -0.3545
 3112SOL    HW120795   0.838   2.882  13.853  2.7789 -1.2456 -0.8593
 3112SOL    HW220796   0.890   2.744  13.820 -0.4625 -2.4770  0.7507
 3113SOL     OW20797   2.135   3.029   3.752  0.1519  0.0036 -0.3294
 3113SOL    HW120798   2.116   2.956   3.693  2.9876 -0.9290 -0.1024
 3113SOL    HW220799   2.067   3.095   3.736  0.6418 -0.0764 -2.7671
 3114SOL     OW20800   2.927   3.904   1.749 -0.0023  0.2728  0.0288
 3114SOL    HW120801   2.872   3.962   1.801 -0.6919 -0.0505 -0.3420
 3114SOL    HW220802   3.007   3.910   1.801 -0.1352  1.2142  0.1197
 3115SOL     OW20803   2.873   0.799  17.036 -0.6687  0.1311 -0.2746
 3115SOL    HW120804   2.938   0.869  17.047 -1.0323  0.3346  0.5208
 3115SOL    HW220805   2.824   0.791  17.117  1.4132 -3.9298  0.5900
 3116SOL     OW20806   1.317   3.138   3.634 -0.0829  0.2241  0.0713
 3116SOL    HW120807   1.324   3.151   3.540  1.3162  0.3604  0.1948
 3116SOL    HW220808   1.280   3.221   3.665 -0.5998 -0.0192  0.1070
 3117SOL     OW20809   0.201   4.062   4.679  0.8526 -0.4459  0.3180
 3117SOL    HW120810   0.262   4.071   4.752  0.0148  0.5500  0.8816
 3117SOL    HW220811   0.202   4.148   4.636  0.2987  0.0332  1.2811
 3118SOL     OW20812   3.738   3.907  14.417  0.7914  0.2212 -0.1225
 3118SOL    HW120813   3.780   3.992  14.427  0.3032  0.5757 -1.0630
 3118SOL    HW220814   3.803   3.852  14.374  1.0715  1.3773 -1.1856
 3119SOL     OW20815   1.034   1.178   5.671  0.1344 -0.5263 -0.7367
 3119SOL    HW120816   1.050   1.098   5.620 -2.7099 -2.1078  0.8415
 3119SOL    HW220817   0.938   1.181   5.669  0.0836 -1.5179 -0.0587
 3120SOL     OW20818   2.243   4.598   0.755  0.2037 -0.3486  0.5191
 3120SOL    HW120819   2.229   4.657   0.829  0.9586  1.1350 -0.5026
 3120SOL    HW220820   2.337   4.584   0.757  0.2577 -0.0823 -0.0192
 3121SOL     OW20821   4.723   1.628  16.680 -0.0990  0.2252 -0.1694
 3121SOL    HW120822   0.023   1.681  16.755  0.3235  1.1350 -0.9494
 3121SOL    HW220823   4.658   1.569  16.718  1.1873 -1.3504 -0.4091
 3122SOL     OW20824   3.922   2.192   2.832  0.0145 -0.2970 -0.1839
 3122SOL    HW120825   3.967   2.180   2.749 -2.6756  2.3510 -2.0073
 3122SOL    HW220826   3.850   2.129   2.824 -1.0690  1.4007 -3.5264
 3123SOL     OW20827   2.437   0.954   3.619 -0.9173  0.1266  0.4085
 3123SOL    HW120828   2.409   0.877   3.570  1.3036  0.0111 -0.6945
 3123SOL    HW220829   2.357   0.982   3.664 -1.8639 -1.2323 -0.4468
 3124SOL     OW20830   4.383   1.963   9.458 -0.3113 -0.3306 -0.3841
 3124SOL    HW120831   4.431   2.040   9.427 -2.1041  0.4479 -1.1945
 3124SOL    HW220832   4.449   1.898   9.431  0.3449  0.1083  0.1809
 3125SOL     OW20833   0.723   3.172   0.363 -0.1843  0.2067 -0.2205
 3125SOL    HW120834   0.637   3.199   0.396  0.3681 -0.1260  1.4668
 3125SOL    HW220835   0.735   3.078   0.379  1.0258  0.2124 -1.1081
 3126SOL     OW20836   0.951   1.243  13.726  0.1485  0.1670  0.5456
 3126SOL    HW120837   0.901   1.314  13.766 -1.7982 -1.1960  0.5186
 3126SOL    HW220838   1.041   1.272  13.740  0.1296  0.0686  0.8829
 3127SOL     OW20839   0.719   0.210   1.654 -0.0778 -0.4777  0.6039
 3127SOL    HW120840   0.680   0.286   1.697  2.0328  0.4461  0.9168
 3127SOL    HW220841   0.723   0.150   1.728  1.1874 -0.2630  0.7136
 3128SOL     OW20842   2.798   3.209   6.286 -0.0598  0.3620 -0.5071
 3128SOL    HW120843   2.745   3.145   6.334  0.4388  0.4734  0.1955
 3128SOL    HW220844   2.873   3.156   6.260 -0.6560 -1.5904  1.7045
 3129SOL     OW20845   0.770   3.439   3.260 -0.3756 -0.5407 -0.1695
 3129SOL    HW120846   0.790   3.354   3.222 -3.2563 -1.1436 -0.3293
 3129SOL    HW220847   0.850   3.444   3.311  0.8265 -1.7750 -1.9672
 3130SOL     OW20848   3.940   2.760  11.322  0.1398  0.0059  0.1124
 3130SOL    HW120849   3.903   2.689  11.270 -0.6403  0.5728 -0.1049
 3130SOL    HW220850   3.879   2.831  11.303  0.8050  0.8708  1.2307
 3131SOL     OW20851   0.628   1.803   7.933 -0.0356  0.3914  0.3057
 3131SOL    HW120852   0.647   1.772   8.022 -0.5240  1.1397  0.6732
 3131SOL    HW220853   0.601   1.728   7.881  0.7928 -0.9179  1.7475
 3132SOL     OW20854   4.389   2.484   7.678  0.5345 -0.0821  0.4601
 3132SOL    HW120855   4.306   2.530   7.664  0.7610 -0.3341 -1.7827
 3132SOL    HW220856   4.440   2.519   7.606  1.0148 -1.4364  0.1382
 3133SOL     OW20857   4.616   4.463   4.233  0.0673  0.4189  0.2488
 3133SOL    HW120858   4.522   4.448   4.224  0.1243  0.1023  0.1704
 3133SOL    HW220859   4.612   4.545   4.282  2.1727 -0.2087  1.4652
 3134SOL     OW20860   2.513   3.281   1.463  0.1443  0.9195 -0.1028
 3134SOL    HW120861   2.527   3.234   1.381  0.7175  1.7184 -0.4725
 3134SOL    HW220862   2.559   3.363   1.444  2.0472  0.1712  1.2967
 3135SOL     OW20863   3.729   4.074  10.087  0.4126 -0.8400 -0.2666
 3135SOL    HW120864   3.652   4.019  10.101 -1.0713  0.9143 -1.4290
 3135SOL    HW220865   3.744   4.087   9.993 -1.8212  0.0009 -0.5259
 3136SOL     OW20866   0.518   3.629   2.999  0.3585  0.5835  0.2119
 3136SOL    HW120867   0.579   3.603   2.930 -1.8299 -0.7235 -1.2539
 3136SOL    HW220868   0.453   3.669   2.941  1.9069 -0.7524 -2.4676
 3137SOL     OW20869   2.146   3.891   9.245 -0.2074  0.2392 -0.1184
 3137SOL    HW120870   2.072   3.952   9.244  0.9487  1.6449 -0.7605
 3137SOL    HW220871   2.086   3.817   9.236  0.2007 -0.0204 -0.6259
 3138SOL     OW20872   3.215   4.528   4.770  0.3383 -0.9489  0.4287
 3138SOL    HW120873   3.176   4.615   4.776 -0.0792 -1.2115  1.4945
 3138SOL    HW220874   3.290   4.552   4.716  0.6619 -2.7398  0.0653
 3139SOL     OW20875   3.514   4.232   7.076 -0.5917  0.0904  0.8772
 3139SOL    HW120876   3.424   4.204   7.092 -0.5950 -0.9865 -1.0429
 3139SOL    HW220877   3.503   4.325   7.098 -0.7756  0.3928 -0.4349
 3140SOL     OW20878   2.229   2.616   4.948  0.1657 -0.3250 -0.1724
 3140SOL    HW120879   2.181   2.617   4.865  0.6038  0.3208 -0.4229
 3140SOL    HW220880   2.277   2.698   4.936  1.6324 -0.8031  2.4559
 3141SOL     OW20881   4.566   3.175   8.166 -0.2283 -0.5363 -0.2782
 3141SOL    HW120882   4.651   3.142   8.135 -0.7653 -0.2501 -2.0392
 3141SOL    HW220883   4.562   3.262   8.126 -1.8083 -1.1092 -1.3455
 3142SOL     OW20884   2.643   3.298   0.942 -0.4732 -0.5256  0.2347
 3142SOL    HW120885   2.666   3.371   0.885 -2.0418 -0.7385 -0.6720
 3142SOL    HW220886   2.573   3.262   0.888  1.5207 -2.3783 -1.1131
 3143SOL     OW20887   1.625   3.584   5.509 -0.9152 -0.3088 -0.1495
 3143SOL    HW120888   1.719   3.587   5.525 -0.3798 -1.5180 -3.0651
 3143SOL    HW220889   1.614   3.517   5.441  4.0273 -1.4215  0.1852
 3144SOL     OW20890   4.409   2.075  11.776 -0.1360  0.1974  0.1024
 3144SOL    HW120891   4.322   2.053  11.808 -0.1984  1.7641  0.9927
 3144SOL    HW220892   4.390   2.120  11.694  1.3691 -0.4018 -0.5990
 3145SOL     OW20893   2.616   1.177   6.473  0.3126 -0.5720  0.4133
 3145SOL    HW120894   2.675   1.180   6.398  0.2796 -1.7829  0.3508
 3145SOL    HW220895   2.683   1.188   6.541  0.2785  0.5621  0.2621
 3146SOL     OW20896   1.572   1.877   5.279  0.7185 -0.2947  0.3020
 3146SOL    HW120897   1.596   1.811   5.343 -0.2502 -1.2140 -0.2935
 3146SOL    HW220898   1.523   1.828   5.213  0.9123  2.3887 -1.8503
 3147SOL     OW20899   0.597   0.929  12.436  0.1111 -0.0922 -0.0897
 3147SOL    HW120900   0.630   0.958  12.521 -2.0097  1.7602  0.1033
 3147SOL    HW220901   0.666   0.975  12.388 -1.1619  2.4609  0.4913
 3148SOL     OW20902   1.239   3.406   3.667 -0.8356 -0.0898 -0.6644
 3148SOL    HW120903   1.155   3.447   3.688 -1.1837 -0.6757 -0.8912
 3148SOL    HW220904   1.265   3.458   3.591 -0.6443 -0.2464 -0.7052
 3149SOL     OW20905   3.690   4.195   9.528 -0.3361  0.1240  0.1390
 3149SOL    HW120906   3.632   4.121   9.513 -1.4883  0.8374  1.1240
 3149SOL    HW220907   3.748   4.178   9.454 -0.7710 -0.5566 -0.0481
 3150SOL     OW20908   1.150   0.070   2.261  0.4251  0.4322  0.1063
 3150SOL    HW120909   1.077   0.016   2.231  0.4133 -0.4153  1.6181
 3150SOL    HW220910   1.188   0.020   2.334  0.3634  0.3494  0.0822
 3151SOL     OW20911   4.160   4.311   8.311  0.3040  0.1463 -0.6400
 3151SOL    HW120912   4.114   4.318   8.395 -0.6099  1.6752 -1.2804
 3151SOL    HW220913   4.251   4.289   8.333 -0.8054 -1.0304  2.8557
 3152SOL     OW20914   3.918   1.616   6.746 -0.7960  0.1466 -0.0871
 3152SOL    HW120915   3.870   1.666   6.680  2.4459  2.3251 -0.7830
 3152SOL    HW220916   3.905   1.524   6.723  0.5889 -0.5453  1.8622
 3153SOL     OW20917   2.965   1.597   2.161  0.0265 -0.4175  0.0990
 3153SOL    HW120918   2.955   1.670   2.223 -0.0619  0.0245 -0.4373
 3153SOL    HW220919   2.884   1.604   2.110 -0.1998 -1.1001  0.3658
 3154SOL     OW20920   3.547   2.890   4.683 -0.5218 -0.2727  0.8192
 3154SOL    HW120921   3.545   2.864   4.591 -2.1831  0.1227  0.7442
 3154SOL    HW220922   3.477   2.955   4.683  1.1602  1.5461  0.4618
 3155SOL     OW20923   2.381   0.855  11.278  0.3577 -0.1450  0.2163
 3155SOL    HW120924   2.445   0.834  11.210 -1.6491 -1.4696 -1.2752
 3155SOL    HW220925   2.388   0.779  11.336 -0.7655  1.0733  1.9466
 3156SOL     OW20926   3.050   1.174   1.258  0.1418 -0.0909  0.5233
 3156SOL    HW120927   2.992   1.099   1.268 -1.1325  0.3145 -3.7038
 3156SOL    HW220928   3.132   1.125   1.250 -0.2998 -0.7242 -0.1223
 3157SOL     OW20929   1.666   0.740  10.809  0.3038 -0.2349  0.2594
 3157SOL    HW120930   1.643   0.788  10.730  1.4950  1.9856  1.2699
 3157SOL    HW220931   1.615   0.661  10.791  1.0690 -0.6203 -0.2203
 3158SOL     OW20932   4.172   1.280   3.242  0.1788 -0.0221  0.0933
 3158SOL    HW120933   4.189   1.211   3.178 -0.6957 -0.4290  0.2880
 3158SOL    HW220934   4.225   1.352   3.208  0.2190  0.4232  1.0980
 3159SOL     OW20935   2.826   3.536   6.266 -0.5894  0.5673  0.8775
 3159SOL    HW120936   2.808   3.444   6.281 -2.0629  0.4166 -1.7246
 3159SOL    HW220937   2.740   3.575   6.246 -0.4732  0.4068  0.0628
 3160SOL     OW20938   0.579   2.668   0.380  0.0795 -0.0098 -0.2826
 3160SOL    HW120939   0.495   2.627   0.360  0.3135  0.2444 -1.7983
 3160SOL    HW220940   0.616   2.608   0.444 -1.3620  1.1360  1.6040
 3161SOL     OW20941   2.680   1.863  15.966 -0.4456  0.4472  0.2881
 3161SOL    HW120942   2.598   1.819  15.945  0.2695 -0.1286 -1.2580
 3161SOL    HW220943   2.663   1.954  15.939 -0.7063 -0.1173 -1.4073
 3162SOL     OW20944   0.301   3.220   9.684  0.1133  0.4221 -0.0195
 3162SOL    HW120945   0.386   3.178   9.670  0.5752  1.8559 -1.5365
 3162SOL    HW220946   0.325   3.296   9.738  0.0273 -0.6572  1.5231
 3163SOL     OW20947   2.642   2.646   4.782 -0.1847  0.6052  0.3500
 3163SOL    HW120948   2.667   2.571   4.836  0.9286  1.4483  1.0073
 3163SOL    HW220949   2.664   2.617   4.694  0.3701  1.1113  0.3245
 3164SOL     OW20950   1.627   0.344  14.747  0.0441  0.1558  0.2009
 3164SOL    HW120951   1.561   0.411  14.765  1.0189  1.4160 -0.9297
 3164SOL    HW220952   1.566   0.275  14.722  0.8759 -0.9121  1.1567
 3165SOL     OW20953   4.619   3.208  11.497 -0.3639  0.2078 -0.0678
 3165SOL    HW120954   4.651   3.285  11.451  0.9658 -0.5229 -0.3568
 3165SOL    HW220955   4.524   3.218  11.487 -0.5404 -0.4741  0.9207
 3166SOL     OW20956   2.686   2.184   8.299 -0.7451 -0.0394  0.2580
 3166SOL    HW120957   2.760   2.177   8.359  1.5296  1.6493 -2.2995
 3166SOL    HW220958   2.724   2.260   8.253 -1.0156 -0.8064 -1.2310
 3167SOL     OW20959   4.298   1.549   5.000  0.6066 -0.1213  0.8303
 3167SOL    HW120960   4.233   1.484   4.971 -0.4149  1.9473 -1.4794
 3167SOL    HW220961   4.251   1.585   5.075  0.0022 -1.2731  1.0115
 3168SOL     OW20962   1.330   3.969   5.061 -0.2078  0.0227 -0.0010
 3168SOL    HW120963   1.358   3.890   5.015  1.1457  0.5268 -0.0612
 3168SOL    HW220964   1.413   4.016   5.071  0.5352 -0.7662 -2.6313
 3169SOL     OW20965   1.703   0.536  11.679 -0.4561 -0.0287  0.1921
 3169SOL    HW120966   1.750   0.614  11.649 -1.4469  0.6771  0.4760
 3169SOL    HW220967   1.764   0.462  11.691  2.7675  2.2704 -1.9344
 3170SOL     OW20968   3.120   2.110   3.482  0.5660 -0.0403 -0.2539
 3170SOL    HW120969   3.190   2.134   3.420 -1.1671  1.1515 -1.7446
 3170SOL    HW220970   3.064   2.050   3.433 -1.5671  1.0051  0.9280
 3171SOL     OW20971   1.971   2.124   5.963  0.0831 -0.1710  0.0543
 3171SOL    HW120972   2.042   2.151   5.904  2.3809 -2.0928  1.9131
 3171SOL    HW220973   1.951   2.038   5.925  2.0065 -1.1413  1.2398
 3172SOL     OW20974   4.625   0.898   7.872 -0.0201 -0.9185  0.5896
 3172SOL    HW120975   4.708   0.944   7.878 -1.1808  1.2275  0.2837
 3172SOL    HW220976   4.657   0.823   7.922  0.7971  0.0052  1.4729
 3173SOL     OW20977   3.734   1.995   2.825 -0.0778  0.4780  0.2792
 3173SOL    HW120978   3.766   1.921   2.877 -1.0299 -1.7245 -2.2467
 3173SOL    HW220979   3.663   1.951   2.778  0.9337 -1.1436  0.2611
 3174SOL     OW20980   3.806   0.642  15.728  0.0738 -0.0215 -0.4127
 3174SOL    HW120981   3.849   0.727  15.725 -0.9553  0.5116 -0.0561
 3174SOL    HW220982   3.872   0.579  15.757 -0.4695 -0.0273  0.7971
 3175SOL     OW20983   0.238   3.245   3.131  0.2827  0.1777  0.1115
 3175SOL    HW120984   0.292   3.318   3.159  0.5131 -0.8326  2.3217
 3175SOL    HW220985   0.211   3.216   3.218 -1.2097 -0.5857 -0.5982
 3176SOL     OW20986   1.545   1.994  11.793 -0.1215  0.7139 -0.4492
 3176SOL    HW120987   1.589   1.996  11.877  2.7687  0.8758 -1.9712
 3176SOL    HW220988   1.502   2.079  11.786 -1.0756  0.4209  1.8410
 3177SOL     OW20989   3.003   3.856   6.869  0.2258  0.9284  0.1327
 3177SOL    HW120990   2.917   3.888   6.843  0.0608  2.0192  2.0305
 3177SOL    HW220991   2.993   3.840   6.963  1.3406 -2.1511 -0.2671
 3178SOL     OW20992   4.688   0.663   8.565 -0.0821  0.3438  0.5363
 3178SOL    HW120993   4.721   0.674   8.654  1.0809 -0.2720  0.1727
 3178SOL    HW220994   4.611   0.720   8.570 -0.4213  0.0081 -0.8956
 3179SOL     OW20995   1.455   1.026  12.079 -0.0198  0.1447 -0.1374
 3179SOL    HW120996   1.470   1.090  12.148 -3.5061 -0.6739  1.3470
 3179SOL    HW220997   1.435   0.945  12.126 -1.3954  0.4716 -0.1588
 3180SOL     OW20998   0.867   4.076   0.229 -0.1505  0.3831 -0.3630
 3180SOL    HW120999   0.847   4.039   0.143 -0.2367  1.7810 -0.9446
 3180SOL    HW221000   0.962   4.077   0.224 -0.0409 -1.2713  1.3452
 3181SOL     OW21001   3.695   2.551  10.597  0.3860 -0.2233  0.7662
 3181SOL    HW121002   3.764   2.516  10.653 -0.7158 -0.1089  2.2032
 3181SOL    HW221003   3.653   2.471  10.564  1.6148  0.4012 -2.2686
 3182SOL     OW21004   0.762   2.559   6.106 -0.4574  0.1630 -0.3084
 3182SOL    HW121005   0.699   2.507   6.056 -0.7145  0.7151 -0.5586
 3182SOL    HW221006   0.756   2.515   6.191 -0.5311  3.6923  1.5696
 3183SOL     OW21007   0.290   3.894   0.965  0.1153  0.5874 -0.5786
 3183SOL    HW121008   0.286   3.989   0.958 -0.1067  0.6188 -0.0363
 3183SOL    HW221009   0.303   3.884   1.059  0.4142  0.7534 -0.6012
 3184SOL     OW21010   0.839   1.561   7.722  0.1203 -0.0428 -0.2956
 3184SOL    HW121011   0.754   1.539   7.762  0.4744 -0.0200  0.4702
 3184SOL    HW221012   0.889   1.490   7.762 -1.0798  0.0641  1.4067
 3185SOL     OW21013   2.054   3.044  14.500 -0.0561  0.1277  0.6235
 3185SOL    HW121014   2.122   2.977  14.493 -1.9250 -1.3129 -3.9047
 3185SOL    HW221015   2.047   3.051  14.595 -0.9921  1.7007  0.4416
 3186SOL     OW21016   2.912   3.580   8.553 -0.6333  0.6502  0.2338
 3186SOL    HW121017   2.854   3.614   8.485 -2.3917 -0.7202  1.0349
 3186SOL    HW221018   2.894   3.489   8.533 -0.7521 -0.1511  4.0011
 3187SOL     OW21019   2.899   3.535   4.478 -0.2073  0.8212  0.2353
 3187SOL    HW121020   2.821   3.578   4.444 -1.1280 -1.0951 -0.0964
 3187SOL    HW221021   2.948   3.516   4.398  0.4614  0.2271  0.7902
 3188SOL     OW21022   0.276   1.518   9.534 -0.6055  0.4358  0.1198
 3188SOL    HW121023   0.359   1.503   9.580 -1.0190  0.2401  0.7996
 3188SOL    HW221024   0.238   1.434   9.557 -0.9163  0.4364 -0.3967
 3189SOL     OW21025   2.411   1.785   1.971 -0.4470  0.4152 -0.1269
 3189SOL    HW121026   2.461   1.849   2.022 -0.2497  0.2064 -0.0577
 3189SOL    HW221027   2.451   1.791   1.884  1.1284  2.1311  0.7201
 3190SOL     OW21028   0.306   2.885   8.955  0.3068  0.2358 -0.5254
 3190SOL    HW121029   0.285   2.918   8.868 -0.9099  2.5345  0.6326
 3190SOL    HW221030   0.392   2.848   8.937  1.3740  2.2768  0.3433
 3191SOL     OW21031   1.054   1.193  13.477 -0.0280 -0.0665 -0.2374
 3191SOL    HW121032   1.057   1.098  13.471 -0.9886 -0.1058 -0.2039
 3191SOL    HW221033   1.014   1.208  13.563 -0.5310  1.6369 -0.7582
 3192SOL     OW21034   1.401   2.893   6.711  0.4007 -0.2027 -0.1225
 3192SOL    HW121035   1.488   2.895   6.750  1.2660 -4.2029 -1.7772
 3192SOL    HW221036   1.342   2.921   6.780 -0.5503 -0.0794 -0.9966
 3193SOL     OW21037   2.914   3.158   8.061  0.4384 -0.4234 -0.1712
 3193SOL    HW121038   2.938   3.104   7.986  0.3723 -1.3303  0.4586
 3193SOL    HW221039   2.883   3.097   8.127 -0.3183  0.4528  0.2796
 3194SOL     OW21040   4.464   4.201   8.621 -0.4820 -0.0971  0.8803
 3194SOL    HW121041   4.401   4.129   8.631 -1.7318  0.9593  0.6492
 3194SOL    HW221042   4.494   4.211   8.711  1.2813 -0.4733  0.3336
 3195SOL     OW21043   4.645   1.785   5.823  0.0620 -1.1221  0.2360
 3195SOL    HW121044   4.675   1.695   5.812 -0.5943 -1.5889  2.1889
 3195SOL    HW221045   4.724   1.834   5.798 -1.0328  1.3072  1.4990
 3196SOL     OW21046   2.602   2.686  12.591  0.2155  0.3352  0.4851
 3196SOL    HW121047   2.549   2.692  12.671 -2.0404 -1.7848 -0.8471
 3196SOL    HW221048   2.533   2.669  12.527 -0.8964  1.7912  1.2916
 3197SOL     OW21049   4.353   0.693   1.344 -0.0710  0.1075 -0.2659
 3197SOL    HW121050   4.279   0.656   1.296  0.8679 -0.4094 -1.3160
 3197SOL    HW221051   4.318   0.778   1.370  0.3898  0.2103  0.0277
 3198SOL     OW21052   3.027   1.478   7.862  0.3637  0.4315  0.6031
 3198SOL    HW121053   3.028   1.538   7.936  0.6433  0.8464  0.2654
 3198SOL    HW221054   3.106   1.429   7.886  0.9474  1.0949  0.0717
 3199SOL     OW21055   2.800   4.682   7.799 -0.9088 -0.0944 -0.3394
 3199SOL    HW121056   2.765   4.724   7.878 -1.6015 -1.1047 -0.1123
 3199SOL    HW221057   2.849   0.021   7.749 -2.1104  0.9260 -0.2008
 3200SOL     OW21058   2.448   1.201   5.815 -0.2483  0.1551  0.2465
 3200SOL    HW121059   2.361   1.218   5.851 -0.6486  0.6332 -0.9544
 3200SOL    HW221060   2.502   1.268   5.858 -1.6890  1.5631 -0.1198
 3201SOL     OW21061   3.445   2.634   5.780  0.3572  0.4859  0.0408
 3201SOL    HW121062   3.507   2.639   5.706  3.2310  1.5334  2.5221
 3201SOL    HW221063   3.505   2.647   5.854  1.2310 -0.0432 -0.5646
 3202SOL     OW21064   2.449   2.943   3.967 -0.0670 -0.1738  0.1532
 3202SOL    HW121065   2.474   2.974   4.054 -0.7416  0.3639  0.1529
 3202SOL    HW221066   2.531   2.951   3.919  0.3323  0.2341  0.8949
 3203SOL     OW21067   0.082   3.228   2.916  0.2169 -0.5894 -0.2003
 3203SOL    HW121068   0.142   3.230   2.990  0.1436  1.5984 -0.2055
 3203SOL    HW221069   4.721   3.237   2.955  0.4193  1.3580 -0.1935
 3204SOL     OW21070   1.732   4.037  14.838  0.2474  0.1417  0.8658
 3204SOL    HW121071   1.753   4.120  14.795  2.0001 -0.4750  0.5371
 3204SOL    HW221072   1.646   4.069  14.867 -0.4155 -0.9975  0.1654
 3205SOL     OW21073   4.229   1.822  15.681 -0.9492  0.1720  0.1738
 3205SOL    HW121074   4.156   1.788  15.629 -1.4336  1.3720  0.0582
 3205SOL    HW221075   4.267   1.744  15.721  0.3821  0.0072 -1.4009
 3206SOL     OW21076   1.605   4.357  13.315 -0.4023  0.3535  1.0039
 3206SOL    HW121077   1.687   4.401  13.292 -1.4136  0.7035 -1.8898
 3206SOL    HW221078   1.585   4.421  13.384  1.2675 -0.4598  2.2658
 3207SOL     OW21079   1.292   1.294  16.852 -0.2584  0.4079  0.0189
 3207SOL    HW121080   1.345   1.340  16.918  1.2262 -2.6469  0.9720
 3207SOL    HW221081   1.345   1.315  16.775  0.5954 -0.5474  0.3471
 3208SOL     OW21082   0.489   1.317  10.276  0.1875  0.1669  0.2292
 3208SOL    HW121083   0.467   1.410  10.275 -1.3804 -0.2138 -0.3253
 3208SOL    HW221084   0.406   1.271  10.287 -1.2000  2.3495 -0.9654
 3209SOL     OW21085   1.025   2.078   5.512  0.1633 -0.2688 -0.2947
 3209SOL    HW121086   1.043   2.160   5.558 -3.3172  1.9023 -2.7021
 3209SOL    HW221087   1.105   2.076   5.459  0.6210 -0.1694  0.3926
 3210SOL     OW21088   0.386   4.028   6.665  0.2334  0.2149 -0.1345
 3210SOL    HW121089   0.330   4.003   6.591  0.4483 -1.7902  0.3839
 3210SOL    HW221090   0.471   4.019   6.621 -0.6100 -0.4760 -1.6328
 3211SOL     OW21091   2.660   2.678   3.784  0.0894 -0.2902 -0.3784
 3211SOL    HW121092   2.724   2.692   3.714  2.4272  1.2704  2.0869
 3211SOL    HW221093   2.581   2.722   3.752  0.9483  1.9887  0.6511
 3212SOL     OW21094   4.423   1.036   7.424 -0.7630  0.4911  0.6907
 3212SOL    HW121095   4.443   1.049   7.331 -1.7947 -0.0059  0.4024
 3212SOL    HW221096   4.467   1.109   7.466  1.3408 -0.6257  0.3978
 3213SOL     OW21097   1.957   2.278   6.659  0.4981  0.1005  0.4767
 3213SOL    HW121098   1.893   2.347   6.676 -0.1639 -0.1398 -1.1073
 3213SOL    HW221099   1.903   2.199   6.661  0.7277 -0.0942 -1.5750
 3214SOL     OW21100   2.643   3.738   5.051 -0.3094  0.1857  0.2227
 3214SOL    HW121101   2.683   3.818   5.086  0.9381 -0.6409  0.6949
 3214SOL    HW221102   2.561   3.727   5.100 -1.1850  1.3871 -0.9977
 3215SOL     OW21103   1.906   0.243   8.866 -0.4685  0.5015  0.0328
 3215SOL    HW121104   1.994   0.217   8.837 -0.9303  0.0394 -0.9215
 3215SOL    HW221105   1.926   0.236   8.959 -0.6534  0.5805  0.0773
 3216SOL     OW21106   1.307   3.613   1.855 -0.2325 -0.2669 -0.2440
 3216SOL    HW121107   1.309   3.547   1.924 -1.9036  1.4604  1.4424
 3216SOL    HW221108   1.337   3.561   1.780 -1.1797 -0.4622 -0.4888
 3217SOL     OW21109   1.840   1.875   7.818  0.1560  0.1627 -0.1933
 3217SOL    HW121110   1.808   1.960   7.788 -1.2109 -0.6384 -0.9712
 3217SOL    HW221111   1.915   1.884   7.759 -2.1669 -2.8832 -3.5721
 3218SOL     OW21112   2.796   1.980   8.688  0.1931  0.1072  0.2535
 3218SOL    HW121113   2.746   1.913   8.641  2.1826 -0.5250 -0.9385
 3218SOL    HW221114   2.847   1.934   8.755 -2.0956 -0.5876  1.5374
 3219SOL     OW21115   1.344   3.702  13.542  0.2355 -0.1807  0.3719
 3219SOL    HW121116   1.315   3.719  13.632  0.4128  3.3520 -0.2324
 3219SOL    HW221117   1.417   3.762  13.531 -0.5700  0.7520  0.1149
 3220SOL     OW21118   2.603   2.437   7.265 -0.2005 -0.6288  0.0534
 3220SOL    HW121119   2.540   2.457   7.335 -0.5223 -2.1113  0.1990
 3220SOL    HW221120   2.570   2.351   7.239  0.6041 -0.9214  0.0169
 3221SOL     OW21121   4.221   1.352  10.892 -0.1439  0.0189 -0.8178
 3221SOL    HW121122   4.170   1.432  10.884  1.7436  0.9599 -3.4433
 3221SOL    HW221123   4.261   1.353  10.979 -0.4913  0.4405 -0.6649
 3222SOL     OW21124   2.254   0.463   8.731  0.2204  0.1686 -0.0262
 3222SOL    HW121125   2.218   0.424   8.651 -2.5370  2.4068  0.1027
 3222SOL    HW221126   2.168   0.491   8.761  1.3745  3.7947 -0.0881
 3223SOL     OW21127   2.490   2.221   3.780 -0.5585 -0.6028  0.0581
 3223SOL    HW121128   2.503   2.256   3.692  0.7140  3.5608  1.8946
 3223SOL    HW221129   2.553   2.271   3.831  1.3100 -0.2878 -2.5425
 3224SOL     OW21130   2.292   1.568  15.397 -0.0398 -0.2299 -0.1029
 3224SOL    HW121131   2.231   1.634  15.428  0.0985  0.0027 -0.3249
 3224SOL    HW221132   2.310   1.584  15.304  1.3496  1.3293  0.4384
 3225SOL     OW21133   4.230   3.124   4.213 -0.2596  0.1202 -0.3431
 3225SOL    HW121134   4.262   3.127   4.303 -0.3105  1.6719 -0.3823
 3225SOL    HW221135   4.288   3.186   4.169  2.9274 -3.3403 -1.0114
 3226SOL     OW21136   2.723   3.340   3.010  0.2747  0.2215  0.6185
 3226SOL    HW121137   2.671   3.414   2.978  0.2727 -0.6524 -1.3983
 3226SOL    HW221138   2.654   3.276   3.028  0.0526  0.5874  1.0732
 3227SOL     OW21139   3.293   2.981   2.106  0.1512  0.8991 -0.0708
 3227SOL    HW121140   3.307   2.937   2.023  0.1497 -0.1573  0.4944
 3227SOL    HW221141   3.380   2.978   2.146  0.2862  0.6473 -0.3894
 3228SOL     OW21142   4.580   3.768   6.290 -0.3448  0.3487 -0.3332
 3228SOL    HW121143   4.589   3.861   6.270  0.2392  0.0272 -1.6081
 3228SOL    HW221144   4.617   3.754   6.377  0.2646  1.0454 -0.4826
 3229SOL     OW21145   2.637   1.307   6.045  0.2595 -0.5180  0.5710
 3229SOL    HW121146   2.686   1.225   6.051  0.6957 -0.4508 -1.9498
 3229SOL    HW221147   2.692   1.352   5.981  0.9087 -2.2561 -0.0873
 3230SOL     OW21148   3.375   4.390  10.135 -0.2432 -0.2776 -0.5411
 3230SOL    HW121149   3.345   4.302  10.159 -1.0399 -0.3124 -1.6750
 3230SOL    HW221150   3.456   4.385  10.187 -0.9494  1.4842  0.7037
 3231SOL     OW21151   4.498   1.263   4.611 -0.0891  0.2141  0.0928
 3231SOL    HW121152   4.405   1.256   4.589 -0.4051 -1.1631  1.8141
 3231SOL    HW221153   4.535   1.304   4.533 -1.5539  1.4086  0.0358
 3232SOL     OW21154   2.969   2.705   2.479  0.5186 -0.4547 -0.2439
 3232SOL    HW121155   2.978   2.659   2.395 -0.0866 -0.7818 -0.1366
 3232SOL    HW221156   2.881   2.677   2.505  0.4512 -0.3938 -0.4059
 3233SOL     OW21157   1.606   1.456   8.684 -0.0191  0.0800  0.4746
 3233SOL    HW121158   1.564   1.429   8.766  1.8077 -0.1511  1.3434
 3233SOL    HW221159   1.590   1.550   8.685 -1.4448 -0.1598 -1.6170
 3234SOL     OW21160   3.362   4.308  16.526 -0.3164  0.4012 -0.0449
 3234SOL    HW121161   3.383   4.377  16.463 -1.6084  0.9628  0.1429
 3234SOL    HW221162   3.279   4.281  16.487  0.5984 -3.6719  0.7970
 3235SOL     OW21163   1.696   4.679  17.604  0.5340  0.1562 -0.1021
 3235SOL    HW121164   1.747   4.609  17.563  0.5026 -1.5177  2.7179
 3235SOL    HW221165   1.680   0.024  17.541  1.0128  0.5123  0.1856
 3236SOL     OW21166   1.169   1.094   3.678  0.3099  0.0920 -0.3139
 3236SOL    HW121167   1.189   1.171   3.625 -1.7200  1.1606  0.4743
 3236SOL    HW221168   1.228   1.025   3.647 -2.0896 -1.7118 -0.7983
 3237SOL     OW21169   3.116   2.108   5.615 -0.5869 -0.2764 -0.0829
 3237SOL    HW121170   3.099   2.075   5.703  0.2096  0.8144  0.4804
 3237SOL    HW221171   3.195   2.061   5.588 -0.7216  1.3892 -3.3977
 3238SOL     OW21172   3.417   2.176   7.185  0.0968  0.3298  0.0116
 3238SOL    HW121173   3.458   2.126   7.256 -0.3648 -0.9691 -0.6383
 3238SOL    HW221174   3.475   2.252   7.173 -0.6294  0.9586  0.4766
 3239SOL     OW21175   2.671   0.135   4.152  0.0958  0.0945  0.0246
 3239SOL    HW121176   2.622   0.072   4.099  0.8945 -0.0039 -0.5997
 3239SOL    HW221177   2.633   0.210   4.107 -1.2067 -0.6628 -0.1377
 3240SOL     OW21178   1.703   3.896   4.956 -0.4788 -0.2154  0.0234
 3240SOL    HW121179   1.682   3.953   5.030  1.0560  1.9838 -1.2442
 3240SOL    HW221180   1.757   3.950   4.899 -2.2292 -1.6437 -2.9528
 3241SOL     OW21181   3.667   3.025  11.514 -0.0568  0.0862 -0.0573
 3241SOL    HW121182   3.603   2.956  11.500  0.7274 -0.8379  0.9491
 3241SOL    HW221183   3.720   3.012  11.435 -0.6521 -0.3176 -0.3934
 3242SOL     OW21184   0.833   3.836  17.236 -0.1947  0.0539 -0.6813
 3242SOL    HW121185   0.763   3.893  17.269 -0.5688 -1.0149  0.3542
 3242SOL    HW221186   0.899   3.857  17.301 -0.7709  2.8521 -1.0090
 3243SOL     OW21187   3.343   4.242  12.131  0.0766 -0.8786  0.4050
 3243SOL    HW121188   3.435   4.215  12.129  0.7000  1.2721  0.8459
 3243SOL    HW221189   3.286   4.165  12.128 -0.5329 -0.4057 -0.0832
 3244SOL     OW21190   1.839   2.989   2.957  0.5140 -0.2507  0.2631
 3244SOL    HW121191   1.916   2.944   2.922  1.7633  1.3500  0.9141
 3244SOL    HW221192   1.784   2.916   2.987 -2.5923  2.6023  1.5416
 3245SOL     OW21193   1.442   3.349   4.156 -0.0418  0.0185 -0.0189
 3245SOL    HW121194   1.434   3.425   4.213  2.1819  1.9930 -2.3635
 3245SOL    HW221195   1.354   3.320   4.132 -0.2409 -0.2024  0.9689
 3246SOL     OW21196   4.616   3.336   6.048  0.4441  0.3889 -0.0600
 3246SOL    HW121197   4.699   3.323   6.002 -0.1300  1.5981 -1.4179
 3246SOL    HW221198   4.607   3.431   6.046 -0.4790  0.2771 -1.3526
 3247SOL     OW21199   2.261   2.430  15.814  1.0518  0.0254 -0.3375
 3247SOL    HW121200   2.288   2.499  15.873  1.3095 -0.9037  0.6327
 3247SOL    HW221201   2.332   2.440  15.750  1.6545  2.2396  0.7142
 3248SOL     OW21202   4.255   0.488   6.683 -0.2033 -0.0237  0.3425
 3248SOL    HW121203   4.283   0.427   6.752 -0.0071  0.0807  0.3555
 3248SOL    HW221204   4.198   0.544   6.736  0.0332  3.0346 -2.6635
 3249SOL     OW21205   3.771   1.223   1.762 -0.4225  0.2265  0.2600
 3249SOL    HW121206   3.839   1.159   1.740  0.4402  0.4376  2.2246
 3249SOL    HW221207   3.824   1.303   1.755 -1.8379  1.2357  0.9762
 3250SOL     OW21208   1.950   0.227   1.672 -0.0636  0.3292  0.1857
 3250SOL    HW121209   1.925   0.144   1.631  1.4265  0.0334 -0.1008
 3250SOL    HW221210   1.858   0.249   1.690  0.0020  0.9387 -0.2611
 3251SOL     OW21211   2.400   2.899   3.268 -0.0576  0.9298  0.4074
 3251SOL    HW121212   2.311   2.866   3.264 -0.2379  1.4242  0.4289
 3251SOL    HW221213   2.393   2.969   3.332 -0.0912  1.9606 -0.7172
 3252SOL     OW21214   4.434   4.106  10.137 -0.0709  0.3693 -0.4156
 3252SOL    HW121215   4.396   4.137  10.055  0.7022  0.4045 -0.7554
 3252SOL    HW221216   4.426   4.011  10.128  1.9021  0.1838 -0.1946
 3253SOL     OW21217   2.099   1.512  16.724  0.0534  0.2310 -0.2025
 3253SOL    HW121218   2.111   1.485  16.815  0.2320  0.3543 -0.1890
 3253SOL    HW221219   2.191   1.520  16.698  0.0247  0.3614 -0.2670
 3254SOL     OW21220   0.218   0.818   6.696  0.0477 -0.3234  0.2231
 3254SOL    HW121221   0.255   0.731   6.685  0.4099 -0.2381  0.7815
 3254SOL    HW221222   0.188   0.839   6.607  2.4087  0.9016 -0.2830
 3255SOL     OW21223   1.932   1.678   3.795  0.1706  0.6918  0.0665
 3255SOL    HW121224   1.883   1.684   3.713 -1.6681  2.0674  1.2467
 3255SOL    HW221225   1.966   1.767   3.800 -1.6732  1.4568 -0.9698
 3256SOL     OW21226   3.175   2.825   7.963  0.1384  0.4181  0.3658
 3256SOL    HW121227   3.201   2.913   7.938 -0.9771  0.7182  0.2481
 3256SOL    HW221228   3.246   2.807   8.024  1.5994  1.0855 -1.1628
 3257SOL     OW21229   4.341   1.309   7.165  0.1210 -0.2588  0.0422
 3257SOL    HW121230   4.414   1.365   7.140 -0.2014 -0.4840 -1.4309
 3257SOL    HW221231   4.373   1.220   7.149  0.2574  0.0593 -1.5307
 3258SOL     OW21232   3.256   1.898   7.909 -0.1340 -0.2415  0.0104
 3258SOL    HW121233   3.260   1.820   7.965  0.3433 -0.0018  0.3090
 3258SOL    HW221234   3.282   1.866   7.823 -2.9915  0.3627 -1.1073
 3259SOL     OW21235   3.024   1.527  17.149  0.3338  0.1441 -0.1523
 3259SOL    HW121236   3.110   1.540  17.188  1.6977 -1.6325 -2.5591
 3259SOL    HW221237   2.972   1.520  17.229 -1.2421 -1.8986 -1.3510
 3260SOL     OW21238   0.341   2.611   2.742  0.5426  0.5771  0.1246
 3260SOL    HW121239   0.356   2.550   2.814  1.1379 -1.2227 -1.5387
 3260SOL    HW221240   0.303   2.681   2.796  1.3806  0.2647  1.1148
 3261SOL     OW21241   2.796   4.212   3.084  0.3413  0.4128 -0.5742
 3261SOL    HW121242   2.863   4.150   3.056  0.3988  0.3911 -0.3871
 3261SOL    HW221243   2.830   4.242   3.169  0.0091 -0.1725 -0.2352
 3262SOL     OW21244   3.145   0.002   7.486 -0.7734 -0.0199  0.2245
 3262SOL    HW121245   3.217   4.667   7.500 -2.0893 -0.8242  3.5601
 3262SOL    HW221246   3.129   0.038   7.573 -0.2227 -2.7386  1.4475
 3263SOL     OW21247   4.283   3.960  15.600 -0.0520  0.2597  0.6603
 3263SOL    HW121248   4.240   4.016  15.665  1.9041  3.6983 -0.9814
 3263SOL    HW221249   4.291   4.020  15.525 -0.1966 -0.0362  0.4116
 3264SOL     OW21250   1.233   1.426   0.134 -0.3860  0.7084 -0.8439
 3264SOL    HW121251   1.251   1.496   0.071  1.4217  0.0613 -1.0598
 3264SOL    HW221252   1.295   1.358   0.108  0.6599  1.5924 -0.6629
 3265SOL     OW21253   3.323   0.192   8.561  0.2844  0.3486  0.1571
 3265SOL    HW121254   3.268   0.152   8.494  1.7688 -2.4622  0.6107
 3265SOL    HW221255   3.344   0.271   8.511 -0.4618 -0.3617 -1.2955
 3266SOL     OW21256   1.122   1.995  14.546 -0.4023  0.2359 -0.0287
 3266SOL    HW121257   1.084   1.922  14.595  0.8200 -0.9046 -0.7677
 3266SOL    HW221258   1.129   1.961  14.456  0.3054 -0.3841  0.2635
 3267SOL     OW21259   3.685   0.462   7.239  0.4291 -0.4043 -0.1288
 3267SOL    HW121260   3.599   0.491   7.209  0.9451  2.7105  1.3761
 3267SOL    HW221261   3.689   0.531   7.306 -0.4168 -0.8044  0.3458
 3268SOL     OW21262   3.642   0.111   2.957 -0.2822 -0.3007  0.2421
 3268SOL    HW121263   3.689   0.072   3.031  0.6829 -2.1842 -1.3448
 3268SOL    HW221264   3.615   0.032   2.910 -1.2758  0.2376 -0.0956
 3269SOL     OW21265   0.066   2.759  11.060 -0.2604 -0.4081 -0.0640
 3269SOL    HW121266   0.134   2.764  10.993 -0.2438  3.3907  0.2448
 3269SOL    HW221267   4.714   2.750  11.005 -0.6507 -0.6228  0.5267
 3270SOL     OW21268   1.218   0.883   9.844  0.6279  0.2912 -0.6604
 3270SOL    HW121269   1.180   0.903   9.930 -2.0991 -1.8119 -1.3573
 3270SOL    HW221270   1.295   0.938   9.855  1.7133 -1.4966  0.6450
 3271SOL     OW21271   3.406   3.903   1.153 -0.2902  0.1968 -0.1870
 3271SOL    HW121272   3.396   3.982   1.100 -1.7472 -0.7330 -1.3031
 3271SOL    HW221273   3.424   3.931   1.242 -0.2811 -0.6642  0.0845
 3272SOL     OW21274   0.048   4.370  10.399  0.4460 -0.3178 -0.4822
 3272SOL    HW121275   0.060   4.463  10.378 -0.6688 -0.4553 -1.7538
 3272SOL    HW221276   4.695   4.351  10.349  1.2684 -0.0605 -1.8876
 3273SOL     OW21277   3.432   4.205   6.674 -0.3737  0.5200 -0.1507
 3273SOL    HW121278   3.427   4.111   6.696 -0.3225  0.2275 -1.3882
 3273SOL    HW221279   3.501   4.217   6.610 -0.6453 -1.7131 -0.8623
 3274SOL     OW21280   0.648   1.447   9.464 -0.2341  0.6151  0.1607
 3274SOL    HW121281   0.700   1.511   9.513  0.0673  0.6839 -0.2488
 3274SOL    HW221282   0.597   1.513   9.417 -3.0282  0.1604  2.5532
 3275SOL     OW21283   1.643   0.264   5.929 -0.7891 -0.1902 -0.1160
 3275SOL    HW121284   1.651   0.351   5.968  0.5611 -0.0230 -0.7801
 3275SOL    HW221285   1.732   0.233   5.949 -1.7051 -2.9323 -0.3093
 3276SOL     OW21286   3.791   0.002   6.770  0.6825 -0.2858 -0.0735
 3276SOL    HW121287   3.799   4.636   6.793  3.2072 -0.9834 -3.5818
 3276SOL    HW221288   3.732   0.026   6.841  0.4556  2.0139 -1.0317
 3277SOL     OW21289   2.843   0.630   1.856 -0.1715 -0.2928 -0.4563
 3277SOL    HW121290   2.786   0.684   1.802  0.2637  1.6488  1.0424
 3277SOL    HW221291   2.839   0.671   1.942 -2.8286 -0.7389 -0.3610
 3278SOL     OW21292   0.604   4.657   0.175  0.3295 -0.0418 -0.4099
 3278SOL    HW121293   0.510   4.635   0.178  0.2680  0.5074  1.3042
 3278SOL    HW221294   0.612   4.680   0.082  3.2493  3.2264  0.6565
 3279SOL     OW21295   1.173   4.228  11.093  0.2258 -0.2940 -0.1067
 3279SOL    HW121296   1.185   4.184  11.177 -2.2282  0.1741  0.5073
 3279SOL    HW221297   1.254   4.246  11.046  0.5364  0.1452  0.6132
 3280SOL     OW21298   4.481   1.921   2.077  0.0397 -0.2436 -0.4908
 3280SOL    HW121299   4.470   1.843   2.024  2.0865 -1.1383  0.4028
 3280SOL    HW221300   4.440   1.994   2.029  0.0354 -0.8403 -1.3919
 3281SOL     OW21301   2.528   3.272   5.250  0.3505  0.7012 -0.1531
 3281SOL    HW121302   2.559   3.206   5.188 -0.4609  0.6884 -0.5595
 3281SOL    HW221303   2.604   3.283   5.306  0.8786  0.1338 -0.7497
 3282SOL     OW21304   0.062   2.769   2.665 -0.1309 -0.5656  0.3009
 3282SOL    HW121305   0.104   2.839   2.716  0.8208 -0.2012 -0.9822
 3282SOL    HW221306   4.695   2.792   2.664 -0.0317 -0.1844 -0.1620
 3283SOL     OW21307   1.353   0.075   1.350  0.3941 -0.7586 -0.0275
 3283SOL    HW121308   1.364   0.137   1.277 -1.3558  0.8653  1.0837
 3283SOL    HW221309   1.369   4.714   1.314  1.3041 -1.4751  2.0885
 3284SOL     OW21310   4.353   4.465   5.662 -0.1534  0.1640  0.0678
 3284SOL    HW121311   4.343   4.541   5.720  1.1493  0.4987 -0.1341
 3284SOL    HW221312   4.292   4.408   5.707  1.6307 -0.0535  2.2382
 3285SOL     OW21313   1.814   0.801   5.715  0.4358  0.0722 -0.2412
 3285SOL    HW121314   1.834   0.714   5.678 -1.0792 -0.0432 -0.7961
 3285SOL    HW221315   1.756   0.834   5.646  2.4055 -1.6806 -2.7419
 3286SOL     OW21316   0.643   1.429   3.539 -0.2645  0.0265 -0.2547
 3286SOL    HW121317   0.568   1.481   3.510 -0.3635 -1.1399 -2.0520
 3286SOL    HW221318   0.650   1.463   3.628 -0.4990  0.7103 -0.4961
 3287SOL     OW21319   3.594   4.062   5.018  0.2513 -0.4412  0.2729
 3287SOL    HW121320   3.628   4.028   5.101  1.1419 -0.7209 -0.2079
 3287SOL    HW221321   3.669   4.107   4.978 -0.1809 -0.1887 -0.2472
 3288SOL     OW21322   0.203   4.258  15.048 -0.0736  0.0775  0.1551
 3288SOL    HW121323   0.277   4.319  15.038  0.4325 -0.6840 -0.7020
 3288SOL    HW221324   0.244   4.173  15.032 -1.1559 -0.7920  1.9761
 3289SOL     OW21325   0.536   3.520  15.379 -0.3059 -0.2679 -0.1190
 3289SOL    HW121326   0.568   3.566  15.301 -2.4357  1.8891  0.2628
 3289SOL    HW221327   0.503   3.596  15.426 -0.8591 -0.5063 -0.1207
 3290SOL     OW21328   0.055   4.147  14.293  0.3055  1.0631  0.0354
 3290SOL    HW121329   4.707   4.087  14.299  0.2891  0.7867 -2.7816
 3290SOL    HW221330   0.124   4.089  14.326 -2.3950 -1.3056  1.5379
 3291SOL     OW21331   0.158   1.620   6.453 -0.4639  0.2209 -0.4260
 3291SOL    HW121332   0.251   1.616   6.433 -0.3926  0.3630 -0.1313
 3291SOL    HW221333   0.169   1.697   6.510  1.5590  0.1835 -0.7820
 3292SOL     OW21334   3.928   2.203   0.144  0.3133 -0.0500 -0.0082
 3292SOL    HW121335   3.946   2.142   0.072  2.8983  1.0686 -0.3079
 3292SOL    HW221336   4.018   2.230   0.164  0.3013 -0.3868  0.5010
 3293SOL     OW21337   0.003   0.940  16.419  0.2566 -0.6231  0.8094
 3293SOL    HW121338   0.064   0.977  16.355  1.7288 -3.0250  0.8259
 3293SOL    HW221339   4.666   0.902  16.358 -2.1682  1.5945  1.9358
 3294SOL     OW21340   1.671   3.135   4.668  0.2382  0.1856 -0.1274
 3294SOL    HW121341   1.672   3.201   4.599 -1.0130  0.4663  0.1228
 3294SOL    HW221342   1.695   3.060   4.615  0.7395 -0.1956  0.6469
 3295SOL     OW21343   0.095   1.603   1.960 -0.0337 -0.7418  0.3635
 3295SOL    HW121344   0.046   1.639   1.886 -0.8422 -2.4937  0.0579
 3295SOL    HW221345   0.185   1.610   1.927 -0.1416 -1.3911 -0.0759
 3296SOL     OW21346   4.382   2.209   2.822  0.2239  0.6006 -0.4343
 3296SOL    HW121347   4.323   2.156   2.876 -0.4620  0.1341 -1.6087
 3296SOL    HW221348   4.413   2.130   2.777  0.2156 -0.0922  0.7779
 3297SOL     OW21349   2.507   4.067   6.919 -0.1439 -0.4538 -0.1069
 3297SOL    HW121350   2.543   4.137   6.973  2.1409 -0.6615 -1.3956
 3297SOL    HW221351   2.414   4.091   6.914 -0.2700 -0.5193  1.8117
 3298SOL     OW21352   2.630   1.790  13.120  0.0227  0.3472 -0.1452
 3298SOL    HW121353   2.576   1.712  13.107 -0.0734  0.1176  1.6638
 3298SOL    HW221354   2.614   1.846  13.043 -1.9564  1.7370  1.2639
 3299SOL     OW21355   4.282   0.807   5.935 -0.1485  0.1497  0.1155
 3299SOL    HW121356   4.276   0.804   5.840 -1.1334  4.1248  0.0478
 3299SOL    HW221357   4.346   0.741   5.962  2.8293  1.9902 -2.4530
 3300SOL     OW21358   4.582   1.231   3.912  0.1590 -0.2492 -0.2216
 3300SOL    HW121359   4.532   1.268   3.984  1.1867  0.9676 -0.1369
 3300SOL    HW221360   4.636   1.163   3.953 -1.1413 -1.8046 -1.1080
 3301SOL     OW21361   2.392   0.129   5.718 -0.2207 -0.5078  0.2572
 3301SOL    HW121362   2.346   0.092   5.642  0.3791 -1.0972  0.1875
 3301SOL    HW221363   2.480   0.118   5.682  0.2024  0.3865  1.0402
 3302SOL     OW21364   3.431   1.112   6.903  0.4545 -0.2123 -0.3501
 3302SOL    HW121365   3.408   1.032   6.857  0.1385  0.3799 -1.2276
 3302SOL    HW221366   3.348   1.145   6.938  0.4165 -0.4826 -0.1887
 3303SOL     OW21367   0.109   4.446  15.955  0.1942 -0.5377 -0.1240
 3303SOL    HW121368   0.149   4.485  16.033  0.4016  1.4681 -1.2193
 3303SOL    HW221369   0.019   4.422  15.978  0.8483 -1.8908  0.9971
 3304SOL     OW21370   3.691   3.150   8.459 -0.0249  0.0237  0.0663
 3304SOL    HW121371   3.695   3.234   8.412  0.2129 -0.7069 -1.2160
 3304SOL    HW221372   3.754   3.164   8.530 -1.0148 -1.1236  1.1643
 3305SOL     OW21373   1.320   1.093   7.952  0.1913 -0.3978  0.1427
 3305SOL    HW121374   1.295   1.174   7.996 -3.0380 -1.6538  0.5611
 3305SOL    HW221375   1.390   1.066   8.011 -0.6047  1.1347  1.7944
 3306SOL     OW21376   2.790   3.073   7.295 -0.4436 -0.0944 -0.2875
 3306SOL    HW121377   2.878   3.046   7.269  0.2265  1.1937  0.6672
 3306SOL    HW221378   2.730   3.015   7.247  0.4549 -0.1500 -1.3418
 3307SOL     OW21379   3.852   3.427  10.999  0.6121 -0.1145 -0.3942
 3307SOL    HW121380   3.790   3.434  11.072  0.6537 -2.4959 -0.1196
 3307SOL    HW221381   3.857   3.520  10.980  0.4950 -0.3834 -1.7102
 3308SOL     OW21382   3.387   4.323   9.307 -0.4235  0.2976  0.0541
 3308SOL    HW121383   3.363   4.406   9.348 -0.4018 -0.1239  0.9293
 3308SOL    HW221384   3.481   4.334   9.295 -0.1881 -1.3528  0.2784
 3309SOL     OW21385   1.024   0.373   2.255  0.8804  0.5050  0.3630
 3309SOL    HW121386   1.070   0.290   2.243 -1.6151 -0.8672  0.1531
 3309SOL    HW221387   1.094   0.436   2.240 -0.1996  1.7929  0.7797
 3310SOL     OW21388   4.507   4.596   5.165 -0.5975 -0.3770  0.1963
 3310SOL    HW121389   4.560   4.517   5.157  3.7634  2.5184  0.4819
 3310SOL    HW221390   4.559   4.654   5.221 -0.4260  1.0513 -1.4329
 3311SOL     OW21391   1.015   2.617   1.846  0.2200  0.5405 -0.0426
 3311SOL    HW121392   1.030   2.547   1.783  1.8233  0.3115  0.5896
 3311SOL    HW221393   1.106   2.632   1.873 -0.3653 -1.0253  2.7507
 3312SOL     OW21394   2.332   1.865  10.796  0.2558 -0.2469  0.6795
 3312SOL    HW121395   2.343   1.950  10.753  2.2047 -0.3456  0.9767
 3312SOL    HW221396   2.244   1.843  10.768  0.7219 -0.9024 -0.2635
 3313SOL     OW21397   3.139   3.826   6.182 -0.5608 -0.0562  0.0586
 3313SOL    HW121398   3.166   3.908   6.223 -0.5743  1.4248 -2.8654
 3313SOL    HW221399   3.216   3.769   6.180 -0.2484  0.3821 -0.6468
 3314SOL     OW21400   4.034   4.570   4.843 -0.1276 -0.2902  0.2411
 3314SOL    HW121401   3.956   4.622   4.824 -0.2519  0.3793  2.5782
 3314SOL    HW221402   4.079   4.626   4.907 -0.6636 -1.0399  1.2761
 3315SOL     OW21403   0.258   4.224  16.954  0.2540 -0.1852  0.0145
 3315SOL    HW121404   0.212   4.257  17.032 -1.0653 -1.9494 -0.0141
 3315SOL    HW221405   0.327   4.290  16.959  0.1560 -0.2604  2.6683
 3316SOL     OW21406   3.954   4.344   9.285  0.2090 -0.0650 -0.0717
 3316SOL    HW121407   4.032   4.289   9.292 -0.6614 -1.2147  0.6706
 3316SOL    HW221408   3.984   4.419   9.233  0.9422  0.6732  1.4128
 3317SOL     OW21409   0.933   4.620  15.645 -0.0003 -0.4445  0.1201
 3317SOL    HW121410   1.009   4.592  15.697  1.4562 -0.1273 -1.8690
 3317SOL    HW221411   0.866   4.633  15.712  0.2380 -0.5943  0.3932
 3318SOL     OW21412   4.068   3.129   2.725  0.0238  0.3345  0.1446
 3318SOL    HW121413   4.072   3.036   2.747  1.3177  0.6357  1.1451
 3318SOL    HW221414   4.010   3.161   2.794  1.0709  1.7900  0.3370
 3319SOL     OW21415   2.597   3.532   7.278 -0.7314  0.6452  0.0479
 3319SOL    HW121416   2.557   3.446   7.266 -0.3800  0.5103 -0.1685
 3319SOL    HW221417   2.683   3.509   7.243 -0.3224  0.0776  1.4449
 3320SOL     OW21418   2.797   0.896   5.949 -0.1274 -0.0552  0.7240
 3320SOL    HW121419   2.740   0.830   5.909  2.0980 -1.3545 -0.3542
 3320SOL    HW221420   2.801   0.852   6.034 -0.2683 -1.3355  0.0708
 3321SOL     OW21421   4.201   0.327   4.916  0.1514 -0.2113  0.3395
 3321SOL    HW121422   4.213   0.283   5.000  1.7410  2.3058  1.4354
 3321SOL    HW221423   4.225   0.416   4.941 -1.6080  0.1600  0.6619
 3322SOL     OW21424   2.212   2.514  13.632 -0.1785  0.1356  0.0580
 3322SOL    HW121425   2.253   2.461  13.701  1.6788  1.5010  0.0160
 3322SOL    HW221426   2.120   2.499  13.652  0.0420 -1.9956 -0.4644
 3323SOL     OW21427   1.616   2.112   6.920  0.1528  0.6324  0.2621
 3323SOL    HW121428   1.644   2.108   6.829  1.0990 -0.4792  0.6020
 3323SOL    HW221429   1.693   2.086   6.971  1.3338  2.1284 -0.7550
 3324SOL     OW21430   3.761   0.085   1.206 -0.4299 -0.3927  0.5844
 3324SOL    HW121431   3.824   0.058   1.140 -0.3449  0.8880  0.1427
 3324SOL    HW221432   3.679   0.052   1.170 -0.2587  0.3093 -0.4550
 3325SOL     OW21433   2.647   0.154   5.548  0.5984 -0.5034 -0.5118
 3325SOL    HW121434   2.688   0.116   5.470  1.2704 -1.1889  0.1821
 3325SOL    HW221435   2.580   0.208   5.504  0.1332 -0.0984  0.7045
 3326SOL     OW21436   1.004   0.806  11.784 -0.4711  0.6667 -0.0963
 3326SOL    HW121437   1.051   0.802  11.868 -1.5758 -1.4347  0.4056
 3326SOL    HW221438   1.045   0.728  11.748  1.0488  0.3428  2.3064
 3327SOL     OW21439   0.395   4.319   8.509  0.0759  0.5534  0.5323
 3327SOL    HW121440   0.356   4.379   8.573 -2.1594 -0.4460  0.1086
 3327SOL    HW221441   0.348   4.242   8.539  0.1581 -0.3154 -1.5926
 3328SOL     OW21442   1.854   4.046  16.154  0.5992  0.5357  0.0415
 3328SOL    HW121443   1.762   4.073  16.156 -0.1956 -2.0929 -1.9887
 3328SOL    HW221444   1.881   4.097  16.230  0.1555 -0.2314  0.7170
 3329SOL     OW21445   1.247   0.977   4.797 -0.0555  0.3333 -0.1201
 3329SOL    HW121446   1.181   0.907   4.797 -0.5155  0.7340  2.5832
 3329SOL    HW221447   1.196   1.026   4.862 -0.5071 -0.0123 -0.2091
 3330SOL     OW21448   4.076   2.687   7.333 -0.3924  0.1990  0.0243
 3330SOL    HW121449   4.020   2.750   7.378 -1.4585 -0.9099  0.2488
 3330SOL    HW221450   4.113   2.629   7.399 -0.0302  0.6585  0.2273
 3331SOL     OW21451   2.344   2.961   6.624 -0.3538  0.3259 -0.0811
 3331SOL    HW121452   2.384   2.979   6.708 -0.2931  1.4221 -0.3306
 3331SOL    HW221453   2.251   2.965   6.649  0.0308 -1.2289  1.5630
 3332SOL     OW21454   4.362   2.556   2.145  0.2820  0.5123  0.2700
 3332SOL    HW121455   4.372   2.614   2.070 -0.3270  0.5509  0.2192
 3332SOL    HW221456   4.347   2.467   2.111 -0.0167  0.6483  0.0434
 3333SOL     OW21457   1.074   0.999   8.708 -0.4465 -0.2810  0.4209
 3333SOL    HW121458   1.099   1.090   8.693 -1.2785 -0.2226 -0.6176
 3333SOL    HW221459   0.982   1.018   8.727 -0.3980 -0.9936  1.3529
 3334SOL     OW21460   3.222   1.611   4.824 -0.3704  0.0828  0.1247
 3334SOL    HW121461   3.210   1.521   4.795  1.8009 -0.5228  1.1311
 3334SOL    HW221462   3.315   1.613   4.846 -0.6370 -4.5549  1.7013
 3335SOL     OW21463   3.252   3.475   3.271  0.0731  0.1767 -0.5793
 3335SOL    HW121464   3.219   3.524   3.347  0.9749  0.4112 -0.3336
 3335SOL    HW221465   3.193   3.522   3.213  0.1014 -2.2512 -2.5589
 3336SOL     OW21466   1.256   4.106   6.432  0.9869  0.1789  0.1931
 3336SOL    HW121467   1.321   4.131   6.366  1.0210  1.2858  0.6575
 3336SOL    HW221468   1.225   4.189   6.468 -1.6423 -0.4840 -0.5071
 3337SOL     OW21469   0.231   3.378   2.463 -0.1004 -0.4790 -0.0822
 3337SOL    HW121470   0.276   3.391   2.546  1.9416  0.4822 -1.3493
 3337SOL    HW221471   0.255   3.287   2.447 -0.3442 -1.0532  2.7925
 3338SOL     OW21472   1.314   4.473  16.304 -0.2469  0.3998 -0.0125
 3338SOL    HW121473   1.247   4.484  16.371  1.8828  0.5483  2.0789
 3338SOL    HW221474   1.308   4.378  16.291  0.0834  0.2633  0.8135
 3339SOL     OW21475   4.620   0.193   7.570 -0.3198 -0.0144 -0.1245
 3339SOL    HW121476   4.686   0.231   7.512  1.5769 -3.9449 -0.5528
 3339SOL    HW221477   4.673   0.185   7.649 -0.5101 -0.9195 -0.0896
 3340SOL     OW21478   3.719   3.753  17.043  0.3731 -0.3073  0.6184
 3340SOL    HW121479   3.720   3.660  17.022 -1.5962  0.1749 -1.5760
 3340SOL    HW221480   3.763   3.788  16.965  0.2551 -1.6059 -0.0301
 3341SOL     OW21481   3.407   1.966   4.627 -0.1952  0.2916 -0.8732
 3341SOL    HW121482   3.312   1.960   4.619 -0.1939 -0.6335 -0.2451
 3341SOL    HW221483   3.432   1.878   4.600  0.3338 -0.4961  2.1067
 3342SOL     OW21484   0.328   2.823  13.369  0.2644  0.4530 -0.2934
 3342SOL    HW121485   0.270   2.857  13.437  0.5551 -2.0331  1.2140
 3342SOL    HW221486   0.376   2.904  13.352  3.6827 -1.2459  1.0617
 3343SOL     OW21487   0.446   3.290   9.107  0.0434  0.5660  0.1192
 3343SOL    HW121488   0.471   3.259   9.194  1.9570  0.4705 -0.4555
 3343SOL    HW221489   0.528   3.267   9.062 -0.1352  0.8159 -0.3331
 3344SOL     OW21490   0.541   0.144  16.251  0.0948  0.2404  0.6745
 3344SOL    HW121491   0.589   0.154  16.169 -1.5062 -1.1251 -0.4152
 3344SOL    HW221492   0.513   0.052  16.249 -0.5652  0.4587  0.0459
 3345SOL     OW21493   1.168   1.148  10.864 -0.1335  0.4639  0.3565
 3345SOL    HW121494   1.086   1.196  10.863 -0.2310  0.3192  3.1680
 3345SOL    HW221495   1.194   1.169  10.774 -0.4600 -1.7943 -0.2742
 3346SOL     OW21496   2.009   1.121   9.906 -0.0590  0.0034  0.4334
 3346SOL    HW121497   2.060   1.091   9.981  1.1229 -2.1483 -1.2303
 3346SOL    HW221498   2.073   1.168   9.853 -0.7836  0.9519  0.3839
 3347SOL     OW21499   2.284   3.336   7.171 -0.0742 -0.4949  0.6914
 3347SOL    HW121500   2.295   3.429   7.190 -0.5873 -0.2715 -0.1268
 3347SOL    HW221501   2.377   3.314   7.164  0.3306  1.3596  0.1471
 3348SOL     OW21502   2.781   4.420   5.878 -0.0879 -0.1869  0.6958
 3348SOL    HW121503   2.852   4.387   5.824  0.1608  1.0180  0.2975
 3348SOL    HW221504   2.829   4.479   5.935  0.4209  1.6041 -1.6081
 3349SOL     OW21505   1.910   0.054   6.552 -0.4122 -0.1836 -0.0072
 3349SOL    HW121506   1.991   0.102   6.537 -0.4286  0.2806  1.4092
 3349SOL    HW221507   1.843   0.120   6.569  0.3660  1.0585 -1.7265
 3350SOL     OW21508   0.717   3.936   5.134 -0.2865 -0.0518 -0.2719
 3350SOL    HW121509   0.775   3.862   5.148 -0.6714 -0.1883  0.5950
 3350SOL    HW221510   0.710   3.942   5.039  3.2793  3.0763 -0.3321
 3351SOL     OW21511   1.579   3.679   2.958  0.0573  0.0098 -0.4404
 3351SOL    HW121512   1.489   3.712   2.964  0.0581 -0.6628  3.3310
 3351SOL    HW221513   1.588   3.656   2.866  1.3748 -1.0764 -0.0352
 3352SOL     OW21514   3.820   0.086   8.766 -0.9854  0.3914  0.6653
 3352SOL    HW121515   3.738   0.074   8.719  0.4203 -0.5567 -1.5624
 3352SOL    HW221516   3.804   0.175   8.798 -2.6110  1.6058 -3.4650
 3353SOL     OW21517   4.468   3.818  16.515  0.0852 -0.0079  0.2027
 3353SOL    HW121518   4.407   3.756  16.476 -0.0402 -0.7868  1.6222
 3353SOL    HW221519   4.549   3.777  16.485 -0.3771  1.1350 -2.5767
 3354SOL     OW21520   0.465   1.534   0.398  0.0987 -0.1806  0.2498
 3354SOL    HW121521   0.547   1.524   0.446  1.2275  0.8158 -1.4848
 3354SOL    HW221522   0.452   1.447   0.360  1.0645 -0.2862  0.1565
 3355SOL     OW21523   0.638   2.351   5.802  0.0216  0.0967  0.0831
 3355SOL    HW121524   0.627   2.267   5.846  3.6954 -0.0892  0.6385
 3355SOL    HW221525   0.590   2.406   5.864  0.8955 -2.0972  2.7140
 3356SOL     OW21526   2.951   3.513  10.508  0.0223  0.0488 -0.2894
 3356SOL    HW121527   2.874   3.568  10.492 -1.1077 -1.0782  1.2487
 3356SOL    HW221528   2.977   3.573  10.578  1.5948 -0.9539 -0.0380
 3357SOL     OW21529   1.734   3.767   7.745 -0.2278  0.4662  0.2095
 3357SOL    HW121530   1.790   3.733   7.674 -0.0323  0.5635  0.3155
 3357SOL    HW221531   1.682   3.689   7.761 -0.6332  0.4719 -1.0714
 3358SOL     OW21532   2.643   3.399   4.762 -0.1995  0.4596 -0.0570
 3358SOL    HW121533   2.589   3.418   4.839  1.0039  0.1202  0.8771
 3358SOL    HW221534   2.713   3.463   4.773  0.1480 -0.0426  0.6476
 3359SOL     OW21535   1.750   4.528  15.199  0.1096  0.0702 -0.3040
 3359SOL    HW121536   1.705   4.520  15.283  1.3295 -1.5966  0.1990
 3359SOL    HW221537   1.723   4.454  15.144  0.4441 -1.5843  1.7694
 3360SOL     OW21538   4.438   4.461   7.979  0.2983 -0.0396  0.4023
 3360SOL    HW121539   4.355   4.428   7.945  0.7181 -0.2043 -0.4647
 3360SOL    HW221540   4.457   4.408   8.056 -1.4394 -1.2048  0.0322
 3361SOL     OW21541   2.663   3.132   1.267  0.2786 -0.1330 -0.2747
 3361SOL    HW121542   2.745   3.090   1.291 -1.9069 -2.4383  3.1237
 3361SOL    HW221543   2.640   3.076   1.193  1.7781 -3.1887  1.5644
 3362SOL     OW21544   3.873   2.533   2.558 -0.3997 -0.2538 -0.2584
 3362SOL    HW121545   3.883   2.628   2.564 -1.1193 -0.0404 -2.4135
 3362SOL    HW221546   3.823   2.530   2.476 -1.2557  0.6567  0.2293
 3363SOL     OW21547   1.209   2.722   8.095 -0.0068 -0.2363 -0.0136
 3363SOL    HW121548   1.139   2.761   8.148 -1.4650 -1.8718 -0.7184
 3363SOL    HW221549   1.181   2.631   8.085  1.4302 -0.6323 -0.4202
 3364SOL     OW21550   3.936   2.430   5.420  0.3566 -0.1880  0.7706
 3364SOL    HW121551   3.848   2.463   5.401  0.0716 -1.4541 -0.1364
 3364SOL    HW221552   3.946   2.389   5.334  2.1079 -0.6256  1.1803
 3365SOL     OW21553   4.279   1.644   5.613  0.1262  0.3222 -0.5073
 3365SOL    HW121554   4.326   1.721   5.582  3.0020  0.0891  3.2222
 3365SOL    HW221555   4.320   1.636   5.700  0.5649  1.5766 -0.5977
 3366SOL     OW21556   0.499   2.983   8.131 -0.1733  0.6645  0.1164
 3366SOL    HW121557   0.564   3.015   8.069  1.0807  1.8046  2.0072
 3366SOL    HW221558   0.445   2.936   8.068  0.5440  1.1196 -0.8381
 3367SOL     OW21559   3.957   3.739   6.193 -0.2661  0.2236  0.3417
 3367SOL    HW121560   3.878   3.704   6.234  0.5321 -1.8022  0.1352
 3367SOL    HW221561   3.980   3.656   6.151 -0.2490  0.7724 -0.7328
 3368SOL     OW21562   1.348   1.675  14.579 -0.1077  0.3308  0.3945
 3368SOL    HW121563   1.343   1.580  14.566 -1.5581  0.3849  0.5127
 3368SOL    HW221564   1.275   1.700  14.521 -1.3619  2.4395  2.8833
 3369SOL     OW21565   0.672   2.314   3.560  0.0159 -0.0545 -0.1387
 3369SOL    HW121566   0.641   2.224   3.571 -1.7811  0.6811  0.6779
 3369SOL    HW221567   0.630   2.356   3.634  1.0269 -0.0797  0.4430
 3370SOL     OW21568   1.061   4.149   4.253 -0.5676  0.2523  0.4985
 3370SOL    HW121569   1.078   4.055   4.247 -1.4763  0.0569  0.9694
 3370SOL    HW221570   0.966   4.157   4.259 -0.4447  1.2005  1.1263
 3371SOL     OW21571   1.869   2.252   1.120 -0.2122 -0.4147 -0.5576
 3371SOL    HW121572   1.859   2.336   1.076  0.3554  0.4225  0.9070
 3371SOL    HW221573   1.776   2.229   1.119 -0.6837  1.5267 -1.1731
 3372SOL     OW21574   4.263   0.919   0.937 -0.0779 -0.3684  0.7744
 3372SOL    HW121575   4.186   0.975   0.931 -0.0603 -0.2952  1.1981
 3372SOL    HW221576   4.253   0.854   0.868  1.4842 -0.6158  0.7686
 3373SOL     OW21577   0.217   2.708   7.005  0.5551 -0.2113 -0.5859
 3373SOL    HW121578   0.151   2.725   6.938  1.1734  1.9278 -0.6434
 3373SOL    HW221579   0.270   2.643   6.958 -1.4924 -0.9857 -1.8029
 3374SOL     OW21580   2.552   3.293   7.153  0.2135  0.5771 -0.2730
 3374SOL    HW121581   2.585   3.291   7.063  0.4143  0.8294 -0.2036
 3374SOL    HW221582   2.624   3.246   7.193 -1.4907 -0.7210  1.2725
 3375SOL     OW21583   2.437   0.402  11.076 -0.9747 -0.3527 -0.0163
 3375SOL    HW121584   2.514   0.374  11.026 -1.1975  1.0672 -1.1237
 3375SOL    HW221585   2.428   0.493  11.049  0.9402 -0.6458 -1.6665
 3376SOL     OW21586   4.208   4.329   6.609 -0.5250  0.8150  0.5555
 3376SOL    HW121587   4.299   4.299   6.617 -1.1854 -0.8786  1.5408
 3376SOL    HW221588   4.184   4.244   6.572  0.7246  0.8927 -0.4216
 3377SOL     OW21589   1.083   3.735  10.289 -0.1707  0.0700 -0.5580
 3377SOL    HW121590   0.988   3.720  10.293 -0.3819  1.2665 -1.2127
 3377SOL    HW221591   1.099   3.660  10.232 -0.2926 -0.0016 -0.4992
 3378SOL     OW21592   1.328   2.959   5.624  0.1975  0.0679  0.0277
 3378SOL    HW121593   1.350   3.021   5.554 -0.1590  2.2657  1.8922
 3378SOL    HW221594   1.369   2.879   5.590 -0.8492 -0.8545  0.9279
 3379SOL     OW21595   2.773   4.276   7.626 -0.5535 -0.0288 -0.4778
 3379SOL    HW121596   2.834   4.264   7.700 -0.2149 -0.2867 -0.7969
 3379SOL    HW221597   2.733   4.189   7.626  1.9859 -1.2033 -1.6724
 3380SOL     OW21598   2.827   1.807  16.782 -0.2399  0.6203 -0.0867
 3380SOL    HW121599   2.871   1.787  16.865  0.9867  2.0070 -0.4059
 3380SOL    HW221600   2.880   1.882  16.753  0.8144 -0.2962 -0.5244
 3381SOL     OW21601   1.635   4.547   0.385 -0.1944  0.4273  0.3680
 3381SOL    HW121602   1.588   4.464   0.395 -2.2195  1.7359  1.6696
 3381SOL    HW221603   1.617   4.576   0.296 -0.6208 -1.8886 -0.3055
 3382SOL     OW21604   4.416   3.293  15.015 -0.2164  0.1800 -0.3454
 3382SOL    HW121605   4.502   3.253  15.004  1.1030  3.1057 -0.6216
 3382SOL    HW221606   4.428   3.358  15.084 -2.4858  0.0375  0.1842
 3383SOL     OW21607   2.460   2.613   3.380 -0.2342  0.2027 -0.1555
 3383SOL    HW121608   2.427   2.555   3.311  0.2339 -2.2157  1.6770
 3383SOL    HW221609   2.380   2.661   3.399  0.1142  0.2881  1.1144
 3384SOL     OW21610   3.547   3.231   7.082 -0.3185 -0.5566 -0.3171
 3384SOL    HW121611   3.629   3.185   7.100 -1.8490 -2.7956  0.9262
 3384SOL    HW221612   3.558   3.283   7.002  3.1539  0.9209  1.1140
 3385SOL     OW21613   3.565   1.894  13.130 -0.0967  0.2779 -0.1751
 3385SOL    HW121614   3.616   1.901  13.050  0.6810 -2.1806  0.1034
 3385SOL    HW221615   3.598   1.970  13.179 -1.0057  1.4759 -1.4291
 3386SOL     OW21616   1.315   1.858   5.874  0.2366 -0.2230  0.3535
 3386SOL    HW121617   1.265   1.817   5.945  0.2318  0.3273  0.6695
 3386SOL    HW221618   1.290   1.814   5.792  1.4089 -0.7427  0.2797
 3387SOL     OW21619   2.612   4.044   3.946 -0.1643  0.0556 -0.2306
 3387SOL    HW121620   2.565   4.127   3.952 -0.3339 -0.1166  0.7974
 3387SOL    HW221621   2.571   3.994   4.017 -3.3712  1.3755 -1.1244
 3388SOL     OW21622   4.538   1.072   1.296  0.2232  0.1735 -0.0995
 3388SOL    HW121623   4.518   0.984   1.329  2.2297 -0.3730 -0.3422
 3388SOL    HW221624   4.632   1.062   1.278  0.3551 -0.8987  1.1839
 3389SOL     OW21625   2.362   4.607   0.238 -0.1016  0.6714 -0.4011
 3389SOL    HW121626   2.302   4.628   0.309 -1.1426 -0.9768 -0.7844
 3389SOL    HW221627   2.398   4.520   0.258 -2.8921 -0.4659 -0.3470
 3390SOL     OW21628   4.370   4.563  14.381  0.4447 -0.2279  0.2361
 3390SOL    HW121629   4.442   4.569  14.318  0.5185  0.0878  0.3513
 3390SOL    HW221630   4.302   4.549  14.315 -0.7906  2.1272  1.0493
 3391SOL     OW21631   4.451   0.578   3.207 -0.6374 -0.1468 -0.0717
 3391SOL    HW121632   4.534   0.560   3.252  1.2122  1.8159 -2.6987
 3391SOL    HW221633   4.437   0.671   3.222 -0.5751 -0.3477  1.2719
 3392SOL     OW21634   2.564   3.946   6.079 -0.4704 -0.7261  0.1197
 3392SOL    HW121635   2.599   3.961   5.992 -1.1314  1.2653  0.1956
 3392SOL    HW221636   2.488   4.005   6.074  0.1972  0.1898  0.8788
 3393SOL     OW21637   2.527   3.100  13.476  0.5118  0.0017 -0.4612
 3393SOL    HW121638   2.433   3.098  13.489  0.6770  3.0798  1.1866
 3393SOL    HW221639   2.542   3.175  13.533  0.4009 -2.8061  3.2351
 3394SOL     OW21640   2.615   4.010  15.821  0.4792 -0.4602 -0.5304
 3394SOL    HW121641   2.641   3.979  15.734 -1.4518 -1.5688 -0.7147
 3394SOL    HW221642   2.601   3.934  15.876 -0.4828 -2.0068 -2.9224
 3395SOL     OW21643   2.891   3.971   7.446  0.3331 -0.3121  0.4728
 3395SOL    HW121644   2.811   4.021   7.463  1.5596  1.6775  0.3338
 3395SOL    HW221645   2.921   3.969   7.537  3.0699 -0.4950 -0.4273
 3396SOL     OW21646   2.133   3.519   2.366 -0.1343 -0.4179  0.1473
 3396SOL    HW121647   2.219   3.556   2.347  0.1183 -0.6687  0.8154
 3396SOL    HW221648   2.157   3.452   2.429  1.5606 -0.6612 -0.7724
 3397SOL     OW21649   2.476   0.116  11.818 -0.3247 -0.2508 -0.2642
 3397SOL    HW121650   2.513   0.203  11.808 -0.9558 -0.1715 -1.8069
 3397SOL    HW221651   2.531   0.068  11.757  0.3182 -0.1860  0.2576
 3398SOL     OW21652   3.589   0.640  16.468 -0.2190 -0.0266 -0.0777
 3398SOL    HW121653   3.527   0.636  16.395  0.7392 -1.7274 -0.8117
 3398SOL    HW221654   3.598   0.735  16.481  1.2085  0.0502 -1.4805
 3399SOL     OW21655   1.487   0.337   9.398 -0.3943 -0.3723 -0.3229
 3399SOL    HW121656   1.453   0.270   9.338  2.8443 -0.5470 -1.9622
 3399SOL    HW221657   1.480   0.288   9.480 -1.3896  0.2145 -0.0600
 3400SOL     OW21658   2.575   3.126   6.042  0.1876 -0.3905  0.3171
 3400SOL    HW121659   2.569   3.040   6.000  0.7985  0.1231 -0.8141
 3400SOL    HW221660   2.661   3.162   6.019  1.6384 -1.9878  3.1487
 3401SOL     OW21661   0.067   4.333   0.084 -0.5098  0.2004 -0.2928
 3401SOL    HW121662   0.088   4.422   0.111  0.0196 -0.6610  2.0760
 3401SOL    HW221663   0.005   4.306   0.151 -0.2520  1.8622  0.5963
 3402SOL     OW21664   2.261   0.298   0.399  0.8370 -0.5249  0.4031
 3402SOL    HW121665   2.263   0.392   0.420  0.4180  0.0219 -1.9656
 3402SOL    HW221666   2.168   0.284   0.415  0.1952  0.4688 -2.3696
 3403SOL     OW21667   2.728   4.453   7.431  0.3915 -0.2324  0.5688
 3403SOL    HW121668   2.803   4.510   7.450 -0.4983  0.9932  0.3803
 3403SOL    HW221669   2.760   4.383   7.488 -1.4829  0.3680  2.3576
 3404SOL     OW21670   0.296   0.872   4.512  0.0429 -0.3802  0.4758
 3404SOL    HW121671   0.262   0.847   4.426 -1.5433  1.3029  0.6138
 3404SOL    HW221672   0.227   0.860   4.577 -1.4041  0.6090 -0.9024
 3405SOL     OW21673   4.375   0.248   9.440  0.1662  0.9207 -0.1541
 3405SOL    HW121674   4.441   0.188   9.404 -0.2630 -0.8927  2.1304
 3405SOL    HW221675   4.404   0.327   9.395  1.0138 -0.4951 -2.1201
 3406SOL     OW21676   3.104   3.665  16.067 -0.0260 -0.4149  0.0891
 3406SOL    HW121677   3.158   3.591  16.096 -1.4314 -0.7319  1.9035
 3406SOL    HW221678   3.118   3.667  15.972 -0.6145  1.6768  0.0443
 3407SOL     OW21679   3.070   0.729   8.338 -0.6119  0.7410  0.3984
 3407SOL    HW121680   3.011   0.710   8.411  0.1590  2.1115  1.3587
 3407SOL    HW221681   3.134   0.788   8.377 -1.2706  1.0913  0.9490
 3408SOL     OW21682   0.136   1.425  11.277  0.6855 -0.2858 -0.5643
 3408SOL    HW121683   0.213   1.408  11.331 -0.5276 -1.0076  0.9539
 3408SOL    HW221684   0.107   1.334  11.275  0.9810 -0.4067  0.3931
 3409SOL     OW21685   4.182   0.599   8.694 -0.0428  0.5281 -0.1554
 3409SOL    HW121686   4.153   0.677   8.740 -0.7817 -0.0644  0.3869
 3409SOL    HW221687   4.266   0.578   8.735 -1.2777  1.0136  2.5940
 3410SOL     OW21688   4.267   3.274   4.786 -0.2010  0.5972 -0.0404
 3410SOL    HW121689   4.264   3.362   4.824 -1.6448 -1.1173  3.7503
 3410SOL    HW221690   4.327   3.287   4.713  1.6390 -1.0143  1.2001
 3411SOL     OW21691   1.665   3.692   7.236  0.1218 -0.1652  0.2820
 3411SOL    HW121692   1.670   3.624   7.303 -1.6051  0.3178  0.8994
 3411SOL    HW221693   1.582   3.730   7.264  0.0785 -1.1695  1.5591
 3412SOL     OW21694   2.177   2.316   5.360 -0.3156  0.2138  0.1266
 3412SOL    HW121695   2.217   2.267   5.289 -0.6002  0.3681 -0.1437
 3412SOL    HW221696   2.111   2.249   5.374 -1.2709  0.7416 -1.8341
 3413SOL     OW21697   4.099   2.544   7.572  0.1816  0.0800  0.0099
 3413SOL    HW121698   4.040   2.504   7.637  0.1702  0.2573  0.1091
 3413SOL    HW221699   4.082   2.636   7.591  0.7590 -0.0110  0.9393
 3414SOL     OW21700   2.167   3.244   6.198  0.0656  0.3816  0.0163
 3414SOL    HW121701   2.205   3.196   6.272 -0.4169 -0.0906 -0.0398
 3414SOL    HW221702   2.240   3.303   6.182  2.1842 -2.3174 -0.3372
 3415SOL     OW21703   0.064   1.644   3.830 -0.4176  0.2583  0.2163
 3415SOL    HW121704   0.003   1.666   3.759  1.5651 -1.2436 -1.9581
 3415SOL    HW221705   0.014   1.566   3.857  0.9644 -1.0174 -0.8805
 3416SOL     OW21706   1.287   0.356   2.407  0.5763 -0.0657  0.4373
 3416SOL    HW121707   1.281   0.426   2.343  1.2723  0.2248  0.6940
 3416SOL    HW221708   1.380   0.336   2.411  0.7046  0.4777  0.0546
 3417SOL     OW21709   1.078   3.510  10.129  0.1063  0.0712 -0.5027
 3417SOL    HW121710   1.105   3.418  10.129 -0.1303  0.0012  0.5739
 3417SOL    HW221711   1.065   3.520  10.035 -0.8158  1.3288 -0.2351
 3418SOL     OW21712   1.328   0.923  10.402  0.1183  0.4688 -0.3076
 3418SOL    HW121713   1.261   0.873  10.448 -0.8268  1.8919 -0.1548
 3418SOL    HW221714   1.291   1.009  10.384 -2.8570 -0.7554  0.0189
 3419SOL     OW21715   1.700   3.621  16.592 -0.0978 -0.1414  0.1003
 3419SOL    HW121716   1.621   3.647  16.640  0.7431 -1.0455  1.9482
 3419SOL    HW221717   1.684   3.643  16.500  0.4594 -0.7404 -0.1429
 3420SOL     OW21718   0.291   2.173   1.108  0.5859  0.0236 -0.7642
 3420SOL    HW121719   0.344   2.196   1.032 -1.7552 -0.5479 -2.5651
 3420SOL    HW221720   0.201   2.169   1.076  0.8450  1.5541 -1.6720
 3421SOL     OW21721   1.780   0.690   7.938  0.0201  0.3109  0.2479
 3421SOL    HW121722   1.816   0.741   8.010 -0.8487  3.1978 -1.3129
 3421SOL    HW221723   1.687   0.687   7.960 -0.0626  0.9200 -0.0022
 3422SOL     OW21724   1.742   0.273   5.665  0.1052 -0.4909  0.2909
 3422SOL    HW121725   1.821   0.257   5.716  2.0614  2.1113 -1.9408
 3422SOL    HW221726   1.684   0.269   5.741  0.9861  1.3364  1.0570
 3423SOL     OW21727   1.189   0.608   0.847 -0.1176  1.0865  0.2729
 3423SOL    HW121728   1.197   0.517   0.876 -1.7228  0.3516 -1.5660
 3423SOL    HW221729   1.256   0.604   0.779 -0.1935  1.0965  0.1976
 3424SOL     OW21730   2.325   1.696   8.396  0.2404  0.7403 -0.1448
 3424SOL    HW121731   2.270   1.654   8.330  1.8161  0.7681 -1.4751
 3424SOL    HW221732   2.299   1.674   8.485  0.4336  0.0492 -0.2521
 3425SOL     OW21733   4.623   1.496  17.555 -0.5755 -0.2422  0.6462
 3425SOL    HW121734   4.597   1.568  17.498  0.6196 -1.2414 -1.1409
 3425SOL    HW221735   4.553   1.435  17.532 -0.4097  0.3279 -1.3633
 3426SOL     OW21736   2.572   1.752   2.726 -0.5050  0.1723  0.4454
 3426SOL    HW121737   2.613   1.758   2.813  0.4013 -0.2442  0.0469
 3426SOL    HW221738   2.513   1.678   2.738  1.2323 -1.0783  1.3718
 3427SOL     OW21739   3.138   4.351   2.057  0.7332 -0.3481 -0.4507
 3427SOL    HW121740   3.115   4.260   2.073 -1.6158  0.1224 -1.1460
 3427SOL    HW221741   3.050   4.385   2.043  0.9361  0.4339  0.2080
 3428SOL     OW21742   0.102   1.397  13.595  0.3315  0.1221 -0.1877
 3428SOL    HW121743   0.101   1.476  13.649  1.8073  1.3215 -1.9313
 3428SOL    HW221744   0.067   1.429  13.512  1.0194 -0.6708 -0.7876
 3429SOL     OW21745   2.656   3.607   8.750  0.0184 -0.0487  0.1175
 3429SOL    HW121746   2.616   3.693   8.768 -0.7702  0.0242 -1.9921
 3429SOL    HW221747   2.743   3.632   8.720  0.1330 -2.3911 -1.4799
 3430SOL     OW21748   1.182   1.467  15.220 -0.2265 -0.0209 -0.0166
 3430SOL    HW121749   1.242   1.476  15.146 -1.6891  1.7376 -0.9961
 3430SOL    HW221750   1.106   1.518  15.194  0.8722  2.3379  1.4208
 3431SOL     OW21751   1.240   2.501  13.841 -0.0178  0.0460 -0.4337
 3431SOL    HW121752   1.188   2.469  13.915 -0.8596  0.3666 -0.8887
 3431SOL    HW221753   1.248   2.424  13.784 -4.4355 -1.8440  1.4739
 3432SOL     OW21754   2.782   1.198  11.333  0.8692 -0.0028  0.2689
 3432SOL    HW121755   2.853   1.135  11.345 -0.4150 -1.9418 -2.3426
 3432SOL    HW221756   2.787   1.205  11.238 -0.9290 -0.4883  0.1320
 3433SOL     OW21757   0.721   0.822   1.333  0.5952  0.0838  0.1737
 3433SOL    HW121758   0.775   0.789   1.262  0.7232 -2.8503  1.6325
 3433SOL    HW221759   0.729   0.917   1.320  0.0999 -0.0969 -1.4408
 3434SOL     OW21760   3.400   2.686   4.014  0.3868  0.4791  0.6167
 3434SOL    HW121761   3.383   2.730   3.931 -0.1676  0.9233  0.9643
 3434SOL    HW221762   3.310   2.674   4.044 -0.2234  1.1371 -0.9660
 3435SOL     OW21763   1.323   2.312  13.682  1.0738 -0.0681  0.0331
 3435SOL    HW121764   1.415   2.293  13.667  0.5778 -2.6163  0.3043
 3435SOL    HW221765   1.286   2.264  13.609 -0.0538 -2.1973  1.9935
 3436SOL     OW21766   0.070   2.937   8.366  0.3001  0.3578 -0.0857
 3436SOL    HW121767   0.073   2.996   8.441 -0.6731 -0.7173  0.7800
 3436SOL    HW221768   4.719   2.964   8.316  0.4579 -1.7389 -1.4440
 3437SOL     OW21769   1.698   2.523   5.541 -0.2983 -0.4798 -0.2353
 3437SOL    HW121770   1.785   2.561   5.532 -0.5373  0.6210  2.1780
 3437SOL    HW221771   1.688   2.488   5.453 -1.6588  0.6364 -0.5161
 3438SOL     OW21772   3.640   3.583  10.092 -0.5493  0.2380 -0.1515
 3438SOL    HW121773   3.689   3.629  10.160  1.1119 -3.0914  0.9003
 3438SOL    HW221774   3.554   3.625  10.102 -0.9008 -0.2381 -1.1738
 3439SOL     OW21775   3.371   1.345   7.581 -0.1465  0.1721  0.0259
 3439SOL    HW121776   3.326   1.388   7.509  3.7641  3.4054 -0.4907
 3439SOL    HW221777   3.308   1.282   7.616  1.4953 -1.6543 -0.3317
 3440SOL     OW21778   3.148   3.262   1.647  0.5255 -0.1309  0.1065
 3440SOL    HW121779   3.087   3.197   1.612  1.0327  0.7069 -2.3181
 3440SOL    HW221780   3.139   3.248   1.741 -1.2700  4.1697  0.5858
 3441SOL     OW21781   3.063   1.892   2.974  0.1362 -0.0519 -0.1727
 3441SOL    HW121782   3.150   1.854   2.972 -0.1125 -0.5898 -0.8781
 3441SOL    HW221783   3.013   1.825   2.927 -0.1669  0.4937 -0.6420
 3442SOL     OW21784   0.049   0.861   9.954  0.0279  0.4343 -0.1243
 3442SOL    HW121785   4.723   0.834   9.878 -2.1909  2.3288  0.7246
 3442SOL    HW221786   0.137   0.854   9.919  0.5553  1.2421  1.0408
 3443SOL     OW21787   4.233   2.484   3.835  0.1039 -0.0197  0.2139
 3443SOL    HW121788   4.139   2.482   3.816 -0.2170 -0.5648  1.9089
 3443SOL    HW221789   4.273   2.452   3.754 -0.8963  0.2406 -0.3862
 3444SOL     OW21790   0.773   3.190   6.908  0.4977 -0.2015  0.3406
 3444SOL    HW121791   0.836   3.237   6.963  1.0310 -0.5595  0.0337
 3444SOL    HW221792   0.810   3.102   6.917  0.8975  0.0384  1.0947
 3445SOL     OW21793   3.755   0.712   3.510 -0.9404  0.4319 -0.4749
 3445SOL    HW121794   3.811   0.778   3.551 -0.4489 -0.9346  1.0465
 3445SOL    HW221795   3.825   0.652   3.483 -0.8073 -0.0465  0.9357
 3446SOL     OW21796   0.901   2.717   4.324 -0.4636  0.0067 -0.2489
 3446SOL    HW121797   0.887   2.736   4.231  1.8646  1.9903 -0.1879
 3446SOL    HW221798   0.877   2.802   4.360  1.3851  0.3036  0.3025
 3447SOL     OW21799   2.412   0.678   8.735 -0.0162 -0.2037 -0.3685
 3447SOL    HW121800   2.340   0.740   8.725  0.3136 -0.0589 -1.8270
 3447SOL    HW221801   2.365   0.595   8.732  0.1226 -0.3292  0.7837
 3448SOL     OW21802   0.246   0.527   7.549  0.1838  0.2751  0.3945
 3448SOL    HW121803   0.305   0.474   7.495  0.1156 -1.3480  1.9287
 3448SOL    HW221804   0.249   0.611   7.503 -1.5255  0.2875  0.3039
 3449SOL     OW21805   0.975   3.689   0.066 -0.3224 -0.0481  0.4515
 3449SOL    HW121806   1.067   3.710   0.076  0.1396 -1.0389 -1.6014
 3449SOL    HW221807   0.963   3.611   0.121 -0.2959 -0.6030 -0.3331
 3450SOL     OW21808   1.206   3.042   4.576 -0.0821  0.4224 -0.4396
 3450SOL    HW121809   1.186   3.003   4.491  0.1177 -0.7699  0.0490
 3450SOL    HW221810   1.248   3.124   4.550 -1.0787  1.1500  0.2683
 3451SOL     OW21811   3.374   2.318  17.232 -0.3373 -0.0446  0.0285
 3451SOL    HW121812   3.447   2.291  17.288  0.0615  1.7760  0.4044
 3451SOL    HW221813   3.338   2.233  17.207  0.4461  0.0993 -1.5979
 3452SOL     OW21814   2.210   3.246   5.588  1.1837  0.2746  0.2865
 3452SOL    HW121815   2.182   3.181   5.524  1.5467  2.9897 -2.6484
 3452SOL    HW221816   2.230   3.323   5.535 -2.5582  3.0788  2.9037
 3453SOL     OW21817   1.959   3.846   5.431  0.2042 -0.5799  0.2033
 3453SOL    HW121818   1.897   3.840   5.358  0.1831 -0.0908  0.1819
 3453SOL    HW221819   2.037   3.833   5.376 -1.0772 -0.1331 -1.7170
 3454SOL     OW21820   2.522   0.406   3.541  0.2418  0.5577  0.5574
 3454SOL    HW121821   2.591   0.433   3.480 -0.4380  0.1091 -0.4178
 3454SOL    HW221822   2.463   0.355   3.485 -1.7404  0.3476  2.8429
 3455SOL     OW21823   2.838   2.508  12.493 -0.7821  0.5028 -0.3266
 3455SOL    HW121824   2.792   2.563  12.429 -1.8716 -1.0180 -0.8468
 3455SOL    HW221825   2.919   2.560  12.493 -0.8351  0.5941 -0.8474
 3456SOL     OW21826   4.370   1.366  17.566  0.1670 -0.6726  0.1378
 3456SOL    HW121827   4.318   1.287  17.554 -2.0268  0.6870  0.7355
 3456SOL    HW221828   4.324   1.436  17.520 -0.4441  0.0614  1.8763
 3457SOL     OW21829   1.939   2.170  14.185  0.3506 -0.6714  0.5658
 3457SOL    HW121830   1.867   2.231  14.199 -0.2421 -0.9060 -1.5008
 3457SOL    HW221831   1.988   2.228  14.126 -0.1510  0.6721  1.4671
 3458SOL     OW21832   2.819   0.522   6.091  0.0595  1.0046 -0.1229
 3458SOL    HW121833   2.901   0.569   6.079  1.3498 -0.5468  2.3672
 3458SOL    HW221834   2.852   0.435   6.115 -0.8522  0.1283 -2.0497
 3459SOL     OW21835   3.612   0.100   2.337  0.3114  0.3643  0.0995
 3459SOL    HW121836   3.628   0.115   2.243  0.6086 -0.8136 -0.0309
 3459SOL    HW221837   3.701   0.113   2.371  1.2324 -0.0237 -2.1532
 3460SOL     OW21838   3.054   4.703   2.274 -0.2135  0.1711  0.0099
 3460SOL    HW121839   3.041   0.071   2.276 -3.4167 -0.2739  0.1352
 3460SOL    HW221840   2.961   4.678   2.272  0.0896 -0.9653  0.2361
 3461SOL     OW21841   1.487   0.396   6.977 -0.1370 -0.4173 -0.6649
 3461SOL    HW121842   1.554   0.418   7.042 -1.2809  0.7481  0.1164
 3461SOL    HW221843   1.422   0.341   7.020  0.8832  0.2868  1.7571
 3462SOL     OW21844   0.682   0.906  16.506 -0.4258  0.3458  0.1782
 3462SOL    HW121845   0.648   0.987  16.544  2.7836  1.2692  1.0190
 3462SOL    HW221846   0.772   0.928  16.483 -0.8201 -0.5343 -2.1942
 3463SOL     OW21847   1.294   1.380  12.799 -0.1189  0.2196  0.6299
 3463SOL    HW121848   1.271   1.400  12.890  1.6114  0.5855  0.9723
 3463SOL    HW221849   1.383   1.414  12.793 -0.0665  0.2138  1.3484
 3464SOL     OW21850   3.019   1.308  10.378  0.1768  0.1792 -0.1051
 3464SOL    HW121851   3.018   1.378  10.443  1.6452  1.7991 -1.8531
 3464SOL    HW221852   3.071   1.240  10.421 -1.2203 -1.0521 -0.3754
 3465SOL     OW21853   2.290   3.640   7.165  0.1928  0.3250 -0.3601
 3465SOL    HW121854   2.331   3.726   7.174 -1.2585  1.0937 -0.9987
 3465SOL    HW221855   2.249   3.643   7.078  0.4478  1.5146 -0.4401
 3466SOL     OW21856   3.969   1.828   1.374  0.6762  0.1198  0.0109
 3466SOL    HW121857   3.906   1.826   1.446  2.0774 -0.1876  1.2222
 3466SOL    HW221858   3.949   1.916   1.344 -1.9976 -0.3431  0.3891
 3467SOL     OW21859   0.060   1.798  16.863 -0.5264 -0.2044  0.0645
 3467SOL    HW121860   0.028   1.786  16.953  0.2248 -2.2731  0.0454
 3467SOL    HW221861   0.067   1.894  16.863 -2.5601 -0.0589  0.1754
 3468SOL     OW21862   1.050   0.253   8.719 -0.2956  0.3033  0.2060
 3468SOL    HW121863   0.997   0.283   8.793  0.8595 -1.0560  1.5845
 3468SOL    HW221864   1.026   0.320   8.654 -0.0893  0.9024  0.7508
 3469SOL     OW21865   0.235   2.766   2.980 -0.6487 -0.1902  0.3249
 3469SOL    HW121866   0.286   2.802   3.052  0.7910 -2.5521  0.4935
 3469SOL    HW221867   0.192   2.842   2.942  2.3178  1.7758  0.9176
 3470SOL     OW21868   3.008   4.022   9.893  0.4378  0.6138  0.6241
 3470SOL    HW121869   3.095   3.987   9.876  1.1164  1.8730  1.5687
 3470SOL    HW221870   2.987   4.052   9.804 -0.4843 -2.8423 -0.3186
 3471SOL     OW21871   2.681   0.986   8.199 -0.2612  0.1545 -0.0212
 3471SOL    HW121872   2.750   1.017   8.258 -0.3859 -0.0587  0.2375
 3471SOL    HW221873   2.701   1.049   8.131 -2.4280  1.6883  0.7661
 3472SOL     OW21874   4.008   1.459   6.075  0.5538  0.0402  0.3760
 3472SOL    HW121875   4.095   1.421   6.066  0.1650 -1.4779  3.0267
 3472SOL    HW221876   4.027   1.542   6.032  0.7467  1.0570  2.4211
 3473SOL     OW21877   1.542   2.365   7.813 -0.1356 -0.0984 -0.2179
 3473SOL    HW121878   1.580   2.376   7.725 -1.8666 -0.6878 -1.0382
 3473SOL    HW221879   1.491   2.284   7.812  0.4419 -0.4674 -0.1709
 3474SOL     OW21880   1.891   1.123   8.083  0.4635  0.3268 -0.1072
 3474SOL    HW121881   1.850   1.106   8.168 -1.4468  0.2389 -1.0514
 3474SOL    HW221882   1.970   1.165   8.117  0.4279 -0.3007  0.7378
 3475SOL     OW21883   0.833   3.693  11.866 -0.3447  0.5119 -0.4803
 3475SOL    HW121884   0.739   3.707  11.853  0.0104  1.3725 -2.1158
 3475SOL    HW221885   0.850   3.727  11.954 -2.2124  0.9435 -0.2962
 3476SOL     OW21886   0.394   3.805  16.071 -0.6740  0.5415  0.1844
 3476SOL    HW121887   0.387   3.779  16.162 -0.3010  0.4437  0.1835
 3476SOL    HW221888   0.459   3.742  16.041  0.1392  0.6060  1.8202
 3477SOL     OW21889   3.969   3.655   8.177  0.4158 -0.0226  0.3453
 3477SOL    HW121890   3.967   3.571   8.130 -2.6599  0.5094 -0.5102
 3477SOL    HW221891   3.874   3.668   8.176  0.2956 -0.7838  1.2628
 3478SOL     OW21892   3.181   0.207   4.017 -0.3059 -0.2116 -0.3702
 3478SOL    HW121893   3.086   0.215   4.015 -0.2922  0.4983  1.4755
 3478SOL    HW221894   3.189   0.122   3.973  0.0986  0.8053 -2.2693
 3479SOL     OW21895   1.683   2.551   9.517 -0.1684 -0.5359  0.0840
 3479SOL    HW121896   1.646   2.508   9.595 -1.4991 -0.8833 -0.7402
 3479SOL    HW221897   1.628   2.626   9.493  0.7549 -0.5821 -2.1636
 3480SOL     OW21898   4.014   4.197   8.080  0.5911  0.3576  0.0383
 3480SOL    HW121899   4.063   4.203   8.161 -1.0661 -1.9956  1.2062
 3480SOL    HW221900   4.061   4.130   8.030 -0.3221 -0.4169  0.2039
 3481SOL     OW21901   4.460   2.702  11.177 -0.0628  0.0257 -0.3978
 3481SOL    HW121902   4.365   2.700  11.166 -0.0639 -0.7847 -0.2794
 3481SOL    HW221903   4.468   2.607  11.163  2.2668  0.1681  0.0202
 3482SOL     OW21904   0.184   0.299   2.315 -0.4322  0.2365 -0.2197
 3482SOL    HW121905   0.259   0.240   2.316 -0.8358 -0.2111  1.8855
 3482SOL    HW221906   0.233   0.371   2.354 -1.8660  1.2221 -0.2300
 3483SOL     OW21907   1.102   1.122   3.940  0.2858 -0.2581 -0.0802
 3483SOL    HW121908   1.147   1.206   3.936  0.6056 -0.3792  1.1269
 3483SOL    HW221909   1.128   1.086   3.855  1.7314 -1.1918  0.7489
 3484SOL     OW21910   4.002   2.484   7.162 -0.5200 -0.0940  0.2949
 3484SOL    HW121911   4.034   2.410   7.214 -1.1770 -0.9450 -0.5094
 3484SOL    HW221912   4.031   2.559   7.213  0.9599  1.0809 -2.3111
 3485SOL     OW21913   1.408   2.904   0.737 -0.0948  0.8734 -0.3960
 3485SOL    HW121914   1.402   2.828   0.678  2.9827 -0.9052  1.5520
 3485SOL    HW221915   1.344   2.961   0.695 -1.1658  0.0603  0.1388
 3486SOL     OW21916   3.447   2.787   7.708 -0.2607  0.2669 -0.0940
 3486SOL    HW121917   3.529   2.771   7.754 -1.4255 -2.0264  1.1742
 3486SOL    HW221918   3.403   2.735   7.775  1.6810 -3.0546 -1.4407
 3487SOL     OW21919   1.771   1.222   7.459  0.4348 -0.5400 -0.2440
 3487SOL    HW121920   1.862   1.208   7.486  1.0632  0.2453 -1.9839
 3487SOL    HW221921   1.720   1.251   7.535 -1.0543  0.4769 -1.6292
 3488SOL     OW21922   0.751   1.234   2.486  0.1804 -0.1719  0.4047
 3488SOL    HW121923   0.684   1.166   2.493  0.5064 -0.4168  1.1996
 3488SOL    HW221924   0.709   1.316   2.513 -1.4550 -0.4566 -1.3029
 3489SOL     OW21925   3.216   2.478   4.496 -0.1175  0.3444 -0.7993
 3489SOL    HW121926   3.142   2.494   4.436 -2.4449 -3.5633  1.0336
 3489SOL    HW221927   3.199   2.390   4.529  0.0725  0.8429  0.6203
 3490SOL     OW21928   0.179   3.662   4.599  0.3957  0.1808  0.4059
 3490SOL    HW121929   0.232   3.734   4.565  0.1819  0.4882  0.7206
 3490SOL    HW221930   0.097   3.710   4.610  0.3680  0.0462  0.7957
 3491SOL     OW21931   3.309   3.052   7.580 -0.0547 -0.2746  0.1906
 3491SOL    HW121932   3.272   3.032   7.494  1.5803 -0.9341 -0.3551
 3491SOL    HW221933   3.377   2.984   7.575 -0.7746 -0.8168 -2.3278
 3492SOL     OW21934   3.033   1.023   5.304  0.3512  0.1932 -0.5068
 3492SOL    HW121935   3.057   1.012   5.212  0.7943 -1.0356 -0.2524
 3492SOL    HW221936   2.987   0.939   5.313 -0.5200  0.8303  0.9493
 3493SOL     OW21937   1.193   4.553   6.129  0.0075  0.0651  0.2790
 3493SOL    HW121938   1.161   4.479   6.077  2.2022  1.2973 -2.8222
 3493SOL    HW221939   1.183   4.618   6.060 -1.2140 -0.2490  0.1679
 3494SOL     OW21940   2.507   0.922   4.537 -0.5752 -0.0309  0.3218
 3494SOL    HW121941   2.602   0.920   4.540 -0.6876 -0.3524  3.6307
 3494SOL    HW221942   2.490   0.997   4.479 -0.4915 -1.0103 -0.9630
 3495SOL     OW21943   1.254   2.685   4.837 -0.4898 -0.1040 -0.1558
 3495SOL    HW121944   1.300   2.759   4.798  1.2290 -1.4796 -0.7088
 3495SOL    HW221945   1.214   2.731   4.910 -1.3380 -2.3198  0.7696
 3496SOL     OW21946   3.683   4.453   7.228  0.6691 -0.4027 -0.0927
 3496SOL    HW121947   3.621   4.506   7.277  1.2987 -1.4872  1.8739
 3496SOL    HW221948   3.668   4.374   7.281  1.6023  1.1022  2.3973
 3497SOL     OW21949   0.484   0.031   7.642  0.6340 -0.1348  0.5095
 3497SOL    HW121950   0.573   0.038   7.608 -0.4339 -0.6445 -2.4333
 3497SOL    HW221951   0.500   4.726   7.731  0.0182 -0.6999  0.4192
 3498SOL     OW21952   1.375   3.853   9.190 -0.0825 -0.2339 -0.3188
 3498SOL    HW121953   1.363   3.861   9.285  1.1880  0.1190 -0.1818
 3498SOL    HW221954   1.329   3.932   9.162 -2.8319 -1.8741 -0.3617
 3499SOL     OW21955   4.511   1.234   8.155 -0.0032 -0.0537  0.3369
 3499SOL    HW121956   4.485   1.268   8.070 -2.1448 -0.8712  0.6767
 3499SOL    HW221957   4.519   1.312   8.210 -0.2125  0.3091 -0.1550
 3500SOL     OW21958   0.046   4.094   0.680 -0.1140 -0.1835  0.0163
 3500SOL    HW121959   0.009   4.182   0.683 -0.7279 -0.4306 -0.1411
 3500SOL    HW221960   0.102   4.093   0.758 -0.8397 -2.2211  0.5164
 3501SOL     OW21961   0.199   1.629   0.434  0.0779  0.7685 -0.0001
 3501SOL    HW121962   0.287   1.602   0.410 -0.1903  0.4562 -0.6365
 3501SOL    HW221963   0.182   1.566   0.503  1.3951  1.9714  1.4260
 3502SOL     OW21964   4.561   3.472   0.719  0.2156 -0.0224  0.1032
 3502SOL    HW121965   4.566   3.409   0.791 -1.2194  1.2395  1.3223
 3502SOL    HW221966   4.483   3.438   0.676  2.0620 -1.1633 -2.2852
 3503SOL     OW21967   4.134   4.314   5.779  0.4144  0.5696  0.1069
 3503SOL    HW121968   4.062   4.253   5.764  0.5917  0.3368  0.2155
 3503SOL    HW221969   4.113   4.365   5.858  0.4049  0.1943  0.3437
 3504SOL     OW21970   2.604   4.643  17.426  0.3666 -0.3640  0.2934
 3504SOL    HW121971   2.586   4.620  17.517  1.8764 -0.8321  0.4639
 3504SOL    HW221972   2.518   4.646  17.384  0.2462 -1.9077  0.4275
 3505SOL     OW21973   4.574   0.790   8.269  0.3323  0.0503  0.2236
 3505SOL    HW121974   4.509   0.767   8.335 -0.9909  1.4098 -0.6386
 3505SOL    HW221975   4.526   0.857   8.221 -2.3523 -2.3837 -0.4643
 3506SOL     OW21976   2.583   2.286   6.936 -0.2573 -1.0408 -0.0675
 3506SOL    HW121977   2.522   2.322   7.001  0.9057 -0.7779  0.8826
 3506SOL    HW221978   2.622   2.370   6.909 -4.5811  0.6818 -0.8936
 3507SOL     OW21979   2.729   3.864  12.857 -0.2051 -0.2440 -0.4929
 3507SOL    HW121980   2.770   3.782  12.885 -3.3127 -1.1722  1.3223
 3507SOL    HW221981   2.803   3.910  12.817  1.6578 -0.8081  2.3167
 3508SOL     OW21982   0.212   4.361   0.814  0.2152  0.1197 -0.2940
 3508SOL    HW121983   0.200   4.284   0.870 -0.7833  0.5826  0.1312
 3508SOL    HW221984   0.236   4.423   0.883  0.3864  1.3645 -1.4792
 3509SOL     OW21985   4.460   4.235   6.554  0.5949 -0.1736 -0.1935
 3509SOL    HW121986   4.502   4.150   6.565  0.5992 -0.0250  0.9586
 3509SOL    HW221987   4.531   4.294   6.579  1.0522 -1.1288  0.7561
 3510SOL     OW21988   3.083   4.412   9.460  0.2996 -0.0045  0.1022
 3510SOL    HW121989   3.127   4.339   9.503  2.2383 -1.7912 -4.8759
 3510SOL    HW221990   3.085   4.379   9.370  0.1974 -0.9860  0.4646
 3511SOL     OW21991   2.099   1.541   4.978  0.2238 -0.1384  0.2385
 3511SOL    HW121992   2.158   1.536   5.053  0.2722  0.7277  0.2634
 3511SOL    HW221993   2.051   1.459   4.985  1.0444 -0.6952 -0.7849
 3512SOL     OW21994   0.243   1.224   5.170 -0.4133 -0.0442 -0.2961
 3512SOL    HW121995   0.205   1.190   5.089  0.4199  0.2387 -0.8043
 3512SOL    HW221996   0.174   1.195   5.230  0.7577  0.1636  1.1698
 3513SOL     OW21997   4.388   0.103   3.902 -0.0345  0.3212  0.0186
 3513SOL    HW121998   4.335   0.024   3.903 -0.6034  0.6607 -3.5133
 3513SOL    HW221999   4.324   0.164   3.865 -1.0091 -1.2290 -0.8482
 3514SOL     OW22000   0.602   3.779   7.991  0.0227 -0.1526  0.0096
 3514SOL    HW122001   0.664   3.798   8.062  0.3578 -1.0429 -0.0485
 3514SOL    HW222002   0.635   3.694   7.962 -0.9694 -1.5533  3.0245
 3515SOL     OW22003   3.581   2.153  12.538  0.2209 -0.5869 -0.3163
 3515SOL    HW122004   3.602   2.072  12.490 -1.1921 -1.0549 -0.1456
 3515SOL    HW222005   3.666   2.179  12.575  0.5315 -2.3550  0.2083
 3516SOL     OW22006   3.852   0.024   3.141  0.0658  0.4322  0.0228
 3516SOL    HW122007   3.886   0.113   3.139  2.9423 -0.7084 -1.8492
 3516SOL    HW222008   3.913   4.711   3.078  0.7313  0.5784  0.5799
 3517SOL     OW22009   0.012   3.187   7.834  0.2600  0.3626 -0.2052
 3517SOL    HW122010   4.682   3.126   7.786  0.3373 -2.7695  3.6624
 3517SOL    HW222011   4.678   3.261   7.827 -0.2745 -0.0382  0.1507
 3518SOL     OW22012   2.521   4.278  15.804  0.1743 -0.4947 -0.0002
 3518SOL    HW122013   2.534   4.184  15.792 -0.6750 -0.6834  0.5703
 3518SOL    HW222014   2.476   4.270  15.888 -0.1777 -2.2687 -0.3546
 3519SOL     OW22015   0.539   4.020   3.883 -0.0019 -0.0388  0.0484
 3519SOL    HW122016   0.484   3.996   3.808 -0.0147  0.0047  0.0436
 3519SOL    HW222017   0.604   4.080   3.845 -3.9111  3.1096 -1.6452
 3520SOL     OW22018   4.670   2.127   2.541 -0.4201 -0.2931 -0.2752
 3520SOL    HW122019   4.686   2.104   2.449  1.7884 -0.9678  0.2551
 3520SOL    HW222020   4.588   2.176   2.537 -0.3789 -0.2629 -0.7328
 3521SOL     OW22021   0.094   2.584  15.016  0.3991 -0.1821  0.3353
 3521SOL    HW122022   0.042   2.594  14.936 -2.5775  1.0383  2.4269
 3521SOL    HW222023   0.174   2.624  14.984 -0.4605  1.6688  0.5022
 3522SOL     OW22024   3.595   1.506  13.018  0.3281  0.1173  0.4357
 3522SOL    HW122025   3.539   1.492  13.094 -0.0561 -0.5876  0.0179
 3522SOL    HW222026   3.658   1.434  13.024  0.0465 -0.2614 -1.2975
 3523SOL     OW22027   3.687   1.328   4.617 -0.4167  0.3541 -0.0003
 3523SOL    HW122028   3.686   1.410   4.666 -0.2939  0.7822 -0.7074
 3523SOL    HW222029   3.678   1.369   4.530  0.5637 -0.6416 -0.5712
 3524SOL     OW22030   2.852   4.423   9.169  0.3390 -0.5687 -0.4809
 3524SOL    HW122031   2.933   4.380   9.142 -0.3596 -1.7627 -0.6450
 3524SOL    HW222032   2.818   4.354   9.226 -1.0300  0.9310  0.5400
 3525SOL     OW22033   0.132   1.371   2.753 -0.0890  0.1724  0.4203
 3525SOL    HW122034   0.219   1.349   2.721  0.7677  0.6597  2.4253
 3525SOL    HW222035   0.126   1.460   2.716 -1.8457  0.2625  0.9239
 3526SOL     OW22036   2.846   2.130   3.870 -0.1700 -0.2435 -0.0958
 3526SOL    HW122037   2.884   2.211   3.904 -0.3600 -0.1091 -0.2082
 3526SOL    HW222038   2.805   2.160   3.789  0.2775  0.1195 -0.1925
 3527SOL     OW22039   2.771   2.890  15.423 -0.2915 -0.3778  0.3142
 3527SOL    HW122040   2.780   2.880  15.329  0.3097 -2.6472  0.6077
 3527SOL    HW222041   2.680   2.859  15.418 -0.7166  1.0714 -0.8626
 3528SOL     OW22042   2.544   3.997   0.313 -0.1531  0.1576  0.1197
 3528SOL    HW122043   2.468   4.033   0.268 -0.7031 -1.6153 -0.3999
 3528SOL    HW222044   2.561   3.908   0.282 -0.7516  0.4613 -1.0631
 3529SOL     OW22045   1.733   0.391  12.870  0.5544 -0.1165  0.3157
 3529SOL    HW122046   1.658   0.388  12.810  0.8139  0.9806 -0.0707
 3529SOL    HW222047   1.753   0.484  12.879 -1.0009  0.2348  0.1417
 3530SOL     OW22048   1.443   3.653  16.634  0.0934  0.1290  0.5360
 3530SOL    HW122049   1.376   3.597  16.673 -1.9655  0.6200 -2.3135
 3530SOL    HW222050   1.394   3.733  16.616 -1.4159 -1.5829 -2.8919
 3531SOL     OW22051   3.947   2.443   6.019 -0.3325 -0.2173 -0.0538
 3531SOL    HW122052   3.937   2.359   6.063  1.5350 -1.2948 -1.7529
 3531SOL    HW222053   4.042   2.449   6.014 -0.3971  1.9669  1.0850
 3532SOL     OW22054   2.450   1.256  14.109  0.4888 -0.0744  0.7352
 3532SOL    HW122055   2.424   1.181  14.163  1.3784 -0.3425  0.7872
 3532SOL    HW222056   2.386   1.318  14.145 -1.0594 -1.6283  0.6186
 3533SOL     OW22057   2.057   3.348  15.838 -0.1711 -0.1335  0.0464
 3533SOL    HW122058   2.035   3.337  15.930  0.8469  1.5453  0.4880
 3533SOL    HW222059   2.103   3.432  15.846 -3.1455  1.7958 -2.7586
 3534SOL     OW22060   4.392   1.029   1.542 -0.0071  0.0646 -0.2096
 3534SOL    HW122061   4.447   1.059   1.469 -0.0577  2.0973  0.5877
 3534SOL    HW222062   4.319   1.007   1.484 -1.9336  0.6282  1.9837
 3535SOL     OW22063   0.686   1.630   8.155  0.7255  0.4617 -0.0153
 3535SOL    HW122064   0.742   1.554   8.171  0.9723  0.2520 -1.8634
 3535SOL    HW222065   0.741   1.692   8.203  0.2056 -0.3664  1.6541
 3536SOL     OW22066   0.970   3.211   5.760 -0.6091  0.1411 -0.0414
 3536SOL    HW122067   1.018   3.136   5.796  0.2673  0.3904 -0.7033
 3536SOL    HW222068   0.895   3.215   5.820 -0.7792 -2.5210 -0.0608
 3537SOL     OW22069   2.062   1.514   7.778 -0.4644  0.1358 -0.1137
 3537SOL    HW122070   2.074   1.455   7.852  1.0856  0.7787  0.1615
 3537SOL    HW222071   1.979   1.489   7.738  0.3395 -0.7077 -1.2439
 3538SOL     OW22072   1.966   4.267   2.137 -0.0559 -1.0094  0.3408
 3538SOL    HW122073   2.055   4.300   2.129 -0.3186 -0.6461 -1.1505
 3538SOL    HW222074   1.936   4.323   2.208  0.5224 -1.6752  1.0992
 3539SOL     OW22075   0.135   1.388   2.144  0.0432 -1.0615 -0.5300
 3539SOL    HW122076   0.127   1.296   2.118 -1.2183 -0.8720 -0.8348
 3539SOL    HW222077   0.092   1.439   2.075  1.1028 -0.7746 -0.9718
 3540SOL     OW22078   3.644   0.173  13.353  0.5215 -0.2869  0.8478
 3540SOL    HW122079   3.651   0.211  13.441  0.0363  1.5713  0.0832
 3540SOL    HW222080   3.722   0.210  13.312 -0.6820  1.1500 -0.1537
 3541SOL     OW22081   3.636   3.931   3.803 -0.0426  0.0743 -0.6986
 3541SOL    HW122082   3.568   3.930   3.870 -0.6200  0.2168 -1.2882
 3541SOL    HW222083   3.692   3.855   3.819 -0.9374 -0.0259  1.9538
 3542SOL     OW22084   0.548   2.892   7.771  0.2253  0.0356 -0.1852
 3542SOL    HW122085   0.597   2.966   7.807  0.5927 -0.3564  0.1202
 3542SOL    HW222086   0.520   2.928   7.687 -2.0136  0.3357  0.6899
 3543SOL     OW22087   0.276   4.553  11.653 -0.5416  0.5226  0.1054
 3543SOL    HW122088   0.274   4.461  11.679 -1.5395  0.2051 -1.1091
 3543SOL    HW222089   0.293   4.596  11.737  1.2271  0.3941 -0.1730
 3544SOL     OW22090   4.193   3.022   1.899 -0.4342 -0.0263 -0.3236
 3544SOL    HW122091   4.234   3.060   1.821 -2.1599  0.8211 -0.8206
 3544SOL    HW222092   4.256   3.055   1.963  0.3694  1.3189 -1.8102
 3545SOL     OW22093   4.427   0.920   3.964 -0.2670 -0.2289 -0.1695
 3545SOL    HW122094   4.486   0.922   3.888  1.1352  0.2138  0.9239
 3545SOL    HW222095   4.446   0.994   4.022  1.5141  0.1155 -1.1692
 3546SOL     OW22096   3.027   3.506   1.700  0.3476 -0.1522 -0.0902
 3546SOL    HW122097   3.112   3.548   1.717 -0.5664  0.3878  3.2048
 3546SOL    HW222098   3.060   3.417   1.690  0.4105  0.0262 -1.4071
 3547SOL     OW22099   1.655   1.461   6.684 -0.3495 -0.1800  0.2131
 3547SOL    HW122100   1.726   1.450   6.620 -1.4129 -2.6764 -0.5826
 3547SOL    HW222101   1.670   1.377   6.728 -0.0220 -0.4657 -0.4424
 3548SOL     OW22102   1.071   0.339   4.420 -0.3266 -0.0473  0.0451
 3548SOL    HW122103   1.103   0.257   4.382  2.2111  1.0697 -0.2175
 3548SOL    HW222104   1.049   0.312   4.509 -1.6130 -1.5556 -0.7122
 3549SOL     OW22105   0.198   0.411   8.136 -0.0709  0.0542  0.4215
 3549SOL    HW122106   0.130   0.399   8.070  1.2303  0.0040 -0.9235
 3549SOL    HW222107   0.142   0.447   8.204 -0.0567  0.7562  0.0594
 3550SOL     OW22108   3.661   0.558   5.523  0.4240  0.1238  0.2377
 3550SOL    HW122109   3.644   0.534   5.432 -3.0961  0.0586  0.8965
 3550SOL    HW222110   3.572   0.577   5.553  0.0852  1.9471 -1.9073
 3551SOL     OW22111   0.065   4.102   5.106  0.6657 -0.1178 -0.3842
 3551SOL    HW122112   0.040   4.090   5.198 -1.2136  1.1857 -0.7348
 3551SOL    HW222113   4.710   4.139   5.072  0.2058 -0.4517  0.3375
 3552SOL     OW22114   1.062   2.604   9.131  0.5444 -0.5298  0.1535
 3552SOL    HW122115   0.982   2.567   9.094 -0.2354 -0.3421  1.6205
 3552SOL    HW222116   1.114   2.599   9.052  1.0682  1.3908  0.3816
 3553SOL     OW22117   4.020   3.976   5.790  0.3164  0.3351  0.1397
 3553SOL    HW122118   3.955   4.039   5.821 -0.8565  0.0040 -1.6301
 3553SOL    HW222119   3.966   3.897   5.801 -0.7350  1.0925  0.4482
 3554SOL     OW22120   3.610   0.959   1.081 -0.3663  0.9644  0.2117
 3554SOL    HW122121   3.552   1.034   1.070 -0.3065  1.0774  0.6791
 3554SOL    HW222122   3.632   0.932   0.992 -1.0096 -0.1390  0.3892
 3555SOL     OW22123   3.746   0.935  11.083 -0.2940 -0.0897 -0.4561
 3555SOL    HW122124   3.652   0.947  11.091 -0.3611  0.7024 -2.5558
 3555SOL    HW222125   3.758   0.939  11.178 -0.0974 -1.0203 -0.4474
 3556SOL     OW22126   3.599   3.133   3.026  0.2463  0.3437  0.0058
 3556SOL    HW122127   3.520   3.088   3.055  1.4208  0.0947  2.7949
 3556SOL    HW222128   3.608   3.101   2.936 -0.1489 -0.6612  0.3242
 3557SOL     OW22129   0.574   4.264  10.134 -0.1741 -0.1682  0.4894
 3557SOL    HW122130   0.547   4.209  10.060 -2.1714 -2.0127  2.5933
 3557SOL    HW222131   0.543   4.202  10.200 -0.0245  0.9184  1.5908
 3558SOL     OW22132   2.918   2.236   5.054  0.2153  0.3383  0.3263
 3558SOL    HW122133   2.944   2.144   5.063 -0.1416  0.4491  2.5958
 3558SOL    HW222134   2.876   2.238   5.140  0.2074 -1.6204  0.3677
 3559SOL     OW22135   2.847   3.768  11.376  0.1082  0.7206  0.1293
 3559SOL    HW122136   2.795   3.689  11.359  1.1731  0.2398 -0.9165
 3559SOL    HW222137   2.867   3.767  11.470  2.3127 -0.9763 -0.3551
 3560SOL     OW22138   0.964   0.293   9.391 -0.2590  0.5349 -0.3906
 3560SOL    HW122139   1.044   0.328   9.430 -0.6850  2.8432 -1.6145
 3560SOL    HW222140   0.895   0.300   9.457 -2.2876 -1.8421 -2.2227
 3561SOL     OW22141   0.514   2.338   2.579  0.4547  0.3143 -0.2536
 3561SOL    HW122142   0.545   2.423   2.549  0.5029  0.3725 -0.0395
 3561SOL    HW222143   0.419   2.343   2.582  0.4032  0.2251 -1.7694
 3562SOL     OW22144   1.547   1.359   8.930  0.6220  0.0036  0.4420
 3562SOL    HW122145   1.508   1.279   8.896 -0.4762  1.1689 -1.0860
 3562SOL    HW222146   1.466   1.409   8.937  1.0382  1.2503 -3.4684
 3563SOL     OW22147   1.241   0.152   0.946  0.4039  0.1234  0.0323
 3563SOL    HW122148   1.203   0.088   0.885  1.3717 -1.1016  0.7232
 3563SOL    HW222149   1.162   0.197   0.976  0.2765  0.4139 -0.7384
 3564SOL     OW22150   2.876   4.718  13.589  0.1591  0.2082  0.0687
 3564SOL    HW122151   2.804   0.052  13.570  0.4020  0.4184 -0.1775
 3564SOL    HW222152   2.864   4.654  13.518  0.5106 -0.6615  0.7837
 3565SOL     OW22153   2.145   0.653   3.302 -0.1416  0.3368 -0.0223
 3565SOL    HW122154   2.145   0.674   3.209 -2.5423 -0.8578 -0.2948
 3565SOL    HW222155   2.071   0.700   3.340  0.8084  2.0329 -0.2723
 3566SOL     OW22156   0.430   1.959   7.876 -0.2079  0.4504  0.3253
 3566SOL    HW122157   0.505   1.906   7.904  1.2138  2.1660 -0.2406
 3566SOL    HW222158   0.372   1.884   7.882  1.9160 -1.1785  0.7397
 3567SOL     OW22159   2.114   3.988   7.153 -0.4910  0.0218  0.2515
 3567SOL    HW122160   2.048   4.006   7.220 -1.2641  0.1696 -0.5387
 3567SOL    HW222161   2.056   3.968   7.079 -0.3428 -0.9610  0.4026
 3568SOL     OW22162   2.930   0.476  11.484  0.1880  0.2950 -0.4850
 3568SOL    HW122163   2.918   0.475  11.389 -2.7916  0.2968 -0.1161
 3568SOL    HW222164   2.937   0.381  11.494  0.9480  0.2685 -1.2659
 3569SOL     OW22165   1.955   0.086  11.031  0.5428 -0.1705  0.5921
 3569SOL    HW122166   1.929   0.149  11.098 -0.3816  0.0683  0.0101
 3569SOL    HW222167   1.974   0.150  10.962 -0.1287 -0.2681  0.3149
 3570SOL     OW22168   2.758   3.440  16.855 -0.1196  0.4436 -0.1492
 3570SOL    HW122169   2.751   3.348  16.882 -1.4035  0.8530  0.9030
 3570SOL    HW222170   2.752   3.482  16.941  2.9847  1.9850 -0.6692
 3571SOL     OW22171   0.931   3.790  14.170  0.3911 -0.2267 -0.2077
 3571SOL    HW122172   0.933   3.814  14.078  2.4289  0.8019  0.1028
 3571SOL    HW222173   0.868   3.719  14.155  2.3027 -2.6339  3.0168
 3572SOL     OW22174   3.469   0.325   7.066  0.2632  0.3043  0.2379
 3572SOL    HW122175   3.376   0.324   7.090  0.2066 -0.8165 -0.0018
 3572SOL    HW222176   3.500   0.258   7.127  1.7474  1.1081  0.3497
 3573SOL     OW22177   2.540   3.785   8.261  0.3625 -0.0734 -0.1467
 3573SOL    HW122178   2.575   3.824   8.181  1.2005 -0.8942 -0.1830
 3573SOL    HW222179   2.517   3.695   8.240 -3.0591  0.3884  1.6380
 3574SOL     OW22180   1.726   0.308   0.392  0.1944 -0.1583 -0.2884
 3574SOL    HW122181   1.687   0.274   0.311  2.3685  0.6779 -1.6990
 3574SOL    HW222182   1.747   0.222   0.428  0.8036 -1.4995 -3.8423
 3575SOL     OW22183   2.706   1.641   7.795  0.3013 -0.3310  0.1139
 3575SOL    HW122184   2.622   1.669   7.830  0.1499  1.7873 -1.8921
 3575SOL    HW222185   2.697   1.551   7.824 -2.1788  0.1483  0.7978
 3576SOL     OW22186   0.082   2.513   8.022  0.0173  0.4780 -0.4726
 3576SOL    HW122187   0.017   2.581   8.038 -1.5019 -0.7820 -1.2318
 3576SOL    HW222188   0.055   2.449   8.088  1.1586  0.7865  0.2872
 3577SOL     OW22189   3.299   0.306   2.150  0.3680  0.0710  1.1687
 3577SOL    HW122190   3.271   0.215   2.145  0.7984  0.1269 -2.1301
 3577SOL    HW222191   3.216   0.344   2.122 -0.4571 -1.1662  1.9101
 3578SOL     OW22192   2.180   3.257   4.527 -0.5289  0.2701 -0.4143
 3578SOL    HW122193   2.179   3.320   4.455 -1.9929  0.3207 -0.3527
 3578SOL    HW222194   2.271   3.275   4.552 -1.1197  0.2500  1.7365
 3579SOL     OW22195   1.915   3.892  17.572 -0.0958  0.1465 -0.1624
 3579SOL    HW122196   1.827   3.919  17.546 -1.1449 -1.8295  1.3917
 3579SOL    HW222197   1.900   3.798  17.572 -2.2486  0.4938  1.5231
 3580SOL     OW22198   0.300   1.706   7.918 -0.0707  0.4668 -0.3535
 3580SOL    HW122199   0.335   1.696   8.006  1.1839 -2.6195 -1.2327
 3580SOL    HW222200   0.251   1.626   7.903 -1.6867  1.2927  0.5847
 3581SOL     OW22201   1.575   0.059   2.411 -0.6287  0.0389 -0.2037
 3581SOL    HW122202   1.556   0.002   2.337  1.4080  0.9921 -1.4390
 3581SOL    HW222203   1.525   0.016   2.480 -2.3762 -0.2288 -1.6359
 3582SOL     OW22204   2.260   3.442   8.126  0.0015 -0.6641  0.3749
 3582SOL    HW122205   2.211   3.511   8.171 -2.5301 -2.2109 -0.0247
 3582SOL    HW222206   2.206   3.372   8.162 -0.2618 -1.2985 -1.2632
 3583SOL     OW22207   1.503   2.359   6.419 -0.2017  0.0064  0.0593
 3583SOL    HW122208   1.540   2.294   6.359  0.3259  2.0565 -1.8515
 3583SOL    HW222209   1.556   2.428   6.379 -1.1315 -0.9647 -2.8373
 3584SOL     OW22210   0.172   4.438   8.339  0.7453 -0.3869  0.4909
 3584SOL    HW122211   0.231   4.366   8.316  1.3330  0.7216 -1.4360
 3584SOL    HW222212   0.119   4.384   8.397 -0.9289  1.8898  1.0583
 3585SOL     OW22213   1.502   3.612  10.599 -0.0256 -0.2080  0.3264
 3585SOL    HW122214   1.576   3.602  10.660 -1.1900  1.9274  2.1210
 3585SOL    HW222215   1.481   3.705  10.606  0.3585 -0.2513  2.2426
 3586SOL     OW22216   2.872   1.154   6.324 -0.3332  0.5419  0.3747
 3586SOL    HW122217   2.915   1.130   6.242 -0.3789  2.1138 -0.1002
 3586SOL    HW222218   2.869   1.066   6.362 -2.3638 -0.0279 -1.0626
 3587SOL     OW22219   4.596   0.282   5.130 -0.4734 -0.1364  0.6889
 3587SOL    HW122220   4.578   0.201   5.178  0.0729  0.9729  2.7516
 3587SOL    HW222221   4.604   0.248   5.041 -1.1359 -0.8138  0.8866
 3588SOL     OW22222   1.140   3.796   9.385  0.3818  0.2067 -0.0516
 3588SOL    HW122223   1.139   3.879   9.431  0.8223 -0.3852  1.0142
 3588SOL    HW222224   1.195   3.746   9.446  1.6116  0.3017 -1.0778
 3589SOL     OW22225   0.543   0.810   6.578  0.0440 -0.5457 -0.0232
 3589SOL    HW122226   0.527   0.765   6.661 -2.0525 -0.8071 -0.5874
 3589SOL    HW222227   0.637   0.790   6.576  0.2412  0.8694 -3.5809
 3590SOL     OW22228   3.532   0.986   1.506 -0.2651 -0.1351  0.5954
 3590SOL    HW122229   3.536   0.988   1.602  2.1674  1.0281  0.4603
 3590SOL    HW222230   3.514   0.894   1.487  2.5261 -0.9930  2.0289
 3591SOL     OW22231   3.463   2.041  13.966 -0.0181  0.7075  0.1314
 3591SOL    HW122232   3.429   2.055  13.878  0.4708  1.7510  0.1121
 3591SOL    HW222233   3.420   2.112  14.014  1.0337  0.8590  0.8478
 3592SOL     OW22234   3.285   1.193  10.078 -0.0675  0.4244 -0.1113
 3592SOL    HW122235   3.189   1.193  10.083 -0.1296  3.2969 -1.2528
 3592SOL    HW222236   3.306   1.285  10.089 -0.4034  0.2945  1.5982
 3593SOL     OW22237   1.157   2.166   3.004 -0.5136 -0.1511 -0.8782
 3593SOL    HW122238   1.092   2.128   2.945  0.7784 -1.0276 -1.7486
 3593SOL    HW222239   1.130   2.257   2.990 -1.5067 -0.3804 -0.4742
 3594SOL     OW22240   0.715   0.935   7.803 -0.4318 -0.2776 -0.0636
 3594SOL    HW122241   0.723   0.847   7.839  0.0044 -0.5837 -0.9017
 3594SOL    HW222242   0.748   0.980   7.881 -1.6850  2.6112 -1.2076
 3595SOL     OW22243   3.435   4.251   9.907  0.1184 -0.3997  0.4233
 3595SOL    HW122244   3.530   4.242   9.916  0.1808  1.6204  1.6455
 3595SOL    HW222245   3.409   4.288   9.991 -1.6937  2.2734 -1.3046
 3596SOL     OW22246   1.368   2.837   6.117 -0.4839  0.0418  0.0989
 3596SOL    HW122247   1.372   2.930   6.091  0.2690 -0.4753 -1.6100
 3596SOL    HW222248   1.461   2.819   6.112  0.0645  2.3615  1.5242
 3597SOL     OW22249   3.748   0.491   2.658  0.3142  0.9753 -0.1146
 3597SOL    HW122250   3.670   0.545   2.647 -0.7343 -0.2429  1.3797
 3597SOL    HW222251   3.728   0.450   2.742 -0.8708  0.9988 -0.3853
 3598SOL     OW22252   4.128   0.759   2.873 -0.0139 -0.1479  0.6188
 3598SOL    HW122253   4.097   0.687   2.819 -0.4555  0.3188  0.2417
 3598SOL    HW222254   4.219   0.734   2.888  0.0853 -0.6910 -0.8595
 3599SOL     OW22255   2.326   4.452   4.874 -0.0874  0.4160 -0.2947
 3599SOL    HW122256   2.401   4.485   4.825 -0.3174 -1.6076 -2.0553
 3599SOL    HW222257   2.278   4.525   4.912 -1.4851 -0.6596 -0.0042
 3600SOL     OW22258   1.465   2.392  12.830  0.2035  0.4927  0.0416
 3600SOL    HW122259   1.532   2.450  12.793  0.9153 -0.8544 -0.7581
 3600SOL    HW222260   1.488   2.310  12.787 -1.3218  0.2000 -0.1955
 3601SOL     OW22261   2.035   2.877   4.789  0.3144 -0.1935  0.4370
 3601SOL    HW122262   2.070   2.908   4.706 -0.5411 -1.3633 -0.3569
 3601SOL    HW222263   2.002   2.956   4.832  0.6028 -0.9788  2.1106
 3602SOL     OW22264   1.997   4.185   8.952 -0.4570  0.2205 -0.1215
 3602SOL    HW122265   2.091   4.202   8.966 -0.2334 -0.8111 -0.3519
 3602SOL    HW222266   1.983   4.241   8.876 -0.2613  1.3259  0.6669
 3603SOL     OW22267   2.148   3.825   6.604 -0.4059 -0.0400  0.8956
 3603SOL    HW122268   2.226   3.831   6.548 -0.0392  0.7746  1.4905
 3603SOL    HW222269   2.135   3.731   6.591  1.2634  0.0085 -1.2442
 3604SOL     OW22270   3.697   3.560   8.948  0.2912 -0.2645  0.0193
 3604SOL    HW122271   3.656   3.524   8.869  1.4952  0.7678 -1.0940
 3604SOL    HW222272   3.666   3.505   9.020 -0.2502 -0.3723 -0.2941
 3605SOL     OW22273   1.118   2.620   5.375 -0.3345  0.1360  0.6630
 3605SOL    HW122274   1.076   2.705   5.363  1.3587  1.1416  1.8465
 3605SOL    HW222275   1.133   2.617   5.470  1.2287 -4.7331  0.2754
 3606SOL     OW22276   2.451   3.571   8.969  0.2145  0.0434 -0.0589
 3606SOL    HW122277   2.521   3.616   9.016 -0.3819 -0.4397  1.3081
 3606SOL    HW222278   2.467   3.601   8.880  3.4442  1.7174  1.0797
 3607SOL     OW22279   1.444   2.880   2.594 -0.0127  0.1659  0.0674
 3607SOL    HW122280   1.358   2.921   2.594 -0.5202 -0.8751 -3.4525
 3607SOL    HW222281   1.492   2.933   2.658  0.1456  2.4032 -1.8822
 3608SOL     OW22282   2.082   4.040   3.939 -0.2348  0.0318  0.1101
 3608SOL    HW122283   1.992   4.047   3.908 -0.7626 -1.0754  1.3771
 3608SOL    HW222284   2.108   4.131   3.924  0.1470 -0.4618 -2.3345
 3609SOL     OW22285   2.687   1.879   2.982  0.5273  0.1955  0.6170
 3609SOL    HW122286   2.762   1.824   3.004  1.1602  0.1517 -1.6731
 3609SOL    HW222287   2.725   1.944   2.923 -1.2088  0.6855  0.0277
 3610SOL     OW22288   0.104   2.833   9.863 -0.2574 -0.7537  0.0527
 3610SOL    HW122289   0.093   2.919   9.822  0.8982 -0.2885  0.7442
 3610SOL    HW222290   0.012   2.818   9.884 -0.8895  2.0539 -0.7125
 3611SOL     OW22291   3.991   4.153   3.429  0.0390 -0.3782  0.0238
 3611SOL    HW122292   3.934   4.088   3.469 -0.6464 -0.3757 -0.9342
 3611SOL    HW222293   3.980   4.134   3.336 -0.1752 -0.7225  0.1216
 3612SOL     OW22294   0.083   2.466  11.135  0.3325 -0.3252  0.0357
 3612SOL    HW122295   4.718   2.489  11.116  0.2140 -0.7198  0.1264
 3612SOL    HW222296   0.065   2.413  11.213 -2.0050 -0.2492 -0.4384
 3613SOL     OW22297   0.145   2.438   7.712 -0.3817  0.2699 -0.0612
 3613SOL    HW122298   0.172   2.458   7.801 -2.7247  2.0294  0.2637
 3613SOL    HW222299   0.215   2.460   7.651  0.0795  0.0684  0.4035
 3614SOL     OW22300   4.433   0.625   8.779  1.1967 -0.3349  0.6136
 3614SOL    HW122301   4.443   0.690   8.849  0.1074  0.4877 -0.0105
 3614SOL    HW222302   4.487   0.559   8.823  0.6615 -1.5799 -0.6387
 3615SOL     OW22303   4.143   2.464  11.528 -0.1715 -0.0735  0.0643
 3615SOL    HW122304   4.063   2.441  11.575 -1.0307  2.5595 -0.1013
 3615SOL    HW222305   4.138   2.422  11.442  2.7235  1.5244 -0.9022
 3616SOL     OW22306   0.071   0.007   7.246 -0.4291  0.4667 -0.4271
 3616SOL    HW122307   0.120   0.031   7.325  0.1170 -0.0385 -0.6157
 3616SOL    HW222308   4.705   4.720   7.269 -0.0735 -1.4355 -0.0848
 3617SOL     OW22309   0.064   2.438  12.847 -0.2327 -0.5617 -0.4415
 3617SOL    HW122310   4.701   2.406  12.831 -0.7081 -0.0905  1.3075
 3617SOL    HW222311   0.109   2.384  12.781  1.0157  1.0625 -0.9040
 3618SOL     OW22312   4.672   3.419   2.729  0.6479  0.8278 -0.0587
 3618SOL    HW122313   4.662   3.383   2.817  0.2703  0.7535 -0.1302
 3618SOL    HW222314   4.651   3.344   2.673 -0.4553 -0.3894  1.9749
 3619SOL     OW22315   0.238   2.061   8.480  0.2153  0.0003 -0.3847
 3619SOL    HW122316   0.245   2.013   8.397 -2.0223  0.5492 -0.9055
 3619SOL    HW222317   0.320   2.024   8.512  0.4661 -0.7082 -1.8564
 3620SOL     OW22318   3.066   1.539   2.798  0.3493  0.4347 -0.4672
 3620SOL    HW122319   3.098   1.518   2.885 -1.5397 -1.0385 -0.1354
 3620SOL    HW222320   2.982   1.494   2.796  1.0979 -0.9535 -0.0011
 3621SOL     OW22321   4.246   1.820  11.647 -0.3749  0.3473  0.5936
 3621SOL    HW122322   4.254   1.880  11.573  0.1210  1.5699  1.6514
 3621SOL    HW222323   4.325   1.766  11.639  0.0279  1.0747 -0.3340
 3622SOL     OW22324   3.793   3.311  15.444  0.2978 -0.0378 -0.1584
 3622SOL    HW122325   3.869   3.280  15.395  1.4922  3.6377 -0.6377
 3622SOL    HW222326   3.842   3.372  15.500 -0.5379  0.1731  0.3380
 3623SOL     OW22327   4.033   1.444   5.678  0.0838 -0.4084 -0.0638
 3623SOL    HW122328   4.085   1.370   5.646 -0.1978 -0.5313 -0.2345
 3623SOL    HW222329   4.087   1.479   5.749  0.3965 -0.5161 -0.2474
 3624SOL     OW22330   4.684   2.690   4.067 -0.0489  0.2634  0.0255
 3624SOL    HW122331   4.598   2.707   4.029 -0.5870 -0.1386  1.0463
 3624SOL    HW222332   0.001   2.769   4.035  0.1815 -0.6760 -1.9543
 3625SOL     OW22333   3.193   2.623   5.304  0.2037 -1.0329  0.2086
 3625SOL    HW122334   3.159   2.693   5.360  1.8341  0.0207 -0.1164
 3625SOL    HW222335   3.138   2.549   5.331 -1.8576  0.7094  0.8436
 3626SOL     OW22336   2.895   0.408   3.855 -0.1124 -0.4799  1.0396
 3626SOL    HW122337   2.823   0.394   3.793 -0.2823 -0.6771  1.2795
 3626SOL    HW222338   2.905   0.323   3.897 -1.3752 -1.6404 -1.0173
 3627SOL     OW22339   1.932   2.863   5.534  0.3359 -0.2130  0.0954
 3627SOL    HW122340   2.003   2.927   5.529  0.6636 -0.5338  0.6014
 3627SOL    HW222341   1.878   2.889   5.609 -0.0270  1.8795 -0.8963
 3628SOL     OW22342   3.601   2.129   0.753  0.1083  0.2182  0.1504
 3628SOL    HW122343   3.691   2.097   0.760  0.6842  1.9046  0.4068
 3628SOL    HW222344   3.600   2.219   0.786  0.1643  0.7294 -1.2370
 3629SOL     OW22345   1.425   2.698   5.535 -0.1412 -0.0590 -0.1223
 3629SOL    HW122346   1.427   2.698   5.440  0.7842  1.6183 -0.1090
 3629SOL    HW222347   1.514   2.668   5.552 -0.1383 -1.0786 -1.9720
 3630SOL     OW22348   0.134   0.103   0.956  0.1234 -0.4957  0.1651
 3630SOL    HW122349   0.135   0.182   1.010 -2.2164  1.1263 -2.1866
 3630SOL    HW222350   0.058   0.051   0.982  0.2778 -0.2182  1.1678
 3631SOL     OW22351   2.742   3.711   5.492 -0.1725 -0.1421 -0.0479
 3631SOL    HW122352   2.716   3.656   5.566 -2.6201  0.6936 -0.2824
 3631SOL    HW222353   2.795   3.779   5.532  0.5597 -0.6329 -0.1809
 3632SOL     OW22354   3.370   0.516   3.419 -0.0848  0.1838  0.4339
 3632SOL    HW122355   3.437   0.460   3.459  0.0561  0.1538  0.1571
 3632SOL    HW222356   3.410   0.528   3.333 -0.3555  0.5132  0.3562
 3633SOL     OW22357   2.098   0.366   5.597  0.3537 -0.4891  0.0861
 3633SOL    HW122358   2.136   0.448   5.628  0.1041  0.7106 -2.7576
 3633SOL    HW222359   2.135   0.360   5.509  0.1737  1.5527 -0.1501
 3634SOL     OW22360   0.906   4.590   9.472  0.1060  0.3546 -0.0834
 3634SOL    HW122361   0.903   4.678   9.434 -0.4338  0.1764 -0.4442
 3634SOL    HW222362   0.822   4.585   9.516  0.1649  1.4209  0.1421
 3635SOL     OW22363   3.798   3.385  16.118 -0.0766  0.3464  0.9548
 3635SOL    HW122364   3.878   3.333  16.109  0.8574  1.6367  1.7435
 3635SOL    HW222365   3.747   3.366  16.039  1.4544 -2.6607  0.6902
 3636SOL     OW22366   0.645   0.190  14.489 -0.3314 -0.3582 -0.1828
 3636SOL    HW122367   0.653   0.205  14.394  1.0679 -1.1612 -0.1985
 3636SOL    HW222368   0.721   0.133  14.506  0.6498  1.1848  0.6028
 3637SOL     OW22369   1.473   4.302   8.250  0.0650 -0.2444 -0.2497
 3637SOL    HW122370   1.528   4.378   8.229  0.1056 -0.1208  0.2875
 3637SOL    HW222371   1.384   4.332   8.269  0.1617  0.3438 -0.7270
 3638SOL     OW22372   4.679   1.682   1.660 -0.1819  0.2713  0.0707
 3638SOL    HW122373   4.670   1.683   1.565  0.7679  1.0190 -0.0025
 3638SOL    HW222374   4.626   1.606   1.684  2.7449 -1.1706  2.0037
 3639SOL     OW22375   0.745   3.756   6.092 -0.6481 -0.2081  0.5733
 3639SOL    HW122376   0.830   3.759   6.048 -1.5319  0.0343 -1.1080
 3639SOL    HW222377   0.706   3.695   6.030  1.0448 -1.7322  1.0076
 3640SOL     OW22378   1.416   4.694   1.662  0.0522  0.0595  0.4532
 3640SOL    HW122379   1.322   4.699   1.677  0.2236 -1.5873  2.2010
 3640SOL    HW222380   1.421   4.650   1.577  1.1086  0.0901  0.4919
 3641SOL     OW22381   4.028   2.506  13.396  0.4444 -0.1352  0.5302
 3641SOL    HW122382   3.958   2.512  13.460  2.2050  2.9610  2.1635
 3641SOL    HW222383   3.998   2.561  13.324  1.1453  0.8506  0.9857
 3642SOL     OW22384   3.367   1.856   5.247 -0.0512 -0.1739 -0.9334
 3642SOL    HW122385   3.458   1.884   5.238  0.6967 -1.8356  1.3363
 3642SOL    HW222386   3.320   1.928   5.206  0.4762  1.3014  1.0708
 3643SOL     OW22387   3.628   3.439   5.140  0.1852 -0.4588  0.4046
 3643SOL    HW122388   3.657   3.379   5.210  0.6050 -1.3769 -0.5445
 3643SOL    HW222389   3.533   3.428   5.134 -0.1098  1.7324  1.1140
 3644SOL     OW22390   3.613   0.491  15.592 -0.0463  0.0976 -0.7242
 3644SOL    HW122391   3.664   0.556  15.639 -1.6737 -1.1173  2.7668
 3644SOL    HW222392   3.621   0.542  15.511 -1.4073  0.7108 -0.4772
 3645SOL     OW22393   4.289   0.840  17.596 -0.1245 -0.3802 -0.1618
 3645SOL    HW122394   4.214   0.792  17.632  0.0454 -0.2939  0.3048
 3645SOL    HW222395   4.261   0.930  17.579  0.7014  0.0903  1.0055
 3646SOL     OW22396   2.532   2.665  16.153  0.0631 -0.0630 -0.4341
 3646SOL    HW122397   2.478   2.738  16.124 -2.0614 -0.7314  1.7889
 3646SOL    HW222398   2.591   2.717  16.207  0.0302  0.5931 -1.0353
 3647SOL     OW22399   4.158   1.320  10.589  0.5171  0.6404  0.2587
 3647SOL    HW122400   4.093   1.249  10.589 -0.6335  1.6883  1.5639
 3647SOL    HW222401   4.229   1.282  10.641 -0.3366 -0.4000  0.6811
 3648SOL     OW22402   3.526   2.744   4.909 -0.3296 -0.0740  0.6803
 3648SOL    HW122403   3.538   2.792   4.827 -2.5505 -0.0881  0.3635
 3648SOL    HW222404   3.434   2.723   4.895 -0.3461 -1.1641  2.4343
 3649SOL     OW22405   1.801   2.928   2.644 -0.2616  0.8877  0.0060
 3649SOL    HW122406   1.836   2.855   2.696  0.1409  1.2433  0.2322
 3649SOL    HW222407   1.723   2.941   2.697 -1.8663 -0.2154 -2.0641
 3650SOL     OW22408   2.110   0.542  16.459 -0.1297 -0.7440 -0.4821
 3650SOL    HW122409   2.165   0.465  16.469  0.2230 -0.3635  0.4654
 3650SOL    HW222410   2.105   0.552  16.364 -1.2881 -0.8861 -0.4420
 3651SOL     OW22411   3.925   1.703   1.806  0.3414 -0.1422  0.3658
 3651SOL    HW122412   3.912   1.793   1.774 -1.0852 -0.7905 -0.8718
 3651SOL    HW222413   3.837   1.680   1.836  1.7373 -3.0940  2.1706
 3652SOL     OW22414   4.372   3.207   7.162  0.9188  0.7109  0.2544
 3652SOL    HW122415   4.463   3.231   7.144  0.5501  2.2431  0.4829
 3652SOL    HW222416   4.328   3.212   7.077  1.4884 -1.5094 -0.1833
 3653SOL     OW22417   0.296   0.304   7.716 -0.2929  0.1111  0.0644
 3653SOL    HW122418   0.278   0.384   7.667  0.4259  0.5946  0.5796
 3653SOL    HW222419   0.356   0.273   7.648  0.3049  0.9744  0.1933
 3654SOL     OW22420   0.354   4.639   0.300  0.2018  0.2491 -0.1602
 3654SOL    HW122421   0.378   4.550   0.325 -0.3927 -0.2296 -1.2800
 3654SOL    HW222422   0.300   4.647   0.378  0.5222 -1.0960  0.2055
 3655SOL     OW22423   2.292   4.035   0.183 -0.1968 -0.1285  0.5412
 3655SOL    HW122424   2.279   3.944   0.209 -0.6978 -0.5971 -1.3449
 3655SOL    HW222425   2.208   4.080   0.191 -0.4366 -0.5129  0.2360
 3656SOL     OW22426   3.082   3.665  10.097  0.3723  0.0908 -0.1024
 3656SOL    HW122427   3.054   3.575  10.116  0.2073 -0.5083 -3.1028
 3656SOL    HW222428   3.003   3.703  10.059 -1.0503 -1.1951  1.5806
 3657SOL     OW22429   0.392   3.376   7.206  0.1279 -0.1893 -0.2448
 3657SOL    HW122430   0.428   3.384   7.118 -0.9951  1.2929 -0.5779
 3657SOL    HW222431   0.379   3.282   7.214 -0.8191  0.1068  1.6073
 3658SOL     OW22432   3.357   3.648   6.151  0.0968 -0.3571 -0.3208
 3658SOL    HW122433   3.337   3.596   6.073 -0.4118  1.6505 -1.5171
 3658SOL    HW222434   3.429   3.700   6.116 -1.4559  1.2509 -1.1490
 3659SOL     OW22435   1.063   3.661   9.125  0.0319  0.2223 -0.4211
 3659SOL    HW122436   1.114   3.710   9.189 -0.1726  1.6117 -1.3305
 3659SOL    HW222437   1.133   3.644   9.062  1.5557 -0.2351  1.3868
 3660SOL     OW22438   1.799   1.991   5.550  0.1603  0.0801 -0.8298
 3660SOL    HW122439   1.859   1.936   5.600  0.7447 -1.1352 -2.8774
 3660SOL    HW222440   1.793   2.071   5.602 -0.0422 -1.5224  1.6124
 3661SOL     OW22441   0.095   3.950   7.747 -0.2929  0.0020  0.1345
 3661SOL    HW122442   0.150   3.957   7.825 -2.8736  0.5010  1.9006
 3661SOL    HW222443   0.147   3.901   7.684 -0.7118 -0.9165  0.5008
 3662SOL     OW22444   0.830   4.205   3.165  0.2012 -0.2097 -0.0102
 3662SOL    HW122445   0.804   4.265   3.095 -0.0718 -1.2547 -0.8133
 3662SOL    HW222446   0.792   4.122   3.134 -2.5902  0.6414  1.0683
 3663SOL     OW22447   2.994   1.329   2.490  0.3069 -0.3252  0.0782
 3663SOL    HW122448   3.013   1.252   2.544 -1.7853  0.6543  2.2445
 3663SOL    HW222449   3.080   1.370   2.503  0.7470 -1.5138  0.9384
 3664SOL     OW22450   3.762   0.949   1.329  0.7923  0.0305 -0.4561
 3664SOL    HW122451   3.714   0.950   1.247  1.9673  0.8114 -1.1432
 3664SOL    HW222452   3.693   0.977   1.390  2.3912  0.3270  1.2326
 3665SOL     OW22453   0.861   0.290   0.654  0.6011  0.1324  0.7389
 3665SOL    HW122454   0.941   0.335   0.627  1.2219 -0.2338  1.9877
 3665SOL    HW222455   0.874   0.199   0.628 -0.1474  0.6730 -1.5497
 3666SOL     OW22456   0.152   2.820   6.355 -0.1723 -0.0279  0.6897
 3666SOL    HW122457   0.199   2.900   6.332  1.3920 -1.2214 -0.2689
 3666SOL    HW222458   0.079   2.846   6.412 -0.8648  2.1552 -1.1706
 3667SOL     OW22459   2.099   2.015   8.280  0.2068 -0.5566  0.3099
 3667SOL    HW122460   2.117   1.997   8.372 -2.7237 -1.1783  0.7553
 3667SOL    HW222461   2.007   1.990   8.279 -0.3683  1.6467 -2.4267
 3668SOL     OW22462   1.773   1.695   1.180 -0.1911 -0.6790  0.1844
 3668SOL    HW122463   1.702   1.701   1.245  0.3864 -1.7397  0.9253
 3668SOL    HW222464   1.845   1.641   1.214 -1.3116 -1.4799  1.3187
 3669SOL     OW22465   2.696   0.011  14.803 -0.0739 -0.5289  0.1407
 3669SOL    HW122466   2.772   4.680  14.809 -1.1063 -1.9217  0.0739
 3669SOL    HW222467   2.675   0.048  14.888 -1.4432  1.5369 -1.1007
 3670SOL     OW22468   2.116   1.255   2.437 -0.6657 -0.1082  0.4425
 3670SOL    HW122469   2.048   1.218   2.494 -0.0571 -0.8646  0.6824
 3670SOL    HW222470   2.125   1.343   2.474 -1.8044  0.1691  0.0513
 3671SOL     OW22471   0.701   3.481   8.250 -0.0989 -0.1486 -0.1439
 3671SOL    HW122472   0.638   3.539   8.292  1.6707  0.7576  1.2709
 3671SOL    HW222473   0.717   3.518   8.163  2.0978  0.3247  0.4594
 3672SOL     OW22474   0.436   0.202   2.353 -0.0470  0.1764 -0.1044
 3672SOL    HW122475   0.462   0.113   2.332 -1.1063 -0.1042 -0.2601
 3672SOL    HW222476   0.503   0.243   2.299  1.5644  0.0487  1.7775
 3673SOL     OW22477   2.237   1.843  13.929  0.8040  0.3080 -0.0040
 3673SOL    HW122478   2.246   1.750  13.951  1.9781  0.2583 -0.7050
 3673SOL    HW222479   2.257   1.849  13.836  0.3099  2.5954  0.0299
 3674SOL     OW22480   4.593   4.706   4.373  0.2048 -0.9120  0.4930
 3674SOL    HW122481   4.524   4.659   4.420 -0.5647 -2.0640 -1.7919
 3674SOL    HW222482   4.663   4.712   4.438  0.1331 -1.0655  0.5836
 3675SOL     OW22483   0.400   2.420   8.374  0.0234  0.2309 -0.7440
 3675SOL    HW122484   0.317   2.379   8.398  0.7465 -1.5234 -1.2655
 3675SOL    HW222485   0.393   2.513   8.396  0.4572  0.3810 -1.2424
 3676SOL     OW22486   4.231   4.034   7.186  0.9694 -0.7602  0.0036
 3676SOL    HW122487   4.214   4.127   7.170  0.1023 -0.6800  1.4096
 3676SOL    HW222488   4.222   4.039   7.281 -0.0938  0.6915 -0.1723
 3677SOL     OW22489   3.497   4.663   6.691 -0.9267 -0.8854  0.4607
 3677SOL    HW122490   3.478   4.650   6.598 -0.5367 -0.7774  0.3661
 3677SOL    HW222491   3.585   4.700   6.690 -0.8354 -1.1917 -2.0872
 3678SOL     OW22492   0.338   3.904   8.329  0.5806  0.1055  0.3767
 3678SOL    HW122493   0.319   3.869   8.416 -0.5750 -0.9670 -0.3123
 3678SOL    HW222494   0.259   3.862   8.295 -0.5878  3.4245 -1.0151
 3679SOL     OW22495   1.575   2.214   6.196  0.4027 -0.3726  0.4572
 3679SOL    HW122496   1.501   2.158   6.172  1.7602 -2.2651  0.6837
 3679SOL    HW222497   1.578   2.280   6.127  1.8866  0.1302  1.0038
 3680SOL     OW22498   1.824   4.445   9.170  0.1376  0.1754  0.1371
 3680SOL    HW122499   1.906   4.400   9.193  0.3710  0.6089  0.1545
 3680SOL    HW222500   1.832   4.481   9.082 -0.1902  0.4318  0.2138
 3681SOL     OW22501   4.435   0.700   6.275 -0.2666 -0.0927 -0.2027
 3681SOL    HW122502   4.446   0.689   6.369 -0.6101  0.0798 -0.1429
 3681SOL    HW222503   4.526   0.716   6.248  0.7401 -4.8572  0.4376
 3682SOL     OW22504   1.785   3.106  15.613  0.3913  0.4831  0.5418
 3682SOL    HW122505   1.777   3.127  15.520 -1.8723  1.3073  0.9239
 3682SOL    HW222506   1.799   3.011  15.613 -0.8509  0.2972  0.5364
 3683SOL     OW22507   4.150   3.345  11.104 -0.8347  0.7208  0.0721
 3683SOL    HW122508   4.171   3.309  11.190 -0.6174  1.2503  0.2413
 3683SOL    HW222509   4.057   3.327  11.097 -0.6200  0.4033 -2.2022
 3684SOL     OW22510   2.456   3.058   1.644  0.2768 -0.0760 -0.4222
 3684SOL    HW122511   2.409   3.057   1.560 -0.4508 -0.4381 -0.0146
 3684SOL    HW222512   2.477   3.149   1.666  1.5128 -0.1565 -1.2788
 3685SOL     OW22513   3.657   2.325   7.145  0.2229  0.4814 -0.3992
 3685SOL    HW122514   3.709   2.246   7.129  0.5654  0.7496 -0.6147
 3685SOL    HW222515   3.702   2.392   7.093  1.1041 -0.9807 -1.5256
 3686SOL     OW22516   2.430   3.783   6.482 -0.3738 -0.6072  0.1482
 3686SOL    HW122517   2.452   3.835   6.559 -1.2704 -1.0983  0.7541
 3686SOL    HW222518   2.380   3.845   6.428 -1.2148 -1.6362 -0.2653
 3687SOL     OW22519   3.226   1.383  10.968 -0.0392  0.1464 -0.0170
 3687SOL    HW122520   3.268   1.314  10.916 -2.0051 -1.0327 -0.0695
 3687SOL    HW222521   3.288   1.451  10.994  0.0806  0.2536 -0.5833
 3688SOL     OW22522   3.528   2.209  16.143 -0.0629 -0.0367  0.2463
 3688SOL    HW122523   3.534   2.117  16.168 -0.9357 -0.3504 -0.6741
 3688SOL    HW222524   3.611   2.248  16.168  0.3325  0.8070 -2.3525
 3689SOL     OW22525   3.267   0.113   6.813 -0.0035 -0.1999 -0.3080
 3689SOL    HW122526   3.359   0.138   6.825 -0.2324  0.0444  0.9020
 3689SOL    HW222527   3.276   0.018   6.811 -0.0898 -0.2440  1.5622
 3690SOL     OW22528   2.720   2.999   6.583 -0.4978 -0.2932  0.2324
 3690SOL    HW122529   2.686   2.960   6.663  1.2464  0.2349  1.2372
 3690SOL    HW222530   2.640   3.037   6.546  0.0910  2.5952  1.9302
 3691SOL     OW22531   2.075   1.789  15.171  0.2100 -0.1239  0.4651
 3691SOL    HW122532   2.165   1.768  15.194  0.1545 -0.8652  0.0144
 3691SOL    HW222533   2.091   1.874  15.130 -0.2009  0.9658  2.5439
 3692SOL     OW22534   4.611   3.268   2.058 -0.2640  0.1732  0.1378
 3692SOL    HW122535   4.704   3.286   2.074 -0.0435  1.1617 -2.1779
 3692SOL    HW222536   4.617   3.222   1.974 -0.2904  0.0745  0.1909
 3693SOL     OW22537   2.452   3.996  13.948  0.2772 -0.5975 -0.3156
 3693SOL    HW122538   2.401   4.010  14.028  1.2069  0.2569  0.1137
 3693SOL    HW222539   2.457   4.092  13.947 -0.8080 -0.5476 -1.1634
 3694SOL     OW22540   4.199   2.089   0.218  0.1457 -0.0557 -0.1816
 3694SOL    HW122541   4.167   2.026   0.282  0.8364 -0.0830  0.1353
 3694SOL    HW222542   4.208   2.039   0.137  2.4057  0.2460 -0.1171
 3695SOL     OW22543   0.523   4.714   2.191 -0.1924 -0.0311  0.1158
 3695SOL    HW122544   0.462   0.010   2.120  1.6604  0.8272 -1.2164
 3695SOL    HW222545   0.552   4.628   2.161 -2.0519  0.2958 -2.6577
 3696SOL     OW22546   1.558   1.077   8.530 -0.1866  0.0869  0.5310
 3696SOL    HW122547   1.532   1.036   8.612 -1.9245 -0.9441 -0.5488
 3696SOL    HW222548   1.590   1.007   8.473  1.4644  0.4142  1.0508
 3697SOL     OW22549   0.989   3.600   1.394 -0.0837 -1.0016  0.1183
 3697SOL    HW122550   0.987   3.538   1.468 -2.4803 -2.1404 -0.8796
 3697SOL    HW222551   1.019   3.543   1.323  0.6583 -1.2185  0.6019
 3698SOL     OW22552   1.365   1.517   2.283  0.1114  0.7337  0.2605
 3698SOL    HW122553   1.441   1.567   2.309 -0.0081  0.6111  0.8312
 3698SOL    HW222554   1.325   1.580   2.223  1.2906  0.2939 -0.9804
 3699SOL     OW22555   1.122   4.609   6.999 -0.4291  0.1735 -0.2868
 3699SOL    HW122556   1.066   4.685   6.979 -0.6260  0.2998  0.7737
 3699SOL    HW222557   1.052   4.545   6.990  0.4641 -1.0097  1.2878
 3700SOL     OW22558   1.448   0.145   1.963 -0.8367 -0.3330 -0.6156
 3700SOL    HW122559   1.454   0.240   1.973 -1.9158 -0.2212 -0.9337
 3700SOL    HW222560   1.379   0.127   2.027 -0.0641  1.8919  0.8322
 3701SOL     OW22561   4.042   1.697   9.796 -0.1989 -0.1632  0.0651
 3701SOL    HW122562   4.026   1.624   9.855 -3.5613 -1.2518 -2.2029
 3701SOL    HW222563   4.132   1.719   9.820  0.2544 -1.0508 -0.8510
 3702SOL     OW22564   1.549   2.755   1.679  0.0388  0.2780  0.6816
 3702SOL    HW122565   1.520   2.771   1.768 -3.1746  1.5056 -0.5870
 3702SOL    HW222566   1.584   2.667   1.694 -0.3718 -0.2102 -1.2145
 3703SOL     OW22567   3.157   1.141   8.481 -0.2537 -0.0081 -0.0262
 3703SOL    HW122568   3.176   1.053   8.513  0.4572 -0.0051 -0.4589
 3703SOL    HW222569   3.197   1.126   8.395  0.1895 -1.5085  0.4351
 3704SOL     OW22570   0.316   1.973  16.961 -0.5188  0.0303  0.8179
 3704SOL    HW122571   0.353   2.056  16.989 -2.0086  0.4254  1.5994
 3704SOL    HW222572   0.221   1.986  16.964 -0.4490  1.0949 -1.7048
 3705SOL     OW22573   0.884   0.160   9.694  0.3198  0.5039 -0.2021
 3705SOL    HW122574   0.962   0.205   9.729 -0.7962  2.4024 -0.1190
 3705SOL    HW222575   0.822   0.233   9.702  0.2539  0.6356 -2.0434
 3706SOL     OW22576   3.937   1.520   3.924  0.0491  0.4255 -0.3599
 3706SOL    HW122577   3.912   1.560   3.841 -1.3742  1.5823  0.6008
 3706SOL    HW222578   3.920   1.428   3.906 -0.5018  0.3706  0.4448
 3707SOL     OW22579   0.619   0.344   3.447 -0.6757 -0.0046 -0.4163
 3707SOL    HW122580   0.684   0.298   3.500  1.1527  0.7962 -1.9935
 3707SOL    HW222581   0.604   0.284   3.374  1.4453 -0.4215 -0.4921
 3708SOL     OW22582   0.043   2.260   1.064  0.1213 -0.0757 -0.4433
 3708SOL    HW122583   4.705   2.190   1.065 -0.9154  0.9134  1.9063
 3708SOL    HW222584   0.009   2.317   0.995 -2.0586 -0.1227  0.5974
 3709SOL     OW22585   3.660   0.859   5.212  0.0493 -0.7250  0.0044
 3709SOL    HW122586   3.677   0.793   5.279  1.7679  0.2472  0.5318
 3709SOL    HW222587   3.572   0.842   5.178  0.7750  0.9825 -2.7167
 3710SOL     OW22588   0.677   4.518   5.812 -0.1245  0.1084 -0.6868
 3710SOL    HW122589   0.602   4.546   5.865  1.7978 -1.4895  2.8539
 3710SOL    HW222590   0.742   4.578   5.849  0.1337 -2.0854  2.3966
 3711SOL     OW22591   1.127   0.919  13.472  0.1913 -0.4953  0.0936
 3711SOL    HW122592   1.106   0.918  13.378  1.3048  0.6749 -0.1745
 3711SOL    HW222593   1.164   0.832  13.486  0.0108 -0.8170 -1.3787
 3712SOL     OW22594   0.317   4.495   8.055  0.6038  0.5422 -0.2601
 3712SOL    HW122595   0.270   4.434   7.999  0.6089 -0.9282  1.3369
 3712SOL    HW222596   0.356   4.443   8.125  0.5119 -1.1332 -1.4460
 3713SOL     OW22597   1.139   3.996   5.713  0.0387  0.0504  0.0600
 3713SOL    HW122598   1.191   3.928   5.670 -2.9493 -1.3069 -1.3276
 3713SOL    HW222599   1.111   3.943   5.787 -0.3099 -1.4763 -1.1698
 3714SOL     OW22600   3.334   3.727   4.270 -0.0147  0.4288  0.0564
 3714SOL    HW122601   3.318   3.666   4.342 -1.3046 -1.2102 -1.6044
 3714SOL    HW222602   3.395   3.682   4.211  0.0027  0.4082  0.0904
 3715SOL     OW22603   1.403   1.993   4.379  0.2142  0.2545  0.3797
 3715SOL    HW122604   1.322   2.040   4.359 -0.5529 -1.2363 -0.0973
 3715SOL    HW222605   1.398   1.927   4.309 -1.1117  2.4465 -1.5668
 3716SOL     OW22606   3.561   1.741  15.511 -0.1232 -0.0886 -0.0405
 3716SOL    HW122607   3.555   1.816  15.571  0.8738  1.2095 -1.5625
 3716SOL    HW222608   3.608   1.796  15.448  0.9400  1.0647  1.7458
 3717SOL     OW22609   1.772   2.627  12.290 -0.0868 -0.0842 -0.2736
 3717SOL    HW122610   1.769   2.666  12.377  2.3496 -0.9884  0.2057
 3717SOL    HW222611   1.807   2.700  12.238 -1.4922 -0.2788 -1.4897
 3718SOL     OW22612   1.505   1.719  11.716  0.3545 -0.1864 -0.3762
 3718SOL    HW122613   1.492   1.813  11.728  1.4160  0.1553 -1.7949
 3718SOL    HW222614   1.511   1.695  11.808 -1.8761  1.0603  0.0709
 3719SOL     OW22615   0.699   4.288  10.820  0.6471 -0.9994 -0.6841
 3719SOL    HW122616   0.609   4.320  10.824  0.8387 -0.6525  0.6631
 3719SOL    HW222617   0.687   4.213  10.762 -0.6894  1.9363 -4.1765
 3720SOL     OW22618   3.041   1.282   4.925 -0.2328  0.2196 -0.0191
 3720SOL    HW122619   2.991   1.277   4.843  1.1812 -0.6245 -0.8221
 3720SOL    HW222620   3.129   1.276   4.888 -0.0729 -1.8395  0.6984
 3721SOL     OW22621   2.797   0.228   7.420 -0.0368 -0.0633  0.3164
 3721SOL    HW122622   2.731   0.296   7.430  0.2732  0.3724 -0.6103
 3721SOL    HW222623   2.876   0.277   7.445 -1.3789  1.3496  1.7463
 3722SOL     OW22624   0.525   1.984   3.097 -0.0683  0.1557 -0.1388
 3722SOL    HW122625   0.569   1.904   3.126  0.0994 -0.2399 -1.4878
 3722SOL    HW222626   0.600   2.037   3.069 -0.4313  1.1100  0.6797
 3723SOL     OW22627   0.477   1.929   4.830  0.0556  0.3765 -0.0484
 3723SOL    HW122628   0.476   1.835   4.814 -0.9887  0.4185 -0.2160
 3723SOL    HW222629   0.526   1.931   4.913  2.3878 -1.8981 -1.4097
 3724SOL     OW22630   1.105   0.835  17.697  0.4219  0.0273  0.4335
 3724SOL    HW122631   1.048   0.881  17.636 -0.5133  1.0263  2.0602
 3724SOL    HW222632   1.170   0.795  17.640  1.0617 -1.8694  2.5065
 3725SOL     OW22633   3.836   1.196   3.559 -0.4455  0.0940 -0.7383
 3725SOL    HW122634   3.884   1.268   3.518 -0.8877  0.6428 -0.2748
 3725SOL    HW222635   3.882   1.121   3.519  0.1293  0.7325 -1.2811
 3726SOL     OW22636   3.058   3.707   9.097 -0.1253 -0.1344 -0.6582
 3726SOL    HW122637   3.053   3.748   9.183  3.6807  1.7171 -1.3477
 3726SOL    HW222638   2.997   3.763   9.048 -0.7797  1.1349  1.6422
 3727SOL     OW22639   2.078   3.375   5.793  0.2040  0.5842  0.0330
 3727SOL    HW122640   2.139   3.338   5.729 -0.8689 -1.7005  0.3203
 3727SOL    HW222641   2.116   3.350   5.877  0.4097 -3.3409 -1.1924
 3728SOL     OW22642   1.632   3.620   2.703  0.0996 -0.1637 -0.0122
 3728SOL    HW122643   1.604   3.633   2.613  2.0693 -0.5741 -0.6781
 3728SOL    HW222644   1.726   3.638   2.699  0.3933 -1.6428  0.2235
 3729SOL     OW22645   2.836   2.795   4.236  0.4389 -0.2291 -0.2026
 3729SOL    HW122646   2.834   2.789   4.140  0.1519  0.1889 -0.2209
 3729SOL    HW222647   2.930   2.802   4.256  0.2689 -0.0201  0.5132
 3730SOL     OW22648   3.227   2.411   8.593 -0.1150  0.3178  0.0053
 3730SOL    HW122649   3.246   2.428   8.686 -0.5700 -0.0225  0.1602
 3730SOL    HW222650   3.132   2.419   8.589  0.0174  1.0438 -1.4289
 3731SOL     OW22651   1.975   1.998   3.081 -0.2954 -0.1350  0.1866
 3731SOL    HW122652   2.016   1.912   3.081 -1.1860 -0.5525 -0.1540
 3731SOL    HW222653   1.933   1.997   2.996  0.2976 -0.6002 -0.0991
 3732SOL     OW22654   2.135   2.149   2.127 -0.4364  0.0723  0.4995
 3732SOL    HW122655   2.058   2.122   2.175  0.0344  0.6931  1.5983
 3732SOL    HW222656   2.143   2.071   2.072 -2.6866  0.8811 -0.9742
 3733SOL     OW22657   1.613   0.866   8.345 -0.4383 -0.4151 -0.3332
 3733SOL    HW122658   1.697   0.836   8.310 -0.3147  0.7757 -1.0437
 3733SOL    HW222659   1.538   0.817   8.310 -1.1955 -0.2829  1.1118
 3734SOL     OW22660   4.388   0.123  11.283 -0.4744  0.1076  0.8677
 3734SOL    HW122661   4.413   0.085  11.367 -1.0203 -1.0595  0.5012
 3734SOL    HW222662   4.292   0.120  11.281 -0.4603  0.4906 -0.2717
 3735SOL     OW22663   4.629   0.434   1.527  0.3567  0.0986  0.1102
 3735SOL    HW122664   4.687   0.431   1.603  0.4617  1.0350  0.0699
 3735SOL    HW222665   4.587   0.348   1.533  1.4030 -0.2018  3.4085
 3736SOL     OW22666   4.583   1.487  11.804 -0.3451 -0.1414  0.7008
 3736SOL    HW122667   4.547   1.535  11.878  0.0789 -0.1487  0.9098
 3736SOL    HW222668   4.578   1.396  11.833 -0.3757 -0.8078 -1.3740
 3737SOL     OW22669   3.175   0.612   8.683  0.2529 -0.1186  0.7984
 3737SOL    HW122670   3.089   0.617   8.724 -1.4232  0.8587 -2.8495
 3737SOL    HW222671   3.227   0.681   8.725 -0.3216  0.0970  1.1573
 3738SOL     OW22672   3.743   0.754   4.416 -0.1952 -0.7154 -0.5753
 3738SOL    HW122673   3.668   0.785   4.365 -0.1858 -1.3014 -0.9349
 3738SOL    HW222674   3.816   0.778   4.359  0.4203 -1.3959 -0.0685
 3739SOL     OW22675   0.817   3.145   7.276  0.1340  0.6172 -0.2071
 3739SOL    HW122676   0.858   3.097   7.348 -2.0571  1.1591  1.4209
 3739SOL    HW222677   0.755   3.077   7.249  0.6081  0.3756 -0.6851
 3740SOL     OW22678   1.120   1.473   7.499 -0.2746  0.5733 -0.1519
 3740SOL    HW122679   1.202   1.454   7.453 -0.6524  0.6386 -0.8505
 3740SOL    HW222680   1.123   1.428   7.584  0.5644 -1.8650 -1.4737
 3741SOL     OW22681   2.836   3.459  16.464  0.0479  0.0014 -0.3455
 3741SOL    HW122682   2.765   3.432  16.405 -0.3981  0.3896  0.0125
 3741SOL    HW222683   2.877   3.526  16.411 -0.1439 -0.4900 -1.1151
 3742SOL     OW22684   2.462   4.708   6.927 -0.1000 -0.1753 -0.4180
 3742SOL    HW122685   2.497   4.626   6.961  0.5046 -0.0109 -0.6439
 3742SOL    HW222686   2.371   4.689   6.906 -0.8213  3.6578 -0.7197
 3743SOL     OW22687   1.673   2.341   3.056 -0.1727  0.6333 -0.3045
 3743SOL    HW122688   1.729   2.415   3.033  0.9127 -0.4588 -1.2248
 3743SOL    HW222689   1.735   2.289   3.108  1.2355  0.4062 -2.2134
 3744SOL     OW22690   2.708   1.790  11.610 -0.3299 -0.1522 -0.2732
 3744SOL    HW122691   2.626   1.745  11.590 -0.5068 -0.0080  0.1289
 3744SOL    HW222692   2.766   1.717  11.630 -1.1895 -1.1266 -1.2611
 3745SOL     OW22693   2.400   4.123  14.187  0.1005  0.3708  0.6548
 3745SOL    HW122694   2.363   4.186  14.249 -1.5091 -0.9031  0.9798
 3745SOL    HW222695   2.495   4.134  14.197  0.1636 -0.7853  1.3789
 3746SOL     OW22696   1.388   3.851   8.564  0.3867  0.0122 -0.1584
 3746SOL    HW122697   1.471   3.852   8.611  2.0090 -0.3695 -3.0129
 3746SOL    HW222698   1.418   3.816   8.480 -1.6111 -0.1056 -0.8429
 3747SOL     OW22699   2.170   0.067   0.928  0.0496 -0.6360  0.5075
 3747SOL    HW122700   2.240   0.128   0.951 -1.7690  1.1507  1.3349
 3747SOL    HW222701   2.098   0.128   0.910  1.3895  0.5015 -0.9492
 3748SOL     OW22702   1.758   1.423   3.564  0.6703  0.3280  0.0853
 3748SOL    HW122703   1.752   1.328   3.565  0.8115  0.3213  0.2407
 3748SOL    HW222704   1.801   1.423   3.478  1.1803 -0.7508  0.3481
 3749SOL     OW22705   4.423   3.180   4.570 -0.2320 -0.2698  0.1753
 3749SOL    HW122706   4.446   3.270   4.592  0.4736 -0.7400  1.3707
 3749SOL    HW222707   4.504   3.164   4.521 -2.1335 -1.1938 -2.6375
 3750SOL     OW22708   2.504   1.396   2.579 -0.3850  0.2721 -0.6297
 3750SOL    HW122709   2.465   1.351   2.504 -2.0626 -0.4635  0.6752
 3750SOL    HW222710   2.596   1.390   2.555 -0.1855 -0.6180  0.3723
 3751SOL     OW22711   1.190   2.344   5.386 -0.6042  0.6853  0.1547
 3751SOL    HW122712   1.192   2.439   5.375 -0.2580  0.5569 -0.8847
 3751SOL    HW222713   1.140   2.328   5.306  1.2396  3.6331 -1.5790
 3752SOL     OW22714   2.019   2.512   7.180  0.2141  0.0003 -0.0764
 3752SOL    HW122715   2.060   2.596   7.200  0.2565 -0.2137  0.7224
 3752SOL    HW222716   2.047   2.502   7.089  1.0247 -1.0530  0.2992
 3753SOL     OW22717   3.687   0.007  10.041 -0.0894 -0.8340  0.2233
 3753SOL    HW122718   3.630   4.696   9.973 -1.0385  2.2285 -0.6620
 3753SOL    HW222719   3.631   0.006  10.118 -0.8059 -0.2654 -0.2914
 3754SOL     OW22720   2.060   4.056   5.696 -0.2375  0.6269 -0.2076
 3754SOL    HW122721   2.122   4.083   5.629  0.3413  0.8248  0.4170
 3754SOL    HW222722   2.125   4.031   5.761  1.0173  4.7813  0.1136
 3755SOL     OW22723   0.694   3.057   9.011  0.7346  0.6992 -0.7138
 3755SOL    HW122724   0.772   3.071   9.065  0.8581 -0.7637 -0.4980
 3755SOL    HW222725   0.659   2.978   9.052  1.3875  0.5841 -0.3795
 3756SOL     OW22726   3.427   0.298  15.346 -0.2638 -0.3980 -0.0140
 3756SOL    HW122727   3.462   0.383  15.317  2.5124 -1.2560  0.7683
 3756SOL    HW222728   3.413   0.302  15.441 -0.5553 -2.8125  0.0425
 3757SOL     OW22729   4.357   2.220   0.395  0.5481 -0.2847 -0.0880
 3757SOL    HW122730   4.282   2.172   0.358  0.3307 -1.1520  1.4714
 3757SOL    HW222731   4.385   2.156   0.460 -0.7976 -0.9430 -0.1456
 3758SOL     OW22732   0.101   3.424   1.592  0.2983 -0.0569 -0.4914
 3758SOL    HW122733   0.119   3.346   1.539 -0.7426 -1.0123  0.5639
 3758SOL    HW222734   0.142   3.400   1.675  2.3684 -0.9050 -1.7583
 3759SOL     OW22735   0.230   3.190   3.421 -0.3258  0.5104 -0.1155
 3759SOL    HW122736   0.157   3.252   3.423  0.5324  1.5794 -1.9774
 3759SOL    HW222737   0.282   3.220   3.495 -0.8618 -1.7843  1.1865
 3760SOL     OW22738   1.084   0.882   7.128  0.1310 -0.3307  0.1218
 3760SOL    HW122739   1.058   0.861   7.218  1.5457 -0.2833  0.5507
 3760SOL    HW222740   1.022   0.836   7.072 -1.0038  0.7550  0.4956
 3761SOL     OW22741   4.715   2.476   6.465 -0.2878 -0.2581  0.4775
 3761SOL    HW122742   4.692   2.384   6.454  2.1416 -0.9126  0.8829
 3761SOL    HW222743   0.060   2.457   6.527 -1.2668  2.6522  2.4906
 3762SOL     OW22744   0.349   0.603   5.529 -0.3480  0.1182  0.3332
 3762SOL    HW122745   0.414   0.604   5.600 -0.4430  2.0527  0.3980
 3762SOL    HW222746   0.277   0.575   5.586 -0.1199  2.3444  1.7668
 3763SOL     OW22747   3.358   3.992  14.057 -0.4007 -0.2772  0.3415
 3763SOL    HW122748   3.396   4.017  14.141 -2.4849 -1.4469  1.6323
 3763SOL    HW222749   3.413   4.052  14.006  0.2909 -0.5815  0.7389
 3764SOL     OW22750   3.963   3.267  13.820  0.7214 -0.2393 -0.1346
 3764SOL    HW122751   4.026   3.227  13.760  0.3481 -1.7266  0.4664
 3764SOL    HW222752   3.985   3.215  13.898 -0.0141 -0.1959  0.1013
 3765SOL     OW22753   2.922   2.939   4.971  0.3362 -0.2867  0.0323
 3765SOL    HW122754   2.988   2.874   4.993  0.6712  0.7259  2.0620
 3765SOL    HW222755   2.978   3.008   4.935  1.6091 -0.9237  0.7789
 3766SOL     OW22756   3.466   1.724  14.453  0.2782  0.5308  0.0086
 3766SOL    HW122757   3.432   1.647  14.498 -1.2623 -0.1356 -2.3227
 3766SOL    HW222758   3.419   1.731  14.371 -1.6848  0.5242  1.1330
 3767SOL     OW22759   3.276   1.254   5.908  0.7078 -0.3527 -0.5889
 3767SOL    HW122760   3.317   1.236   5.824  2.0117 -2.1133  0.4255
 3767SOL    HW222761   3.185   1.253   5.878  0.8412  0.1584 -0.9943
 3768SOL     OW22762   2.895   1.335   4.701  0.6082  0.5337 -0.0580
 3768SOL    HW122763   2.850   1.385   4.768 -2.9394 -0.3235 -1.8359
 3768SOL    HW222764   2.826   1.275   4.673  0.2773  0.2159  1.4469
 3769SOL     OW22765   2.401   4.677  15.625  0.1562 -0.3329  0.3871
 3769SOL    HW122766   2.326   0.008  15.643  2.6819  2.8772  0.4991
 3769SOL    HW222767   2.368   4.596  15.665 -0.6907 -0.2171 -0.0789
 3770SOL     OW22768   0.291   4.330   7.292 -0.2835 -0.3669 -0.1762
 3770SOL    HW122769   0.199   4.335   7.319 -0.2397 -0.3075 -0.0402
 3770SOL    HW222770   0.324   4.332   7.381 -2.4515  2.0297  0.5959
 3771SOL     OW22771   0.923   0.486   8.198  0.1214  0.6330 -0.0175
 3771SOL    HW122772   0.886   0.572   8.219 -2.9447 -0.6825 -0.0935
 3771SOL    HW222773   0.848   0.434   8.170 -2.6512  2.5150  3.8440
 3772SOL     OW22774   3.009   2.545   6.745  0.4907  0.1596 -0.0360
 3772SOL    HW122775   2.954   2.621   6.766  1.4215  0.0164  2.7658
 3772SOL    HW222776   2.964   2.467   6.777  2.1770 -0.9228 -0.3537
 3773SOL     OW22777   2.166   4.204  10.050 -0.7792  0.1840 -0.0377
 3773SOL    HW122778   2.258   4.185  10.030 -0.8111  1.5241 -1.5337
 3773SOL    HW222779   2.162   4.158  10.133  2.5956  1.0295  0.5966
 3774SOL     OW22780   1.175   2.257   4.456 -0.3548  0.1971  0.2474
 3774SOL    HW122781   1.117   2.310   4.401 -0.2165  0.7236  0.6084
 3774SOL    HW222782   1.109   2.199   4.496 -0.6331  0.5805  0.3461
 3775SOL     OW22783   3.227   1.925   7.060 -0.2850 -0.1435 -0.0673
 3775SOL    HW122784   3.261   2.010   7.088 -0.2204  0.2902 -1.4734
 3775SOL    HW222785   3.269   1.934   6.975  0.5417 -0.4250  0.3034
 3776SOL     OW22786   3.617   1.672  10.411  0.4380  0.6813 -0.1223
 3776SOL    HW122787   3.641   1.712  10.495 -2.0394 -1.5511  1.6342
 3776SOL    HW222788   3.590   1.585  10.441  0.4405  0.3499 -1.0771
 3777SOL     OW22789   2.733   4.129  12.366 -0.2054 -0.0001 -0.5298
 3777SOL    HW122790   2.818   4.095  12.339  0.2385 -0.3193  1.3202
 3777SOL    HW222791   2.714   4.206  12.312  0.4459 -0.6910 -1.7347
 3778SOL     OW22792   3.955   0.105   5.872 -0.2296  0.0986  0.1000
 3778SOL    HW122793   4.001   0.072   5.949 -0.8293  1.2754  0.9633
 3778SOL    HW222794   3.864   0.098   5.900  0.5082  0.8752  2.6308
 3779SOL     OW22795   4.224   4.605   3.266  0.3457  0.1786  0.3856
 3779SOL    HW122796   4.170   4.539   3.311 -0.9109  0.0081 -1.3639
 3779SOL    HW222797   4.260   4.560   3.190  1.3093  0.8161  0.4671
 3780SOL     OW22798   3.613   1.172   2.059  0.1055  0.3510  0.2574
 3780SOL    HW122799   3.524   1.152   2.088 -0.4456  1.3253 -0.7621
 3780SOL    HW222800   3.626   1.264   2.082 -0.9967  0.8172 -1.0017
 3781SOL     OW22801   3.510   4.094   5.957 -0.6538  0.0373  0.0339
 3781SOL    HW122802   3.490   4.000   5.966 -3.2997  0.4431 -1.5796
 3781SOL    HW222803   3.558   4.116   6.036  1.5753  0.0166 -1.3217
 3782SOL     OW22804   3.441   2.019  16.456 -0.2370  0.2894 -0.4064
 3782SOL    HW122805   3.528   2.058  16.460 -0.1761  0.1798 -0.6690
 3782SOL    HW222806   3.472   1.930  16.475  0.9641  0.9983  0.9685
 3783SOL     OW22807   3.417   3.489  16.626 -0.3080  0.2024 -0.1012
 3783SOL    HW122808   3.445   3.444  16.547  1.6678  0.7045  0.3224
 3783SOL    HW222809   3.494   3.542  16.647 -1.6134  2.5375 -1.1558
 3784SOL     OW22810   4.698   1.446   6.764  0.4185  0.3484 -0.1300
 3784SOL    HW122811   4.643   1.518   6.732  0.0093 -0.4788 -1.2921
 3784SOL    HW222812   0.019   1.493   6.833 -0.1671 -1.5526  1.5480
 3785SOL     OW22813   4.493   0.119  13.064  0.2501 -0.2853  0.4027
 3785SOL    HW122814   4.495   0.055  13.134 -1.0343 -0.7125  0.0500
 3785SOL    HW222815   4.485   0.046  13.003 -0.4841 -1.1766  1.5718
 3786SOL     OW22816   1.172   3.342  13.331  0.0877  0.4886  0.3564
 3786SOL    HW122817   1.157   3.251  13.355 -1.1336  0.9297  1.2822
 3786SOL    HW222818   1.127   3.358  13.248  0.3479 -2.0975 -0.2864
 3787SOL     OW22819   3.888   2.631  17.031  0.2917  0.2514 -0.1828
 3787SOL    HW122820   3.959   2.685  17.065  1.8852 -2.6816  1.1222
 3787SOL    HW222821   3.830   2.616  17.106 -2.0629 -2.1337 -2.4580
 3788SOL     OW22822   0.989   2.111   4.568 -0.3856  0.0653  0.4766
 3788SOL    HW122823   1.043   2.039   4.536 -1.7432 -0.4164 -0.7619
 3788SOL    HW222824   1.014   2.120   4.660  0.6399 -0.9863  0.3021
 3789SOL     OW22825   4.129   1.963  15.902 -0.6815 -0.1783 -0.5499
 3789SOL    HW122826   4.133   1.878  15.947  1.8127 -0.2398 -0.8648
 3789SOL    HW222827   4.168   1.939  15.818 -0.0130 -2.7694  0.5047
 3790SOL     OW22828   3.844   0.703   1.405  0.4006 -0.2639 -0.1030
 3790SOL    HW122829   3.825   0.796   1.401  2.4929  0.2307  1.6193
 3790SOL    HW222830   3.907   0.694   1.476 -1.5219 -0.0417  1.6444
 3791SOL     OW22831   3.176   4.310   6.727  0.0393 -0.0918  0.4133
 3791SOL    HW122832   3.257   4.276   6.689  0.6877  0.3409  1.3935
 3791SOL    HW222833   3.159   4.369   6.653 -0.1645 -1.3088 -0.4980
 3792SOL     OW22834   0.203   1.318   9.101  0.0204 -0.3080  0.4201
 3792SOL    HW122835   0.257   1.354   9.031 -0.5378  0.4382  0.3773
 3792SOL    HW222836   0.205   1.225   9.079 -0.0489  0.0686 -1.1729
 3793SOL     OW22837   4.153   0.778  15.931 -0.2741  0.0573 -0.8078
 3793SOL    HW122838   4.100   0.701  15.910 -0.4841 -0.4595  1.5759
 3793SOL    HW222839   4.144   0.818  15.845 -0.4739 -0.8932 -1.2325
 3794SOL     OW22840   2.714   4.601  13.795  0.1903  0.0454 -0.3000
 3794SOL    HW122841   2.662   4.680  13.778 -1.1687 -0.5310  1.1412
 3794SOL    HW222842   2.781   4.603  13.727  0.0458 -1.6181 -0.4969
 3795SOL     OW22843   0.053   0.382  10.963  0.2938  0.1859 -0.2122
 3795SOL    HW122844   0.083   0.291  10.954 -3.2120 -0.8184 -1.8999
 3795SOL    HW222845   0.120   0.431  10.914 -1.6242  2.6248 -0.3755
 3796SOL     OW22846   4.459   2.131   8.783 -0.3727  0.1767  0.5187
 3796SOL    HW122847   4.489   2.188   8.854  0.3710  0.8414 -0.3396
 3796SOL    HW222848   4.377   2.099   8.820  0.1223 -0.4759  1.0598
 3797SOL     OW22849   2.526   3.733  16.861 -0.2045  0.0790  0.0989
 3797SOL    HW122850   2.604   3.772  16.823  1.0665 -0.2858  2.3239
 3797SOL    HW222851   2.516   3.651  16.811  1.8366 -0.1096  0.0154
 3798SOL     OW22852   1.453   2.017   3.363  0.0561 -0.1670  0.1383
 3798SOL    HW122853   1.421   1.978   3.444  0.7524  0.6057  0.7927
 3798SOL    HW222854   1.374   2.053   3.322  0.2149 -0.5683 -0.5226
 3799SOL     OW22855   3.126   3.317  13.167 -0.3337  0.3117  0.9442
 3799SOL    HW122856   3.032   3.309  13.149 -0.4789  2.1668  0.8704
 3799SOL    HW222857   3.129   3.312  13.263 -1.5543  1.8534  1.0677
 3800SOL     OW22858   0.027   1.330   5.974 -0.7649 -0.0463  0.0498
 3800SOL    HW122859   4.718   1.343   6.063 -2.6724 -2.5438 -0.3461
 3800SOL    HW222860   0.031   1.235   5.970 -0.2961 -0.0150 -0.1943
 3801SOL     OW22861   0.661   2.602   7.799 -0.1441 -0.0678  0.1160
 3801SOL    HW122862   0.722   2.576   7.730 -0.1480 -0.4055  0.2392
 3801SOL    HW222863   0.706   2.582   7.881 -0.6093 -3.3827 -0.4310
 3802SOL     OW22864   1.857   3.590   5.029 -0.1761  0.4029 -0.1039
 3802SOL    HW122865   1.769   3.568   4.999 -0.0342  1.1898 -1.1061
 3802SOL    HW222866   1.913   3.590   4.951 -1.1422 -1.2509 -0.8053
 3803SOL     OW22867   0.812   2.647   3.717  0.3651 -0.3132 -0.5527
 3803SOL    HW122868   0.898   2.673   3.684  0.0716  1.1754 -0.1500
 3803SOL    HW222869   0.822   2.557   3.748  1.5855  0.3705  1.0487
 3804SOL     OW22870   1.567   0.769   3.783 -0.0722 -0.3308 -0.2930
 3804SOL    HW122871   1.657   0.737   3.786 -1.1151 -2.9324  3.1104
 3804SOL    HW222872   1.595   0.860   3.770  0.3997 -0.5515 -0.8197
 3805SOL     OW22873   4.100   3.392   7.586 -0.1570 -0.2653  0.4832
 3805SOL    HW122874   4.149   3.391   7.504 -1.9872  0.7460 -0.6339
 3805SOL    HW222875   4.100   3.298   7.605  0.3541  0.0444  2.0940
 3806SOL     OW22876   1.061   0.069  10.441  0.4745 -0.1414 -0.5493
 3806SOL    HW122877   0.990   0.028  10.392  2.0610 -1.0629 -2.0802
 3806SOL    HW222878   1.047   0.163  10.431  1.0406  0.0956  0.9604
 3807SOL     OW22879   2.523   0.315   7.864 -0.1581  0.1550  0.2310
 3807SOL    HW122880   2.526   0.403   7.903 -1.5364  0.9815 -1.5276
 3807SOL    HW222881   2.480   0.262   7.932 -1.8641  0.5486 -0.5358
 3808SOL     OW22882   0.194   4.255   5.684 -0.2847  0.3612  0.0423
 3808SOL    HW122883   0.273   4.230   5.636 -1.0325 -0.3705 -0.7916
 3808SOL    HW222884   0.219   4.345   5.706 -0.0984  0.1475  0.6992
 3809SOL     OW22885   3.435   0.058  13.242  0.2982  0.1846 -0.0444
 3809SOL    HW122886   3.369   0.126  13.253 -2.1036 -2.0453 -0.8451
 3809SOL    HW222887   3.508   0.090  13.295 -0.0114  3.2951 -1.5309
 3810SOL     OW22888   4.524   4.325   7.559  0.4296  0.4341 -0.2222
 3810SOL    HW122889   4.452   4.351   7.501  0.7422  1.1707 -0.2765
 3810SOL    HW222890   4.517   4.397   7.622  1.8229  2.4543 -2.3778
 3811SOL     OW22891   4.241   4.601   4.026  0.3953 -0.0402  0.1108
 3811SOL    HW122892   4.211   4.658   4.097 -0.3777 -0.6962  0.3091
 3811SOL    HW222893   4.272   4.526   4.077  1.8255  0.2213 -0.3599
 3812SOL     OW22894   0.340   2.010   1.321 -0.5162  0.0650  0.5962
 3812SOL    HW122895   0.433   2.032   1.330 -0.0354 -1.5637 -0.3549
 3812SOL    HW222896   0.312   2.060   1.245  4.2278  1.8761  0.0256
 3813SOL     OW22897   4.576   4.361   4.735 -0.5348  0.2690  0.3869
 3813SOL    HW122898   4.595   4.451   4.759 -1.2040 -0.0976  2.2672
 3813SOL    HW222899   4.637   4.354   4.662 -0.8670  0.1619  0.1198
 3814SOL     OW22900   1.880   0.490   3.429  0.6282 -0.9837 -0.5357
 3814SOL    HW122901   1.961   0.443   3.407 -0.3769 -2.1187 -1.8437
 3814SOL    HW222902   1.831   0.491   3.347 -0.6569 -1.7195  0.2269
 3815SOL     OW22903   3.654   4.613   1.426  0.3264  0.4231  0.0548
 3815SOL    HW122904   3.566   4.651   1.422  0.0122 -0.3557 -0.4682
 3815SOL    HW222905   3.657   4.595   1.332  1.4886 -0.4063  0.2558
 3816SOL     OW22906   1.631   4.576   5.162  0.1471  0.0310 -0.5751
 3816SOL    HW122907   1.633   4.481   5.151 -2.7874  0.1852 -2.3548
 3816SOL    HW222908   1.625   4.584   5.257  1.3114 -1.2442 -0.3945
 3817SOL     OW22909   3.462   4.658   0.195 -0.2277  0.1213 -0.7677
 3817SOL    HW122910   3.473   4.574   0.150  0.9399  0.5869 -1.3734
 3817SOL    HW222911   3.418   4.616   0.269  2.0017  0.4376  0.7535
 3818SOL     OW22912   2.206   4.214   0.489  0.0051  0.5020  0.3489
 3818SOL    HW122913   2.132   4.273   0.502  1.0305  1.7583  0.5973
 3818SOL    HW222914   2.176   4.167   0.411  0.4197 -0.3091  0.6807
 3819SOL     OW22915   2.772   2.217   2.079  0.5782 -0.2829  0.4225
 3819SOL    HW122916   2.828   2.144   2.106  0.4549 -1.4356 -2.4354
 3819SOL    HW222917   2.748   2.198   1.988 -1.6048 -0.1964  1.0006
 3820SOL     OW22918   1.848   4.185   5.523  0.0884  0.2552 -0.2798
 3820SOL    HW122919   1.908   4.175   5.597  0.5205 -1.1561 -0.8213
 3820SOL    HW222920   1.877   4.109   5.472 -0.1321 -0.5944  0.8643
 3821SOL     OW22921   0.842   0.511  15.601  0.0480 -0.3058 -0.1725
 3821SOL    HW122922   0.879   0.597  15.621  1.3460 -1.2951  1.7076
 3821SOL    HW222923   0.783   0.498  15.676 -0.2467 -1.3408 -0.5860
 3822SOL     OW22924   1.087   3.734   1.741 -0.0578 -0.1377  0.5969
 3822SOL    HW122925   1.042   3.659   1.778  3.0510 -1.4990  1.6040
 3822SOL    HW222926   1.177   3.718   1.771 -0.8592 -1.0174  2.5005
 3823SOL     OW22927   1.230   0.038   8.194  0.4785 -1.5020  0.0028
 3823SOL    HW122928   1.168   0.110   8.207  0.5417 -1.2769 -0.9195
 3823SOL    HW222929   1.305   0.081   8.236  0.1261  0.1126 -0.9937
 3824SOL     OW22930   2.856   4.367   1.239 -0.4098 -0.2535  0.2028
 3824SOL    HW122931   2.808   4.306   1.183 -0.3311 -0.5966  0.5121
 3824SOL    HW222932   2.782   4.381   1.298  0.8252 -0.6950  1.8358
 3825SOL     OW22933   3.476   0.158   1.838 -0.3228  0.1450  0.8217
 3825SOL    HW122934   3.394   0.208   1.835 -1.0216 -1.0122  0.5907
 3825SOL    HW222935   3.542   0.211   1.794 -0.5303 -1.3780 -1.2939
 3826SOL     OW22936   4.155   4.316   4.344  0.3970  0.2937  0.2703
 3826SOL    HW122937   4.112   4.368   4.412 -2.8197 -0.4509 -1.2089
 3826SOL    HW222938   4.078   4.289   4.294 -0.7247  1.4800  1.3311
 3827SOL     OW22939   4.722   2.747  17.451 -0.5964 -0.0360 -0.4306
 3827SOL    HW122940   4.631   2.765  17.474 -0.5290 -2.3196  1.5546
 3827SOL    HW222941   0.023   2.834  17.421 -0.1712 -0.0456 -0.0756
 3828SOL     OW22942   4.657   3.780  13.292  0.1334 -0.0590 -0.0292
 3828SOL    HW122943   4.639   3.864  13.249  1.7437 -0.1575 -0.8811
 3828SOL    HW222944   4.631   3.724  13.219 -2.2504 -0.2704  0.9963
 3829SOL     OW22945   4.176   0.192  12.250  0.1922  0.5695 -0.4411
 3829SOL    HW122946   4.129   0.206  12.168  1.7230 -0.7589 -1.5426
 3829SOL    HW222947   4.099   0.148  12.287 -0.3995  2.1857  0.2771
 3830SOL     OW22948   1.784   0.301   2.630 -0.4613 -0.1260  0.0244
 3830SOL    HW122949   1.799   0.210   2.656  0.4720 -0.3785 -1.3474
 3830SOL    HW222950   1.798   0.341   2.716  1.8940 -0.3236 -0.2622
 3831SOL     OW22951   1.820   1.780  15.908 -0.4224 -0.5028  0.8009
 3831SOL    HW122952   1.839   1.743  15.822 -1.1383 -0.6389  0.7007
 3831SOL    HW222953   1.833   1.708  15.969  1.1211 -0.4662  0.5041
 3832SOL     OW22954   4.269   0.460   1.784 -0.1514  0.0838  0.3279
 3832SOL    HW122955   4.262   0.493   1.694 -1.9867 -1.7563 -0.1889
 3832SOL    HW222956   4.364   0.444   1.788 -0.0615  0.8119  1.2232
 3833SOL     OW22957   0.360   2.158   5.765  0.6712  0.2125  0.5736
 3833SOL    HW122958   0.450   2.126   5.775 -0.2046 -2.0647  1.0227
 3833SOL    HW222959   0.339   2.170   5.858  1.0974 -1.7427  0.9077
 3834SOL     OW22960   0.080   2.916   3.182 -0.0730 -0.3504  0.0446
 3834SOL    HW122961   0.175   2.909   3.172  0.0234  0.0446  0.7112
 3834SOL    HW222962   0.053   2.892   3.093  1.2155  0.5539 -0.5918
 3835SOL     OW22963   1.104   2.961  16.795  0.2205  0.0477  0.3156
 3835SOL    HW122964   1.035   2.923  16.740  0.0371  1.1141 -0.1848
 3835SOL    HW222965   1.127   2.885  16.849 -1.9004  0.5185  1.8872
 3836SOL     OW22966   0.492   2.610   5.262  0.2086  0.6023 -0.4166
 3836SOL    HW122967   0.512   2.620   5.355 -1.1595  0.5842 -0.1209
 3836SOL    HW222968   0.415   2.663   5.241 -0.0453  0.6672  0.6762
 3837SOL     OW22969   4.196   3.153  14.898  0.7080 -0.6019 -0.0411
 3837SOL    HW122970   4.258   3.082  14.912  0.1105 -1.4724 -1.9199
 3837SOL    HW222971   4.246   3.229  14.928 -0.9390  0.7302 -0.6793
 3838SOL     OW22972   2.271   3.135   4.194 -0.0654  0.3091 -0.2010
 3838SOL    HW122973   2.283   3.102   4.283 -1.5869  1.1474  0.3067
 3838SOL    HW222974   2.258   3.226   4.219 -1.8043 -0.1332  0.4583
 3839SOL     OW22975   0.555   3.519   2.451  0.3520 -0.0569  0.0653
 3839SOL    HW122976   0.628   3.581   2.452  0.6935 -0.4442 -1.5983
 3839SOL    HW222977   0.568   3.473   2.535 -0.0479 -2.7162 -1.3270
 3840SOL     OW22978   2.515   4.630  17.702  0.5873 -0.0553 -0.2136
 3840SOL    HW122979   2.591   4.591   0.040  1.1916  1.3001 -0.0432
 3840SOL    HW222980   2.453   4.647   0.066  1.8789  0.4677  0.8131
 3841SOL     OW22981   2.070   2.295   3.356 -0.0734  0.0726 -0.3432
 3841SOL    HW122982   2.158   2.281   3.392  0.1183 -2.5971 -1.8417
 3841SOL    HW222983   2.079   2.338   3.271 -1.1140  0.9018 -0.0344
 3842SOL     OW22984   4.076   1.276   3.770 -0.4357 -0.0801  0.3218
 3842SOL    HW122985   4.097   1.203   3.829 -1.0676  0.0300  0.6801
 3842SOL    HW222986   4.066   1.236   3.684  1.4869  0.1032  0.0075
 3843SOL     OW22987   0.795   3.792   7.266 -0.0260  0.0021  0.3492
 3843SOL    HW122988   0.883   3.826   7.282 -0.4585  1.5299 -0.5896
 3843SOL    HW222989   0.744   3.855   7.318  1.6558  2.9113 -1.5176
 3844SOL     OW22990   3.142   4.059   9.529 -0.3788  0.1750 -0.0293
 3844SOL    HW122991   3.055   4.077   9.564 -0.2632  0.8167 -0.0744
 3844SOL    HW222992   3.190   4.053   9.611  1.2331 -1.2697 -1.0582
 3845SOL     OW22993   4.059   1.422   1.125  0.6296 -0.2457 -0.1530
 3845SOL    HW122994   3.973   1.463   1.128 -0.2819 -2.1125 -0.9007
 3845SOL    HW222995   4.110   1.496   1.092  0.4383  0.3462  0.8575
 3846SOL     OW22996   3.481   4.075   8.574 -0.2340  0.1035  0.8949
 3846SOL    HW122997   3.398   4.040   8.543 -0.8070  1.8930  0.4465
 3846SOL    HW222998   3.462   4.168   8.581 -0.2637  0.0810  1.1168
 3847SOL     OW22999   3.169   2.957  13.822  0.4659 -0.0095  0.2802
 3847SOL    HW123000   3.139   2.872  13.790  1.8853  0.1488 -1.4761
 3847SOL    HW223001   3.092   3.008  13.848  0.1867 -1.1872  1.7346
 3848SOL     OW23002   4.372   0.757   2.522 -0.3238  0.8959  0.4788
 3848SOL    HW123003   4.277   0.762   2.513 -0.2840 -1.8408 -1.3909
 3848SOL    HW223004   4.382   0.749   2.617 -0.7170 -1.6386  0.3088
 3849SOL     OW23005   4.591   2.367  17.605 -0.6550  0.1976 -0.4153
 3849SOL    HW123006   4.620   2.381  17.515  1.1975 -0.0704  0.1440
 3849SOL    HW223007   4.666   2.319  17.638 -1.0262 -0.0282  0.1121
 3850SOL     OW23008   2.623   2.085  15.811 -0.0514  0.2859  0.1968
 3850SOL    HW123009   2.604   2.177  15.792  1.8873  0.6332 -0.1074
 3850SOL    HW223010   2.606   2.049  15.724 -0.5012  0.7745  0.0800
 3851SOL     OW23011   0.519   3.422  11.444 -0.8473 -0.1803 -0.3699
 3851SOL    HW123012   0.554   3.427  11.532 -1.2131  0.4758 -0.2564
 3851SOL    HW223013   0.600   3.430  11.394 -0.9860 -4.4528 -1.3088
 3852SOL     OW23014   4.212   0.982   3.690  0.2213  0.0401  0.3341
 3852SOL    HW123015   4.300   1.021   3.692  0.1456  0.1236  1.8532
 3852SOL    HW223016   4.175   1.029   3.615  1.9488  0.1547 -0.4489
 3853SOL     OW23017   1.766   2.761  17.395 -0.3609  0.2394 -0.0718
 3853SOL    HW123018   1.858   2.741  17.378 -0.5201  0.2487 -0.9470
 3853SOL    HW223019   1.732   2.680  17.434 -0.7451 -0.2230 -1.3768
 3854SOL     OW23020   2.350   1.720  15.155  0.3034  0.0528 -0.0385
 3854SOL    HW123021   2.351   1.678  15.069  1.5713  2.9983 -1.4564
 3854SOL    HW223022   2.438   1.758  15.158  0.9080 -1.2960 -0.7764
 3855SOL     OW23023   3.123   3.307   1.347 -0.2460 -0.0588  0.1124
 3855SOL    HW123024   3.085   3.242   1.288 -1.8867  0.1873  0.8909
 3855SOL    HW223025   3.062   3.290   1.419  0.7998  2.0267  1.5036
 3856SOL     OW23026   4.104   1.043   2.845  0.2482 -0.2179  0.1492
 3856SOL    HW123027   4.088   0.953   2.816  1.7153 -0.7202  0.9415
 3856SOL    HW223028   4.160   1.088   2.782 -1.4345  0.9891 -0.4907
 3857SOL     OW23029   4.199   1.743   1.687 -0.1115  0.0436 -0.0302
 3857SOL    HW123030   4.106   1.724   1.674  0.2442 -2.8534  1.5309
 3857SOL    HW223031   4.216   1.768   1.596  0.5268 -1.2055 -0.2516
 3858SOL     OW23032   2.827   0.237   9.327  0.3400 -0.1582 -0.0996
 3858SOL    HW123033   2.921   0.250   9.311 -0.0088  1.9465 -0.4027
 3858SOL    HW223034   2.821   0.142   9.317 -0.4803 -0.3429  1.9909
 3859SOL     OW23035   2.042   1.246  16.279  0.3585 -0.2781  0.1379
 3859SOL    HW123036   2.077   1.165  16.242 -1.2106 -1.6609  1.6954
 3859SOL    HW223037   1.950   1.221  16.288 -0.3376  2.0646 -0.3777
 3860SOL     OW23038   1.648   1.308   7.684 -0.1247  0.0906 -0.3545
 3860SOL    HW123039   1.681   1.274   7.767  1.0565 -2.3296 -1.8310
 3860SOL    HW223040   1.577   1.244   7.677  0.7865 -0.9135 -0.3202
 3861SOL     OW23041   3.427   4.389   7.502 -0.0089  0.4918  0.0787
 3861SOL    HW123042   3.483   4.312   7.508  2.2112  2.3611  2.9730
 3861SOL    HW223043   3.341   4.368   7.538 -0.4842  0.3770 -1.1142
 3862SOL     OW23044   2.151   3.258   8.975  0.5500  0.2960  0.7914
 3862SOL    HW123045   2.220   3.246   9.040  1.1626  0.9097  0.2502
 3862SOL    HW223046   2.193   3.307   8.904 -0.9349  0.0449 -0.2597
 3863SOL     OW23047   4.113   1.966   5.193  0.9145 -0.1669 -0.2210
 3863SOL    HW123048   4.188   2.020   5.219  1.1337 -1.2462  1.4468
 3863SOL    HW223049   4.039   2.027   5.190  1.4496  0.5766  1.4052
 3864SOL     OW23050   0.056   1.615   7.609  0.1749  0.2181  0.6298
 3864SOL    HW123051   0.058   1.709   7.593 -0.1828 -0.0035 -0.6843
 3864SOL    HW223052   0.014   1.603   7.694 -0.4409  0.8786  0.4135
 3865SOL     OW23053   0.770   4.011   6.234 -0.1038 -0.3508  0.2266
 3865SOL    HW123054   0.823   3.969   6.302 -1.9701  1.5872  2.8326
 3865SOL    HW223055   0.736   3.932   6.193 -0.9644  0.2069 -0.1203
 3866SOL     OW23056   1.062   2.752   2.593 -0.2287 -0.7221 -0.0903
 3866SOL    HW123057   1.082   2.661   2.570 -1.3327 -1.4798  2.0231
 3866SOL    HW223058   1.008   2.748   2.672 -1.7537  1.0551 -1.0455
 3867SOL     OW23059   1.405   2.174   3.088  0.3830 -0.0223  0.4655
 3867SOL    HW123060   1.471   2.157   3.021 -0.4361  1.1037 -0.6088
 3867SOL    HW223061   1.320   2.178   3.045  1.4334  0.0602 -1.5995
 3868SOL     OW23062   1.307   3.047  15.885  0.1507  0.4285 -0.0518
 3868SOL    HW123063   1.263   3.111  15.828 -0.0021 -1.1261 -1.6629
 3868SOL    HW223064   1.393   3.084  15.865 -0.4026  0.6465 -2.1199
 3869SOL     OW23065   0.427   0.987  12.198 -0.3253 -0.9387  0.0551
 3869SOL    HW123066   0.492   0.977  12.267  0.3067  0.2261 -0.3709
 3869SOL    HW223067   0.484   0.987  12.121  0.2611 -0.0423  0.4928
 3870SOL     OW23068   3.620   4.013   7.212 -0.0846  1.0150 -0.2494
 3870SOL    HW123069   3.605   4.105   7.188 -2.8380  0.7424  0.4015
 3870SOL    HW223070   3.703   4.023   7.259  0.4472 -2.9741 -0.4052
 3871SOL     OW23071   0.314   4.026  14.962 -0.1378 -0.0154  0.5453
 3871SOL    HW123072   0.342   3.949  14.913  1.0146  1.5258 -1.2120
 3871SOL    HW223073   0.341   3.993  15.048 -1.0143 -1.0215  0.4440
 3872SOL     OW23074   1.279   4.084   9.023 -0.3421  0.3066 -0.2539
 3872SOL    HW123075   1.219   4.139   8.972 -1.4496 -1.7113 -1.1382
 3872SOL    HW223076   1.346   4.100   8.957 -0.4060 -2.2505 -0.9409
 3873SOL     OW23077   2.574   0.816   7.976 -0.0213  0.6138  0.1098
 3873SOL    HW123078   2.517   0.821   8.053 -2.4871  0.8443 -1.7424
 3873SOL    HW223079   2.660   0.823   8.017 -0.7248 -1.6808  1.9982
 3874SOL     OW23080   2.327   1.556   6.047  0.2051 -0.0445  0.0789
 3874SOL    HW123081   2.315   1.466   6.018  0.4256 -0.0061 -0.1286
 3874SOL    HW223082   2.387   1.544   6.121 -0.6238 -0.4403  0.6896
 3875SOL     OW23083   0.136   2.744   0.175 -0.3222  0.3014  0.3571
 3875SOL    HW123084   0.101   2.678   0.235 -1.1443 -0.8499 -1.3874
 3875SOL    HW223085   0.105   2.698   0.097 -1.4113  1.2515  0.2138
 3876SOL     OW23086   3.980   1.415   1.817 -0.0499  0.3764 -0.6655
 3876SOL    HW123087   4.000   1.396   1.909  1.7391  1.1108 -0.9086
 3876SOL    HW223088   3.983   1.510   1.825 -2.9329  0.3811  0.7453
 3877SOL     OW23089   2.859   2.448   8.946  0.3456  0.1141 -0.8381
 3877SOL    HW123090   2.800   2.425   9.018  1.3684 -1.2917 -0.4320
 3877SOL    HW223091   2.928   2.486   9.001 -0.3558  1.4211 -0.8726
 3878SOL     OW23092   3.710   3.804   0.973  0.3404  0.4941 -0.0523
 3878SOL    HW123093   3.730   3.894   0.997  1.6013  0.0809  0.4733
 3878SOL    HW223094   3.788   3.760   1.008  0.1785  1.6609  1.7071
 3879SOL     OW23095   1.529   4.080   6.883 -0.2583  0.0755 -0.0008
 3879SOL    HW123096   1.523   4.025   6.961 -0.4558  0.2334  0.0972
 3879SOL    HW223097   1.545   4.169   6.914  1.7614 -0.0263 -0.7700
 3880SOL     OW23098   2.017   3.856  16.045 -0.0426 -0.4228 -0.4152
 3880SOL    HW123099   2.096   3.892  16.087 -3.1721  1.6541  3.6803
 3880SOL    HW223100   1.943   3.909  16.074 -0.5906 -0.0085 -2.6019
 3881SOL     OW23101   1.481   3.746   5.381 -0.3204  0.2808  0.3617
 3881SOL    HW123102   1.525   3.680   5.435 -0.3576 -0.1887 -0.1846
 3881SOL    HW223103   1.432   3.803   5.440  2.0132 -0.7160  3.2250
 3882SOL     OW23104   1.006   0.692   9.329 -0.0018  0.1494  0.0427
 3882SOL    HW123105   1.031   0.784   9.327  0.7588 -0.0993 -1.4719
 3882SOL    HW223106   1.040   0.672   9.417 -1.2093  0.9048  0.6734
 3883SOL     OW23107   0.073   4.111   1.404 -0.0628  0.7058 -0.3418
 3883SOL    HW123108   0.068   4.063   1.322  2.1608  0.3133 -0.2336
 3883SOL    HW223109   0.146   4.169   1.383 -0.5226  1.2640 -0.4049
 3884SOL     OW23110   3.522   2.443   8.139  0.2173  0.3921  0.0720
 3884SOL    HW123111   3.595   2.393   8.176  1.1798 -0.0446 -2.4689
 3884SOL    HW223112   3.480   2.452   8.225 -1.7963  1.1077 -1.0099
 3885SOL     OW23113   2.987   1.578  12.163 -0.0475  0.7461 -0.6765
 3885SOL    HW123114   2.936   1.619  12.092  1.3285 -1.2308 -2.8050
 3885SOL    HW223115   3.077   1.604  12.143 -0.0059 -0.6430 -2.2358
 3886SOL     OW23116   0.414   4.040  15.842  0.1161 -0.0675  0.0134
 3886SOL    HW123117   0.429   3.964  15.899 -0.4657 -0.4501 -0.3424
 3886SOL    HW223118   0.405   4.115  15.901  1.1733  0.3240 -0.3142
 3887SOL     OW23119   1.302   0.360   9.002 -0.0163  0.1046 -0.5312
 3887SOL    HW123120   1.343   0.430   9.052 -0.4603 -0.1630  0.1967
 3887SOL    HW223121   1.231   0.415   8.971  0.2986  1.1706  0.6693
 3888SOL     OW23122   3.044   1.462  14.928  0.3129 -0.0206  1.0844
 3888SOL    HW123123   3.131   1.452  14.890 -0.2468  1.5171 -0.5849
 3888SOL    HW223124   2.992   1.396  14.881  0.9727 -0.2436  0.6692
 3889SOL     OW23125   4.469   0.053   6.156 -0.5599  0.5049 -0.6403
 3889SOL    HW123126   4.439   0.115   6.222 -1.0384 -0.6777  0.2455
 3889SOL    HW223127   4.543   0.015   6.203 -1.8481 -2.3555 -0.9041
 3890SOL     OW23128   2.230   3.485   9.361 -0.0531 -0.0460  0.2919
 3890SOL    HW123129   2.199   3.402   9.400  0.9106 -1.5578 -2.1735
 3890SOL    HW223130   2.168   3.551   9.393 -1.4507 -0.6654 -1.1562
 3891SOL     OW23131   4.639   4.661   8.486 -0.5918  0.3046 -0.5522
 3891SOL    HW123132   4.640   4.607   8.407 -1.8684 -0.4383 -0.0585
 3891SOL    HW223133   4.706   4.623   8.542 -0.1183 -0.8607 -1.9358
 3892SOL     OW23134   3.733   0.107   6.503  0.5591  0.0227  0.3894
 3892SOL    HW123135   3.683   0.186   6.523 -0.2904 -0.5562  0.5486
 3892SOL    HW223136   3.788   0.088   6.579  0.0777 -3.1979 -0.0859
 3893SOL     OW23137   1.583   3.395  15.572 -0.5540  0.4075 -0.0336
 3893SOL    HW123138   1.658   3.451  15.552  0.5741 -1.0550  0.0516
 3893SOL    HW223139   1.586   3.341  15.493  1.9765  1.2420 -0.5063
 3894SOL     OW23140   2.181   3.210  13.775  0.7540 -0.2458  0.1418
 3894SOL    HW123141   2.168   3.116  13.769  0.3461 -0.0336 -2.3851
 3894SOL    HW223142   2.261   3.225  13.725 -0.9688 -0.7474 -2.7953
 3895SOL     OW23143   3.779   3.827   1.728  0.0868  0.0331  0.1603
 3895SOL    HW123144   3.832   3.800   1.653 -1.5743 -0.7323 -0.7243
 3895SOL    HW223145   3.715   3.880   1.681  1.8717  0.2793 -1.9904
 3896SOL     OW23146   3.608   4.269   6.187  0.3522 -0.4690 -0.4632
 3896SOL    HW123147   3.678   4.331   6.168  0.2990 -0.8508 -1.9786
 3896SOL    HW223148   3.660   4.229   6.256 -1.2522 -0.1288  0.9436
 3897SOL     OW23149   4.128   0.015   4.229  0.2459  0.1343  0.1773
 3897SOL    HW123150   4.034   0.001   4.229  0.5327 -1.9281  0.4147
 3897SOL    HW223151   4.142   0.012   4.323 -2.2653 -0.6106  0.5229
 3898SOL     OW23152   0.300   2.989   6.005 -0.2106 -0.6951 -0.4397
 3898SOL    HW123153   0.282   3.070   6.053  1.5120 -0.6182  0.0739
 3898SOL    HW223154   0.287   3.022   5.916 -1.6634  0.1666  0.0940
 3899SOL     OW23155   2.724   1.462   5.839 -0.3170 -0.7762  0.1932
 3899SOL    HW123156   2.664   1.485   5.768  1.0655 -0.6636 -0.9450
 3899SOL    HW223157   2.791   1.528   5.820 -1.3357 -0.2597 -1.6057
 3900SOL     OW23158   2.201   2.342  10.551  0.0210  0.6861 -0.1763
 3900SOL    HW123159   2.183   2.383  10.636 -2.3181 -0.5213 -0.0849
 3900SOL    HW223160   2.124   2.291  10.527 -0.6711  0.4226  2.6643
 3901SOL     OW23161   4.492   1.052   5.939 -0.4138 -0.3211 -0.5009
 3901SOL    HW123162   4.572   1.046   5.992  0.3329  0.8600 -1.4917
 3901SOL    HW223163   4.448   0.968   5.952  0.8237 -0.5206  2.3738
 3902SOL     OW23164   1.065   2.921   5.505  0.0010  0.0341  0.1769
 3902SOL    HW123165   1.034   2.885   5.588 -0.8387 -0.9569 -0.5616
 3902SOL    HW223166   1.153   2.942   5.536 -1.1476  1.2532  2.5958
 3903SOL     OW23167   1.547   1.678   5.592  0.1909  0.3012  0.4249
 3903SOL    HW123168   1.527   1.587   5.615 -1.1846  0.9620  1.8663
 3903SOL    HW223169   1.642   1.683   5.602 -0.0951  1.3494  2.7625
 3904SOL     OW23170   0.580   3.510   4.069 -0.1266 -0.1090 -0.1536
 3904SOL    HW123171   0.585   3.448   3.995  0.2083 -0.6949  0.3589
 3904SOL    HW223172   0.614   3.590   4.030 -2.2663  0.1540 -1.4374
 3905SOL     OW23173   2.420   0.897   1.681  0.2947 -0.1049 -0.2413
 3905SOL    HW123174   2.372   0.980   1.686 -1.0926 -0.9568  0.6300
 3905SOL    HW223175   2.362   0.833   1.723  2.7870 -0.4246  2.7598
 3906SOL     OW23176   3.108   0.368   8.347  0.2227 -0.1411 -0.1029
 3906SOL    HW123177   3.178   0.405   8.401  0.3639  0.5910 -0.7839
 3906SOL    HW223178   3.140   0.278   8.342 -0.2343 -0.4175  2.0533
 3907SOL     OW23179   0.988   4.375   4.941 -0.2331  0.1742 -0.7392
 3907SOL    HW123180   0.986   4.452   4.997  0.0635 -2.1124  2.3693
 3907SOL    HW223181   0.939   4.308   4.988 -1.8059  1.5311 -0.4450
 3908SOL     OW23182   0.132   1.836  10.381  0.1718  0.4364  0.2515
 3908SOL    HW123183   0.134   1.762  10.442  0.7045  0.0540 -0.2289
 3908SOL    HW223184   0.184   1.894  10.437 -0.9681  1.6520  0.0352
 3909SOL     OW23185   3.219   1.153   6.695 -0.1393 -0.1290 -0.4481
 3909SOL    HW123186   3.250   1.082   6.639  0.3797  0.1267 -0.4828
 3909SOL    HW223187   3.295   1.166   6.752 -1.5908  1.2279  1.1878
 3910SOL     OW23188   4.345   3.819   7.706 -0.4213 -0.1666 -0.0537
 3910SOL    HW123189   4.338   3.813   7.611 -0.7484 -2.2694  0.1051
 3910SOL    HW223190   4.262   3.783   7.735 -1.6188  2.2817 -0.4710
 3911SOL     OW23191   3.141   1.957  10.236 -0.7391 -0.1883  0.7181
 3911SOL    HW123192   3.222   1.921  10.273 -1.7687 -1.9822  1.2029
 3911SOL    HW223193   3.163   1.971  10.144  0.9171  2.3142  1.5083
 3912SOL     OW23194   4.323   1.144  15.047 -0.4552  0.4859  0.2347
 3912SOL    HW123195   4.251   1.173  15.104 -0.8757  0.7769 -0.4468
 3912SOL    HW223196   4.282   1.153  14.961 -1.3613 -0.3603  0.5693
 3913SOL     OW23197   0.685   1.766   3.173  0.1878  0.3044  0.1648
 3913SOL    HW123198   0.653   1.686   3.131 -0.4860  0.2752  0.7439
 3913SOL    HW223199   0.779   1.744   3.174  0.1894  0.3919  2.6679
 3914SOL     OW23200   2.900   2.097  17.033 -0.3211  0.0758 -0.5441
 3914SOL    HW123201   2.880   2.004  17.025 -0.4828 -0.0746  1.7286
 3914SOL    HW223202   2.937   2.100  17.121  0.6496 -4.2583 -0.8101
 3915SOL     OW23203   0.007   0.721   3.101 -0.2393 -0.1522 -0.7800
 3915SOL    HW123204   0.021   0.674   3.182 -0.7366 -0.2620 -0.7600
 3915SOL    HW223205   0.098   0.737   3.075  0.6741  1.7910  3.6932
 3916SOL     OW23206   0.393   2.424   9.071 -0.0704 -0.0462 -0.0488
 3916SOL    HW123207   0.412   2.353   9.011 -2.4255 -0.2433 -0.5646
 3916SOL    HW223208   0.475   2.421   9.120  0.7991  1.6603 -1.4106
 3917SOL     OW23209   4.640   3.036  16.964  0.1534 -0.1193 -0.0305
 3917SOL    HW123210   4.695   2.959  16.950 -0.1585 -0.2814 -0.3673
 3917SOL    HW223211   4.651   3.076  16.878 -1.3445 -1.1614 -0.7127
 3918SOL     OW23212   4.643   0.254   2.316  0.1494  0.0824 -0.1150
 3918SOL    HW123213   0.002   0.210   2.313 -1.1992 -2.3972 -2.4302
 3918SOL    HW223214   4.645   0.311   2.239  1.0448  0.9280  0.5444
 3919SOL     OW23215   1.657   0.153   4.430  0.1410  0.0936 -0.3891
 3919SOL    HW123216   1.577   0.100   4.435  0.2916 -0.1744 -0.7741
 3919SOL    HW223217   1.680   0.152   4.523 -3.8434 -0.7037  0.5964
 3920SOL     OW23218   2.446   2.161   2.011 -0.0488  0.8863  0.0440
 3920SOL    HW123219   2.390   2.155   1.934 -1.8503  0.2172  1.4004
 3920SOL    HW223220   2.526   2.138   1.965  1.4035  3.2271  1.3832
 3921SOL     OW23221   4.658   2.909   6.526 -0.6346  0.0560  0.1232
 3921SOL    HW123222   4.654   3.005   6.521  0.5379  0.1916  1.6997
 3921SOL    HW223223   4.575   2.875   6.558 -0.0065 -1.4412  0.1682
 3922SOL     OW23224   1.944   3.324   1.485 -0.2518  0.0752  0.3274
 3922SOL    HW123225   1.904   3.254   1.434  2.8933 -0.2713 -1.6603
 3922SOL    HW223226   1.990   3.380   1.422  0.9684 -0.6718  0.5449
 3923SOL     OW23227   3.175   3.606   2.733 -0.2709  0.1379  0.3555
 3923SOL    HW123228   3.247   3.645   2.684  0.0722 -0.7810  0.1126
 3923SOL    HW223229   3.173   3.512   2.713 -2.1327  0.2811 -0.1376
 3924SOL     OW23230   1.098   2.404  10.090 -0.8857 -0.5407 -0.3107
 3924SOL    HW123231   1.155   2.350  10.144 -0.0181  0.3653 -0.3199
 3924SOL    HW223232   1.051   2.444  10.163 -0.4229 -3.2928  1.4676
 3925SOL     OW23233   2.149   4.323   0.846  0.2420 -0.1921 -0.1702
 3925SOL    HW123234   2.141   4.411   0.807 -0.6660  0.4264  1.4300
 3925SOL    HW223235   2.059   4.293   0.854  1.3299 -2.7637  2.3959
 3926SOL     OW23236   2.049   2.760   2.477  0.6273  0.1762  0.4017
 3926SOL    HW123237   2.057   2.853   2.457  1.1435  0.1805  0.6422
 3926SOL    HW223238   2.141   2.744   2.456  0.6592 -1.2240  1.6118
 3927SOL     OW23239   4.068   3.022  16.468 -0.1939  0.1448 -0.4430
 3927SOL    HW123240   4.078   2.949  16.407 -0.3199 -0.3455  0.1192
 3927SOL    HW223241   4.005   3.072  16.416 -0.7296  1.3400  1.3512
 3928SOL     OW23242   1.753   2.162   7.972  0.0938  1.0914 -0.0543
 3928SOL    HW123243   1.838   2.149   7.932 -0.5570 -0.0573 -1.0575
 3928SOL    HW223244   1.722   2.231   7.913 -0.3634  1.0557  0.1403
 3929SOL     OW23245   0.462   1.981  12.828 -0.4124 -0.0574  1.0595
 3929SOL    HW123246   0.424   2.057  12.872  2.3494  1.2905  1.1010
 3929SOL    HW223247   0.523   1.949  12.895 -0.0167 -2.7140 -0.5264
 3930SOL     OW23248   2.281   2.097   5.231  0.7074 -0.0388  0.3490
 3930SOL    HW123249   2.297   2.031   5.164  0.9327  0.0513  0.3128
 3930SOL    HW223250   2.273   2.040   5.307 -2.1338 -0.9571 -0.6401
 3931SOL     OW23251   1.815   2.086   3.853 -0.5196 -0.8019 -0.8285
 3931SOL    HW123252   1.831   2.028   3.778 -1.8047 -2.1182 -0.0817
 3931SOL    HW223253   1.854   2.038   3.926 -0.3054 -0.4305 -0.7005
 3932SOL     OW23254   3.738   1.253  10.560  0.0145 -0.2827 -0.2519
 3932SOL    HW123255   3.828   1.219  10.559 -0.4013 -1.3730 -0.7988
 3932SOL    HW223256   3.694   1.188  10.505 -1.1016 -0.3003  0.6610
 3933SOL     OW23257   4.136   4.657  16.548  0.0714  0.5845 -0.1645
 3933SOL    HW123258   4.154   4.648  16.454 -1.3464  0.5193 -0.4314
 3933SOL    HW223259   4.218   4.689  16.586  0.9980 -2.0837  0.0554
 3934SOL     OW23260   0.345   0.172   3.638  0.0024  0.4343  0.0380
 3934SOL    HW123261   0.429   0.138   3.668  0.2775  1.2094  0.1424
 3934SOL    HW223262   0.276   0.126   3.686  0.7957 -0.2594  0.4980
 3935SOL     OW23263   0.176   2.085   7.106  0.3138  0.3466  0.0966
 3935SOL    HW123264   0.249   2.033   7.139  1.7706  3.0736  1.2710
 3935SOL    HW223265   0.157   2.037   7.026 -1.1899 -0.6941  1.0873
 3936SOL     OW23266   1.766   0.059   4.961  0.4257 -0.1496  0.1772
 3936SOL    HW123267   1.814   0.141   4.974 -2.8492  1.6080  1.3320
 3936SOL    HW223268   1.724   0.045   5.046 -1.0485 -1.3419 -0.7477
 3937SOL     OW23269   1.447   1.567  11.498 -1.0373 -0.1706  0.8417
 3937SOL    HW123270   1.418   1.490  11.547  0.0277 -0.1492  1.4981
 3937SOL    HW223271   1.468   1.629  11.568 -0.5335  0.0528  0.4890
 3938SOL     OW23272   0.166   0.448   8.577 -0.2086  0.4177  0.1301
 3938SOL    HW123273   0.086   0.499   8.573  1.2011  2.5892 -0.6712
 3938SOL    HW223274   0.225   0.520   8.551 -1.1452  0.8044 -0.8978
 3939SOL     OW23275   4.371   1.755   0.510 -0.5204 -0.0434 -0.1634
 3939SOL    HW123276   4.366   1.724   0.600 -0.4387  0.5481  0.0431
 3939SOL    HW223277   4.441   1.697   0.479  0.4566  1.6433 -1.0608
 3940SOL     OW23278   1.931   1.885   7.512 -0.1248  0.0435 -0.0255
 3940SOL    HW123279   1.848   1.893   7.464 -0.7109  3.0082  1.4804
 3940SOL    HW223280   1.997   1.880   7.443 -1.0182  1.7782 -1.0046
 3941SOL     OW23281   1.593   0.539   0.525  0.1067  0.1381 -0.0076
 3941SOL    HW123282   1.632   0.462   0.485 -0.3795 -0.3906  0.5343
 3941SOL    HW223283   1.645   0.601   0.473  0.2416 -0.8029 -0.9986
 3942SOL     OW23284   2.526   1.635   9.485  0.3137 -0.1055 -0.0795
 3942SOL    HW123285   2.524   1.723   9.522 -0.7228  0.5845 -1.8026
 3942SOL    HW223286   2.616   1.634   9.453  0.8766  0.7662  1.4497
 3943SOL     OW23287   3.181   1.683  12.966  0.3382  0.5498 -0.4680
 3943SOL    HW123288   3.156   1.653  12.879 -2.1363 -0.4528  0.5656
 3943SOL    HW223289   3.269   1.713  12.945  1.4434 -0.5451  2.5167
 3944SOL     OW23290   0.123   3.728   8.253  0.0169  0.1281  0.0599
 3944SOL    HW123291   0.064   3.800   8.233 -0.4982 -0.0436  1.0168
 3944SOL    HW223292   0.149   3.703   8.164 -0.2781 -0.0687  0.0326
 3945SOL     OW23293   1.641   2.147  12.780 -0.2839  0.0282  0.3007
 3945SOL    HW123294   1.616   2.090  12.708  0.0260  0.2053  0.0566
 3945SOL    HW223295   1.698   2.210  12.736  0.2707 -0.1726  0.7255
 3946SOL     OW23296   1.604   0.560   6.018 -0.2690  0.2552 -0.3648
 3946SOL    HW123297   1.551   0.528   6.090 -1.5740  1.3283 -0.8573
 3946SOL    HW223298   1.532   0.583   5.960 -0.6267  1.4902  0.5787
 3947SOL     OW23299   3.557   2.322  10.563 -0.6381 -0.1752  0.4709
 3947SOL    HW123300   3.565   2.230  10.539 -3.0542 -0.3059  0.1859
 3947SOL    HW223301   3.465   2.331  10.540 -0.3394  3.2955  0.5456
 3948SOL     OW23302   1.799   3.914  11.997 -0.0712 -0.3791  0.3143
 3948SOL    HW123303   1.834   3.995  11.961  1.0605 -2.2149 -2.6599
 3948SOL    HW223304   1.787   3.940  12.089  2.0980 -1.0537  0.7940
 3949SOL     OW23305   2.884   3.281   7.010  0.6434 -0.1110 -0.5439
 3949SOL    HW123306   2.921   3.216   7.070  0.1624  1.2541  1.1875
 3949SOL    HW223307   2.881   3.226   6.931  2.6837  1.3660 -1.6653
 3950SOL     OW23308   1.171   4.478  14.435  0.4406  0.0440 -0.2051
 3950SOL    HW123309   1.249   4.464  14.380  0.8547  1.8212 -0.0895
 3950SOL    HW223310   1.123   4.530  14.371  1.3551  2.2289  0.8800
 3951SOL     OW23311   4.699   0.857   2.753 -0.7886  0.4896  0.4067
 3951SOL    HW123312   0.056   0.895   2.779 -0.2042  0.5774 -1.5854
 3951SOL    HW223313   4.650   0.896   2.825 -1.2464  0.3238  0.1888
 3952SOL     OW23314   4.444   1.274   7.882  0.1536  0.2572  0.1218
 3952SOL    HW123315   4.365   1.312   7.844 -0.9973 -0.6116  1.6245
 3952SOL    HW223316   4.437   1.185   7.847  1.9022 -0.9746  2.8800
 3953SOL     OW23317   0.516   1.855  10.521 -0.4748  0.0325 -0.3190
 3953SOL    HW123318   0.498   1.761  10.516  0.6983 -0.1682 -0.6945
 3953SOL    HW223319   0.428   1.892  10.521 -0.4019  0.2064  0.1695
 3954SOL     OW23320   3.713   3.913   7.560  0.3620 -0.1056 -0.0100
 3954SOL    HW123321   3.750   3.827   7.541  1.7339  0.7177 -1.0316
 3954SOL    HW223322   3.787   3.951   7.609  0.5101 -0.9392  0.4216
 3955SOL     OW23323   3.617   0.266  10.176  0.0444  0.5504 -0.2805
 3955SOL    HW123324   3.612   0.360  10.159  0.2712  0.2438 -2.0706
 3955SOL    HW223325   3.707   0.245  10.152 -0.4540 -1.3912 -0.4419
 3956SOL     OW23326   0.828   4.266  10.311 -0.4672 -0.5216  0.3217
 3956SOL    HW123327   0.881   4.318  10.251 -1.7265  1.2254  0.7060
 3956SOL    HW223328   0.743   4.282  10.269  0.1817 -1.6678 -1.4384
 3957SOL     OW23329   1.017   3.933   7.358 -0.5677  0.3263  0.3262
 3957SOL    HW123330   1.097   3.982   7.336 -1.2783  2.2717  2.1922
 3957SOL    HW223331   1.032   3.940   7.452 -0.8027  0.1170  0.3790
 3958SOL     OW23332   1.739   4.352  12.160 -0.4444 -0.1431  0.0120
 3958SOL    HW123333   1.679   4.280  12.179 -1.0396  0.8309  1.8022
 3958SOL    HW223334   1.703   4.370  12.073 -2.2930 -0.2692  0.7612
 3959SOL     OW23335   1.561   0.427   7.923  0.2090 -0.1419 -0.4599
 3959SOL    HW123336   1.633   0.366   7.940 -0.4318 -0.9190 -0.5456
 3959SOL    HW223337   1.535   0.398   7.835 -0.3541  0.9655 -0.6589
 3960SOL     OW23338   1.231   0.686  14.972 -0.1960 -0.0411  0.7442
 3960SOL    HW123339   1.298   0.628  14.937 -1.6748 -0.8701 -0.7140
 3960SOL    HW223340   1.162   0.679  14.906 -0.6877  0.0015  1.2540
 3961SOL     OW23341   1.559   2.224   2.852 -0.1154 -0.4969  0.7540
 3961SOL    HW123342   1.583   2.272   2.932  0.4485 -0.4825  0.5737
 3961SOL    HW223343   1.621   2.270   2.796 -0.0410 -0.7883  0.5971
 3962SOL     OW23344   0.545   0.611   2.013 -0.2076  0.0067  0.3815
 3962SOL    HW123345   0.584   0.642   2.095 -0.4885  0.6203  0.2790
 3962SOL    HW223346   0.473   0.555   2.042 -0.1336 -0.5752 -0.5537
 3963SOL     OW23347   1.723   3.877   5.566 -0.2118  0.1781 -0.2978
 3963SOL    HW123348   1.677   3.822   5.502 -1.2675  1.5402 -0.7045
 3963SOL    HW223349   1.813   3.871   5.535 -0.3363 -0.3376 -0.5576
 3964SOL     OW23350   3.169   2.392   9.997 -0.3843 -0.5957  0.2524
 3964SOL    HW123351   3.087   2.361   9.957 -0.8001 -2.2967  2.4336
 3964SOL    HW223352   3.124   2.444  10.064  1.3662  0.9725  0.2189
 3965SOL     OW23353   1.650   1.614   9.077 -0.4956 -0.1889 -0.1000
 3965SOL    HW123354   1.704   1.539   9.054  0.0412 -0.0968  0.8599
 3965SOL    HW223355   1.558   1.597   9.054 -0.0349  1.5093 -3.1539
 3966SOL     OW23356   3.415   2.741   2.820 -0.3626 -0.8326  0.4415
 3966SOL    HW123357   3.395   2.655   2.782 -3.5055 -0.5280  1.4068
 3966SOL    HW223358   3.334   2.788   2.800 -0.1710 -0.3897  0.7051
 3967SOL     OW23359   3.063   1.481   5.850 -0.0650 -0.4992  0.4596
 3967SOL    HW123360   3.147   1.491   5.804  0.1799 -1.2712  0.7465
 3967SOL    HW223361   3.043   1.388   5.861  1.8406 -1.0531 -0.7261
 3968SOL     OW23362   2.647   1.300  10.743  0.4503  0.2895 -0.1102
 3968SOL    HW123363   2.728   1.255  10.720  1.4864  2.2367 -0.2277
 3968SOL    HW223364   2.661   1.395  10.749  0.2768  0.3532 -0.7977
 3969SOL     OW23365   0.384   3.488   5.938  0.3310  0.2413  0.2579
 3969SOL    HW123366   0.430   3.560   5.981 -1.1523  1.7565 -0.6703
 3969SOL    HW223367   0.297   3.527   5.931  0.5941  0.7275 -0.2863
 3970SOL     OW23368   0.074   2.354   3.902 -0.2004  0.1624 -0.2509
 3970SOL    HW123369   4.712   2.383   3.876 -0.1973  2.9385  2.8447
 3970SOL    HW223370   0.042   2.291   3.967 -0.3264  0.6928  0.2001
 3971SOL     OW23371   4.034   4.585  14.533  0.1705 -0.1977 -0.0484
 3971SOL    HW123372   4.090   4.547  14.465 -1.2110  0.0825 -1.3401
 3971SOL    HW223373   3.952   4.537  14.525 -0.2704  0.6934 -0.8935
 3972SOL     OW23374   4.344   3.126   8.023 -0.0831  0.5482 -0.4211
 3972SOL    HW123375   4.421   3.121   8.080 -1.1438 -0.2484  0.9612
 3972SOL    HW223376   4.281   3.114   8.094 -0.9392 -1.4626 -1.5364
 3973SOL     OW23377   4.312   3.752   6.348 -0.2316 -0.3325  0.6580
 3973SOL    HW123378   4.353   3.798   6.421 -0.2100  1.9357 -0.7841
 3973SOL    HW223379   4.387   3.702   6.315  0.1543 -0.6339  1.9948
 3974SOL     OW23380   0.667   2.384   8.033 -1.0631 -0.7248 -0.1454
 3974SOL    HW123381   0.680   2.342   7.948  1.9665  0.5040 -0.3188
 3974SOL    HW223382   0.617   2.327   8.091 -2.3839  2.4288  1.8196
 3975SOL     OW23383   3.289   4.380   9.673  0.5084 -0.1652  0.0812
 3975SOL    HW123384   3.278   4.333   9.756  0.0658  0.0185  0.1267
 3975SOL    HW223385   3.380   4.363   9.650 -0.1860 -2.4149 -0.9982
 3976SOL     OW23386   0.940   3.163   5.110  0.0922 -0.5483  0.4025
 3976SOL    HW123387   0.958   3.125   5.196  0.4969 -2.0113 -0.3242
 3976SOL    HW223388   1.026   3.196   5.085 -0.3151 -0.3485 -0.7678
 3977SOL     OW23389   3.490   1.850   6.577 -0.7487  0.3939  0.1287
 3977SOL    HW123390   3.471   1.809   6.492 -1.3857  0.2317  0.3469
 3977SOL    HW223391   3.583   1.832   6.567 -0.6287  0.2959  1.3884
 3978SOL     OW23392   2.924   2.744   8.837 -0.6930 -0.5570 -0.6788
 3978SOL    HW123393   2.852   2.689   8.869 -1.0052  1.6793  2.4948
 3978SOL    HW223394   2.913   2.828   8.881 -2.7336 -0.9939 -0.3227
 3979SOL     OW23395   4.324   3.471   5.420  0.4442 -0.3960 -0.3580
 3979SOL    HW123396   4.370   3.534   5.475 -0.3968  1.7149 -2.0823
 3979SOL    HW223397   4.296   3.521   5.343  0.2232  1.3805  0.8735
 3980SOL     OW23398   1.562   2.595   8.742  0.0083 -0.0810  0.2219
 3980SOL    HW123399   1.654   2.605   8.767 -0.4646  0.1618  1.9167
 3980SOL    HW223400   1.548   2.682   8.705  1.0286 -0.1429 -0.2940
 3981SOL     OW23401   3.234   1.116   1.011 -0.1445  0.2895 -0.3630
 3981SOL    HW123402   3.246   1.207   0.983  2.2093  0.6520  1.8241
 3981SOL    HW223403   3.281   1.069   0.942 -1.3786  0.7438 -1.5248
 3982SOL     OW23404   1.218   4.452  12.505 -0.0439 -0.0397  0.6233
 3982SOL    HW123405   1.132   4.422  12.475  0.0515  0.2844  0.0212
 3982SOL    HW223406   1.204   4.469  12.598  2.4422  2.3488  0.5585
 3983SOL     OW23407   1.880   3.265   8.884  0.1715  0.0388  0.1238
 3983SOL    HW123408   1.966   3.264   8.925 -0.4214  0.5545  1.3589
 3983SOL    HW223409   1.880   3.353   8.845 -0.0615  0.0010  0.0370
 3984SOL     OW23410   0.195   4.402   3.923 -0.1255 -0.2808 -0.0252
 3984SOL    HW123411   0.221   4.430   3.835  1.6459 -2.5684 -0.2362
 3984SOL    HW223412   0.271   4.366   3.968 -0.7204  0.6053  1.6942
 3985SOL     OW23413   3.754   1.917  15.390 -0.9991  0.4476 -0.2847
 3985SOL    HW123414   3.794   1.923  15.476 -2.6792 -0.4990  0.5652
 3985SOL    HW223415   3.727   2.009  15.382 -0.1474  0.6079 -1.3429
 3986SOL     OW23416   1.057   2.282   5.136  0.0355  0.7614 -0.5246
 3986SOL    HW123417   1.099   2.196   5.139 -1.3855  0.0935  0.4268
 3986SOL    HW223418   1.077   2.315   5.048  2.3203 -0.3513 -0.4231
 3987SOL     OW23419   1.370   0.098   6.809  0.0316 -0.3892  0.6645
 3987SOL    HW123420   1.330   0.067   6.729  1.9214 -0.6274 -0.2006
 3987SOL    HW223421   1.453   0.051   6.798  0.2873  0.0944  0.5017
 3988SOL     OW23422   1.626   4.144  15.901 -0.7549 -0.5889  0.0239
 3988SOL    HW123423   1.600   4.230  15.868 -3.0422 -0.3410  2.4635
 3988SOL    HW223424   1.606   4.151  15.994 -0.5195 -0.2568  0.0519
 3989SOL     OW23425   0.535   0.449   3.671 -0.4346  0.1201  0.3746
 3989SOL    HW123426   0.552   0.414   3.584  0.1960  1.7807 -0.1752
 3989SOL    HW223427   0.571   0.386   3.734 -0.4769 -1.0781 -0.8092
 3990SOL     OW23428   3.334   0.435   3.689 -0.3388  0.3715  0.4807
 3990SOL    HW123429   3.294   0.452   3.604  1.5124  0.7242 -0.3115
 3990SOL    HW223430   3.408   0.496   3.692 -0.1073 -0.1008  5.6421
 3991SOL     OW23431   0.983   1.547   6.754 -0.0051 -0.0446 -0.0456
 3991SOL    HW123432   0.954   1.495   6.679 -0.3768  0.1928 -0.0647
 3991SOL    HW223433   1.049   1.600   6.709  0.4719  0.3576  1.1198
 3992SOL     OW23434   3.533   3.290   5.444 -0.0078 -0.3372  0.4759
 3992SOL    HW123435   3.463   3.337   5.400  0.4037  1.4142  1.6943
 3992SOL    HW223436   3.506   3.198   5.437 -0.4849 -0.2491  1.1504
 3993SOL     OW23437   4.690   4.544   8.202 -0.2823 -0.1777  0.3028
 3993SOL    HW123438   0.023   4.601   8.154 -0.9675 -0.3790 -0.7638
 3993SOL    HW223439   0.038   4.499   8.243  0.6002  1.6959  0.7802
 3994SOL     OW23440   0.663   1.519  10.470  0.0729 -0.0888  0.3179
 3994SOL    HW123441   0.571   1.514  10.497 -0.0896 -0.7262 -0.3410
 3994SOL    HW223442   0.683   1.427  10.450  0.1497 -0.4307  2.0159
 3995SOL     OW23443   3.602   2.410   2.667  0.3889  1.0097 -0.6128
 3995SOL    HW123444   3.541   2.483   2.658  0.5929  1.4600  1.6464
 3995SOL    HW223445   3.642   2.412   2.581  0.6899 -2.3437 -0.5695
 3996SOL     OW23446   0.614   2.052   5.815  0.1268  0.2019 -0.1346
 3996SOL    HW123447   0.668   2.049   5.895 -0.2338  1.6991  0.1666
 3996SOL    HW223448   0.679   2.038   5.747  0.6332  0.2803  0.3350
 3997SOL     OW23449   0.474   4.263   1.934 -0.2440 -0.1438 -0.1420
 3997SOL    HW123450   0.522   4.275   1.852  2.7753  0.6457  1.7555
 3997SOL    HW223451   0.397   4.212   1.908 -0.4977 -1.0888  2.4437
 3998SOL     OW23452   3.987   3.234   2.366  0.5674  0.1068  0.1480
 3998SOL    HW123453   3.954   3.183   2.292  2.6777  1.8512 -1.9784
 3998SOL    HW223454   3.960   3.184   2.443  0.9377  2.1726  1.6155
 3999SOL     OW23455   3.259   1.211  11.462 -0.5353  0.0492 -0.2520
 3999SOL    HW123456   3.330   1.164  11.506 -1.9533  0.2542  2.2171
 3999SOL    HW223457   3.185   1.212  11.521 -1.6742 -2.1463 -1.6514
 4000SOL     OW23458   1.384   1.075   8.234 -0.3940 -0.1730  0.1033
 4000SOL    HW123459   1.304   1.069   8.287  1.0195 -0.6871  2.1973
 4000SOL    HW223460   1.442   1.010   8.274  1.6787  1.8499  0.3861
 4001SOL     OW23461   0.692   3.044  10.240  0.4404  0.3575 -0.2045
 4001SOL    HW123462   0.756   3.022  10.307  0.1110 -1.1440 -0.3794
 4001SOL    HW223463   0.695   3.140  10.241 -1.5018  0.4654 -3.7626
 4002SOL     OW23464   2.646   0.338  15.711 -0.1351 -0.5384  0.1223
 4002SOL    HW123465   2.625   0.245  15.703 -0.8371 -0.4674  1.1687
 4002SOL    HW223466   2.569   0.365  15.760  0.4347  1.9105 -0.3347
 4003SOL     OW23467   2.590   0.190   3.679  0.3633 -0.2543 -0.4188
 4003SOL    HW123468   2.556   0.215   3.765  2.6565  1.8083 -0.0950
 4003SOL    HW223469   2.568   0.271   3.633 -2.4082 -0.8585 -0.1781
 4004SOL     OW23470   2.583   3.594   3.594  0.2033 -0.0352  0.6178
 4004SOL    HW123471   2.505   3.624   3.640 -1.8161 -1.9554 -1.5677
 4004SOL    HW223472   2.548   3.604   3.505 -1.3611 -1.6326  1.0632
 4005SOL     OW23473   2.448   2.316  11.745 -0.2428  0.2423  0.4171
 4005SOL    HW123474   2.357   2.291  11.727  0.5196 -1.6532 -0.7534
 4005SOL    HW223475   2.435   2.410  11.759 -0.3712  0.1700  0.7822
 4006SOL     OW23476   2.138   3.652   4.281  0.1271 -0.2394 -0.1731
 4006SOL    HW123477   2.185   3.710   4.221  1.9995 -0.2648  1.2854
 4006SOL    HW223478   2.047   3.669   4.256 -0.3075  0.2206  1.7247
 4007SOL     OW23479   1.384   3.689  11.933  0.1051 -0.7318 -0.2455
 4007SOL    HW123480   1.291   3.707  11.922  0.4138 -1.2613 -3.7579
 4007SOL    HW223481   1.395   3.604  11.890 -0.5385 -1.5322  1.1706
 4008SOL     OW23482   0.753   0.236   2.455 -0.5999  0.5897 -0.3883
 4008SOL    HW123483   0.681   0.268   2.401 -1.0486 -1.0880 -0.7865
 4008SOL    HW223484   0.819   0.302   2.435 -0.6594  1.7043  2.9550
 4009SOL     OW23485   1.127   3.212   2.994 -0.0646  0.0127 -0.3394
 4009SOL    HW123486   1.154   3.302   2.976  0.9662 -0.5077 -1.3614
 4009SOL    HW223487   1.103   3.171   2.911  0.6984 -1.3023  0.1065
 4010SOL     OW23488   2.440   0.059  11.506 -0.3279 -0.1709  0.1829
 4010SOL    HW123489   2.487   0.125  11.455  0.8082 -0.3512  1.0133
 4010SOL    HW223490   2.354   0.064  11.464  0.0973  1.6999 -0.4622
 4011SOL     OW23491   4.417   2.217  11.519 -0.7411 -0.2798 -0.3342
 4011SOL    HW123492   4.356   2.157  11.476  0.7073 -3.0288  1.4862
 4011SOL    HW223493   4.411   2.302  11.475 -2.7166  0.4977  1.4378
 4012SOL     OW23494   2.692   0.713   3.226  0.2924  0.3198  0.6663
 4012SOL    HW123495   2.743   0.648   3.178 -1.2921 -0.6028  0.2138
 4012SOL    HW223496   2.608   0.667   3.219  1.4651 -1.8037  0.6021
 4013SOL     OW23497   2.201   1.018   7.803  0.3174 -0.1066  0.0240
 4013SOL    HW123498   2.199   1.112   7.784  0.4294 -0.1904 -0.4021
 4013SOL    HW223499   2.165   0.974   7.726  0.3396 -2.4012  1.3367
 4014SOL     OW23500   3.449   1.306  14.977 -0.3984 -0.2922 -0.5180
 4014SOL    HW123501   3.384   1.296  15.046 -0.6884 -1.0197 -0.8885
 4014SOL    HW223502   3.533   1.278  15.013 -1.0176 -1.7547 -0.1966
 4015SOL     OW23503   3.422   3.742   2.975 -0.1641 -0.0601 -0.2199
 4015SOL    HW123504   3.415   3.743   3.070  0.1668 -0.1409 -0.1945
 4015SOL    HW223505   3.510   3.705   2.969 -0.1723  0.0083 -0.8533
 4016SOL     OW23506   4.059   1.726  15.502  0.2358  0.1067 -0.2584
 4016SOL    HW123507   4.025   1.637  15.515  0.2237 -0.1640 -2.1088
 4016SOL    HW223508   3.974   1.770  15.496  0.3733  0.4904  0.5866
 4017SOL     OW23509   4.545   1.488   3.867 -0.0636  0.4458  0.2681
 4017SOL    HW123510   4.562   1.394   3.856  1.1380  0.8187 -1.1035
 4017SOL    HW223511   4.462   1.504   3.821  0.1081 -0.5393 -0.3956
 4018SOL     OW23512   3.068   0.000   9.492 -0.5716  0.1932  0.8583
 4018SOL    HW123513   3.086   0.093   9.476  1.3047 -0.1295  1.1066
 4018SOL    HW223514   2.981   0.006   9.533 -1.1515 -0.7797 -0.2202
 4019SOL     OW23515   1.301   1.570  12.220 -0.1546  0.4451  0.1101
 4019SOL    HW123516   1.341   1.508  12.282  0.0934  1.0097  0.5116
 4019SOL    HW223517   1.216   1.589  12.259  1.0772  0.6849  2.6853
 4020SOL     OW23518   3.783   2.696  14.274  0.5036  0.2419  0.2987
 4020SOL    HW123519   3.719   2.763  14.250 -1.4128 -0.7693  2.5627
 4020SOL    HW223520   3.738   2.641  14.339  0.4261  0.0413  0.0728
 4021SOL     OW23521   2.615   1.959  12.882 -0.1812 -0.1808 -0.0196
 4021SOL    HW123522   2.635   1.928  12.794 -0.3508 -1.1637  0.2895
 4021SOL    HW223523   2.658   2.045  12.878  0.7171 -0.7542 -2.4824
 4022SOL     OW23524   2.505   2.786   1.612  0.3998 -0.0191  0.7394
 4022SOL    HW123525   2.518   2.779   1.517  0.8872  2.4708  0.6296
 4022SOL    HW223526   2.481   2.878   1.618  1.6792  0.5184 -2.3541
 4023SOL     OW23527   4.593   2.752   9.937  0.2230 -0.5140  0.0670
 4023SOL    HW123528   4.552   2.837   9.955  0.9925 -0.0899 -0.1637
 4023SOL    HW223529   4.547   2.692   9.995 -0.5862 -0.7001 -0.7696
 4024SOL     OW23530   3.553   3.294   7.911 -0.8784 -0.3231 -0.1374
 4024SOL    HW123531   3.515   3.293   7.823 -0.7548  0.0081 -0.1940
 4024SOL    HW223532   3.569   3.388   7.911 -0.2846 -0.4267 -2.1301
 4025SOL     OW23533   1.756   1.803  11.572 -0.4891 -0.4787 -0.0254
 4025SOL    HW123534   1.691   1.754  11.522 -1.8152  0.0652  1.1504
 4025SOL    HW223535   1.715   1.779  11.655 -1.4680  3.9174  0.7668
 4026SOL     OW23536   4.067   3.271   8.571 -0.0204  0.0510  0.2925
 4026SOL    HW123537   4.054   3.283   8.477 -1.8182 -0.7440  0.4598
 4026SOL    HW223538   4.015   3.192   8.584 -2.8265  1.7511 -0.6272
 4027SOL     OW23539   1.538   2.545   1.363 -0.2641 -0.7509  0.6042
 4027SOL    HW123540   1.545   2.591   1.447  1.8617  0.2407 -0.1204
 4027SOL    HW223541   1.528   2.455   1.395  0.7448 -0.8980  0.5104
 4028SOL     OW23542   3.329   0.844  10.879 -0.1145 -0.5008 -0.5604
 4028SOL    HW123543   3.253   0.880  10.925  1.1871  0.6977  0.6683
 4028SOL    HW223544   3.322   0.750  10.894 -1.3121 -0.0060  1.9195
 4029SOL     OW23545   1.467   2.462  16.838  0.1874  0.4222 -0.4462
 4029SOL    HW123546   1.473   2.528  16.769  2.6522  0.8546  0.1851
 4029SOL    HW223547   1.375   2.465  16.863  0.6942 -0.6641  1.5546
 4030SOL     OW23548   3.801   0.940  11.337 -0.0734 -0.3929 -0.5309
 4030SOL    HW123549   3.888   0.901  11.345 -1.0546 -2.5671 -0.5064
 4030SOL    HW223550   3.792   0.974  11.426 -0.1302 -1.4293 -0.1366
 4031SOL     OW23551   1.838   4.324   8.516  0.7060 -0.1934 -0.2787
 4031SOL    HW123552   1.920   4.277   8.531  1.2424  0.5659 -0.8399
 4031SOL    HW223553   1.780   4.249   8.501  0.1509  0.1447  0.1563
 4032SOL     OW23554   2.518   1.056   4.163 -0.7711  0.1083 -0.7510
 4032SOL    HW123555   2.546   1.089   4.078 -0.5483 -0.3745 -0.8663
 4032SOL    HW223556   2.535   0.962   4.161 -1.2791  0.0154 -0.6681
 4033SOL     OW23557   4.324   4.248   0.123 -0.5104 -0.1108 -0.1198
 4033SOL    HW123558   4.351   4.308   0.054  1.1935 -0.2523  0.4105
 4033SOL    HW223559   4.399   4.189   0.128 -0.2117  0.2574 -0.2841
 4034SOL     OW23560   2.766   3.718   2.490 -0.8346 -0.5509 -0.7212
 4034SOL    HW123561   2.832   3.688   2.427 -2.0011 -0.7779 -1.8275
 4034SOL    HW223562   2.797   3.688   2.575 -1.1906 -1.9808 -1.0946
 4035SOL     OW23563   0.713   3.462   8.634 -0.2177 -0.0221 -0.3139
 4035SOL    HW123564   0.638   3.521   8.626 -0.2844  0.1835  1.7696
 4035SOL    HW223565   0.701   3.419   8.719 -0.6946  0.9239  0.0996
 4036SOL     OW23566   0.473   2.674   5.702  1.1447  0.1225 -0.1985
 4036SOL    HW123567   0.425   2.594   5.722  0.6586 -0.0101 -1.9059
 4036SOL    HW223568   0.408   2.727   5.657  1.2153  0.5491  0.1933
 4037SOL     OW23569   4.709   3.852  10.783 -0.8849 -0.0894 -0.0287
 4037SOL    HW123570   4.718   3.819  10.694 -2.0777 -0.0957 -0.1460
 4037SOL    HW223571   0.064   3.903  10.782 -0.4877 -0.7885 -3.0308
 4038SOL     OW23572   0.167   2.961   2.442 -0.0210  0.6914 -0.0390
 4038SOL    HW123573   0.119   2.903   2.501  0.8398  0.4889  0.4594
 4038SOL    HW223574   0.098   2.976   2.378 -1.3331 -2.3204  0.6604
 4039SOL     OW23575   4.015   3.315   9.737  0.1983 -0.0964  0.3548
 4039SOL    HW123576   3.970   3.263   9.670  0.6060 -1.5172  1.1985
 4039SOL    HW223577   3.943   3.327   9.799 -0.7690 -0.2786 -0.7293
 4040SOL     OW23578   2.092   2.244  13.675  0.0014  0.7174 -0.2405
 4040SOL    HW123579   2.142   2.215  13.752 -1.5380 -1.9078 -0.2194
 4040SOL    HW223580   2.006   2.202  13.678  0.7313 -0.4634  3.6206
 4041SOL     OW23581   1.132   2.576   5.656 -0.3632 -0.0226 -0.2287
 4041SOL    HW123582   1.066   2.600   5.721  1.4962  1.3836  1.1047
 4041SOL    HW223583   1.209   2.615   5.697  1.0405 -0.6896 -2.1913
 4042SOL     OW23584   0.750   2.039   4.400  0.0612  0.3189 -0.2279
 4042SOL    HW123585   0.829   2.048   4.452  0.2820 -1.8482 -0.2211
 4042SOL    HW223586   0.759   1.947   4.378 -3.1240  0.5133 -2.4630
 4043SOL     OW23587   3.528   1.725   3.412  0.0804  0.1803  0.2902
 4043SOL    HW123588   3.462   1.665   3.446  0.1074 -0.7270 -1.2970
 4043SOL    HW223589   3.542   1.778   3.491  0.7691  3.1711 -1.8416
 4044SOL     OW23590   0.400   2.436   7.596  0.3770  0.3246  0.0565
 4044SOL    HW123591   0.438   2.473   7.516  1.8560 -0.3528  0.4516
 4044SOL    HW223592   0.463   2.367   7.620  0.4468 -0.1057 -1.3878
 4045SOL     OW23593   2.294   2.970   5.215 -0.2939 -0.8639 -0.1584
 4045SOL    HW123594   2.374   2.938   5.173  0.2994 -0.7853  0.9166
 4045SOL    HW223595   2.277   3.052   5.168  0.0742  0.5900  2.2459
 4046SOL     OW23596   2.956   1.994   6.126 -0.0103 -0.0720 -0.0566
 4046SOL    HW123597   2.936   1.973   6.035  0.3381 -0.4309 -0.0496
 4046SOL    HW223598   3.052   1.992   6.121 -0.1378  2.2761 -3.2754
 4047SOL     OW23599   4.065   1.353   2.067  0.3070  0.1545 -0.2746
 4047SOL    HW123600   4.150   1.398   2.068  0.7785 -0.7673  1.8957
 4047SOL    HW223601   4.083   1.278   2.123  0.8967 -0.4291 -1.2327
 4048SOL     OW23602   3.856   0.108   0.495  0.0620  0.2200 -0.0707
 4048SOL    HW123603   3.786   0.171   0.510 -0.9425 -0.6470 -1.0602
 4048SOL    HW223604   3.820   0.053   0.425 -0.0962 -0.7975  0.8215
 4049SOL     OW23605   1.101   3.257   9.079  0.0667  0.2106  0.4024
 4049SOL    HW123606   1.176   3.242   9.137  1.3000  2.1174 -0.6879
 4049SOL    HW223607   1.142   3.241   8.994 -2.7162 -0.7535 -0.7445
 4050SOL     OW23608   4.106   0.091   8.219  0.5887  0.0507  0.1499
 4050SOL    HW123609   4.037   0.117   8.280  0.2496  1.4239 -0.8274
 4050SOL    HW223610   4.175   0.080   8.284  1.5597 -0.3188 -0.9407
 4051SOL     OW23611   1.940   2.374   4.448  0.1758  0.6377 -1.0309
 4051SOL    HW123612   2.031   2.365   4.477 -0.0529  2.0817  0.1253
 4051SOL    HW223613   1.892   2.360   4.530  1.3162 -0.1314 -0.4918
 4052SOL     OW23614   2.564   0.780  12.167 -0.1018  0.3000  0.3551
 4052SOL    HW123615   2.594   0.776  12.077 -0.5738 -1.8081  0.2800
 4052SOL    HW223616   2.490   0.839  12.158  0.1969  0.5769 -0.2647
 4053SOL     OW23617   3.439   1.525   4.641 -0.2243 -0.4711 -0.6269
 4053SOL    HW123618   3.453   1.485   4.727  0.2198  1.6035  0.2733
 4053SOL    HW223619   3.483   1.458   4.588  1.1405 -0.7573  0.8615
 4054SOL     OW23620   3.280   1.162  15.160 -0.5393 -0.2554 -0.1115
 4054SOL    HW123621   3.286   1.163  15.256 -1.9611 -2.6120  0.0050
 4054SOL    HW223622   3.341   1.091  15.137  2.3620  2.3958 -0.5158
 4055SOL     OW23623   3.560   0.086   7.189  0.4688  0.0059 -0.0016
 4055SOL    HW123624   3.549   0.010   7.246  0.4876 -0.2545 -0.3477
 4055SOL    HW223625   3.617   0.054   7.120 -1.2860 -1.0871 -0.9492
 4056SOL     OW23626   2.924   1.146   3.128  0.7375  0.1943  0.0203
 4056SOL    HW123627   2.895   1.118   3.041  0.0289 -0.3285  0.4249
 4056SOL    HW223628   2.990   1.214   3.116 -1.5259  2.5750  1.0753
 4057SOL     OW23629   3.226   3.538   5.206  0.5460 -0.2944 -0.1513
 4057SOL    HW123630   3.220   3.598   5.132 -0.1607 -0.2465 -0.0536
 4057SOL    HW223631   3.270   3.467   5.159 -1.6058 -1.1215 -0.9543
 4058SOL     OW23632   0.270   3.977  10.803  0.1114  0.0800  0.2062
 4058SOL    HW123633   0.341   4.028  10.841  1.4082 -1.1765 -0.5353
 4058SOL    HW223634   0.195   4.036  10.795 -0.1902 -0.3359 -0.0389
 4059SOL     OW23635   2.625   4.041   6.387 -0.4605 -0.0424 -0.0031
 4059SOL    HW123636   2.693   3.978   6.410 -1.2200 -0.4984  0.9937
 4059SOL    HW223637   2.543   3.996   6.406 -0.9263 -0.4341 -2.8385
 4060SOL     OW23638   0.622   2.920   4.229  1.2344  0.3613  0.3024
 4060SOL    HW123639   0.539   2.877   4.249  0.2683  1.7941 -0.5915
 4060SOL    HW223640   0.667   2.928   4.313 -2.1479 -1.3287  2.2836
 4061SOL     OW23641   3.115   3.554   6.943  0.3326 -1.1412 -0.2846
 4061SOL    HW123642   3.038   3.575   6.890 -0.6928  0.3985  1.7659
 4061SOL    HW223643   3.142   3.473   6.901  0.6105 -0.8034 -0.7588
 4062SOL     OW23644   4.408   0.344   3.570 -0.2654  0.8070 -0.7888
 4062SOL    HW123645   4.497   0.359   3.604 -0.0073 -0.7532 -0.7696
 4062SOL    HW223646   4.422   0.276   3.505 -4.1384 -0.2963 -0.4348
 4063SOL     OW23647   3.339   3.978   4.237  0.0063 -0.0575 -0.4694
 4063SOL    HW123648   3.362   3.887   4.256 -2.0844 -0.5153 -0.1768
 4063SOL    HW223649   3.246   3.971   4.255 -0.0027  1.4742  0.0533
 4064SOL     OW23650   2.359   3.421   5.406 -0.4763 -0.3747  0.3694
 4064SOL    HW123651   2.282   3.431   5.350  1.1271  0.8929 -1.5885
 4064SOL    HW223652   2.420   3.376   5.349 -1.5348 -1.1894 -0.1282
 4065SOL     OW23653   3.817   2.013   1.746  0.2632 -0.1976 -0.0245
 4065SOL    HW123654   3.878   2.058   1.687 -0.4981  2.8039  1.4467
 4065SOL    HW223655   3.828   2.072   1.821  1.2707  1.7980 -1.7601
 4066SOL     OW23656   0.388   1.615  10.499 -0.7422  0.1970 -0.3766
 4066SOL    HW123657   0.370   1.606  10.405 -0.2393  1.4898 -0.6099
 4066SOL    HW223658   0.305   1.645  10.535 -0.4769 -1.0431  1.2753
 4067SOL     OW23659   3.734   3.421   4.151  0.0799 -0.6466  0.1313
 4067SOL    HW123660   3.799   3.491   4.148 -0.7430  0.2552  2.9791
 4067SOL    HW223661   3.786   3.346   4.178 -1.4707 -1.0813  1.9407
 4068SOL     OW23662   0.754   3.411   7.350  0.0426 -0.3169  0.0644
 4068SOL    HW123663   0.832   3.457   7.318  0.7647 -2.7494 -1.6539
 4068SOL    HW223664   0.771   3.326   7.311  0.6279 -0.1405 -0.0632
 4069SOL     OW23665   2.173   1.666   2.062  0.1589 -0.0875 -0.3607
 4069SOL    HW123666   2.198   1.641   2.151 -1.2848 -1.2431 -0.2891
 4069SOL    HW223667   2.253   1.710   2.032  0.4475  0.3668  1.0983
 4070SOL     OW23668   2.110   4.653   8.791  1.1646 -0.3081 -0.3697
 4070SOL    HW123669   2.170   4.675   8.862 -0.8645  0.8691  0.9827
 4070SOL    HW223670   2.081   0.011   8.754  0.5179 -1.0559 -1.5432
 4071SOL     OW23671   1.203   0.770   0.226 -0.1082 -0.2930  0.3715
 4071SOL    HW123672   1.127   0.728   0.266  0.1282 -1.7272 -0.7100
 4071SOL    HW223673   1.167   0.775   0.137  2.0539 -1.3150 -0.5596
 4072SOL     OW23674   3.228   0.155   6.558  0.4492 -0.0011  0.6165
 4072SOL    HW123675   3.233   0.133   6.651 -3.9139 -2.0718  0.3531
 4072SOL    HW223676   3.180   0.080   6.521  0.6101 -0.7515  1.9438
 4073SOL     OW23677   0.146   0.386  13.505  0.6105  0.2942 -0.0064
 4073SOL    HW123678   0.185   0.344  13.582 -1.1628 -3.4413 -1.1801
 4073SOL    HW223679   0.208   0.349  13.443 -0.1083  2.2606 -1.9163
 4074SOL     OW23680   0.076   2.840  17.123 -1.0370 -0.2961  0.0355
 4074SOL    HW123681   0.062   2.919  17.176 -0.3869  0.1305 -0.4400
 4074SOL    HW223682   0.111   2.774  17.183 -0.1603 -1.1729 -1.4415
 4075SOL     OW23683   0.867   3.908  14.420 -0.2047 -0.2123 -0.1922
 4075SOL    HW123684   0.900   3.997  14.427 -0.4171 -0.2004  0.6921
 4075SOL    HW223685   0.909   3.870  14.343  0.0933 -2.0151  0.8439
 4076SOL     OW23686   0.787   4.134   4.450 -0.2024  0.7031 -0.1247
 4076SOL    HW123687   0.746   4.188   4.517  1.5985 -0.0538  1.6093
 4076SOL    HW223688   0.877   4.129   4.484  0.4552 -0.1360 -1.9901
 4077SOL     OW23689   3.897   1.436  17.236  0.8457 -0.5337  0.4741
 4077SOL    HW123690   3.872   1.361  17.183 -1.0365 -0.0917  0.7368
 4077SOL    HW223691   3.836   1.439  17.310  0.0869 -3.4613 -0.0431
 4078SOL     OW23692   0.665   1.785   8.666  0.5910 -0.3253  0.2289
 4078SOL    HW123693   0.703   1.865   8.702 -0.1692  0.7832 -1.4540
 4078SOL    HW223694   0.671   1.720   8.737 -1.3637 -0.9169 -0.1601
 4079SOL     OW23695   3.831   3.255   7.027  0.0050 -0.7113  0.6120
 4079SOL    HW123696   3.827   3.274   6.933  0.7634 -2.0483  0.3105
 4079SOL    HW223697   3.848   3.343   7.061  0.3970 -0.0195 -1.3791
 4080SOL     OW23698   0.893   0.262   7.984 -0.2163  0.2123  0.5860
 4080SOL    HW123699   0.825   0.324   8.012 -0.1828  1.0533 -1.1988
 4080SOL    HW223700   0.974   0.300   8.018  1.4556 -0.7034 -2.4332
 4081SOL     OW23701   4.372   2.055   4.323  0.4381 -0.3496 -0.7462
 4081SOL    HW123702   4.426   2.074   4.400 -1.0205  2.7886 -0.5284
 4081SOL    HW223703   4.294   2.110   4.329 -0.0611 -0.9787 -1.3653
 4082SOL     OW23704   0.005   3.727   1.555  0.3534  0.3970  0.7085
 4082SOL    HW123705   4.637   3.735   1.548  0.2804 -2.7342 -2.1990
 4082SOL    HW223706   0.038   3.695   1.470 -1.1668  3.4048 -1.0185
 4083SOL     OW23707   4.010   4.522   3.631  0.2980  0.0373 -0.6945
 4083SOL    HW123708   4.083   4.487   3.580 -1.0388 -0.3979 -2.3086
 4083SOL    HW223709   4.026   4.460   3.702 -2.0128 -0.1921 -0.3532
 4084SOL     OW23710   2.424   1.083   6.662 -0.1307 -0.2226 -0.1994
 4084SOL    HW123711   2.390   1.149   6.722 -0.2361 -0.2516 -0.2262
 4084SOL    HW223712   2.478   1.130   6.598 -0.0737 -0.7841 -0.5684
 4085SOL     OW23713   2.449   4.103   1.138 -0.0763 -0.0724 -0.1161
 4085SOL    HW123714   2.531   4.152   1.135  0.2021 -0.5560 -0.5221
 4085SOL    HW223715   2.489   4.024   1.175 -0.8776  0.9605  2.9881
 4086SOL     OW23716   2.338   2.234   3.432 -0.2966  0.8239  0.0546
 4086SOL    HW123717   2.366   2.270   3.517 -0.5697 -0.0392  0.5113
 4086SOL    HW223718   2.369   2.298   3.369 -1.5183  0.1264 -1.2424
 4087SOL     OW23719   0.948   2.422  13.162  0.2995  0.5170 -0.5016
 4087SOL    HW123720   0.985   2.492  13.108  1.4854  0.7195  0.5602
 4087SOL    HW223721   0.859   2.456  13.173  0.3704  0.3158  0.7041
 4088SOL     OW23722   2.011   0.560   4.737 -0.4804 -0.0667  0.8894
 4088SOL    HW123723   2.056   0.515   4.808 -0.5010 -0.5518  0.5995
 4088SOL    HW223724   1.930   0.510   4.730 -0.5794  0.2132 -0.0755
 4089SOL     OW23725   1.325   3.221   7.369  0.1115 -0.1287  0.8405
 4089SOL    HW123726   1.416   3.214   7.338  1.0769  0.3306  3.6331
 4089SOL    HW223727   1.289   3.138   7.336 -2.1773  0.9471  0.6814
 4090SOL     OW23728   4.439   3.094   3.216 -0.3709 -0.4538 -0.0642
 4090SOL    HW123729   4.376   3.154   3.255  0.1407 -0.2073  0.3721
 4090SOL    HW223730   4.398   3.009   3.231  1.3515 -1.6250 -1.8840
 4091SOL     OW23731   1.973   2.975   8.628  0.0678 -0.2826 -0.1020
 4091SOL    HW123732   2.009   2.915   8.693  0.4646 -0.4225 -0.4525
 4091SOL    HW223733   2.053   2.986   8.577 -0.4480 -0.5745 -0.9797
 4092SOL     OW23734   1.423   3.246   5.048 -0.4660 -0.3789  0.2469
 4092SOL    HW123735   1.503   3.265   5.096 -1.2057 -1.1131  1.8132
 4092SOL    HW223736   1.462   3.171   5.003 -4.8940 -0.4346 -3.5577
 4093SOL     OW23737   2.492   3.096   6.437  0.0646  0.0413 -0.0071
 4093SOL    HW123738   2.447   3.079   6.354 -0.8861 -0.8821  0.7013
 4093SOL    HW223739   2.419   3.065   6.491 -1.6193  0.3286 -2.1042
 4094SOL     OW23740   1.948   2.531  13.278 -0.1849  0.2859 -0.2116
 4094SOL    HW123741   2.008   2.461  13.302 -1.9731 -0.8489  0.9218
 4094SOL    HW223742   1.924   2.515  13.187  2.0285  0.4331 -0.8262
 4095SOL     OW23743   1.535   0.070   7.369 -0.3997 -0.2607  0.7966
 4095SOL    HW123744   1.466   0.013   7.403 -1.5124 -0.1784 -1.3592
 4095SOL    HW223745   1.605   0.037   7.426  0.1911 -0.8986 -0.2989
 4096SOL     OW23746   0.068   4.464   8.626 -0.1668  0.5235  0.2329
 4096SOL    HW123747   0.152   4.468   8.672  0.5141 -2.6239 -0.7037
 4096SOL    HW223748   0.011   4.470   8.703 -0.5061  1.7531 -0.1222
 4097SOL     OW23749   0.430   4.459  10.031  0.1815 -0.1040 -0.4402
 4097SOL    HW123750   0.467   4.383  10.076  2.2498  0.4937 -1.1311
 4097SOL    HW223751   0.429   4.436   9.938  1.5014 -0.9303 -0.2529
 4098SOL     OW23752   1.586   3.111   3.572  0.3436  0.1065 -0.1120
 4098SOL    HW123753   1.504   3.083   3.613  0.1419  0.7870 -0.0541
 4098SOL    HW223754   1.547   3.171   3.508 -0.5441  2.3545  2.5458
 4099SOL     OW23755   4.311   0.019  14.595  0.6060  0.4681  0.0563
 4099SOL    HW123756   4.373   0.082  14.559 -0.2338 -0.2823 -2.6957
 4099SOL    HW223757   4.339   4.664  14.553  0.7917 -0.4885  2.0274
 4100SOL     OW23758   3.171   4.545   2.491  0.4090  0.0169 -0.2385
 4100SOL    HW123759   3.087   4.576   2.524  0.3770  1.4889 -1.6961
 4100SOL    HW223760   3.159   4.573   2.400 -2.9361 -1.2213 -0.1556
 4101SOL     OW23761   4.487   2.800   5.140 -0.4309 -0.5893  0.2719
 4101SOL    HW123762   4.449   2.843   5.063 -0.1836 -0.7382  0.0636
 4101SOL    HW223763   4.538   2.871   5.177 -1.6788 -0.5824  1.9541
 4102SOL     OW23764   1.652   3.759   3.212 -0.3294 -0.3903  0.1765
 4102SOL    HW123765   1.747   3.749   3.212 -0.4944 -2.0358 -2.3455
 4102SOL    HW223766   1.634   3.743   3.119 -1.4105 -0.1280  0.3409
 4103SOL     OW23767   4.297   4.604   0.221  0.0100 -0.0137 -0.1946
 4103SOL    HW123768   4.255   4.588   0.136 -3.4311  1.4965  1.2301
 4103SOL    HW223769   4.391   4.592   0.206  0.0756 -1.9316  1.7768
 4104SOL     OW23770   1.636   3.800  14.964  0.1996  0.3037  0.4500
 4104SOL    HW123771   1.685   3.877  14.935  0.7208  0.2391  1.1305
 4104SOL    HW223772   1.705   3.738  14.990 -0.5912 -0.2320  1.2793
 4105SOL     OW23773   3.925   0.668   7.633  0.3272 -0.0030 -0.2821
 4105SOL    HW123774   3.883   0.599   7.685 -0.1239 -0.5610 -1.3940
 4105SOL    HW223775   3.999   0.684   7.692  2.9571  0.6332 -3.7702
 4106SOL     OW23776   2.774   4.385   8.341 -0.1240  0.6373 -0.0294
 4106SOL    HW123777   2.796   4.291   8.338 -1.5947  0.3291 -1.1444
 4106SOL    HW223778   2.693   4.390   8.392 -0.2528 -1.1894 -0.0430
 4107SOL     OW23779   2.263   2.574  16.290  0.0561  1.1433  0.1403
 4107SOL    HW123780   2.311   2.655  16.305  1.5845 -0.0199  1.5719
 4107SOL    HW223781   2.312   2.541  16.215 -0.5570  1.4612 -0.4012
 4108SOL     OW23782   2.747   2.545   4.295  0.2990 -0.2490 -0.0186
 4108SOL    HW123783   2.768   2.635   4.321 -0.8221  0.8500 -2.9200
 4108SOL    HW223784   2.835   2.510   4.278  1.4122  3.1193 -1.1909
 4109SOL     OW23785   3.822   2.852  13.839  0.7852  0.4735 -0.2245
 4109SOL    HW123786   3.802   2.915  13.769 -0.8896 -1.2697 -1.3153
 4109SOL    HW223787   3.740   2.843  13.887 -0.4450  3.1783 -1.7874
 4110SOL     OW23788   2.422   1.784   5.829 -0.0571 -0.1544 -0.2605
 4110SOL    HW123789   2.395   1.875   5.833  0.7263 -0.0330  2.2077
 4110SOL    HW223790   2.381   1.748   5.908  0.0625  0.1781 -0.0468
 4111SOL     OW23791   4.278   4.638   2.514  0.2668  0.4271  0.5963
 4111SOL    HW123792   4.294   4.547   2.490  3.0825  0.4723  2.2779
 4111SOL    HW223793   4.343   4.691   2.466 -0.5700 -0.8728 -1.9689
 4112SOL     OW23794   2.487   1.194  12.450  0.6882 -0.6979  0.3248
 4112SOL    HW123795   2.448   1.201  12.537  1.4715  0.8552  0.5552
 4112SOL    HW223796   2.410   1.190  12.394 -0.6511  0.5715  2.0817
 4113SOL     OW23797   2.895   0.078   4.294 -0.4638  0.6179 -0.2685
 4113SOL    HW123798   2.812   0.102   4.251 -1.5122 -1.6017  0.4737
 4113SOL    HW223799   2.895   4.709   4.303 -0.0547  0.5174 -1.2587
 4114SOL     OW23800   2.476   4.537  16.488  0.6476  0.0973  0.0715
 4114SOL    HW123801   2.564   4.504  16.465 -0.1885 -1.7623 -0.4392
 4114SOL    HW223802   2.503   4.611  16.543 -3.0660  0.3108  1.5562
 4115SOL     OW23803   4.498   0.796   0.885  0.2525  0.0529 -0.1329
 4115SOL    HW123804   4.502   0.700   0.881 -1.1846  0.1674 -4.2402
 4115SOL    HW223805   4.417   0.814   0.932 -0.7531 -2.7008 -0.8351
 4116SOL     OW23806   2.657   0.082   8.033  0.5597 -0.6092  0.2736
 4116SOL    HW123807   2.614   4.725   8.053  0.1465 -0.6361 -0.7166
 4116SOL    HW223808   2.642   0.121   8.119  0.2449 -0.3518  0.1031
 4117SOL     OW23809   3.976   1.911  14.643 -0.1916  0.5694 -0.5086
 4117SOL    HW123810   4.066   1.903  14.674 -0.2014  0.5450 -0.4860
 4117SOL    HW223811   3.986   1.848  14.571 -0.3037  2.1896 -1.9455
 4118SOL     OW23812   0.881   1.821   5.996 -0.2709 -0.5334  0.2788
 4118SOL    HW123813   0.891   1.915   5.981  1.3931 -0.7896 -0.2298
 4118SOL    HW223814   0.906   1.787   5.910  0.0560 -2.6021  1.2067
 4119SOL     OW23815   2.585   0.290   9.417 -0.0312 -0.3538 -0.1768
 4119SOL    HW123816   2.554   0.323   9.333 -2.7052  0.1500  1.0044
 4119SOL    HW223817   2.680   0.283   9.408 -0.3002 -2.1700 -1.6147
 4120SOL     OW23818   3.905   1.410   3.338  0.9526 -0.2789  0.1664
 4120SOL    HW123819   3.989   1.370   3.318  1.1578 -0.4493  1.4226
 4120SOL    HW223820   3.919   1.504   3.350  0.1640 -0.0641 -0.5474
 4121SOL     OW23821   3.693   1.877   4.088 -1.1500 -0.3348 -0.4805
 4121SOL    HW123822   3.787   1.861   4.090 -0.8332  1.5867  0.9401
 4121SOL    HW223823   3.696   1.967   4.121 -1.3411 -0.7197  0.6067
 4122SOL     OW23824   0.809   3.881  16.979  0.1327  0.3414  0.7017
 4122SOL    HW123825   0.718   3.865  16.955 -0.5774  1.9717  2.3147
 4122SOL    HW223826   0.809   3.871  17.075  2.6692  0.2992  0.6946
 4123SOL     OW23827   1.959   4.672   5.269  0.2011  0.2059 -0.0939
 4123SOL    HW123828   1.974   4.677   5.175 -1.5691  0.8583 -0.3457
 4123SOL    HW223829   1.881   0.001   5.275  0.4104  0.3939  0.9756
 4124SOL     OW23830   2.888   4.118   2.619 -0.0902 -0.2642  0.3657
 4124SOL    HW123831   2.924   4.041   2.574 -1.3219  1.0151 -2.7153
 4124SOL    HW223832   2.953   4.185   2.599 -0.6824 -0.0850 -0.9374
 4125SOL     OW23833   1.009   4.510   7.384  0.3852  0.7195 -0.5120
 4125SOL    HW123834   0.943   4.488   7.450  0.2586  0.1179 -0.8406
 4125SOL    HW223835   1.014   4.424   7.344 -2.7483  0.6552 -0.7617
 4126SOL     OW23836   1.948   1.746   2.210 -0.2145 -0.2232  0.4409
 4126SOL    HW123837   1.893   1.744   2.132 -0.4927  1.8055  0.5952
 4126SOL    HW223838   2.037   1.725   2.181 -0.2720 -0.1635  0.2137
 4127SOL     OW23839   4.267   0.736  13.846  0.1804 -0.5245 -0.0324
 4127SOL    HW123840   4.230   0.661  13.799 -1.8190  1.8342 -2.2045
 4127SOL    HW223841   4.352   0.700  13.873 -0.0047  0.2711  1.5729
 4128SOL     OW23842   3.137   4.336  16.337 -0.0133  0.3222  0.1671
 4128SOL    HW123843   3.161   4.349  16.246  0.6216 -0.8301  0.1615
 4128SOL    HW223844   3.072   4.265  16.337  0.5107 -0.1484 -1.4796
 4129SOL     OW23845   0.830   1.625   9.950 -0.2493  0.3948 -0.5470
 4129SOL    HW123846   0.878   1.561   9.898 -0.8980  1.4541 -2.4510
 4129SOL    HW223847   0.897   1.656  10.010 -0.1956 -1.8547  0.5433
 4130SOL     OW23848   0.685   3.298   8.866  0.3008  0.2704 -0.2681
 4130SOL    HW123849   0.736   3.327   8.942 -0.2392 -0.2538  0.2989
 4130SOL    HW223850   0.655   3.212   8.896 -1.6377  0.5657 -1.3466
 4131SOL     OW23851   3.983   3.737  14.208  0.1313 -0.0823  0.3190
 4131SOL    HW123852   3.914   3.776  14.154 -0.9484 -1.2913  0.7954
 4131SOL    HW223853   3.930   3.694  14.276 -0.2233  0.5513  0.4420
 4132SOL     OW23854   4.398   3.458   0.456 -0.7035 -0.2489  0.1359
 4132SOL    HW123855   4.353   3.471   0.372 -1.8424  2.3329  1.1607
 4132SOL    HW223856   4.326   3.454   0.519 -0.1528  0.0289  0.7736
 4133SOL     OW23857   0.833   2.395   3.356 -0.1506 -0.3234  0.3342
 4133SOL    HW123858   0.847   2.301   3.340  1.3642 -0.2269  1.0845
 4133SOL    HW223859   0.777   2.389   3.433  0.3469  1.5083  0.8281
 4134SOL     OW23860   0.078   2.321   1.325  0.3670 -0.1569 -0.2617
 4134SOL    HW123861   0.071   2.314   1.230  0.3165 -0.0495 -0.2662
 4134SOL    HW223862   0.173   2.322   1.333  0.4197  0.1830 -0.9503
 4135SOL     OW23863   2.855   3.207   2.006 -0.3452  0.2456  0.0034
 4135SOL    HW123864   2.858   3.274   2.075 -0.0029  1.3197 -1.0585
 4135SOL    HW223865   2.799   3.143   2.048  2.6530 -0.5739  2.7697
 4136SOL     OW23866   4.178   2.459   5.563 -0.1684  0.2209  0.3242
 4136SOL    HW123867   4.238   2.392   5.532 -1.0522 -1.0227  1.3098
 4136SOL    HW223868   4.097   2.442   5.514  0.2074 -1.5400  0.3178
 4137SOL     OW23869   1.796   2.131  16.303  0.9918 -0.0301 -0.7616
 4137SOL    HW123870   1.889   2.148  16.319  0.9940 -0.1654 -0.6283
 4137SOL    HW223871   1.807   2.086  16.219  1.1999 -1.5233  0.0770
 4138SOL     OW23872   3.751   2.313   8.185  0.0254 -0.2745  0.2283
 4138SOL    HW123873   3.826   2.284   8.133  1.0319  1.9664  0.4419
 4138SOL    HW223874   3.788   2.299   8.272 -1.5458  2.4222  1.3339
 4139SOL     OW23875   3.623   2.933   2.367 -0.1547 -0.5064 -0.4262
 4139SOL    HW123876   3.584   2.922   2.280 -0.9029 -2.7100  0.1891
 4139SOL    HW223877   3.716   2.928   2.344 -0.6538 -2.0946 -2.0761
 4140SOL     OW23878   3.254   2.320   3.961  0.0898 -0.0059 -0.2618
 4140SOL    HW123879   3.236   2.275   3.878 -0.1382  0.2447 -0.3507
 4140SOL    HW223880   3.257   2.256   4.031 -0.7309 -0.7518 -0.9193
 4141SOL     OW23881   0.758   2.448  16.314  0.4827  0.4115 -0.1585
 4141SOL    HW123882   0.735   2.537  16.341 -0.4350  0.1361 -0.0493
 4141SOL    HW223883   0.681   2.419  16.265 -0.5172  0.5298  1.3743
 4142SOL     OW23884   4.186   0.954   1.400  0.6962  0.1760  0.0195
 4142SOL    HW123885   4.160   0.974   1.310  2.0308  0.6144 -0.2811
 4142SOL    HW223886   4.109   0.989   1.444  2.2222  0.2890  2.6492
 4143SOL     OW23887   0.447   2.011   6.165  0.2879  0.1575 -0.2870
 4143SOL    HW123888   0.458   1.927   6.121  0.8100 -1.5607  3.1507
 4143SOL    HW223889   0.402   1.985   6.246 -0.0231 -1.1116 -0.8703
 4144SOL     OW23890   4.697   0.924   3.310  0.5795 -0.0918  0.1395
 4144SOL    HW123891   4.655   0.848   3.270  2.6101 -0.1276 -1.9407
 4144SOL    HW223892   0.060   0.921   3.276  0.1494 -0.8113 -0.9074
 4145SOL     OW23893   3.628   1.666  12.447 -0.8328 -0.0999  0.0125
 4145SOL    HW123894   3.682   1.615  12.386  0.3699  0.2088  0.8114
 4145SOL    HW223895   3.600   1.614  12.522 -0.9109  0.0105  0.0596
 4146SOL     OW23896   3.020   4.413   5.719  0.0788  0.1643 -0.0000
 4146SOL    HW123897   3.085   4.458   5.773 -1.0583  1.3546  0.3851
 4146SOL    HW223898   3.050   4.323   5.733  0.2777  0.2716  0.2687
 4147SOL     OW23899   0.416   4.274  10.815 -0.9798 -0.4974 -0.0942
 4147SOL    HW123900   0.354   4.223  10.763  0.3478 -0.8426 -1.3620
 4147SOL    HW223901   0.424   4.217  10.891  1.2610  2.3930  1.8195
 4148SOL     OW23902   3.646   4.013  15.935 -0.3472  0.7941  0.6509
 4148SOL    HW123903   3.624   4.072  15.864 -0.5254  0.1413  0.1669
 4148SOL    HW223904   3.592   3.938  15.911  0.3657  0.3794  0.3277
 4149SOL     OW23905   3.660   0.885   6.295 -0.1675  0.0569 -0.0681
 4149SOL    HW123906   3.641   0.844   6.379  0.3279  2.0326  1.0146
 4149SOL    HW223907   3.756   0.884   6.299 -0.1619 -0.5486 -0.4762
 4150SOL     OW23908   1.237   0.883   6.705 -0.7063  0.8566 -0.1571
 4150SOL    HW123909   1.276   0.815   6.651 -0.0846  1.1411 -0.0613
 4150SOL    HW223910   1.296   0.873   6.780  0.9061  0.8863 -1.4450
 4151SOL     OW23911   2.938   2.042   0.674 -0.0563 -1.0057 -0.0793
 4151SOL    HW123912   3.003   2.015   0.739  0.1338 -1.5890 -0.5120
 4151SOL    HW223913   2.879   1.967   0.681 -1.6309  0.1929 -0.9200
 4152SOL     OW23914   2.946   3.232   0.142 -0.4236  0.5116  0.0507
 4152SOL    HW123915   2.862   3.187   0.141 -1.3834  2.3057 -1.0825
 4152SOL    HW223916   2.981   3.201   0.226  2.1406  0.4105 -1.0398
 4153SOL     OW23917   4.458   1.134   9.366  0.4942 -0.2096 -0.0869
 4153SOL    HW123918   4.493   1.139   9.455  1.6810 -0.0614 -0.5623
 4153SOL    HW223919   4.369   1.100   9.374  0.3881  0.2110  0.5277
 4154SOL     OW23920   0.209   1.057  13.904 -0.1730  0.2127 -0.2041
 4154SOL    HW123921   0.302   1.040  13.922 -0.5103  0.7853  2.0022
 4154SOL    HW223922   0.172   1.046  13.991 -1.2633 -0.5285 -0.7608
 4155SOL     OW23923   2.000   2.462   2.541  0.0618 -0.1542 -0.1546
 4155SOL    HW123924   2.010   2.547   2.498  0.3393  1.4309  2.9571
 4155SOL    HW223925   1.946   2.410   2.482  1.3945 -0.3632 -1.1931
 4156SOL     OW23926   0.190   0.754   7.391 -0.2655 -0.7986  0.4102
 4156SOL    HW123927   0.136   0.729   7.316 -0.1386 -0.6330  0.2650
 4156SOL    HW223928   0.194   0.849   7.382  0.3922 -0.8148  0.5192
 4157SOL     OW23929   3.635   4.383   6.532  0.3533  0.4501  0.3127
 4157SOL    HW123930   3.560   4.413   6.481  0.6635 -0.2390 -0.5431
 4157SOL    HW223931   3.707   4.385   6.470 -0.3981  1.5378 -0.5221
 4158SOL     OW23932   3.773   1.039   5.683 -0.4371 -0.2722  0.1804
 4158SOL    HW123933   3.743   0.947   5.683  0.6213 -0.6182  1.8591
 4158SOL    HW223934   3.794   1.055   5.775  1.4745 -1.6161 -0.0172
 4159SOL     OW23935   2.943   1.781  17.061 -0.0075 -0.0245 -0.1100
 4159SOL    HW123936   3.028   1.822  17.044 -0.3572  0.5829 -0.3843
 4159SOL    HW223937   2.968   1.689  17.070 -0.1583 -0.2964 -2.3006
 4160SOL     OW23938   1.350   0.777   2.321 -0.9891 -0.4584 -0.0182
 4160SOL    HW123939   1.393   0.854   2.357 -1.6936 -0.7670  1.4915
 4160SOL    HW223940   1.284   0.760   2.388  0.7420  0.3794  1.8840
 4161SOL     OW23941   0.484   2.900  16.276  0.0869 -0.2361  0.0103
 4161SOL    HW123942   0.395   2.919  16.247  0.0868  0.9771  0.7861
 4161SOL    HW223943   0.527   2.938  16.199  1.2009 -0.6928  0.4111
 4162SOL     OW23944   2.723   2.423   7.761 -0.2249 -0.6155  0.1769
 4162SOL    HW123945   2.714   2.483   7.836 -0.0695 -2.0093  1.3137
 4162SOL    HW223946   2.642   2.412   7.712 -1.1107  0.7176  1.3217
 4163SOL     OW23947   0.083   2.242   7.519 -0.4525 -0.7600 -0.1308
 4163SOL    HW123948   0.174   2.215   7.507  0.5945  1.6549  2.3984
 4163SOL    HW223949   0.091   2.317   7.578 -0.4471  1.2515 -2.6660
 4164SOL     OW23950   4.531   2.541  16.043  0.4143 -0.3702  0.1113
 4164SOL    HW123951   4.445   2.497  16.039 -0.5769  1.5644  0.0619
 4164SOL    HW223952   4.513   2.592  15.965 -0.9830 -0.3849  0.4042
 4165SOL     OW23953   4.648   2.173   0.349 -0.2735  0.6374 -0.4391
 4165SOL    HW123954   4.688   2.257   0.368 -2.0986  1.4929 -0.3847
 4165SOL    HW223955   4.554   2.185   0.364 -0.3114 -0.0369 -0.1267
 4166SOL     OW23956   1.338   3.068   3.906  0.6251  0.0598 -0.2586
 4166SOL    HW123957   1.313   3.103   3.821 -0.9103  1.6530  0.8305
 4166SOL    HW223958   1.292   3.128   3.965  0.1042  0.6170 -1.2370
 4167SOL     OW23959   4.724   0.355   2.937 -0.1127 -0.6236 -0.8578
 4167SOL    HW123960   0.034   0.407   2.865  3.0306 -1.7855 -0.1100
 4167SOL    HW223961   0.063   0.361   3.006 -0.0810  0.0556 -0.9502
 4168SOL     OW23962   2.632   4.681   3.024 -0.0609 -0.2402 -0.1960
 4168SOL    HW123963   2.684   4.668   3.104  0.0071  1.1851 -0.0026
 4168SOL    HW223964   2.613   4.592   2.993  1.0424 -0.3018 -0.6699
 4169SOL     OW23965   3.638   1.129  10.328 -0.1407 -0.1470  0.0199
 4169SOL    HW123966   3.662   1.042  10.296  1.6904 -0.3885  2.0018
 4169SOL    HW223967   3.545   1.142  10.310 -0.3610 -0.2709  1.0815
 4170SOL     OW23968   1.638   4.525   3.336 -0.1766 -0.3873 -0.1324
 4170SOL    HW123969   1.649   4.583   3.411 -1.4245  0.1978 -0.3902
 4170SOL    HW223970   1.650   4.589   3.266 -0.4526 -2.3565 -1.9879
 4171SOL     OW23971   1.791   3.400  16.711 -0.4068 -0.2456 -0.0731
 4171SOL    HW123972   1.805   3.354  16.629  0.7602  0.4588 -0.2608
 4171SOL    HW223973   1.776   3.483  16.667 -0.3070 -0.7466 -1.0517
 4172SOL     OW23974   1.810   2.713  11.540 -0.5250  0.1665 -0.1166
 4172SOL    HW123975   1.829   2.619  11.534 -0.2597  0.4018 -2.6669
 4172SOL    HW223976   1.803   2.728  11.635 -0.5335 -1.0907  0.0894
 4173SOL     OW23977   0.311   4.688   2.708 -0.6771  0.5513 -0.0688
 4173SOL    HW123978   0.295   0.032   2.771  2.4572  0.4775  0.7928
 4173SOL    HW223979   0.220   4.657   2.702 -1.2260  2.4586 -1.7615
 4174SOL     OW23980   3.027   0.741   5.373 -0.3949 -0.4163  0.5467
 4174SOL    HW123981   3.064   0.787   5.449 -0.8515  0.3455  0.3100
 4174SOL    HW223982   3.095   0.678   5.348 -0.5569 -0.0839 -0.7245
 4175SOL     OW23983   2.154   2.399   4.653  0.0186 -0.5308 -0.9552
 4175SOL    HW123984   2.124   2.489   4.664  1.6697 -0.3297  1.7825
 4175SOL    HW223985   2.248   2.413   4.666 -0.6392  0.3994  2.7015
 4176SOL     OW23986   0.653   1.284   7.670  0.1482  0.1209  1.1379
 4176SOL    HW123987   0.588   1.219   7.698  1.1978 -0.9739  1.0543
 4176SOL    HW223988   0.693   1.298   7.755 -0.6026  0.4906  1.4264
 4177SOL     OW23989   1.557   1.125   5.411  0.3787  0.5132 -0.1489
 4177SOL    HW123990   1.513   1.205   5.383  1.7543  1.2510 -0.2236
 4177SOL    HW223991   1.567   1.088   5.323  0.9641 -0.5215  0.3521
 4178SOL     OW23992   0.479   0.555   7.820 -0.4002 -0.0351  0.0035
 4178SOL    HW123993   0.526   0.586   7.742  0.2278  0.9713  0.7862
 4178SOL    HW223994   0.417   0.497   7.777 -1.6757  1.9349 -0.8180
 4179SOL     OW23995   4.038   0.792  11.292 -0.4090 -0.0710 -0.0821
 4179SOL    HW123996   4.091   0.831  11.361 -0.9889 -1.5081  1.1931
 4179SOL    HW223997   4.101   0.740  11.242  1.4066  1.4523  0.6262
 4180SOL     OW23998   0.774   4.587   5.539 -0.0282  0.4499  0.8194
 4180SOL    HW123999   0.756   4.495   5.519  1.2027  0.5226 -0.6040
 4180SOL    HW224000   0.734   4.579   5.626  1.3417 -0.6981  1.3369
 4181SOL     OW24001   0.140   1.553  14.146  0.3927 -0.6023 -0.1756
 4181SOL    HW124002   0.055   1.543  14.104  0.5831 -1.6282 -0.3334
 4181SOL    HW224003   0.192   1.619  14.099  1.2855 -0.9319  0.3513
 4182SOL     OW24004   1.427   4.188   8.829 -0.1842  0.4573 -0.5433
 4182SOL    HW124005   1.413   4.182   8.734  3.8618  0.4842 -1.1316
 4182SOL    HW224006   1.513   4.230   8.835 -0.6141  1.2546  0.0731
 4183SOL     OW24007   1.824   1.222  16.743  0.1029 -0.7625 -0.1158
 4183SOL    HW124008   1.835   1.147  16.685  1.4163  2.9579 -4.6480
 4183SOL    HW224009   1.740   1.193  16.779 -0.3112 -0.5164 -0.8728
 4184SOL     OW24010   2.530   0.422   6.637  0.0891  0.2199 -0.0999
 4184SOL    HW124011   2.488   0.438   6.553  2.0386  2.6562 -0.6181
 4184SOL    HW224012   2.473   0.353   6.671  0.6053 -0.8415 -1.4110
 4185SOL     OW24013   4.392   4.507   3.045  0.0455 -0.2167  0.2785
 4185SOL    HW124014   4.355   4.590   3.016 -1.6127 -1.3821 -0.9510
 4185SOL    HW224015   4.469   4.506   2.988 -0.8589  0.6054 -0.9515
 4186SOL     OW24016   1.559   4.691  13.364 -0.0958 -0.0859 -0.4701
 4186SOL    HW124017   1.489   0.022  13.394 -0.8331 -0.1308 -2.1408
 4186SOL    HW224018   1.598   4.655  13.444  2.1663 -0.4250 -1.7031
 4187SOL     OW24019   1.261   0.580   4.649 -0.2740 -0.1985  0.0612
 4187SOL    HW124020   1.272   0.669   4.616  1.4237 -0.1851  0.6653
 4187SOL    HW224021   1.165   0.573   4.649 -0.2744 -0.1400 -3.5679
 4188SOL     OW24022   0.340   0.490  17.668 -0.2877  0.2491 -0.2877
 4188SOL    HW124023   0.250   0.459  17.679 -0.1301 -0.7559 -1.7509
 4188SOL    HW224024   0.359   0.515   0.052 -0.2987  0.6342 -0.3922
 4189SOL     OW24025   4.228   1.561   0.327  0.0294 -0.1698  0.3671
 4189SOL    HW124026   4.214   1.479   0.375  1.3467  0.0008  1.0483
 4189SOL    HW224027   4.188   1.626   0.385  0.5942  1.1711 -0.7675
 4190SOL     OW24028   3.536   4.172  15.730  0.4642 -0.0182  0.3694
 4190SOL    HW124029   3.578   4.200  15.648 -0.8321  0.6714 -0.0685
 4190SOL    HW224030   3.461   4.232  15.733 -1.2139 -2.0017 -1.9151
 4191SOL     OW24031   0.196   3.342   8.877 -0.0119  0.8988 -0.0535
 4191SOL    HW124032   0.215   3.319   8.968 -0.5560  1.3707  0.1729
 4191SOL    HW224033   0.102   3.340   8.892 -0.1523  1.0330 -0.9252
 4192SOL     OW24034   1.091   4.562   3.191 -0.0277  0.0770 -0.2708
 4192SOL    HW124035   1.135   4.516   3.120 -2.0679 -1.9800 -0.1846
 4192SOL    HW224036   1.040   4.622   3.136 -3.1470 -0.6320  1.8377
 4193SOL     OW24037   0.036   2.777  14.551  0.6300  0.6111  0.2103
 4193SOL    HW124038   0.060   2.807  14.463 -0.1535  0.7803  0.0552
 4193SOL    HW224039   0.100   2.824  14.604 -1.0198  2.6699  0.3598
 4194SOL     OW24040   0.939   0.940   3.405  0.0943 -0.3432 -0.1564
 4194SOL    HW124041   0.990   0.990   3.341  1.5081  0.2783  1.4548
 4194SOL    HW224042   0.883   0.883   3.352  0.9390 -0.7903 -0.5615
 4195SOL     OW24043   2.305   3.717   8.649 -0.7161 -0.4038  0.2461
 4195SOL    HW124044   2.229   3.736   8.593  0.0921  2.7157  0.2262
 4195SOL    HW224045   2.313   3.796   8.701  0.3078  0.4999 -1.2771
 4196SOL     OW24046   3.926   2.734   5.289 -0.3369 -0.1452 -0.2167
 4196SOL    HW124047   3.983   2.693   5.353  1.6637  0.5410 -1.5800
 4196SOL    HW224048   3.955   2.825   5.286  2.9667 -1.1629  1.0160
 4197SOL     OW24049   0.711   2.690  11.925  0.7639 -0.4149 -0.1461
 4197SOL    HW124050   0.736   2.700  12.017  0.2086  1.1442 -0.1498
 4197SOL    HW224051   0.795   2.670  11.884  1.2230  0.8827  0.1570
 4198SOL     OW24052   4.285   2.969  17.051  0.3369  0.5716  0.0066
 4198SOL    HW124053   4.248   3.045  17.007 -0.8161 -0.2901 -0.5143
 4198SOL    HW224054   4.371   2.962  17.008  0.0277 -2.3257 -0.1728
 4199SOL     OW24055   3.453   1.558   1.671  0.4316 -0.0428  0.1279
 4199SOL    HW124056   3.518   1.498   1.636 -0.4276 -0.0072 -1.5362
 4199SOL    HW224057   3.420   1.504   1.742  0.2161  0.8826  0.7270
 4200SOL     OW24058   1.231   0.278   5.598  0.2463 -0.4309  0.1312
 4200SOL    HW124059   1.288   0.341   5.640  0.6229  0.7861 -2.1842
 4200SOL    HW224060   1.287   0.201   5.610  0.1279 -0.4420  0.5877
 4201SOL     OW24061   1.832   0.977   0.778 -0.0338 -0.0307 -0.0916
 4201SOL    HW124062   1.847   1.041   0.848 -0.3075  0.4059 -0.4330
 4201SOL    HW224063   1.794   0.913   0.839 -1.0165  0.7613  0.1239
 4202SOL     OW24064   1.558   3.436   8.631  0.1441  0.4117  0.1104
 4202SOL    HW124065   1.478   3.484   8.608  1.0962  1.3064 -1.3500
 4202SOL    HW224066   1.632   3.488   8.598  1.8304 -3.8279 -2.6748
 4203SOL     OW24067   0.240   0.761  10.666 -0.2017 -0.2227 -0.0934
 4203SOL    HW124068   0.292   0.808  10.600  0.7322 -1.2077 -0.0597
 4203SOL    HW224069   0.219   0.823  10.735 -1.6715 -0.5559 -0.2463
 4204SOL     OW24070   2.168   3.567   3.250 -0.2646 -0.2920  0.1792
 4204SOL    HW124071   2.197   3.611   3.329  0.7593  1.3711 -1.1213
 4204SOL    HW224072   2.243   3.514   3.223 -1.4398 -0.0978 -3.4927
 4205SOL     OW24073   4.153   4.141   7.456 -0.1134 -0.1848 -0.3784
 4205SOL    HW124074   4.200   4.221   7.432 -0.5723  0.7439  1.8268
 4205SOL    HW224075   4.199   4.111   7.534  0.7575  2.6424  0.2001
 4206SOL     OW24076   2.737   0.041   5.313  0.2565 -0.6049  0.5793
 4206SOL    HW124077   2.704   0.113   5.259 -0.4940 -0.4628  1.2430
 4206SOL    HW224078   2.830   0.038   5.287 -0.7822 -0.8263 -3.0622
 4207SOL     OW24079   1.916   0.659   2.754  0.0777 -0.2638  0.4711
 4207SOL    HW124080   1.876   0.660   2.667  0.0435 -0.6416  0.4845
 4207SOL    HW224081   1.997   0.709   2.750 -1.4967  2.3333  0.9750
 4208SOL     OW24082   0.130   2.401   8.474 -0.1382 -0.5585 -0.5420
 4208SOL    HW124083   0.110   2.489   8.442 -0.1185  0.3086  1.7945
 4208SOL    HW224084   0.050   2.369   8.516 -1.1199  0.1015 -1.9146
 4209SOL     OW24085   1.524   3.448   2.179 -0.4426  0.0919  0.6177
 4209SOL    HW124086   1.455   3.420   2.119 -0.3190  0.1600  0.4433
 4209SOL    HW224087   1.560   3.364   2.208  0.0266  0.2895  0.6060
 4210SOL     OW24088   3.904   0.183  14.419 -0.3219  0.4248 -0.1976
 4210SOL    HW124089   3.850   0.260  14.435 -1.9757 -1.2074  1.9860
 4210SOL    HW224090   3.849   0.124  14.369 -0.6593  2.3974 -2.1573
 4211SOL     OW24091   2.718   0.600   4.627 -0.1397 -0.0916  0.0450
 4211SOL    HW124092   2.765   0.666   4.577 -0.3854  0.7515  0.9291
 4211SOL    HW224093   2.760   0.621   4.710 -0.6382  0.8956  0.0429
 4212SOL     OW24094   3.046   0.476   4.994 -0.4815  0.3806  0.6129
 4212SOL    HW124095   2.992   0.402   5.021  1.6024 -1.4789 -0.3390
 4212SOL    HW224096   3.128   0.439   5.026  0.1495  0.8516 -0.4543
 4213SOL     OW24097   2.041   1.833   0.992  0.3048  0.2573 -0.0152
 4213SOL    HW124098   2.032   1.803   0.902 -0.4918  1.8065 -0.4492
 4213SOL    HW224099   2.032   1.927   0.978  1.2110  0.4359  0.6233
 4214SOL     OW24100   3.526   2.167   2.518 -0.2267 -0.3000  0.1686
 4214SOL    HW124101   3.515   2.242   2.577 -1.3670  0.8657 -1.5333
 4214SOL    HW224102   3.569   2.208   2.443  0.0701  0.3357  0.6920
 4215SOL     OW24103   3.890   3.262  15.725 -0.3630  0.4368 -0.2821
 4215SOL    HW124104   3.975   3.256  15.682  0.2172  0.4050  0.8614
 4215SOL    HW224105   3.857   3.344  15.689 -1.3099  0.0999 -0.1810
 4216SOL     OW24106   4.314   4.494  14.742 -0.6327  0.4086  0.1865
 4216SOL    HW124107   4.404   4.461  14.736 -1.1853 -0.6142 -2.8377
 4216SOL    HW224108   4.314   4.510  14.836 -1.5866  1.8023 -0.0502
 4217SOL     OW24109   2.595   1.088   2.622 -0.1883  0.4450 -0.5485
 4217SOL    HW124110   2.659   1.135   2.675 -0.5868  1.3664 -0.8844
 4217SOL    HW224111   2.581   1.011   2.676  0.7726  0.3760 -0.3915
 4218SOL     OW24112   3.317   2.292  10.307 -0.0739 -0.1538  0.2284
 4218SOL    HW124113   3.355   2.370  10.265  1.0048  0.5195  2.4777
 4218SOL    HW224114   3.225   2.299  10.280 -0.4328  3.0058  2.3327
 4219SOL     OW24115   2.205   3.601   9.096 -0.1706  0.3342 -0.0092
 4219SOL    HW124116   2.222   3.585   9.189 -1.8918 -0.8556  0.0963
 4219SOL    HW224117   2.291   3.601   9.054 -1.0452 -0.1428 -1.7884
 4220SOL     OW24118   1.073   2.352  14.008 -0.1282  0.3914  0.0474
 4220SOL    HW124119   1.081   2.265  14.047 -1.3831 -0.1641 -0.9576
 4220SOL    HW224120   0.984   2.345  13.974 -0.1919 -0.0465  0.3045
 4221SOL     OW24121   3.014   2.914   2.030  1.0385  0.0082 -0.2153
 4221SOL    HW124122   2.946   2.846   2.030 -1.2099  2.2652 -1.2394
 4221SOL    HW224123   3.086   2.864   2.070  0.3556  0.1541  1.2043
 4222SOL     OW24124   0.017   1.026   7.100  0.0356  0.5225 -0.5577
 4222SOL    HW124125   0.052   0.948   7.057  0.2442  0.2134  0.1725
 4222SOL    HW224126   0.064   1.094   7.051  0.7118  0.4417 -0.0247
 4223SOL     OW24127   1.778   3.101   7.550 -0.7549 -0.3043 -0.6277
 4223SOL    HW124128   1.810   3.189   7.569 -1.8212 -0.0214 -0.1614
 4223SOL    HW224129   1.699   3.105   7.603 -1.1814  0.3694 -1.3067
 4224SOL     OW24130   3.013   3.605  16.327 -0.2699  0.7486  0.4484
 4224SOL    HW124131   3.066   3.590  16.249  0.1899  1.6512  0.5884
 4224SOL    HW224132   3.036   3.695  16.348  0.0677 -0.1709  3.8814
 4225SOL     OW24133   4.579   0.062   0.576 -0.6738  0.3833 -0.0110
 4225SOL    HW124134   4.579   0.151   0.610 -0.5181 -0.1556  1.3767
 4225SOL    HW224135   4.505   0.069   0.515  0.3990  1.4189 -1.2005
 4226SOL     OW24136   4.208   2.492   4.536 -0.7508  0.1267  0.5688
 4226SOL    HW124137   4.207   2.553   4.610 -3.3930  0.5840  0.1490
 4226SOL    HW224138   4.118   2.462   4.523 -1.3778  2.7395 -1.0630
 4227SOL     OW24139   2.039   3.904   3.176  0.0196  0.2010  0.3681
 4227SOL    HW124140   2.116   3.877   3.126 -2.1371 -0.7937 -2.4250
 4227SOL    HW224141   1.972   3.859   3.125 -1.2800  1.0352  1.3566
 4228SOL     OW24142   1.255   1.930   5.347 -0.3938  0.4157 -0.8900
 4228SOL    HW124143   1.226   1.839   5.352 -1.2729  0.7013 -0.5938
 4228SOL    HW224144   1.349   1.922   5.360 -0.7899  0.2594  2.0109
 4229SOL     OW24145   1.763   1.142   0.974  0.2554 -0.4093  0.0724
 4229SOL    HW124146   1.742   1.146   1.067  2.8230  1.3453  0.5905
 4229SOL    HW224147   1.687   1.177   0.926  0.2258 -0.1395  0.3136
 4230SOL     OW24148   4.381   4.277   0.956  0.0848 -0.2098 -0.1256
 4230SOL    HW124149   4.377   4.291   0.861 -0.8340 -1.1159 -0.2164
 4230SOL    HW224150   4.315   4.213   0.979  1.0268 -1.1015  0.0829
 4231SOL     OW24151   2.819   2.055   5.625 -0.4351 -0.3842 -0.0579
 4231SOL    HW124152   2.806   2.036   5.718  1.1436 -0.3881  0.1728
 4231SOL    HW224153   2.913   2.072   5.622 -0.3824 -0.9161 -1.2131
 4232SOL     OW24154   4.603   3.308   4.198  0.6156 -0.1530  0.0921
 4232SOL    HW124155   4.621   3.363   4.274 -0.7483  0.2112  0.1462
 4232SOL    HW224156   4.509   3.319   4.186  0.9935  1.3500 -1.5326
 4233SOL     OW24157   2.910   1.670   3.007  0.5484 -0.8656 -0.5419
 4233SOL    HW124158   2.904   1.651   3.101  0.9404 -0.0591 -0.3542
 4233SOL    HW224159   2.975   1.602   2.985 -0.3247 -1.8140 -0.2057
 4234SOL     OW24160   0.980   2.467   2.320 -0.1691  0.3884  0.4901
 4234SOL    HW124161   0.930   2.511   2.251  0.4440 -0.5177 -0.5417
 4234SOL    HW224162   0.919   2.405   2.360  1.1371  0.0564  1.9831
 4235SOL     OW24163   1.801   1.713   1.982  0.0056  0.1160 -0.0714
 4235SOL    HW124164   1.878   1.707   1.926 -0.0266  0.8763 -0.2046
 4235SOL    HW224165   1.771   1.622   1.978  2.1655 -0.6023  0.6094
 4236SOL     OW24166   4.292   0.099   7.136 -0.3782  0.3301 -0.3142
 4236SOL    HW124167   4.226   0.111   7.204  0.2846 -0.8399  0.5349
 4236SOL    HW224168   4.334   0.017   7.163 -1.7043 -1.4996 -3.9125
 4237SOL     OW24169   4.302   3.051   5.594  0.0952 -0.6494  0.1391
 4237SOL    HW124170   4.209   3.048   5.613 -0.0457  0.5908 -0.4144
 4237SOL    HW224171   4.331   2.972   5.641 -2.8024 -0.7587  1.7422
 4238SOL     OW24172   3.140   1.098   3.420  0.0581  0.3287 -0.0564
 4238SOL    HW124173   3.158   1.192   3.417  0.0037  0.3220 -0.5248
 4238SOL    HW224174   3.074   1.098   3.489 -1.4464  4.1403 -1.5007
 4239SOL     OW24175   1.636   1.188   9.153 -0.3185 -0.0254 -0.1238
 4239SOL    HW124176   1.659   1.245   9.080 -2.1932 -0.4552 -1.0477
 4239SOL    HW224177   1.544   1.213   9.165 -0.6579 -1.5199  0.4623
 4240SOL     OW24178   0.778   1.368   1.024 -0.2111  0.1313 -0.9260
 4240SOL    HW124179   0.843   1.323   1.076  1.0896  0.5648 -2.1691
 4240SOL    HW224180   0.793   1.446   1.077 -0.2084 -0.0659 -0.6380
 4241SOL     OW24181   0.809   3.838   8.474  0.2775 -0.5297  0.8027
 4241SOL    HW124182   0.866   3.767   8.444  0.4252  0.8485 -2.1852
 4241SOL    HW224183   0.834   3.909   8.415  0.8395 -0.1345  1.5166
 4242SOL     OW24184   4.274   2.266   6.210 -0.1093 -0.1707  0.0249
 4242SOL    HW124185   4.219   2.217   6.149  0.1524 -0.6561  0.1769
 4242SOL    HW224186   4.319   2.191   6.249  2.5720  1.3193 -0.1924
 4243SOL     OW24187   3.035   0.298  11.743  0.4307 -0.4851 -0.0238
 4243SOL    HW124188   3.088   0.289  11.822  2.8608  1.7636 -1.4186
 4243SOL    HW224189   3.084   0.239  11.686 -0.5655  0.8462 -2.2501
 4244SOL     OW24190   4.194   2.528   0.165 -0.5360  0.3248  0.1491
 4244SOL    HW124191   4.101   2.521   0.146 -0.8834 -0.8302  2.2751
 4244SOL    HW224192   4.209   2.596   0.099  1.8207 -0.1810  0.1402
 4245SOL     OW24193   4.270   0.298  17.189 -0.5398 -0.1327  0.2514
 4245SOL    HW124194   4.318   0.341  17.119 -1.5915  1.8317  0.7187
 4245SOL    HW224195   4.340   0.240  17.219  2.6797  2.5446 -2.0656
 4246SOL     OW24196   0.889   4.226   9.349 -0.0513  0.7343  0.3696
 4246SOL    HW124197   0.960   4.165   9.330  2.0144  2.4233  2.5468
 4246SOL    HW224198   0.808   4.177   9.330 -0.3212  0.4708  2.1090
 4247SOL     OW24199   0.483   4.191   2.190 -0.2126 -0.1067 -0.2448
 4247SOL    HW124200   0.473   4.216   2.098  1.5794 -2.0353 -0.9416
 4247SOL    HW224201   0.465   4.279   2.225  2.3814  0.2319  0.2748
 4248SOL     OW24202   1.139   2.946  11.061  0.7809 -0.4327  0.4395
 4248SOL    HW124203   1.171   3.000  11.133 -0.6012  0.4322  0.4018
 4248SOL    HW224204   1.097   2.875  11.110 -1.3992  0.8705  0.4604
 4249SOL     OW24205   4.194   0.735   4.769  0.4283  0.3103 -0.3019
 4249SOL    HW124206   4.214   0.682   4.692 -1.7084  1.3801 -1.6284
 4249SOL    HW224207   4.101   0.760   4.764 -0.6012 -3.7104 -1.8337
 4250SOL     OW24208   2.384   3.216   9.101 -0.7313 -0.4748 -0.0283
 4250SOL    HW124209   2.405   3.304   9.131 -4.0356  0.7587 -1.3696
 4250SOL    HW224210   2.431   3.158   9.161  0.0857  0.0972 -0.1224
 4251SOL     OW24211   1.543   2.911  17.358  0.7353 -0.8544  0.0368
 4251SOL    HW124212   1.625   2.861  17.365  0.1910 -1.7217  0.1339
 4251SOL    HW224213   1.544   2.967  17.436  1.3085  1.3456 -1.5448
 4252SOL     OW24214   0.327   2.485   4.451 -0.4444  0.0519  0.0039
 4252SOL    HW124215   0.251   2.542   4.442 -0.7975 -0.4603 -0.2657
 4252SOL    HW224216   0.282   2.404   4.474  2.1298 -1.9182 -1.8766
 4253SOL     OW24217   0.895   4.565  16.226 -0.1880  0.1068 -0.9583
 4253SOL    HW124218   0.841   4.527  16.296  0.5119 -1.0179 -1.0378
 4253SOL    HW224219   0.857   4.521  16.150  1.2306 -0.5171 -1.2972
 4254SOL     OW24220   1.914   4.008   7.327  0.8300 -0.4541 -0.2644
 4254SOL    HW124221   1.860   3.958   7.266 -1.5106  2.1828 -0.3690
 4254SOL    HW224222   1.862   4.089   7.327 -0.1171 -1.0574 -1.4904
 4255SOL     OW24223   1.880   4.122   2.968  0.2662 -0.5903 -0.1757
 4255SOL    HW124224   1.845   4.033   2.967 -0.1111 -0.4086 -2.4503
 4255SOL    HW224225   1.827   4.164   3.036 -0.3944 -0.5235 -0.7365
 4256SOL     OW24226   1.359   3.166   9.861 -0.4505 -0.1456 -0.3467
 4256SOL    HW124227   1.337   3.154   9.769 -0.0201 -1.8984 -0.2181
 4256SOL    HW224228   1.388   3.257   9.867  2.6791 -1.2955  2.1995
 4257SOL     OW24229   3.635   0.522   3.680 -0.0391  0.6334  0.0587
 4257SOL    HW124230   3.654   0.601   3.629  1.3854  0.7028  0.7140
 4257SOL    HW224231   3.636   0.452   3.616 -0.0045 -1.4154  2.2930
 4258SOL     OW24232   1.729   0.610   9.835  0.1930  0.0233 -0.0265
 4258SOL    HW124233   1.753   0.686   9.782 -0.0124 -1.0809 -1.6919
 4258SOL    HW224234   1.815   0.582   9.866  0.4804  1.4813  0.4656
 4259SOL     OW24235   3.109   0.588  14.108  0.0553  0.1306  0.3663
 4259SOL    HW124236   3.138   0.506  14.068  0.4118 -0.5144  1.9574
 4259SOL    HW224237   3.176   0.652  14.082  1.4160 -1.7990 -0.9397
 4260SOL     OW24238   2.620   0.484   2.096  0.2079 -0.2553 -0.8744
 4260SOL    HW124239   2.565   0.438   2.033  0.6067 -0.7112 -0.8885
 4260SOL    HW224240   2.629   0.563   2.043 -1.1605  0.8077  0.4474
 4261SOL     OW24241   2.850   0.725   5.588  0.2488  0.4238  0.2651
 4261SOL    HW124242   2.850   0.631   5.607 -1.7304 -0.2233 -2.9587
 4261SOL    HW224243   2.873   0.722   5.495 -0.9967  1.2271 -0.0636
 4262SOL     OW24244   2.375   4.269  14.420 -0.3745 -0.3447  0.0299
 4262SOL    HW124245   2.434   4.197  14.443 -1.5653 -1.4885 -0.4791
 4262SOL    HW224246   2.353   4.311  14.503  1.5580 -0.3056  0.5180
 4263SOL     OW24247   3.191   2.820   5.006 -0.0575 -0.0852 -0.3011
 4263SOL    HW124248   3.202   2.731   4.973 -1.3591 -1.6852  3.5195
 4263SOL    HW224249   3.190   2.805   5.101 -1.8134 -0.6514 -0.4098
 4264SOL     OW24250   4.589   1.615   4.925  0.2228 -0.3019 -0.7268
 4264SOL    HW124251   4.503   1.576   4.944 -0.9725  2.7502  0.2024
 4264SOL    HW224252   4.619   1.654   5.007 -0.3387  0.6901 -0.9900
 4265SOL     OW24253   1.014   2.656   6.377 -0.2715  0.1533 -0.2456
 4265SOL    HW124254   1.099   2.623   6.348  0.3671  0.1420  1.6340
 4265SOL    HW224255   1.024   2.747   6.349  1.6006 -0.1013 -0.4080
 4266SOL     OW24256   4.607   3.397   7.751 -0.1668  0.1170 -0.8250
 4266SOL    HW124257   4.630   3.489   7.741 -0.8478  0.1029 -2.6671
 4266SOL    HW224258   4.585   3.360   7.665 -1.1159 -1.9909  0.3258
 4267SOL     OW24259   2.269   3.400   4.301  0.2409  0.1620  0.3901
 4267SOL    HW124260   2.351   3.425   4.259  0.4230 -2.0638 -0.5248
 4267SOL    HW224261   2.224   3.485   4.300  1.8783  1.0087 -1.9208
 4268SOL     OW24262   1.281   1.545   2.550  0.5955  0.4281 -0.3491
 4268SOL    HW124263   1.295   1.535   2.456 -0.4929 -0.7283 -0.3772
 4268SOL    HW224264   1.237   1.465   2.577 -0.1534  0.1478 -2.3708
 4269SOL     OW24265   3.878   0.845   1.079 -0.1065  0.1291  0.0489
 4269SOL    HW124266   3.837   0.877   0.998 -0.2230 -0.3322 -0.0778
 4269SOL    HW224267   3.801   0.797   1.111  1.3221 -2.3250 -0.2692
 4270SOL     OW24268   0.087   0.733   1.169  0.0012 -0.2435 -0.4493
 4270SOL    HW124269   0.159   0.672   1.149 -0.8487 -0.6167 -2.4270
 4270SOL    HW224270   0.018   0.671   1.192 -0.4814 -0.7166 -3.1889
 4271SOL     OW24271   3.227   1.658   2.104 -0.1439 -0.4637  0.6776
 4271SOL    HW124272   3.209   1.751   2.090 -0.7343 -0.6355  0.2537
 4271SOL    HW224273   3.138   1.623   2.107 -1.0252  1.6372 -0.7327
 4272SOL     OW24274   2.620   1.392   4.137  0.3145 -0.0220  0.4483
 4272SOL    HW124275   2.712   1.394   4.163  0.4920 -0.4979 -0.1568
 4272SOL    HW224276   2.620   1.313   4.083  1.2873  1.1223 -1.2237
 4273SOL     OW24277   2.139   2.745   7.011 -0.1591  0.2989 -0.4768
 4273SOL    HW124278   2.188   2.826   7.029 -1.7338  1.1588 -0.0564
 4273SOL    HW224279   2.083   2.750   7.089  1.1880  0.5628  0.4874
 4274SOL     OW24280   4.560   2.606  13.122 -0.6140 -0.3031  0.3832
 4274SOL    HW124281   4.655   2.598  13.114 -0.7877 -0.3305 -1.6498
 4274SOL    HW224282   4.527   2.541  13.060  1.9269  0.9566 -2.2730
 4275SOL     OW24283   1.779   3.756   6.859 -0.3308  0.2817  0.3997
 4275SOL    HW124284   1.713   3.709   6.808  0.7198 -0.2834 -0.4591
 4275SOL    HW224285   1.819   3.808   6.788 -0.2491 -2.2453 -1.4241
 4276SOL     OW24286   0.615   2.824   6.246  0.0966 -0.3756  0.3034
 4276SOL    HW124287   0.599   2.918   6.255 -0.8829 -0.5251  0.1574
 4276SOL    HW224288   0.709   2.806   6.244 -0.2663 -1.9928 -1.5528
 4277SOL     OW24289   2.471   3.720   5.456  0.0573 -0.1245 -0.4125
 4277SOL    HW124290   2.566   3.734   5.465 -0.1077  0.1481  0.9085
 4277SOL    HW224291   2.447   3.665   5.530 -0.2883  1.3103  0.5398
 4278SOL     OW24292   1.715   2.447   6.604 -0.1506 -0.4119  0.6810
 4278SOL    HW124293   1.648   2.453   6.672 -1.8587  1.6393 -1.1857
 4278SOL    HW224294   1.693   2.518   6.543 -0.7758 -0.9792  0.2519
 4279SOL     OW24295   2.689   3.687   9.069  0.2086  0.1652 -0.2009
 4279SOL    HW124296   2.761   3.738   9.032 -1.3003  2.1722 -0.3744
 4279SOL    HW224297   2.727   3.662   9.153 -0.0475 -0.9165 -0.4150
 4280SOL     OW24298   1.402   0.900   6.005  0.5889 -0.5876  0.2233
 4280SOL    HW124299   1.350   0.974   6.035  0.6955 -0.4184 -0.0148
 4280SOL    HW224300   1.332   0.838   6.027 -0.8029 -0.2356 -3.2016
 4281SOL     OW24301   1.927   4.572   4.974  0.2067 -0.9267  0.1269
 4281SOL    HW124302   1.853   4.631   4.966  1.3167  0.3853 -0.4536
 4281SOL    HW224303   1.996   4.631   4.944  0.2012 -1.2470 -0.5054
 4282SOL     OW24304   2.466   4.651   4.072 -0.4885  0.6294 -0.4750
 4282SOL    HW124305   2.397   4.609   4.123 -1.1430 -0.1675 -2.0271
 4282SOL    HW224306   2.410   4.701   4.012  0.8952  2.5541 -0.1873
 4283SOL     OW24307   2.603   3.347   9.474  0.0336 -0.2492  0.7025
 4283SOL    HW124308   2.564   3.416   9.420  2.8985  0.6928 -0.2186
 4283SOL    HW224309   2.584   3.270   9.421 -1.2543  0.0379  0.7540
 4284SOL     OW24310   2.844   1.059   4.304 -0.0821 -0.5905 -0.4035
 4284SOL    HW124311   2.851   0.993   4.235 -0.8344 -1.6081  0.4998
 4284SOL    HW224312   2.829   1.010   4.384 -0.0575  0.1374  0.0426
 4285SOL     OW24313   4.093   3.694   7.215  0.7186 -0.3296  0.4081
 4285SOL    HW124314   4.042   3.669   7.138  0.1318  0.7539  0.4412
 4285SOL    HW224315   4.038   3.651   7.282  0.6182  0.8157  1.0653
 4286SOL     OW24316   2.656   3.472   5.614 -0.5153  0.5197 -0.7158
 4286SOL    HW124317   2.592   3.419   5.567 -0.3681  0.4066 -0.7852
 4286SOL    HW224318   2.634   3.467   5.707  0.5487  0.4668 -0.4663
 4287SOL     OW24319   2.698   2.435   3.201 -0.3904 -0.1716  0.3822
 4287SOL    HW124320   2.713   2.479   3.284 -1.1834  0.4877  0.1729
 4287SOL    HW224321   2.699   2.342   3.225 -1.2920 -0.5205 -0.9458
 4288SOL     OW24322   0.778   1.499  10.779  0.2952  0.0641 -0.3318
 4288SOL    HW124323   0.686   1.506  10.805  1.1754  3.0221  1.9290
 4288SOL    HW224324   0.796   1.574  10.722  2.0656 -0.6085 -0.6397
 4289SOL     OW24325   2.972   1.510  16.609 -0.2683 -0.3894 -0.3752
 4289SOL    HW124326   2.877   1.519  16.616  0.0267  0.7903  2.0046
 4289SOL    HW224327   3.005   1.510  16.699 -0.8836 -1.8614 -0.1498
 4290SOL     OW24328   1.617   4.469   2.754 -0.1139  0.0041  0.1624
 4290SOL    HW124329   1.559   4.425   2.817  0.4185 -2.1658 -0.8712
 4290SOL    HW224330   1.702   4.461   2.798  0.4416 -2.0428 -1.3184
 4291SOL     OW24331   1.416   2.316   1.529  0.2989 -0.0424 -0.1562
 4291SOL    HW124332   1.364   2.331   1.450  0.1376  0.4058  0.0345
 4291SOL    HW224333   1.376   2.235   1.560 -1.4772  0.5884 -0.8246
 4292SOL     OW24334   1.378   3.681   7.966  0.1432  0.1333 -0.4153
 4292SOL    HW124335   1.463   3.667   7.925  1.2133  2.3417  1.0986
 4292SOL    HW224336   1.389   3.637   8.050 -0.2181 -0.8090 -0.8588
 4293SOL     OW24337   3.044   1.911   3.264 -0.4166  0.6705  0.0017
 4293SOL    HW124338   3.039   1.858   3.185 -1.5423  1.2855 -0.3518
 4293SOL    HW224339   3.122   1.961   3.240  0.0011  0.5411  1.1035
 4294SOL     OW24340   3.278   4.529   6.870 -0.1773 -0.2212 -0.4018
 4294SOL    HW124341   3.367   4.494   6.864 -0.2194 -0.2324 -0.9182
 4294SOL    HW224342   3.233   4.453   6.833  0.2122 -1.7618  2.2705
 4295SOL     OW24343   2.499   4.345   2.322  0.3864  0.4021 -0.0772
 4295SOL    HW124344   2.440   4.286   2.370 -1.7845  2.0577 -0.7491
 4295SOL    HW224345   2.475   4.431   2.357 -0.7826 -1.0337  2.6950
 4296SOL     OW24346   3.435   3.787   3.311  0.1693 -0.1124 -0.2391
 4296SOL    HW124347   3.352   3.833   3.298 -0.7954 -1.6219  0.5140
 4296SOL    HW224348   3.430   3.784   3.407 -0.4733 -1.7079 -0.3308
 4297SOL     OW24349   4.147   2.097   4.090 -0.3632 -0.5823  0.7098
 4297SOL    HW124350   4.241   2.082   4.080 -0.6632 -2.4487  0.7410
 4297SOL    HW224351   4.143   2.156   4.166 -2.6595  2.5538 -1.8206
 4298SOL     OW24352   3.382   4.443   0.839 -0.0308  0.2746 -0.2182
 4298SOL    HW124353   3.394   4.535   0.865  3.3081 -0.1457 -0.2820
 4298SOL    HW224354   3.326   4.413   0.910 -0.4864  0.0273 -0.6775
 4299SOL     OW24355   3.280   2.475   8.850  0.1250 -0.0237 -0.6283
 4299SOL    HW124356   3.236   2.525   8.919 -0.0693 -0.7503 -0.2259
 4299SOL    HW224357   3.369   2.469   8.884  0.8042 -1.1643 -2.6247
 4300SOL     OW24358   2.348   1.083   9.160 -0.4194 -0.7251  0.5422
 4300SOL    HW124359   2.414   1.126   9.106 -1.9418 -0.2970 -0.9575
 4300SOL    HW224360   2.366   1.107   9.251  0.0654 -1.2500  0.5891
 4301SOL     OW24361   0.678   1.460  14.895  0.5164  0.2572  0.1209
 4301SOL    HW124362   0.599   1.438  14.944  1.5365  0.8915  2.0231
 4301SOL    HW224363   0.644   1.454  14.805 -0.3781 -1.3743  0.5720
 4302SOL     OW24364   4.648   1.673   2.589 -0.0256  0.1762  0.1161
 4302SOL    HW124365   4.682   1.745   2.642 -0.0198 -0.2116  0.6453
 4302SOL    HW224366   4.574   1.648   2.645 -1.3188 -1.5302 -2.3220
 4303SOL     OW24367   4.604   3.943   4.894  0.4137  0.2285  0.1672
 4303SOL    HW124368   4.699   3.939   4.905  0.4821 -0.1073 -0.5208
 4303SOL    HW224369   4.603   4.036   4.871  2.3231 -0.1527 -1.4651
 4304SOL     OW24370   2.988   4.003   3.279 -0.0162 -0.8659  0.2094
 4304SOL    HW124371   2.962   4.017   3.188 -2.0951  0.6501  1.0582
 4304SOL    HW224372   2.980   4.092   3.313 -0.5307 -1.4684  1.6501
 4305SOL     OW24373   1.117   3.679   2.302 -0.5245 -0.7694  0.2620
 4305SOL    HW124374   1.187   3.614   2.292  0.8522  0.5202  1.4369
 4305SOL    HW224375   1.114   3.722   2.217 -0.9653  0.9791  1.1564
 4306SOL     OW24376   2.506   0.674   4.880  0.1537  0.0022  0.1217
 4306SOL    HW124377   2.470   0.749   4.832  0.0103 -0.0670  0.1238
 4306SOL    HW224378   2.572   0.721   4.932  0.6225  1.4443 -1.7629
 4307SOL     OW24379   3.488   1.132   1.810 -0.6173 -0.3225 -0.0830
 4307SOL    HW124380   3.566   1.183   1.832  0.2942 -0.5189 -2.8225
 4307SOL    HW224381   3.428   1.205   1.795  0.0791  0.2126 -0.2643
 4308SOL     OW24382   0.203   3.862   3.408 -1.1541 -0.2857 -0.4503
 4308SOL    HW124383   0.214   3.825   3.320 -0.3592 -1.0528 -0.0341
 4308SOL    HW224384   0.115   3.897   3.393  0.1720  3.7086  1.2796
 4309SOL     OW24385   2.468   3.846   7.720  0.2034  0.1707 -0.5824
 4309SOL    HW124386   2.457   3.755   7.695  3.4918 -0.7800  1.4753
 4309SOL    HW224387   2.392   3.894   7.687 -1.9677 -1.6428  1.8139
 4310SOL     OW24388   4.328   2.047   1.510  0.1996  0.0457  0.2755
 4310SOL    HW124389   4.304   2.139   1.519  1.2109  0.4087 -0.7021
 4310SOL    HW224390   4.377   2.029   1.591 -0.8972  0.6322  1.0656
 4311SOL     OW24391   0.186   0.145   6.222 -0.4733  0.4619 -0.2324
 4311SOL    HW124392   0.144   0.064   6.193  0.0513  0.0705  0.0864
 4311SOL    HW224393   0.186   0.144   6.318 -1.6430 -1.1277 -0.2587
 4312SOL     OW24394   2.194   0.936   3.947 -0.0921 -0.3142 -0.1198
 4312SOL    HW124395   2.176   0.968   3.859  1.0868  3.2975  0.9531
 4312SOL    HW224396   2.104   0.918   3.973  0.6869 -3.6610  0.3018
 4313SOL     OW24397   2.178   2.441   2.237  0.4448  0.4120  0.2844
 4313SOL    HW124398   2.163   2.431   2.143  2.7148 -3.1879  0.3063
 4313SOL    HW224399   2.244   2.372   2.240  1.9814  1.8510 -0.1793
 4314SOL     OW24400   0.452   3.158   9.337 -0.0210 -0.4421  0.1792
 4314SOL    HW124401   0.437   3.074   9.294 -1.4889 -0.4243  0.6723
 4314SOL    HW224402   0.541   3.149   9.373  0.5182  0.9862 -0.7819
 4315SOL     OW24403   3.799   0.284   3.308  0.1031 -0.2558 -0.1990
 4315SOL    HW124404   3.852   0.348   3.261  1.7567 -1.5960 -0.1543
 4315SOL    HW224405   3.870   0.251   3.363 -0.3631 -0.7536  0.0989
 4316SOL     OW24406   0.451   4.171  17.238 -0.2495  0.1382 -0.1295
 4316SOL    HW124407   0.439   4.203  17.327 -2.4590 -2.2804  0.4371
 4316SOL    HW224408   0.364   4.159  17.201  0.4245  0.5557 -1.8623
 4317SOL     OW24409   1.302   4.482  15.963  0.2957  0.3634  0.3211
 4317SOL    HW124410   1.336   4.445  16.044  2.2444  1.8969  0.2080
 4317SOL    HW224411   1.387   4.491  15.920 -0.2455  3.5971 -0.0544
 4318SOL     OW24412   2.255   3.552  15.901 -0.0669  0.1093 -0.2957
 4318SOL    HW124413   2.246   3.600  15.984  0.2956 -0.0385 -0.1719
 4318SOL    HW224414   2.350   3.550  15.895 -0.1327 -0.0828 -1.3427
 4319SOL     OW24415   0.673   2.543  14.967  0.2046  0.3778 -0.2099
 4319SOL    HW124416   0.661   2.621  15.021  3.0123 -0.9240  2.3206
 4319SOL    HW224417   0.768   2.547  14.957 -0.0072  0.0109 -2.2876
 4320SOL     OW24418   0.949   3.915   9.081 -0.0191 -0.0980  0.3703
 4320SOL    HW124419   0.897   3.885   9.155 -1.3980  2.3867  0.4279
 4320SOL    HW224420   0.988   3.833   9.050 -0.5462 -0.0312 -0.4590
 4321SOL     OW24421   3.255   2.977   2.480  0.2176 -0.0812  0.3623
 4321SOL    HW124422   3.160   2.969   2.476  0.1012  1.1019  0.9920
 4321SOL    HW224423   3.281   2.926   2.557  1.2391 -0.5485 -0.2906
 4322SOL     OW24424   0.922   0.207  10.224  0.7983 -0.0490  0.1705
 4322SOL    HW124425   0.897   0.293  10.192 -3.4446 -1.4402 -0.3449
 4322SOL    HW224426   0.836   0.188  10.262  0.9198  0.8041  0.8834
 4323SOL     OW24427   3.716   1.431   5.959  0.0899  0.2595 -0.1310
 4323SOL    HW124428   3.804   1.468   5.965 -0.2130  0.6361  2.0719
 4323SOL    HW224429   3.665   1.506   5.990  1.9391  0.8072  1.5696
 4324SOL     OW24430   1.867   1.461   3.298 -0.3985  0.1978  0.1643
 4324SOL    HW124431   1.898   1.385   3.248  2.2191  1.8607 -0.7276
 4324SOL    HW224432   1.842   1.512   3.221  1.9169  1.0549 -0.0070
 4325SOL     OW24433   1.490   1.972  12.944  0.2282  0.2936 -0.3146
 4325SOL    HW124434   1.532   2.045  12.898  0.3001 -0.2011 -1.0351
 4325SOL    HW224435   1.444   2.024  13.009  0.8268  1.5371 -0.8713
 4326SOL     OW24436   2.946   2.999   2.434 -0.5512 -0.4843  0.3216
 4326SOL    HW124437   2.935   2.904   2.433  2.1826 -0.7332 -2.3428
 4326SOL    HW224438   2.861   3.040   2.451  0.4261  1.2316  1.1044
 4327SOL     OW24439   1.283   2.970  16.453  0.0495 -0.2066  0.1579
 4327SOL    HW124440   1.296   2.897  16.393 -2.7282  0.5884 -1.4295
 4327SOL    HW224441   1.318   3.046  16.406 -2.9017 -0.2949 -2.1881
 4328SOL     OW24442   3.986   3.767   1.114 -0.1549 -0.5608 -0.3114
 4328SOL    HW124443   4.028   3.805   1.037  1.5652  1.1813  1.4865
 4328SOL    HW224444   4.059   3.743   1.172 -0.1108  1.3351  0.4088
 4329SOL     OW24445   1.605   0.559   1.925 -0.1041 -0.3388  0.2552
 4329SOL    HW124446   1.579   0.493   1.989  0.6409 -0.8996 -0.0072
 4329SOL    HW224447   1.570   0.639   1.964 -0.6046 -1.7186  2.6177
 4330SOL     OW24448   1.506   4.458   9.480  0.0013 -0.1755 -0.1587
 4330SOL    HW124449   1.457   4.384   9.515  0.7063  0.2294  1.6702
 4330SOL    HW224450   1.446   4.533   9.477  0.5574  0.3702  2.0910
 4331SOL     OW24451   2.474   1.754   0.493 -0.1971 -0.2325  0.0808
 4331SOL    HW124452   2.548   1.693   0.481 -0.1884 -0.2478  0.2155
 4331SOL    HW224453   2.520   1.833   0.466 -2.3345  0.9452 -0.0945
 4332SOL     OW24454   0.970   4.659   3.439  0.4819 -0.1801  0.1270
 4332SOL    HW124455   1.042   4.641   3.379 -0.6682  0.4643 -1.4547
 4332SOL    HW224456   0.898   4.637   3.380  0.4307  1.1639 -0.3014
 4333SOL     OW24457   2.102   1.290  16.547 -0.1869  0.3741 -0.0036
 4333SOL    HW124458   2.078   1.367  16.599  0.9549 -1.0981  2.6711
 4333SOL    HW224459   2.038   1.295  16.476 -0.6596  2.1714  0.5354
 4334SOL     OW24460   0.898   2.715   2.874 -0.5973 -0.2634 -0.4817
 4334SOL    HW124461   0.842   2.647   2.912 -0.5995 -1.0108 -1.8173
 4334SOL    HW224462   0.980   2.682   2.911 -0.5025  0.5102 -0.0255
 4335SOL     OW24463   3.887   1.800   8.373 -0.0122 -0.3755  0.4785
 4335SOL    HW124464   3.826   1.872   8.354  0.0671 -0.2614  0.6588
 4335SOL    HW224465   3.840   1.769   8.450  0.0286 -1.2965  0.1345
 4336SOL     OW24466   2.698   0.961   9.179  0.1919  0.3860  0.3344
 4336SOL    HW124467   2.640   0.964   9.103 -0.5314 -0.1376  0.8731
 4336SOL    HW224468   2.673   1.020   9.250 -2.0906  1.4245 -1.3392
 4337SOL     OW24469   3.150   2.813   6.073  0.7547 -0.3621 -0.1957
 4337SOL    HW124470   3.133   2.768   6.156  1.6614  0.1460  0.2621
 4337SOL    HW224471   3.178   2.739   6.019 -1.0954 -1.8075  0.8340
 4338SOL     OW24472   0.198   3.490   7.873  0.4917 -0.0243  0.2400
 4338SOL    HW124473   0.243   3.460   7.794 -0.7653  0.7890 -0.7885
 4338SOL    HW224474   0.240   3.433   7.938  1.8912 -0.1325 -0.7731
 4339SOL     OW24475   0.765   3.905   3.234  0.6357  0.4728 -0.2279
 4339SOL    HW124476   0.851   3.871   3.259  0.4184  0.3713  0.3911
 4339SOL    HW224477   0.750   3.970   3.302  3.2514 -0.1106  0.9078
 4340SOL     OW24478   1.649   2.368   7.561 -0.6063  0.2148 -0.5533
 4340SOL    HW124479   1.640   2.340   7.469  1.1479 -0.9812 -0.3560
 4340SOL    HW224480   1.659   2.463   7.549  1.4690  0.1663  0.7960
 4341SOL     OW24481   0.993   3.075   1.705  0.0793  0.1680 -0.1657
 4341SOL    HW124482   0.948   3.002   1.749 -1.7694  0.0853 -2.1796
 4341SOL    HW224483   0.961   3.064   1.615 -0.0122  1.7238 -0.3128
 4342SOL     OW24484   2.927   2.933   5.529  0.3127  0.0779  0.7407
 4342SOL    HW124485   3.006   2.879   5.540  0.9370  0.2875 -2.6169
 4342SOL    HW224486   2.909   2.957   5.620  1.1222 -0.4724  1.0524
 4343SOL     OW24487   0.505   3.156   5.774 -0.0016 -0.1454 -0.7057
 4343SOL    HW124488   0.483   3.192   5.688  0.3442  2.3428  0.2422
 4343SOL    HW224489   0.418   3.155   5.816  0.5381 -0.9613  0.3911
 4344SOL     OW24490   3.791   1.831  14.832 -0.7860  0.2233  0.2167
 4344SOL    HW124491   3.746   1.912  14.807  0.3828  0.2299 -1.8962
 4344SOL    HW224492   3.869   1.827  14.776 -0.8871 -3.2249  0.3016
 4345SOL     OW24493   0.189   4.654  17.065  0.0938 -0.2864  0.7117
 4345SOL    HW124494   0.115   4.714  17.072  0.2332 -0.0551  0.2236
 4345SOL    HW224495   0.161   4.581  17.121  0.7413  0.1437  1.6149
 4346SOL     OW24496   4.652   2.855  11.565  0.3068  0.4036  0.0878
 4346SOL    HW124497   4.661   2.815  11.651  1.5183  4.4210  1.8363
 4346SOL    HW224498   0.020   2.846  11.549  0.2483 -1.5533  0.9349
 4347SOL     OW24499   3.273   4.608  13.058 -0.1504 -0.2218 -0.5697
 4347SOL    HW124500   3.345   4.638  13.114 -0.4849  2.4037 -1.5419
 4347SOL    HW224501   3.255   4.687  13.006 -1.3881  0.6718  1.2213
 4348SOL     OW24502   3.324   3.293  12.232 -0.3266  0.6950  0.5064
 4348SOL    HW124503   3.236   3.312  12.198 -0.4701  1.4874  1.3213
 4348SOL    HW224504   3.298   3.308  12.323  0.4728 -1.5263  1.0964
 4349SOL     OW24505   0.551   1.813   3.400 -0.1730 -0.1998 -0.7445
 4349SOL    HW124506   0.595   1.770   3.326  0.4309  0.5220 -0.8112
 4349SOL    HW224507   0.501   1.880   3.353 -0.5980  0.4212  0.5911
 4350SOL     OW24508   1.834   3.045  15.905 -0.0313  0.0354 -0.2362
 4350SOL    HW124509   1.860   3.084  15.822  0.8114  0.5538  0.2694
 4350SOL    HW224510   1.904   2.981  15.912  1.3895  1.5248 -1.0235
 4351SOL     OW24511   0.176   0.772   4.306 -0.3311 -0.2563  0.0007
 4351SOL    HW124512   0.092   0.780   4.260  0.6909  1.7451 -1.4852
 4351SOL    HW224513   0.171   0.676   4.307 -3.7760 -0.0952  0.4757
 4352SOL     OW24514   2.709   1.687   4.674  0.1136 -0.0558 -0.2036
 4352SOL    HW124515   2.657   1.641   4.740 -0.9055  2.8207  1.0036
 4352SOL    HW224516   2.713   1.624   4.602  3.3714 -0.0674  0.0020
 4353SOL     OW24517   1.701   4.142   4.782 -0.3149 -0.3762 -1.2625
 4353SOL    HW124518   1.731   4.191   4.859 -2.2430  1.4189 -1.6417
 4353SOL    HW224519   1.634   4.207   4.761 -1.2370 -0.0729  2.5170
 4354SOL     OW24520   1.768   4.043   6.408  0.2734 -0.0973 -0.3014
 4354SOL    HW124521   1.696   4.106   6.405 -1.0908 -1.6757 -0.1666
 4354SOL    HW224522   1.769   4.009   6.318  0.2311 -0.6309 -0.0950
 4355SOL     OW24523   4.508   3.358  15.283 -0.0254  0.7248 -0.3612
 4355SOL    HW124524   4.527   3.402  15.366 -2.6440 -0.7105  1.0079
 4355SOL    HW224525   4.557   3.278  15.297  0.6309  1.3414  0.8916
 4356SOL     OW24526   2.711   1.639   1.701 -0.3244  0.3550 -0.7633
 4356SOL    HW124527   2.791   1.627   1.649  0.9312 -0.2478  1.3167
 4356SOL    HW224528   2.670   1.566   1.655  0.6110 -0.6049 -0.0811
 4357SOL     OW24529   3.813   2.695   3.119  0.0713 -0.5931 -0.1081
 4357SOL    HW124530   3.890   2.750   3.108  0.1785 -0.8721 -0.7498
 4357SOL    HW224531   3.816   2.640   3.041  0.2971  1.0958 -1.2807
 4358SOL     OW24532   0.842   3.632   2.781  0.2661  0.3272  0.0516
 4358SOL    HW124533   0.816   3.557   2.835  0.3876 -1.3755 -2.2612
 4358SOL    HW224534   0.887   3.591   2.707  1.6203  3.0802 -0.6455
 4359SOL     OW24535   1.481   1.465   6.228  0.1553  0.2643  0.2354
 4359SOL    HW124536   1.443   1.432   6.310 -0.5848 -0.3316 -0.3468
 4359SOL    HW224537   1.569   1.428   6.232 -0.9538 -2.4493 -0.5953
 4360SOL     OW24538   0.473   1.710  15.906  0.4440 -0.5039  0.3103
 4360SOL    HW124539   0.428   1.778  15.857 -0.2848 -1.0460  0.2106
 4360SOL    HW224540   0.535   1.759  15.960 -1.2344  1.5575  0.3519
 4361SOL     OW24541   1.804   2.851   4.249 -0.5648 -0.3019 -0.9389
 4361SOL    HW124542   1.878   2.840   4.309 -1.2521  3.2730  0.5317
 4361SOL    HW224543   1.735   2.820   4.307 -0.5288  0.5026 -0.4739
 4362SOL     OW24544   0.207   4.192   7.034  0.0624 -0.5601 -0.2873
 4362SOL    HW124545   0.197   4.231   7.120  0.6119  1.3948 -1.1077
 4362SOL    HW224546   0.288   4.145   7.054  1.2951  1.9602  0.6314
 4363SOL     OW24547   2.312   1.135  11.309 -0.3092 -0.3060  0.9417
 4363SOL    HW124548   2.346   1.046  11.295 -0.1713  0.0393 -0.8692
 4363SOL    HW224549   2.225   1.120  11.273  0.0334  0.0223 -0.0109
 4364SOL     OW24550   3.344   0.971  13.937 -0.4038  0.3317  0.0747
 4364SOL    HW124551   3.339   0.941  14.028  0.3074 -0.9073 -0.2922
 4364SOL    HW224552   3.407   0.909  13.900 -0.5030  0.6281 -0.5837
 4365SOL     OW24553   2.588   3.670   6.986 -0.5494 -0.2767  0.2252
 4365SOL    HW124554   2.636   3.740   7.030 -0.4916 -0.5689  0.6212
 4365SOL    HW224555   2.570   3.616   7.063  1.1783  1.3132  1.7477
 4366SOL     OW24556   3.827   2.152   2.264  0.0224  0.0442  0.1615
 4366SOL    HW124557   3.775   2.171   2.186  0.2053 -0.7639 -0.1537
 4366SOL    HW224558   3.815   2.233   2.314 -0.3920  0.3489 -0.4252
 4367SOL     OW24559   0.084   2.693  10.750  0.2109  0.0516  0.9727
 4367SOL    HW124560   0.066   2.673  10.658  2.4436 -2.5561  1.1116
 4367SOL    HW224561   0.168   2.648  10.762 -0.7061 -1.9245 -0.0052
 4368SOL     OW24562   0.169   3.751   0.769  0.4324  0.0117  0.4369
 4368SOL    HW124563   0.242   3.697   0.739  0.5095 -0.2745  1.1586
 4368SOL    HW224564   0.194   3.791   0.852  0.5734 -0.0567  0.4270
 4369SOL     OW24565   1.200   2.843   4.052 -0.4351  0.2135 -1.0089
 4369SOL    HW124566   1.110   2.813   4.040  0.3339 -2.6955  0.3311
 4369SOL    HW224567   1.212   2.889   3.969 -0.9221  1.0010 -0.6330
 4370SOL     OW24568   1.149   2.821   5.054  0.0049  0.4670 -0.0082
 4370SOL    HW124569   1.133   2.903   5.101 -1.2011 -0.6123  1.4492
 4370SOL    HW224570   1.063   2.779   5.055  0.4056 -0.3475  0.0862
 4371SOL     OW24571   0.037   3.483   8.468 -0.2795 -0.2087  0.5279
 4371SOL    HW124572   4.694   3.508   8.407 -0.0004 -1.2509 -0.2269
 4371SOL    HW224573   0.107   3.510   8.408 -1.3519  0.8437 -0.2352
 4372SOL     OW24574   2.417   2.823   4.809  0.0219 -0.8494 -0.0725
 4372SOL    HW124575   2.390   2.860   4.725 -2.9959 -0.8023  0.9093
 4372SOL    HW224576   2.483   2.759   4.783 -0.1422 -1.4609  1.0127
 4373SOL     OW24577   2.640   4.412   5.625 -0.0754  0.0546 -0.3394
 4373SOL    HW124578   2.669   4.391   5.714  0.5661  0.0021 -0.5556
 4373SOL    HW224579   2.552   4.443   5.644  0.0528 -0.5726  1.2859
 4374SOL     OW24580   2.530   3.294  11.695  0.5533  0.6645  0.2185
 4374SOL    HW124581   2.442   3.313  11.727  0.1922 -0.4173 -0.1689
 4374SOL    HW224582   2.505   3.293  11.603 -0.4572  0.7514  0.4921
 4375SOL     OW24583   1.025   1.917  10.689 -0.3597 -0.0814 -0.2177
 4375SOL    HW124584   1.026   1.872  10.774 -4.3217 -1.9223 -1.1067
 4375SOL    HW224585   0.930   1.920  10.675 -0.7044 -0.2301  1.9802
 4376SOL     OW24586   2.938   3.124  13.124 -0.1084  0.8309 -0.2385
 4376SOL    HW124587   2.883   3.110  13.201 -0.8000  0.2726 -0.8298
 4376SOL    HW224588   3.005   3.059  13.145 -1.6765 -0.8126 -0.3271
 4377SOL     OW24589   2.059   4.309   3.837 -0.1275  0.2598 -0.2374
 4377SOL    HW124590   2.036   4.327   3.746 -0.9063 -0.1864 -0.1257
 4377SOL    HW224591   2.126   4.376   3.853 -0.7090  0.1402  2.7942
 4378SOL     OW24592   2.955   0.814   7.180 -0.0453  0.0500 -0.2660
 4378SOL    HW124593   2.957   0.779   7.091  1.8433 -0.9799  0.1776
 4378SOL    HW224594   2.926   0.905   7.167 -1.8471 -0.4335  0.3915
 4379SOL     OW24595   0.522   4.058   6.008 -0.1148  0.0173 -0.3131
 4379SOL    HW124596   0.531   4.140   5.960 -0.9688 -1.1235 -2.3838
 4379SOL    HW224597   0.580   4.002   5.955  0.6420 -0.7133  1.2769
 4380SOL     OW24598   2.173   0.146   6.506  0.1160  0.2774 -0.3010
 4380SOL    HW124599   2.219   0.177   6.584  0.2698  0.7227 -0.5672
 4380SOL    HW224600   2.209   0.203   6.439  1.3583  0.2051  0.2969
 4381SOL     OW24601   2.216   1.035   2.697 -0.3539  0.7659 -0.0400
 4381SOL    HW124602   2.236   1.108   2.639  0.3109 -0.5406 -1.4750
 4381SOL    HW224603   2.165   0.980   2.637  0.8233 -1.3566  0.8974
 4382SOL     OW24604   3.641   3.448   4.599  0.4096  0.0196  0.8241
 4382SOL    HW124605   3.726   3.428   4.640  1.4468 -0.7284 -1.7042
 4382SOL    HW224606   3.627   3.394   4.522  1.7231  0.1839  0.4624
 4383SOL     OW24607   4.720   0.341   3.340 -0.0101 -0.1881  0.2343
 4383SOL    HW124608   4.630   0.314   3.322 -0.2493  2.5252 -2.6167
 4383SOL    HW224609   4.725   0.317   3.433  1.1531  1.8348  0.7003
 4384SOL     OW24610   0.476   3.708  13.780 -0.5941 -0.1808  0.4021
 4384SOL    HW124611   0.440   3.650  13.847  0.0662 -0.7779  0.2426
 4384SOL    HW224612   0.563   3.672  13.764 -0.2067 -0.5256  3.2387
 4385SOL     OW24613   0.644   2.096  10.437 -0.3072  0.1441  0.5018
 4385SOL    HW124614   0.597   2.012  10.444 -0.5180 -0.0228 -2.8950
 4385SOL    HW224615   0.640   2.128  10.527  3.0322 -0.7343  0.9682
 4386SOL     OW24616   1.446   0.078   3.837  0.3438 -0.4088  0.4415
 4386SOL    HW124617   1.382   0.096   3.768  2.1403 -3.2055 -1.9847
 4386SOL    HW224618   1.439   4.710   3.855  2.6177 -1.0034 -1.7579
 4387SOL     OW24619   1.095   3.394   1.551 -0.2927  0.1378 -0.1120
 4387SOL    HW124620   1.177   3.436   1.575 -1.3157  1.3772  1.1722
 4387SOL    HW224621   1.120   3.304   1.530  1.4385  0.1179  1.9946
 4388SOL     OW24622   1.273   3.204   0.329  0.4765 -0.2394  0.1724
 4388SOL    HW124623   1.214   3.137   0.293  0.0092  0.3614 -0.1724
 4388SOL    HW224624   1.356   3.171   0.295  0.1284 -1.6356  0.6647
 4389SOL     OW24625   2.524   2.567   9.401  0.4593  0.4244  0.0052
 4389SOL    HW124626   2.429   2.568   9.389  0.2369 -0.5398  1.6771
 4389SOL    HW224627   2.541   2.564   9.495  2.6146  1.0908 -0.3576
 4390SOL     OW24628   4.238   1.329   4.518 -0.4181 -0.4199 -0.2845
 4390SOL    HW124629   4.185   1.408   4.522  0.6934  0.3608 -0.9731
 4390SOL    HW224630   4.171   1.260   4.515 -1.9139  1.0477 -0.5630
 4391SOL     OW24631   1.300   2.574   1.857 -0.4771 -0.6016 -0.0292
 4391SOL    HW124632   1.320   2.586   1.950  1.7461  0.7512 -0.6914
 4391SOL    HW224633   1.381   2.585   1.807 -0.1404 -0.8763  0.4590
 4392SOL     OW24634   1.968   0.352   2.444 -0.4675 -0.0438 -0.2335
 4392SOL    HW124635   2.016   0.278   2.481  0.2157  0.2359 -0.5620
 4392SOL    HW224636   1.890   0.343   2.498 -0.1758  0.9702  0.3543
 4393SOL     OW24637   2.126   1.306   4.644  0.2586 -0.5380  0.2951
 4393SOL    HW124638   2.115   1.223   4.598 -0.9376  0.2588 -0.8531
 4393SOL    HW224639   2.076   1.367   4.589  0.4360 -0.3703  0.3223
 4394SOL     OW24640   4.369   0.916   5.180  0.0729 -0.0268 -0.0394
 4394SOL    HW124641   4.384   0.862   5.258 -1.7080 -1.2166 -0.5201
 4394SOL    HW224642   4.297   0.969   5.215  0.0220  1.5241 -2.5456
 4395SOL     OW24643   1.619   3.770   6.379 -0.4003 -0.0416 -0.3545
 4395SOL    HW124644   1.701   3.811   6.407 -0.1058  0.2779 -1.6737
 4395SOL    HW224645   1.566   3.760   6.458  1.7889 -1.6724  0.8764
 4396SOL     OW24646   1.942   0.862   8.889  0.6471 -0.4926 -0.0085
 4396SOL    HW124647   1.852   0.872   8.918 -0.0652 -0.4886 -2.2834
 4396SOL    HW224648   1.986   0.889   8.970 -1.3117  1.3716  0.4248
 4397SOL     OW24649   0.595   2.998   0.644 -0.1448 -0.0574 -0.1690
 4397SOL    HW124650   0.557   3.050   0.573 -0.9249 -1.1715 -0.5569
 4397SOL    HW224651   0.666   2.958   0.594 -0.1624 -2.1528  1.4889
 4398SOL     OW24652   1.098   3.751   7.013 -0.5606  0.2664 -0.3543
 4398SOL    HW124653   1.002   3.746   7.008 -0.6005  1.0382 -0.4354
 4398SOL    HW224654   1.116   3.830   6.961  1.7151  0.7243  1.1232
 4399SOL     OW24655   4.281   1.648  10.234 -0.5523 -0.1889  0.3172
 4399SOL    HW124656   4.200   1.692  10.209 -0.1820  0.1190 -0.3444
 4399SOL    HW224657   4.242   1.564  10.258  1.8183 -1.5587 -0.6162
 4400SOL     OW24658   3.394   1.712   7.193  0.4715  0.0583  0.8043
 4400SOL    HW124659   3.372   1.769   7.119 -1.2262  1.2643  2.2381
 4400SOL    HW224660   3.358   1.627   7.171 -0.3503  0.6010  0.0558
 4401SOL     OW24661   0.123   2.631  14.130 -0.8353 -0.0242 -0.6882
 4401SOL    HW124662   0.097   2.704  14.186 -0.2888  1.0297 -1.8112
 4401SOL    HW224663   0.065   2.568  14.172  1.1348  0.0104  2.0882
 4402SOL     OW24664   3.530   3.685   6.432  0.0187  0.0926 -0.1940
 4402SOL    HW124665   3.576   3.702   6.514 -0.3811 -0.1736  0.0884
 4402SOL    HW224666   3.474   3.762   6.426 -0.9260 -0.3992  2.1174
 4403SOL     OW24667   3.178   3.533   6.329  0.4115 -0.4606 -0.2166
 4403SOL    HW124668   3.257   3.568   6.288  0.9806 -1.0641  0.3647
 4403SOL    HW224669   3.123   3.612   6.329 -0.8901 -1.3574  1.7998
 4404SOL     OW24670   1.423   1.262   0.057 -0.5190  0.3002 -0.1329
 4404SOL    HW124671   1.450   1.177   0.021  0.7253  0.0788  1.3413
 4404SOL    HW224672   1.501   1.312   0.029  0.9151 -1.6507  0.3955
 4405SOL     OW24673   1.174   3.179   6.236  0.1682 -0.0993 -0.2699
 4405SOL    HW124674   1.231   3.239   6.187  0.6206 -0.2633  0.0568
 4405SOL    HW224675   1.097   3.235   6.240 -0.6180 -1.1106 -1.2123
 4406SOL     OW24676   3.354   0.666   2.257  0.1169  0.3882 -0.3908
 4406SOL    HW124677   3.284   0.607   2.231  0.5188  0.5102 -1.7334
 4406SOL    HW224678   3.323   0.748   2.218  2.4596  0.9843 -1.0006
 4407SOL     OW24679   1.930   2.829   7.751  0.7994 -0.3822  0.6434
 4407SOL    HW124680   1.900   2.751   7.798 -3.2664  0.0293 -1.2287
 4407SOL    HW224681   1.921   2.889   7.825  1.3513  0.5879 -0.0790
 4408SOL     OW24682   3.946   1.431  12.800  0.2144  0.0539  0.5340
 4408SOL    HW124683   3.882   1.360  12.797 -0.5871  0.8397 -0.7510
 4408SOL    HW224684   3.935   1.465  12.888  1.3819  3.0268 -0.4772
 4409SOL     OW24685   3.663   0.567   5.161 -0.4478  0.6257 -0.1164
 4409SOL    HW124686   3.576   0.607   5.160 -1.6376 -1.9161  0.9618
 4409SOL    HW224687   3.631   0.494   5.214  1.7614  0.1251  0.5134
 4410SOL     OW24688   2.611   2.701   5.383  0.5879  0.0935 -0.0510
 4410SOL    HW124689   2.542   2.726   5.321  0.6462 -0.4381 -0.3320
 4410SOL    HW224690   2.694   2.718   5.340 -0.0328  0.4898 -1.0918
 4411SOL     OW24691   1.038   0.200   5.104 -0.5770  0.7121 -0.4654
 4411SOL    HW124692   1.053   0.247   5.187 -0.7330  0.6326 -0.3916
 4411SOL    HW224693   1.125   0.161   5.097 -2.3793 -3.5211  0.7517
 4412SOL     OW24694   3.232   3.433   7.687 -0.5542 -0.4174  0.4231
 4412SOL    HW124695   3.152   3.386   7.711  0.3873 -0.4931  3.5034
 4412SOL    HW224696   3.190   3.506   7.642 -2.1448 -1.6618 -0.0954
 4413SOL     OW24697   1.852   3.674   7.541  0.1850 -0.1775  1.0055
 4413SOL    HW124698   1.820   3.597   7.495  0.8517  0.4747 -0.5676
 4413SOL    HW224699   1.927   3.698   7.487 -0.6078  0.1883  0.0756
 4414SOL     OW24700   0.152   3.636  13.308  0.2921  0.1604  0.3313
 4414SOL    HW124701   0.138   3.546  13.336 -0.9158  0.0976 -0.4966
 4414SOL    HW224702   0.060   3.661  13.300  0.7968  2.1329  0.5388
 4415SOL     OW24703   4.698   3.802   4.009 -0.4133 -0.1697 -0.8097
 4415SOL    HW124704   4.686   3.768   3.921 -1.3900 -0.4001 -0.5835
 4415SOL    HW224705   0.030   3.732   4.039 -1.1635 -1.6182 -2.7619
 4416SOL     OW24706   3.168   0.637   2.941  0.4026 -0.2384 -0.0708
 4416SOL    HW124707   3.122   0.626   3.024  0.3986  0.3007 -0.0050
 4416SOL    HW224708   3.091   0.653   2.886 -0.6952 -0.1471  1.4733
 4417SOL     OW24709   3.406   0.732   4.825 -0.1701  0.6300 -0.2645
 4417SOL    HW124710   3.337   0.734   4.891 -1.2195  2.2891 -1.4254
 4417SOL    HW224711   3.364   0.691   4.749  1.9490 -2.0233 -0.0036
 4418SOL     OW24712   0.117   1.633   6.099 -0.8485  0.5310  0.0650
 4418SOL    HW124713   0.089   1.591   6.017  0.1773  0.5478 -0.2962
 4418SOL    HW224714   0.134   1.557   6.155 -0.3248 -0.4187 -1.3663
 4419SOL     OW24715   2.526   4.634   5.144  0.4784  0.5616 -0.4255
 4419SOL    HW124716   2.478   4.560   5.183  0.1360  0.1588 -1.6274
 4419SOL    HW224717   2.569   4.670   5.222  1.5589 -3.5599  0.8747
 4420SOL     OW24718   1.659   0.136   6.768 -0.5094  0.0935  0.3722
 4420SOL    HW124719   1.604   0.198   6.816  1.8086  2.1826  0.3657
 4420SOL    HW224720   1.668   0.176   6.682  1.5448  0.2722  0.6640
 4421SOL     OW24721   3.295   4.430   1.845 -0.4448 -0.6685 -0.0990
 4421SOL    HW124722   3.239   4.417   1.921 -0.4510 -0.0341  0.0067
 4421SOL    HW224723   3.224   4.450   1.784 -1.3731 -2.0577  0.5388
 4422SOL     OW24724   0.221   2.992   1.676  0.0342 -0.0932  0.2081
 4422SOL    HW124725   0.269   3.070   1.704  1.4342 -0.6450 -0.6668
 4422SOL    HW224726   0.192   2.952   1.758  0.6521  0.6541  0.7875
 4423SOL     OW24727   0.419   1.923   6.788  0.3189 -0.1925 -0.3398
 4423SOL    HW124728   0.400   1.890   6.875 -0.9486  0.3584 -0.4128
 4423SOL    HW224729   0.431   1.837   6.747  2.3166  0.4411 -1.1154
 4424SOL     OW24730   1.949   3.146  11.051  0.1829  0.3127 -0.4025
 4424SOL    HW124731   1.863   3.145  11.010  0.1897 -0.6211 -0.3944
 4424SOL    HW224732   1.980   3.225  11.008 -1.0997  0.6768 -0.6533
 4425SOL     OW24733   3.955   2.449   4.406 -0.1445 -0.1511 -0.1550
 4425SOL    HW124734   3.964   2.541   4.383 -0.4045  0.2929  1.5321
 4425SOL    HW224735   3.885   2.409   4.354 -0.8709  2.3334 -1.0680
 4426SOL     OW24736   0.360   1.968   3.626  0.1956  0.0162 -0.3295
 4426SOL    HW124737   0.299   2.036   3.656  0.0554  1.2065 -3.2042
 4426SOL    HW224738   0.412   2.028   3.572  1.1344 -0.6181 -0.1200
 4427SOL     OW24739   0.129   0.360   5.176  0.3101  0.0947 -0.4132
 4427SOL    HW124740   0.168   0.274   5.191 -0.3166  0.1502  1.5426
 4427SOL    HW224741   0.050   0.337   5.127 -0.7485  0.7533  1.0004
 4428SOL     OW24742   3.233   3.933   8.499 -0.2282 -0.3598  0.1643
 4428SOL    HW124743   3.211   3.925   8.592  0.9154  0.7669  0.5429
 4428SOL    HW224744   3.223   3.844   8.467  0.4124 -1.3174  2.6279
 4429SOL     OW24745   0.981   3.013   4.768  0.1081  0.1663  0.4433
 4429SOL    HW124746   1.053   2.997   4.706  0.6273 -2.7615  1.7956
 4429SOL    HW224747   1.027   3.041   4.846  0.7320 -0.9939  0.4989
 4430SOL     OW24748   1.658   4.626   5.421 -0.1635  0.4987  0.4482
 4430SOL    HW124749   1.609   4.545   5.437 -1.2000  0.9258 -0.5312
 4430SOL    HW224750   1.726   4.621   5.488 -0.0048 -1.0158  0.1735
 4431SOL     OW24751   3.478   3.954   5.512  0.3938 -0.0182 -0.0805
 4431SOL    HW124752   3.430   4.001   5.444 -0.2593 -0.2227  0.2305
 4431SOL    HW224753   3.434   3.869   5.508  2.3694 -0.9440 -1.7570
 4432SOL     OW24754   3.319   2.514   2.698 -0.5096  0.4879  0.4428
 4432SOL    HW124755   3.342   2.479   2.612 -3.5790 -0.9775  0.2091
 4432SOL    HW224756   3.224   2.521   2.686 -0.5185 -0.2613  0.0488
 4433SOL     OW24757   2.286   4.131   3.549 -0.1591 -0.0312  0.0945
 4433SOL    HW124758   2.299   4.206   3.607 -0.9295 -0.0985  0.3500
 4433SOL    HW224759   2.341   4.164   3.477 -1.3312 -2.0731 -1.7376
 4434SOL     OW24760   2.954   3.768   6.003 -0.2649 -0.4765  0.1378
 4434SOL    HW124761   3.014   3.769   6.078 -0.5614  0.2333  0.3707
 4434SOL    HW224762   2.922   3.858   6.013 -0.0470 -0.3208 -0.5963
 4435SOL     OW24763   0.771   3.446  17.575 -0.0947 -0.5313  0.2426
 4435SOL    HW124764   0.828   3.398  17.635 -1.4782 -2.5067 -0.0319
 4435SOL    HW224765   0.690   3.395  17.580  0.7224 -1.8894 -0.5668
 4436SOL     OW24766   1.450   0.727  13.733  0.4685 -0.1434  0.6549
 4436SOL    HW124767   1.394   0.796  13.770 -1.5117 -2.0909  1.2936
 4436SOL    HW224768   1.533   0.753  13.773  0.8247  0.9473 -0.8287
 4437SOL     OW24769   2.467   3.312   6.241 -0.2996 -0.0972 -0.7530
 4437SOL    HW124770   2.552   3.309   6.286 -0.3168 -0.9482 -0.7618
 4437SOL    HW224771   2.493   3.252   6.171 -1.5736 -0.4282 -0.9429
 4438SOL     OW24772   1.046   0.791   7.405 -0.5922 -0.2768 -0.2345
 4438SOL    HW124773   1.129   0.754   7.434  0.1196  0.3938 -1.4348
 4438SOL    HW224774   1.014   0.817   7.491  1.3514  1.3279 -0.0025
 4439SOL     OW24775   2.424   2.053   5.884  0.3991  0.2126  0.1551
 4439SOL    HW124776   2.422   2.143   5.851 -0.8259  0.2056  0.2107
 4439SOL    HW224777   2.518   2.037   5.899  0.8328 -0.1312 -2.9976
 4440SOL     OW24778   1.524   0.664   4.239  0.3735 -0.0255  0.4678
 4440SOL    HW124779   1.604   0.701   4.277  0.1743  1.0647 -0.1626
 4440SOL    HW224780   1.528   0.569   4.251  0.1001  0.0233  0.9187
 4441SOL     OW24781   2.374   4.202   8.747 -0.4431  0.2372 -0.7387
 4441SOL    HW124782   2.363   4.226   8.839 -0.4680 -3.6117  0.2910
 4441SOL    HW224783   2.313   4.252   8.692 -1.7408 -0.3581  0.1496
 4442SOL     OW24784   4.652   0.889   3.815  0.6957 -0.2302 -0.2030
 4442SOL    HW124785   4.657   0.904   3.721  0.5857 -1.2639 -0.3774
 4442SOL    HW224786   0.017   0.877   3.839  0.3936  1.1204  1.6087
 4443SOL     OW24787   4.544   1.064   9.623  0.8630 -0.6347  0.0087
 4443SOL    HW124788   4.622   1.017   9.652 -0.2466 -2.5227 -0.0362
 4443SOL    HW224789   4.515   1.092   9.710 -2.9348 -0.1271 -1.3858
 4444SOL     OW24790   0.511   0.862   7.319  0.5854 -0.2359 -0.0094
 4444SOL    HW124791   0.449   0.878   7.248 -0.8074 -0.4073  1.1612
 4444SOL    HW224792   0.505   0.943   7.370 -0.9156  0.1420 -0.7855
 4445SOL     OW24793   2.901   1.400   0.829  0.0750  0.2883  0.0773
 4445SOL    HW124794   2.989   1.404   0.865  0.8772 -2.2142 -1.6174
 4445SOL    HW224795   2.859   1.336   0.887 -0.5613 -0.9536 -1.7554
 4446SOL     OW24796   0.652   3.564   7.042  0.5639  0.6453  0.3241
 4446SOL    HW124797   0.704   3.531   7.115  0.0584 -0.2681  0.2614
 4446SOL    HW224798   0.628   3.478   7.008  1.1183  0.8442 -0.5689
 4447SOL     OW24799   2.313   4.665   2.203  0.2357  0.1789 -0.1394
 4447SOL    HW124800   2.325   4.716   2.284  0.9951 -2.1527  1.2062
 4447SOL    HW224801   2.371   4.716   2.147 -1.8316  1.0198 -1.5351
 4448SOL     OW24802   1.082   3.088   7.814  0.1836  0.1060 -0.0783
 4448SOL    HW124803   1.127   3.004   7.809 -1.0327 -0.6449  1.5027
 4448SOL    HW224804   1.000   3.043   7.791 -1.0182 -0.0373  4.4816
 4449SOL     OW24805   4.338   1.995   5.375  0.0772 -0.1240  0.5226
 4449SOL    HW124806   4.355   1.943   5.454 -1.7297  1.0531  1.6581
 4449SOL    HW224807   4.396   1.956   5.309 -2.0483 -0.0903 -1.3392
 4450SOL     OW24808   3.228   1.586   3.682  0.5396  0.5475  0.2051
 4450SOL    HW124809   3.271   1.670   3.697 -1.2864  1.3909  0.8057
 4450SOL    HW224810   3.160   1.624   3.626  0.9622 -2.3294 -2.2499
 4451SOL     OW24811   2.805   0.344   8.131  0.0911 -0.1153  0.1204
 4451SOL    HW124812   2.721   0.319   8.171  0.0299 -0.4487 -0.2064
 4451SOL    HW224813   2.835   0.416   8.187 -0.7087 -1.2535  2.0152
 4452SOL     OW24814   2.882   2.358   5.571  0.0268  0.0157  0.0192
 4452SOL    HW124815   2.812   2.423   5.573  0.8258  0.8578  0.6983
 4452SOL    HW224816   2.888   2.340   5.665  2.5640  0.4323 -0.0657
 4453SOL     OW24817   0.458   0.401   8.063 -0.0646  0.1585 -0.1487
 4453SOL    HW124818   0.368   0.418   8.091 -1.0928 -0.3601 -3.1270
 4453SOL    HW224819   0.464   0.451   7.981  0.3143  1.8979  0.9449
 4454SOL     OW24820   3.764   3.510  16.908 -0.5524 -0.5811 -0.1420
 4454SOL    HW124821   3.706   3.545  16.840 -2.8518 -1.7480  1.2344
 4454SOL    HW224822   3.814   3.451  16.852 -0.0671 -0.4424  0.1411
 4455SOL     OW24823   3.324   0.645   5.945 -0.2628  0.6405 -0.3944
 4455SOL    HW124824   3.358   0.556   5.955 -2.1463  0.1015  1.1800
 4455SOL    HW224825   3.395   0.703   5.918 -0.8059  1.0701 -0.8879
 4456SOL     OW24826   0.992   2.527   6.895 -0.2640  0.2009  0.1482
 4456SOL    HW124827   1.065   2.524   6.833 -0.7428  0.0726 -0.4100
 4456SOL    HW224828   0.913   2.561   6.852  1.0144  0.0499 -2.3571
 4457SOL     OW24829   0.395   0.170   1.621  0.2587  0.0965 -0.3155
 4457SOL    HW124830   0.364   0.184   1.532 -0.8880 -0.6166 -0.0449
 4457SOL    HW224831   0.407   0.258   1.656 -2.8800  0.6904 -0.7271
 4458SOL     OW24832   3.128   2.763   3.474  0.6732  0.0382 -0.0904
 4458SOL    HW124833   3.111   2.676   3.438 -1.4948 -0.2297  1.5870
 4458SOL    HW224834   3.218   2.782   3.448  0.6479 -0.2284 -0.3668
 4459SOL     OW24835   2.671   2.623   9.163  0.2988  0.6527  0.2079
 4459SOL    HW124836   2.666   2.529   9.144  1.3055  1.0315 -1.9350
 4459SOL    HW224837   2.614   2.627   9.239 -2.4913 -1.6366 -1.7467
 4460SOL     OW24838   0.122   1.572  12.905 -0.0960 -0.2036  0.0362
 4460SOL    HW124839   0.181   1.508  12.945  0.0606  1.2347  2.0965
 4460SOL    HW224840   0.067   1.521  12.845  1.7778 -2.3595  0.1597
 4461SOL     OW24841   1.838   2.521   8.617  0.5190  0.5475 -0.2939
 4461SOL    HW124842   1.933   2.523   8.609  0.5532  0.1958  0.0576
 4461SOL    HW224843   1.816   2.439   8.573  0.1890 -0.0213  0.9373
 4462SOL     OW24844   3.433   3.263   4.751 -0.2486  0.3565  0.1792
 4462SOL    HW124845   3.507   3.224   4.706 -1.2262  0.5230 -1.5783
 4462SOL    HW224846   3.472   3.347   4.774  1.5541  0.9953 -5.1373
 4463SOL     OW24847   1.753   0.785   5.995  0.2040 -0.0413 -0.7152
 4463SOL    HW124848   1.818   0.769   5.927  0.6186  0.8389 -0.5247
 4463SOL    HW224849   1.715   0.701   6.022  2.0568 -0.5356  0.3491
 4464SOL     OW24850   0.848   1.232   4.002  0.5834  0.6054 -0.0608
 4464SOL    HW124851   0.809   1.157   4.048 -0.5595 -0.6398 -3.0354
 4464SOL    HW224852   0.931   1.191   3.978  0.2646 -1.1617  1.8499
 4465SOL     OW24853   3.914   2.714   5.982  0.1182 -0.2702 -0.1594
 4465SOL    HW124854   3.922   2.622   6.006  1.7144  0.3565  1.6857
 4465SOL    HW224855   3.980   2.729   5.914 -0.3583  0.9284 -0.3560
 4466SOL     OW24856   2.678   1.800   3.765  0.6572  0.3201  0.6829
 4466SOL    HW124857   2.584   1.814   3.757  0.6939 -1.5359 -2.9711
 4466SOL    HW224858   2.669   1.730   3.829  2.3187 -0.8614 -0.3669
 4467SOL     OW24859   0.105   2.024   0.186 -0.1899 -0.2500  0.6674
 4467SOL    HW124860   0.109   1.929   0.190  2.0270 -0.1590  0.4046
 4467SOL    HW224861   0.047   2.047   0.259 -0.9298  1.1237 -0.3444
 4468SOL     OW24862   0.183   3.797   5.430  0.1300  0.0617  0.1376
 4468SOL    HW124863   0.237   3.756   5.497  2.6447  0.0513 -1.9020
 4468SOL    HW224864   0.131   3.718   5.413  0.7852 -0.5545  0.9905
 4469SOL     OW24865   0.868   1.431   2.952  0.3873  0.5778 -0.1069
 4469SOL    HW124866   0.934   1.476   3.005  1.9828 -0.4306 -1.2338
 4469SOL    HW224867   0.873   1.350   3.003  1.8494  0.2168 -0.8095
 4470SOL     OW24868   0.572   3.696   9.022 -0.0640 -0.1380 -0.3013
 4470SOL    HW124869   0.601   3.636   9.090 -1.4232  0.3743  0.7478
 4470SOL    HW224870   0.493   3.651   8.993  1.9336 -2.8178 -1.5343
 4471SOL     OW24871   0.156   0.330  11.850  0.2659  0.3128  0.0747
 4471SOL    HW124872   0.236   0.282  11.870 -0.2204  0.0478  1.3400
 4471SOL    HW224873   0.099   0.304  11.922 -0.4906  3.5868  0.6755
 4472SOL     OW24874   0.837   4.162   8.997 -0.5022 -0.0246  0.5197
 4472SOL    HW124875   0.771   4.173   9.065 -0.2993  3.2352  0.1493
 4472SOL    HW224876   0.890   4.090   9.030 -0.9602 -0.7613 -0.3390
 4473SOL     OW24877   0.697   3.057   7.934 -0.4192  0.2776 -0.2944
 4473SOL    HW124878   0.786   3.033   7.960 -1.8054 -1.9605  2.3612
 4473SOL    HW224879   0.693   3.150   7.954  1.8280  0.0488  1.1210
 4474SOL     OW24880   3.729   0.579  10.815 -0.1018  0.3154  0.1706
 4474SOL    HW124881   3.671   0.548  10.885  0.0985 -1.4190 -0.4276
 4474SOL    HW224882   3.800   0.619  10.865  0.1004 -0.3513  0.4288
 4475SOL     OW24883   3.058   2.868   8.427  0.0464 -0.0684 -0.0832
 4475SOL    HW124884   3.015   2.798   8.476  1.0092  0.1492  1.0733
 4475SOL    HW224885   3.057   2.833   8.337 -1.4699  4.0762 -1.6865
 4476SOL     OW24886   3.996   1.901   5.827  0.2865  0.5467 -0.0582
 4476SOL    HW124887   4.041   1.979   5.795  1.0762  1.1883  2.5826
 4476SOL    HW224888   3.908   1.931   5.807 -1.0327 -0.7757  3.6568
 4477SOL     OW24889   0.283   1.994   1.989  0.3425 -0.6900 -0.6773
 4477SOL    HW124890   0.250   1.942   1.915 -0.9134 -0.0111 -0.5997
 4477SOL    HW224891   0.203   2.043   2.007  2.3611  2.4477 -0.2468
 4478SOL     OW24892   1.760   3.956  15.761 -0.0206 -0.5031 -0.2065
 4478SOL    HW124893   1.707   4.015  15.815 -0.1852 -0.7005 -0.1540
 4478SOL    HW224894   1.794   4.007  15.687  1.0013  1.1266  1.3652
 4479SOL     OW24895   2.296   4.026  15.632  0.7211  0.0057 -0.1148
 4479SOL    HW124896   2.202   4.023  15.650  0.8685  0.8527  0.7677
 4479SOL    HW224897   2.303   4.116  15.600 -1.3857  0.2364  0.0615
 4480SOL     OW24898   0.508   3.278   1.851  0.0912 -0.5436  0.0271
 4480SOL    HW124899   0.457   3.276   1.932  0.0380  2.8353  0.0673
 4480SOL    HW224900   0.561   3.200   1.864 -1.0299 -1.0166  1.7099
 4481SOL     OW24901   4.698   3.087   0.448 -0.0716 -0.4085 -0.0449
 4481SOL    HW124902   4.639   3.059   0.517 -1.2082  2.3820  0.0767
 4481SOL    HW224903   4.634   3.136   0.397  0.1139 -0.5435 -0.4108
 4482SOL     OW24904   0.562   1.049  16.711  0.6657 -0.4949  0.4146
 4482SOL    HW124905   0.631   1.011  16.766  2.5849 -1.9967 -2.9693
 4482SOL    HW224906   0.512   1.103  16.772 -0.6454 -1.8225  0.5277
 4483SOL     OW24907   2.372   4.392   9.187  0.4786 -0.4180 -0.0067
 4483SOL    HW124908   2.453   4.405   9.138  1.0611  1.8877  1.6207
 4483SOL    HW224909   2.403   4.402   9.276  0.0471 -1.9744  0.3241
 4484SOL     OW24910   3.818   0.934  13.368  0.1622  0.0290 -0.1084
 4484SOL    HW124911   3.901   0.886  13.367  1.9197  3.0432  0.6022
 4484SOL    HW224912   3.805   0.945  13.462  0.7791  2.3206 -0.2995
 4485SOL     OW24913   2.288   2.169   1.782 -0.6375 -0.0548  0.2864
 4485SOL    HW124914   2.259   2.100   1.722 -0.1993 -0.6284  0.7286
 4485SOL    HW224915   2.273   2.246   1.728  0.3692  0.5390  0.8529
 4486SOL     OW24916   1.900   0.292   4.307  0.2920 -0.4926  0.0597
 4486SOL    HW124917   1.817   0.264   4.344 -1.0927  4.4927  0.7729
 4486SOL    HW224918   1.898   0.386   4.328  1.7118 -0.5974  0.6665
 4487SOL     OW24919   0.078   3.063   9.729 -0.4510  0.1879 -0.4408
 4487SOL    HW124920   0.158   3.115   9.721 -0.3279 -0.3029 -2.4841
 4487SOL    HW224921   0.032   3.130   9.779  1.8677  0.0495  1.8652
 4488SOL     OW24922   0.876   2.973   0.620  0.5190  0.3403  0.2258
 4488SOL    HW124923   0.914   3.057   0.594  0.2842 -0.2069 -1.8434
 4488SOL    HW224924   0.839   2.933   0.541 -0.1171  2.1104 -0.3834
 4489SOL     OW24925   0.889   1.868   2.676 -0.0956  0.7190  0.6840
 4489SOL    HW124926   0.933   1.888   2.593 -0.3161  1.1048  0.6608
 4489SOL    HW224927   0.934   1.792   2.714 -0.4111  1.0507  1.7268
 4490SOL     OW24928   2.051   0.272  17.623  0.3664 -0.0174 -0.1575
 4490SOL    HW124929   2.103   0.349  17.600 -0.8575  0.5339 -1.0934
 4490SOL    HW224930   2.076   0.252   0.007  0.2822  1.0476  0.0997
 4491SOL     OW24931   2.983   4.429  14.004  0.4511 -0.0649  0.4294
 4491SOL    HW124932   2.997   4.435  13.910  0.1283  1.6108  0.4945
 4491SOL    HW224933   3.064   4.436  14.054  1.2271  0.5724 -0.9268
 4492SOL     OW24934   4.195   0.520  13.704 -0.0847  0.2468  0.3550
 4492SOL    HW124935   4.114   0.474  13.682 -0.8863  1.4738  0.7646
 4492SOL    HW224936   4.256   0.447  13.700 -0.5502 -0.1839  1.2185
 4493SOL     OW24937   0.662   4.517   1.317  0.0628  0.3426 -0.6512
 4493SOL    HW124938   0.723   4.455   1.356  0.6869  0.2870 -1.7104
 4493SOL    HW224939   0.713   4.545   1.241 -0.0944 -0.4775 -1.0523
 4494SOL     OW24940   2.473   0.440   1.138  0.5954 -0.0550  0.5567
 4494SOL    HW124941   2.544   0.403   1.190  0.9152 -0.6694 -0.3232
 4494SOL    HW224942   2.435   0.354   1.121 -0.5354  0.4203  0.7094
 4495SOL     OW24943   2.261   0.623  13.082 -0.2259  0.4089  0.5782
 4495SOL    HW124944   2.173   0.587  13.075 -0.0099  0.2420 -1.2589
 4495SOL    HW224945   2.311   0.564  13.026 -1.0472 -0.4493  0.7454
 4496SOL     OW24946   4.105   0.893   6.860  0.4962  0.2446 -0.2371
 4496SOL    HW124947   4.074   0.926   6.775 -1.6323 -1.7923 -0.2647
 4496SOL    HW224948   4.193   0.931   6.855 -1.0398  3.6905 -1.1445
 4497SOL     OW24949   3.647   3.503   2.933 -0.4498  0.1509  0.1622
 4497SOL    HW124950   3.602   3.430   2.976 -1.2116  1.6410  1.8677
 4497SOL    HW224951   3.657   3.570   3.000 -0.4448  0.6415 -0.3251
 4498SOL     OW24952   4.453   4.511   0.483 -0.0560  0.0609  0.6629
 4498SOL    HW124953   4.429   4.473   0.398  1.2012  3.0054 -0.9820
 4498SOL    HW224954   4.420   4.600   0.482  0.7739  0.3244 -2.5233
 4499SOL     OW24955   3.848   4.078   2.964  0.8126 -0.1573 -0.4745
 4499SOL    HW124956   3.776   4.134   2.994  1.0077  1.1592 -2.4824
 4499SOL    HW224957   3.804   4.043   2.886 -0.8642 -0.2672  0.5200
 4500SOL     OW24958   1.335   0.630   8.468  0.3840 -0.2305  0.1705
 4500SOL    HW124959   1.244   0.652   8.486  0.2283 -1.5155  0.9251
 4500SOL    HW224960   1.339   0.653   8.375 -1.6953 -0.1371  0.1030
 4501SOL     OW24961   3.815   0.020   7.955  0.3740  0.0744  0.0873
 4501SOL    HW124962   3.775   0.025   8.042 -0.1987 -1.7435 -0.0618
 4501SOL    HW224963   3.735   0.024   7.903  0.2453 -0.2759  0.2547
 4502SOL     OW24964   0.306   0.484   4.603 -0.2642  0.1354 -0.0782
 4502SOL    HW124965   0.318   0.499   4.510  0.6118  1.6867  0.2804
 4502SOL    HW224966   0.242   0.549   4.631 -0.8296  0.5607 -2.3697
 4503SOL     OW24967   0.782   4.322   3.749  0.1107 -0.5469 -0.2554
 4503SOL    HW124968   0.702   4.374   3.759 -0.1505 -1.0017  0.0435
 4503SOL    HW224969   0.787   4.340   3.655 -0.5741 -0.6009 -0.3014
 4504SOL     OW24970   2.725   4.153   1.080 -0.3678 -0.3977  0.5757
 4504SOL    HW124971   2.794   4.092   1.052  0.7664  1.1359  0.0538
 4504SOL    HW224972   2.691   4.193   1.000  0.6043 -0.7167 -0.0066
 4505SOL     OW24973   1.277   2.847   3.256 -0.4996 -0.1425 -0.1828
 4505SOL    HW124974   1.185   2.856   3.283 -0.3833 -1.9555  0.7798
 4505SOL    HW224975   1.285   2.919   3.193 -1.0857 -0.3609 -0.5141
 4506SOL     OW24976   3.788   3.414  13.682  0.5933 -0.1117 -1.1020
 4506SOL    HW124977   3.846   3.364  13.740 -1.7284 -1.9385 -0.3916
 4506SOL    HW224978   3.703   3.387  13.716  1.2967 -0.4174  0.3936
 4507SOL     OW24979   4.010   3.671  10.953 -0.4722 -0.5408  0.1143
 4507SOL    HW124980   4.084   3.610  10.959  1.4980  1.7641 -0.6778
 4507SOL    HW224981   4.028   3.750  11.004 -0.2620  0.1348 -1.0242
 4508SOL     OW24982   3.915   3.254  14.097  0.4744  0.6963  0.9684
 4508SOL    HW124983   3.853   3.199  14.050  0.2606  2.3826 -0.7424
 4508SOL    HW224984   3.885   3.345  14.085 -0.8515  0.2965  1.2332
 4509SOL     OW24985   0.589   1.757   6.612 -0.7003 -0.7398  0.8972
 4509SOL    HW124986   0.632   1.722   6.690  0.4889 -0.5137  0.3433
 4509SOL    HW224987   0.647   1.825   6.577 -1.1832 -0.5299  0.4937
 4510SOL     OW24988   2.812   1.443   6.281 -0.1603  0.3413  0.2131
 4510SOL    HW124989   2.903   1.474   6.277 -0.7796  2.3454  1.7183
 4510SOL    HW224990   2.822   1.351   6.307 -1.2897  0.2720  0.3812
 4511SOL     OW24991   2.586   2.282  13.841  0.0196  0.1970  0.2748
 4511SOL    HW124992   2.648   2.241  13.901 -1.3226 -0.8644  0.9334
 4511SOL    HW224993   2.574   2.209  13.781 -0.4622 -0.4841  1.2084
 4512SOL     OW24994   4.082   1.635   2.486  0.2377  0.5191 -0.2953
 4512SOL    HW124995   4.071   1.540   2.482 -1.9945  0.7120  1.4265
 4512SOL    HW224996   4.070   1.652   2.392  1.1033  2.7249 -0.0226
 4513SOL     OW24997   0.385   2.891   2.306  0.1896  0.2451 -0.1847
 4513SOL    HW124998   0.292   2.883   2.325  0.1059 -2.4165 -1.6897
 4513SOL    HW224999   0.415   2.826   2.369  0.4312  0.9164  0.3824
 4514SOL     OW25000   2.350   0.239  11.272  0.5346 -0.2159 -0.2946
 4514SOL    HW125001   2.390   0.296  11.207 -0.8645  0.9756 -0.0973
 4514SOL    HW225002   2.305   0.178  11.213  1.7851 -0.2904 -1.1885
 4515SOL     OW25003   1.482   4.154   6.218 -0.0777  0.1549 -0.4165
 4515SOL    HW125004   1.476   4.153   6.123 -0.8787  3.1575 -0.4036
 4515SOL    HW225005   1.474   4.248   6.236  1.4054 -0.1133  1.5856
 4516SOL     OW25006   1.999   3.348  10.863 -0.1874 -0.1806  0.0840
 4516SOL    HW125007   2.072   3.407  10.849 -1.6296  1.5853  0.0490
 4516SOL    HW225008   1.949   3.367  10.784  0.4553  1.0123 -0.0198
 4517SOL     OW25009   4.682   3.303  12.348 -0.0389  0.1013  0.4401
 4517SOL    HW125010   0.017   3.250  12.399  0.1504 -0.6912 -0.6196
 4517SOL    HW225011   4.603   3.249  12.347 -0.3610  0.5565  1.1962
 4518SOL     OW25012   0.338   4.225   5.103 -0.4110  0.2402 -0.0772
 4518SOL    HW125013   0.368   4.251   5.016 -0.2906  1.8877  0.4489
 4518SOL    HW225014   0.281   4.151   5.084  0.2473 -0.4233  0.5616
 4519SOL     OW25015   2.537   3.040  14.757 -0.0408 -0.3365  0.3101
 4519SOL    HW125016   2.511   3.127  14.728  1.2194  0.5110  1.6907
 4519SOL    HW225017   2.591   3.058  14.834  0.0442  1.2335 -0.1349
 4520SOL     OW25018   4.569   0.198   0.961 -0.2135 -0.2041  0.4770
 4520SOL    HW125019   4.522   0.152   1.031 -2.6042  2.1085  0.3916
 4520SOL    HW225020   4.635   0.247   1.009  1.1677 -0.1873 -1.4177
 4521SOL     OW25021   2.501   1.417  16.212  0.0065  0.5192 -0.4310
 4521SOL    HW125022   2.485   1.451  16.124  3.6881 -1.3384 -1.8186
 4521SOL    HW225023   2.559   1.342  16.201  0.9231  1.0285  0.9978
 4522SOL     OW25024   1.166   4.314   3.810 -0.2042 -0.0616  0.1311
 4522SOL    HW125025   1.084   4.295   3.856  0.5672 -0.3445  1.4141
 4522SOL    HW225026   1.225   4.252   3.854  0.6265  0.1332 -0.7065
 4523SOL     OW25027   0.949   3.984   2.149 -0.6102 -0.4376 -0.1162
 4523SOL    HW125028   0.976   3.894   2.132 -0.3465 -0.2401 -0.7366
 4523SOL    HW225029   0.926   4.003   2.058  0.2336 -1.5876 -0.5706
 4524SOL     OW25030   3.190   1.322   3.689  0.3829 -0.4483 -0.1020
 4524SOL    HW125031   3.256   1.328   3.621  1.4860  1.9204  1.1805
 4524SOL    HW225032   3.196   1.415   3.712 -3.3470 -0.1400 -0.3097
 4525SOL     OW25033   0.305   0.828   9.887 -0.0941 -0.2078 -0.2262
 4525SOL    HW125034   0.329   0.737   9.900  1.9242 -0.0293 -2.5964
 4525SOL    HW225035   0.367   0.859   9.821  1.3295 -2.6920 -0.0423
 4526SOL     OW25036   0.326   1.424   4.387  0.5219  0.3141  0.1717
 4526SOL    HW125037   0.362   1.378   4.463 -0.2038  0.3816  0.5534
 4526SOL    HW225038   0.241   1.453   4.419 -0.2437 -0.0285 -1.5896
 4527SOL     OW25039   0.965   2.486   8.197  0.3327  0.4539  0.0379
 4527SOL    HW125040   1.014   2.472   8.116  0.1207  0.8136 -0.1530
 4527SOL    HW225041   1.038   2.466   8.257  0.0293 -2.0655 -0.4375
 4528SOL     OW25042   0.436   4.622   5.301 -0.3887 -0.4691 -0.3398
 4528SOL    HW125043   0.441   4.598   5.394  0.9849 -3.4979 -1.1667
 4528SOL    HW225044   0.466   4.712   5.297 -2.1631  0.1509  0.1033
 4529SOL     OW25045   2.874   4.363   0.803 -0.3670 -0.6475 -0.3212
 4529SOL    HW125046   2.784   4.332   0.796 -1.5988  2.6386  0.7019
 4529SOL    HW225047   2.895   4.380   0.712  1.7287 -1.4152  0.0142
 4530SOL     OW25048   0.279   0.325   1.876 -0.4139  0.5206  0.6211
 4530SOL    HW125049   0.335   0.351   1.803  2.0851 -0.9073  2.0016
 4530SOL    HW225050   0.322   0.244   1.906  0.7438  0.7715 -0.3496
 4531SOL     OW25051   4.219   0.062  14.909 -0.1610  0.2857 -0.2834
 4531SOL    HW125052   4.211   0.074  15.003 -0.0524 -0.7693 -0.1510
 4531SOL    HW225053   4.239   0.151  14.879  1.0641  0.1737  0.2082
 4532SOL     OW25054   0.026   2.117  12.888  0.0169 -0.0402 -0.3425
 4532SOL    HW125055   0.026   2.029  12.926  0.9123  0.0459 -0.1228
 4532SOL    HW225056   0.101   2.154  12.935  2.3726 -2.6839 -2.0216
 4533SOL     OW25057   0.914   3.002  10.410  0.2998  0.4229  0.0612
 4533SOL    HW125058   0.934   3.015  10.503  2.2379 -0.1587 -0.2826
 4533SOL    HW225059   0.882   2.912  10.411  1.4049  0.0616  2.0434
 4534SOL     OW25060   3.853   3.508  16.452 -0.0609 -0.0915 -0.2304
 4534SOL    HW125061   3.817   3.587  16.412  0.0186  0.0061 -0.1068
 4534SOL    HW225062   3.934   3.505  16.401 -0.9418 -0.3215 -1.6113
 4535SOL     OW25063   2.407   2.203  13.462  0.5136 -0.2047  0.4299
 4535SOL    HW125064   2.454   2.153  13.528  0.7035 -1.2334 -0.4884
 4535SOL    HW225065   2.474   2.225  13.396 -0.0010  0.2146  0.0424
 4536SOL     OW25066   0.867   0.300   4.911  0.3392 -0.0323  0.2665
 4536SOL    HW125067   0.828   0.373   4.957  2.9157  0.6998  1.3023
 4536SOL    HW225068   0.915   0.257   4.982 -0.3925 -1.7369 -0.2647
 4537SOL     OW25069   0.427   0.500  17.005 -0.5684  0.1193  0.0012
 4537SOL    HW125070   0.420   0.525  17.097  0.0785  2.6202 -0.6413
 4537SOL    HW225071   0.334   0.511  16.985 -0.7706 -0.6891  0.4884
 4538SOL     OW25072   0.056   1.118   5.340  0.1466 -0.3350  0.4420
 4538SOL    HW125073   4.703   1.107   5.393  0.2480  0.2271  0.7094
 4538SOL    HW225074   0.120   1.110   5.411 -0.4825 -1.1311  0.9232
 4539SOL     OW25075   4.596   0.517   0.820  0.1235 -0.5385 -0.4495
 4539SOL    HW125076   4.505   0.491   0.833 -0.3308  0.8495 -0.8561
 4539SOL    HW225077   4.640   0.434   0.835  0.0340 -0.4158  0.5521
 4540SOL     OW25078   2.599   0.179   8.303  0.1269 -0.1493  0.0332
 4540SOL    HW125079   2.576   0.132   8.383  1.5351  0.7022  0.9389
 4540SOL    HW225080   2.577   0.269   8.327  2.5176  0.7680 -1.2420
 4541SOL     OW25081   1.144   2.209  12.793 -0.1211  0.0045 -0.5742
 4541SOL    HW125082   1.100   2.272  12.736 -0.7848 -0.5839 -0.7086
 4541SOL    HW225083   1.104   2.132  12.752 -0.8551  0.1131 -0.0580
 4542SOL     OW25084   3.847   3.186  11.221 -0.3657  0.2438  0.4395
 4542SOL    HW125085   3.856   3.199  11.315  2.7372 -0.5591  0.2342
 4542SOL    HW225086   3.812   3.270  11.192 -0.3117 -0.5665 -2.0067
 4543SOL     OW25087   1.404   3.610  15.553  0.1029  0.2054  0.2978
 4543SOL    HW125088   1.449   3.525  15.551  0.0300  0.2232 -2.4332
 4543SOL    HW225089   1.398   3.619  15.648  1.4473 -1.1049  0.5119
 4544SOL     OW25090   0.719   3.197   3.711  0.1906  0.1384  0.4806
 4544SOL    HW125091   0.677   3.111   3.709 -1.4768  0.9067  2.8217
 4544SOL    HW225092   0.804   3.178   3.672 -0.0445 -0.8463  0.4492
 4545SOL     OW25093   1.064   2.180   1.473 -0.2425  0.0487  0.3209
 4545SOL    HW125094   1.118   2.123   1.528  1.9991 -0.6788 -2.6770
 4545SOL    HW225095   1.131   2.247   1.464  1.0406 -1.4302 -1.1928
 4546SOL     OW25096   1.797   0.045   0.496 -0.3070  0.3144 -0.5661
 4546SOL    HW125097   1.728   4.707   0.479 -0.0692 -0.1320  0.1637
 4546SOL    HW225098   1.841   0.007   0.572  1.3056  1.8207 -0.7547
 4547SOL     OW25099   1.570   4.379   7.412  0.0581 -0.1626  0.0074
 4547SOL    HW125100   1.620   4.315   7.461  0.0112  0.1899  0.5183
 4547SOL    HW225101   1.635   4.447   7.392  0.8661 -1.2410 -1.0118
 4548SOL     OW25102   4.504   2.447  11.088  0.3689 -0.4464  0.5528
 4548SOL    HW125103   4.498   2.352  11.098  1.1340 -0.4670  0.8022
 4548SOL    HW225104   4.496   2.459  10.993 -3.5137  0.5810  1.0017
 4549SOL     OW25105   2.197   1.859   4.053  0.5384  0.6893  0.2950
 4549SOL    HW125106   2.286   1.838   4.081  0.3552  0.1115  0.4456
 4549SOL    HW225107   2.191   1.802   3.977  0.5529 -1.1968  1.7073
 4550SOL     OW25108   0.385   1.851   5.717  0.6330 -0.0824  0.0586
 4550SOL    HW125109   0.450   1.920   5.729 -0.7468  1.4376 -1.1990
 4550SOL    HW225110   0.451   1.783   5.704 -2.0181 -2.1714 -2.5288
 4551SOL     OW25111   3.117   2.128  16.037  0.0668 -0.4866  0.2170
 4551SOL    HW125112   3.025   2.102  16.032 -0.1395  0.2355  0.3309
 4551SOL    HW225113   3.139   2.116  15.945 -0.1207 -0.2834  0.1480
 4552SOL     OW25114   0.298   0.120   2.940  0.9737  0.1874 -1.0978
 4552SOL    HW125115   0.297   0.187   3.008  2.6038  1.0248 -1.9068
 4552SOL    HW225116   0.246   0.049   2.977  1.3875  1.0223  1.0584
 4553SOL     OW25117   0.522   4.676   8.331 -0.0993 -0.0106 -0.5029
 4553SOL    HW125118   0.536   4.702   8.423  2.7260 -0.7205 -0.7398
 4553SOL    HW225119   0.479   0.030   8.300 -1.4847 -1.1402 -1.4404
 4554SOL     OW25120   4.206   2.495   8.495 -0.7374 -0.5348  0.3028
 4554SOL    HW125121   4.195   2.509   8.589 -0.6183  0.8963  0.0970
 4554SOL    HW225122   4.150   2.565   8.462 -2.8270 -2.4670 -0.2544
 4555SOL     OW25123   0.471   0.833   1.897 -0.0975  0.2248 -0.1938
 4555SOL    HW125124   0.502   0.747   1.925  0.8215  0.5958 -0.0591
 4555SOL    HW225125   0.520   0.880   1.965  0.3851 -0.2500 -0.2096
 4556SOL     OW25126   3.325   2.600   9.881  0.4002 -0.6453  0.8603
 4556SOL    HW125127   3.258   2.654   9.840  1.5881 -1.2268 -1.8486
 4556SOL    HW225128   3.272   2.523   9.901  1.3278 -0.9325  2.1537
 4557SOL     OW25129   4.133   1.977   9.538 -0.1530  0.5101 -0.3169
 4557SOL    HW125130   4.121   2.025   9.620 -2.0670 -1.5144  0.5824
 4557SOL    HW225131   4.228   1.987   9.530  0.2565 -4.0470 -0.8895
 4558SOL     OW25132   2.189   0.050  15.718  0.3379  0.0184  0.0343
 4558SOL    HW125133   2.139   0.120  15.762 -0.3781 -0.0634 -0.6451
 4558SOL    HW225134   2.115   0.018  15.666 -0.9103  1.8900  0.6299
 4559SOL     OW25135   0.885   4.681   2.748  0.0979 -0.3653 -0.2539
 4559SOL    HW125136   0.872   4.586   2.741  1.5305 -0.5448 -0.4194
 4559SOL    HW225137   0.796   4.713   2.734 -0.7733 -3.3446 -1.5053
 4560SOL     OW25138   4.492   4.630  16.393 -0.1599  0.8730 -0.1470
 4560SOL    HW125139   4.466   4.597  16.479  0.6640  0.9692  0.1459
 4560SOL    HW225140   4.586   4.610  16.393 -0.4271 -0.3951 -0.5636
 4561SOL     OW25141   0.579   2.908  16.688 -0.0995 -0.4881  0.3737
 4561SOL    HW125142   0.562   2.826  16.735  1.4965 -1.1911 -0.2476
 4561SOL    HW225143   0.645   2.947  16.747  0.3274  1.0883 -1.1593
 4562SOL     OW25144   3.499   3.732   1.477 -0.2247  0.0867  0.1673
 4562SOL    HW125145   3.461   3.679   1.407 -0.2360  1.8069 -1.1375
 4562SOL    HW225146   3.588   3.698   1.468 -1.1200 -1.9143 -1.2126
 4563SOL     OW25147   3.402   0.195   7.435  0.1350  0.0303  0.0912
 4563SOL    HW125148   3.327   0.247   7.407 -0.4368 -1.0236 -0.3126
 4563SOL    HW225149   3.403   0.132   7.363  0.3959 -0.9108  0.9206
 4564SOL     OW25150   2.528   0.454   5.110  0.6261  0.1636 -0.3122
 4564SOL    HW125151   2.514   0.488   5.021  1.7061 -1.7814 -1.2003
 4564SOL    HW225152   2.473   0.517   5.157 -0.0029 -0.7753  0.2173
 4565SOL     OW25153   3.105   1.187  17.106  0.3673 -0.5061 -0.1160
 4565SOL    HW125154   3.019   1.217  17.074  0.5953 -1.2275 -1.3929
 4565SOL    HW225155   3.148   1.159  17.026 -1.4874  0.6262 -1.5232
 4566SOL     OW25156   3.594   0.683   1.237  0.4403  0.1150  0.5096
 4566SOL    HW125157   3.522   0.708   1.295 -0.2332  2.2688 -1.2424
 4566SOL    HW225158   3.584   0.746   1.166  0.9871 -0.5438 -0.1463
 4567SOL     OW25159   3.479   0.179   9.554 -0.3960  0.0677 -0.4194
 4567SOL    HW125160   3.538   0.164   9.480 -0.1709 -0.5621 -0.1132
 4567SOL    HW225161   3.405   0.224   9.512 -0.3177  1.3433  0.8206
 4568SOL     OW25162   3.232   1.654   4.477 -0.0927 -0.0566  0.0046
 4568SOL    HW125163   3.292   1.616   4.541 -0.1475 -0.6281 -0.2789
 4568SOL    HW225164   3.160   1.592   4.470 -0.2302  0.2368 -1.1891
 4569SOL     OW25165   2.169   3.765   5.651  0.3771  0.1436 -0.1332
 4569SOL    HW125166   2.195   3.843   5.700  1.3048 -1.3252  1.6841
 4569SOL    HW225167   2.091   3.795   5.604  0.6179  1.7964  0.5211
 4570SOL     OW25168   3.176   1.177   3.990 -0.1764 -0.1253  0.1255
 4570SOL    HW125169   3.205   1.213   3.906  1.3190 -0.6511  0.4143
 4570SOL    HW225170   3.154   1.257   4.037 -0.8517 -0.2254 -0.0321
 4571SOL     OW25171   0.294   0.466   4.991  0.0390 -0.0602  0.3735
 4571SOL    HW125172   0.275   0.559   5.005 -0.5855 -0.2693  0.8903
 4571SOL    HW225173   0.258   0.437   5.075  1.0745 -0.1401  0.7942
 4572SOL     OW25174   0.169   3.382  11.207 -0.1613 -0.6932  0.4664
 4572SOL    HW125175   0.233   3.434  11.158 -2.2637 -0.1348 -1.6541
 4572SOL    HW225176   0.099   3.380  11.143  1.0170  1.0958 -0.8676
 4573SOL     OW25177   4.281   3.748  13.154  0.0161 -0.1583 -0.2743
 4573SOL    HW125178   4.223   3.818  13.121  2.1685  1.2993 -0.9736
 4573SOL    HW225179   4.314   3.783  13.237  0.2620 -0.0197 -0.4293
 4574SOL     OW25180   0.429   2.457  17.312  0.0582  0.4327  0.3729
 4574SOL    HW125181   0.481   2.414  17.379 -0.7331 -0.0336  0.6819
 4574SOL    HW225182   0.373   2.515  17.362 -0.6758  0.7843 -0.8586
 4575SOL     OW25183   2.757   3.449   3.333  0.1651 -0.8268 -0.1543
 4575SOL    HW125184   2.797   3.428   3.248  0.9236 -0.1787  0.0368
 4575SOL    HW225185   2.815   3.403   3.394 -0.0236  1.0488  1.4513
 4576SOL     OW25186   1.856   3.354   7.612  0.3594  0.2548 -0.7096
 4576SOL    HW125187   1.926   3.414   7.640  0.8665 -0.0816 -1.2694
 4576SOL    HW225188   1.845   3.399   7.528  0.9318  0.4920 -0.6608
 4577SOL     OW25189   1.965   2.745   2.742 -0.0480 -0.0339 -0.1651
 4577SOL    HW125190   2.056   2.751   2.772 -0.4087 -0.9833  1.0857
 4577SOL    HW225191   1.975   2.734   2.648  1.0444 -0.8082  0.0446
 4578SOL     OW25192   0.319   4.485   1.019  0.2588  0.1383  0.3195
 4578SOL    HW125193   0.402   4.451   0.986 -1.2274 -2.3873 -0.8571
 4578SOL    HW225194   0.356   4.572   1.036  0.5384  0.0917 -0.0449
 4579SOL     OW25195   3.000   2.606   4.950  0.5815 -0.1482 -0.6030
 4579SOL    HW125196   2.966   2.633   4.865 -1.3858 -1.4851 -0.2346
 4579SOL    HW225197   3.040   2.523   4.926  1.9254  0.5510 -0.8275
 4580SOL     OW25198   1.425   1.409   7.459  0.5214 -0.4752 -0.2449
 4580SOL    HW125199   1.427   1.394   7.553 -1.8636 -2.4766 -0.5132
 4580SOL    HW225200   1.488   1.480   7.444 -2.1784  1.9023 -0.4779
 4581SOL     OW25201   2.263   0.003   5.514  0.4450 -0.2833 -0.0082
 4581SOL    HW125202   2.173   4.697   5.504  0.4424 -0.6664  1.3078
 4581SOL    HW225203   2.302   4.655   5.560 -0.1803  0.7249  2.1552
 4582SOL     OW25204   2.936   3.956  15.759  0.8330 -0.0023 -0.7318
 4582SOL    HW125205   2.862   3.900  15.735 -0.4648  0.9877  0.9634
 4582SOL    HW225206   2.913   4.037  15.713 -0.7754  0.3049  0.6275
 4583SOL     OW25207   4.394   0.306   2.687  0.5472  0.2747 -0.0942
 4583SOL    HW125208   4.421   0.344   2.771  1.6378 -0.1150 -0.2763
 4583SOL    HW225209   4.415   0.214   2.703 -1.2057 -0.0837  0.1643
 4584SOL     OW25210   2.586   0.819   5.239  0.4398 -0.1649 -0.6640
 4584SOL    HW125211   2.613   0.860   5.321  0.2345 -1.5065  0.0790
 4584SOL    HW225212   2.514   0.872   5.205  0.8623 -0.9273 -2.7800
 4585SOL     OW25213   0.944   2.608  14.487 -0.0925  0.4960  0.5574
 4585SOL    HW125214   0.888   2.545  14.533  0.3322  0.6813  1.3107
 4585SOL    HW225215   0.937   2.575  14.397 -0.1322 -1.3071  1.2280
 4586SOL     OW25216   1.718   1.443  16.877  0.0981  0.1244  0.0589
 4586SOL    HW125217   1.675   1.489  16.804 -2.3783  1.3218  2.2501
 4586SOL    HW225218   1.777   1.378  16.839 -1.3840 -0.5806 -1.0617
 4587SOL     OW25219   1.418   4.589   8.419  0.2999 -0.1911 -0.2001
 4587SOL    HW125220   1.426   4.563   8.511 -2.2310  1.1737  0.4176
 4587SOL    HW225221   1.350   4.527   8.392  0.1165  0.6722 -1.6982
 4588SOL     OW25222   1.625   1.703   6.160 -0.0331 -0.2962  0.0491
 4588SOL    HW125223   1.706   1.662   6.129  0.0262 -0.7853  0.8445
 4588SOL    HW225224   1.579   1.624   6.188  1.2724 -0.1480  2.6344
 4589SOL     OW25225   1.493   3.420   2.844  0.3431 -0.2883  0.4864
 4589SOL    HW125226   1.553   3.489   2.817 -1.0991  1.6034  2.1662
 4589SOL    HW225227   1.561   3.371   2.889  1.6069  2.1908  1.2417
 4590SOL     OW25228   4.385   3.624  13.581 -0.2411  0.0426 -0.3470
 4590SOL    HW125229   4.393   3.682  13.657  2.9374  3.2599 -3.1149
 4590SOL    HW225230   4.290   3.624  13.568 -0.1188  0.6378 -1.2725
 4591SOL     OW25231   2.667   3.608  12.590  0.2506 -0.5391 -0.1453
 4591SOL    HW125232   2.753   3.637  12.620 -0.6795  1.5190  0.5544
 4591SOL    HW225233   2.687   3.518  12.562 -1.4391 -0.8262 -0.4315
 4592SOL     OW25234   1.564   1.625   1.378  0.0249  0.5767 -0.1038
 4592SOL    HW125235   1.494   1.646   1.440 -1.1595  1.4085 -1.7221
 4592SOL    HW225236   1.618   1.558   1.419 -1.1293 -0.6444 -0.5868
 4593SOL     OW25237   3.378   1.270   2.432 -0.0809 -0.1826  0.4450
 4593SOL    HW125238   3.341   1.342   2.483  0.6258 -0.6106  1.5527
 4593SOL    HW225239   3.461   1.316   2.418 -0.2564  0.1454  0.4674
 4594SOL     OW25240   3.426   3.590  10.352 -0.7644  0.1601 -0.0877
 4594SOL    HW125241   3.445   3.496  10.346  0.7676  0.4995 -0.5180
 4594SOL    HW225242   3.360   3.596  10.421 -2.2572  1.5075 -1.6221
 4595SOL     OW25243   2.421   3.247  11.386 -0.0570 -0.7080 -0.0560
 4595SOL    HW125244   2.342   3.301  11.380 -0.0689 -0.6616  0.4698
 4595SOL    HW225245   2.459   3.250  11.299 -4.4406 -1.2148 -1.9626
 4596SOL     OW25246   1.535   1.730  13.569 -0.1889  0.4906 -0.3962
 4596SOL    HW125247   1.570   1.716  13.481  0.8311  0.0974  0.0798
 4596SOL    HW225248   1.443   1.748  13.547 -0.5848 -2.1188 -0.7701
 4597SOL     OW25249   0.852   0.370  16.095  0.1941  0.4682 -0.1512
 4597SOL    HW125250   0.890   0.283  16.106  2.3072  1.4000 -0.0157
 4597SOL    HW225251   0.839   0.385  16.189 -0.3930  0.5556 -0.2507
 4598SOL     OW25252   0.017   2.832   4.835 -0.1365 -0.0646 -0.1435
 4598SOL    HW125253   0.036   2.919   4.870  2.0210  0.8523 -3.6348
 4598SOL    HW225254   0.089   2.778   4.866 -0.6312 -1.7280 -1.9249
 4599SOL     OW25255   3.926   3.397  16.695  0.2181  0.5414 -0.1030
 4599SOL    HW125256   3.888   3.435  16.616  2.1779  0.9113 -0.8573
 4599SOL    HW225257   3.887   3.310  16.695  0.4744  0.4235  0.3674
 4600SOL     OW25258   3.993   2.587   8.972 -0.3673  0.2571  0.2265
 4600SOL    HW125259   4.011   2.681   8.971  0.4789  0.0890 -0.8663
 4600SOL    HW225260   4.048   2.556   9.043  0.0122 -3.5006 -1.7041
 4601SOL     OW25261   3.312   4.267   6.114 -0.2621  0.6058  0.4742
 4601SOL    HW125262   3.408   4.260   6.109 -0.2597  0.6883  0.4006
 4601SOL    HW225263   3.292   4.181   6.150  1.5838  0.2478  0.6277
 4602SOL     OW25264   3.703   3.801   5.992  0.1414  0.1000 -0.3105
 4602SOL    HW125265   3.666   3.714   5.982  0.1036  0.3318 -2.3507
 4602SOL    HW225266   3.674   3.828   5.905  0.6438  0.3081 -0.4145
 4603SOL     OW25267   2.289   2.976  11.488 -0.2479  0.7399  0.7197
 4603SOL    HW125268   2.195   2.995  11.488 -0.8022 -2.0190 -1.8831
 4603SOL    HW225269   2.328   3.062  11.473 -1.4087  1.4070  1.5034
 4604SOL     OW25270   1.818   4.186  15.098  0.9332 -0.7571  0.2026
 4604SOL    HW125271   1.776   4.256  15.049  0.7050  0.0114  1.5025
 4604SOL    HW225272   1.789   4.106  15.054 -1.5226  1.0487 -1.4776
 4605SOL     OW25273   4.183   0.840   6.309  0.0495  0.3343  0.5133
 4605SOL    HW125274   4.259   0.784   6.290 -1.1380 -1.1320  0.0762
 4605SOL    HW225275   4.224   0.927   6.310 -0.4437  0.5894 -0.9881
 4606SOL     OW25276   2.183   2.851   6.045  0.1154  0.0975 -0.2545
 4606SOL    HW125277   2.237   2.812   5.977 -0.7114 -0.1858 -0.7504
 4606SOL    HW225278   2.159   2.773   6.096 -0.3324  0.7941  0.6140
 4607SOL     OW25279   0.122   3.546   5.902  0.1603  0.2250  0.0184
 4607SOL    HW125280   0.057   3.576   5.966  2.0234 -2.2834  3.0785
 4607SOL    HW225281   0.067   3.550   5.824 -1.3480 -1.2385  1.0153
 4608SOL     OW25282   1.735   0.456   7.649  0.2015 -0.0588  0.0344
 4608SOL    HW125283   1.662   0.394   7.648  1.6345 -1.7290 -1.1646
 4608SOL    HW225284   1.787   0.414   7.716 -0.3162  1.8192  1.6219
 4609SOL     OW25285   2.677   1.798  15.364 -0.3895 -0.4808  0.2780
 4609SOL    HW125286   2.600   1.833  15.409 -0.9718  2.7337 -3.2559
 4609SOL    HW225287   2.679   1.836  15.277  1.4945  0.0701  0.5593
 4610SOL     OW25288   2.182   2.424   3.135  0.1972 -0.0511  0.2798
 4610SOL    HW125289   2.139   2.398   3.053 -0.3425  1.0194  0.2250
 4610SOL    HW225290   2.272   2.424   3.104  0.9757  1.2546  2.5979
 4611SOL     OW25291   4.543   4.524   0.215 -0.3001 -0.1515 -0.3913
 4611SOL    HW125292   4.629   4.565   0.201 -0.5299  0.5295  0.1887
 4611SOL    HW225293   4.572   4.451   0.269 -0.5677  0.1147  0.1059
 4612SOL     OW25294   4.105   4.418   6.023 -0.2790  0.2284 -0.1165
 4612SOL    HW125295   4.092   4.363   6.100  3.1172 -2.3347 -1.3443
 4612SOL    HW225296   4.148   4.496   6.056 -1.4608  0.6527  0.3968
 4613SOL     OW25297   0.981   3.492   3.651 -0.4624 -0.2193  0.5838
 4613SOL    HW125298   0.960   3.491   3.558  1.5869  0.4083  0.1293
 4613SOL    HW225299   0.891   3.487   3.684 -0.8582  1.8786 -0.1767
 4614SOL     OW25300   1.334   1.404   7.751  0.2232  0.1251  0.2169
 4614SOL    HW125301   1.324   1.362   7.836 -2.0072  1.1404  0.4513
 4614SOL    HW225302   1.331   1.496   7.777 -1.7074  0.1038  0.0597
 4615SOL     OW25303   0.986   0.944  11.040 -0.0027 -0.4740  0.9789
 4615SOL    HW125304   0.894   0.964  11.021 -0.8017 -2.3150  2.8565
 4615SOL    HW225305   0.969   0.874  11.103 -0.0970 -2.3667 -1.1322
 4616SOL     OW25306   4.297   0.656  14.156  0.1446 -0.4706 -0.5336
 4616SOL    HW125307   4.302   0.655  14.251  0.7691 -1.8083 -0.5757
 4616SOL    HW225308   4.282   0.750  14.147  1.8096 -0.3625 -2.2556
 4617SOL     OW25309   2.873   3.286   5.930 -0.3635 -0.3637 -0.2058
 4617SOL    HW125310   2.899   3.378   5.923 -1.1024 -0.0863  0.7470
 4617SOL    HW225311   2.899   3.277   6.021 -0.0976  1.5717 -0.0893
 4618SOL     OW25312   4.314   1.799   3.074 -0.1519 -0.1831 -0.1573
 4618SOL    HW125313   4.271   1.828   2.993  0.9417  2.1124  0.0728
 4618SOL    HW225314   4.384   1.864   3.077  0.8935 -1.2443 -1.7030
 4619SOL     OW25315   1.446   0.467   5.626 -0.5376 -0.2272 -0.0500
 4619SOL    HW125316   1.489   0.512   5.553  1.4830  0.6990  1.7087
 4619SOL    HW225317   1.486   0.500   5.706 -1.6770  2.7753 -0.7010
 4620SOL     OW25318   2.693   0.907   6.648  0.2115 -0.1795 -0.2013
 4620SOL    HW125319   2.624   0.974   6.654 -1.4503 -2.1526  2.4149
 4620SOL    HW225320   2.636   0.837   6.680  0.8493 -0.8130 -0.4572
 4621SOL     OW25321   0.022   3.205   3.653 -0.5857  0.5435  0.0601
 4621SOL    HW125322   4.703   3.137   3.602 -3.2695  1.6346  1.0018
 4621SOL    HW225323   0.023   3.275   3.587 -1.7843  0.7473  0.2649
 4622SOL     OW25324   4.354   4.317   5.123  0.3227 -0.0777  0.4642
 4622SOL    HW125325   4.274   4.305   5.175 -0.1636  1.0468 -0.0401
 4622SOL    HW225326   4.362   4.410   5.103  4.1749 -0.3961  0.6182
 4623SOL     OW25327   4.194   1.344   7.782 -0.8185 -0.2958 -0.4189
 4623SOL    HW125328   4.127   1.309   7.840 -0.7664 -0.5350 -0.5014
 4623SOL    HW225329   4.140   1.358   7.704  0.4423 -0.1094 -1.2539
 4624SOL     OW25330   4.284   3.127   1.675  0.4795 -0.0479  0.5104
 4624SOL    HW125331   4.277   3.212   1.632  0.3001 -0.9846 -1.3467
 4624SOL    HW225332   4.273   3.071   1.598  0.3925  1.0886 -0.3027
 4625SOL     OW25333   2.699   0.206  10.462 -0.0650 -0.5654  0.0364
 4625SOL    HW125334   2.636   0.144  10.498  1.8552 -0.7931  3.0501
 4625SOL    HW225335   2.645   0.244  10.392  0.1171  1.1110  0.7996
 4626SOL     OW25336   3.239   1.352   8.006 -0.6897 -0.0448 -0.2930
 4626SOL    HW125337   3.287   1.379   8.084 -0.8239  1.4656 -0.7434
 4626SOL    HW225338   3.310   1.334   7.945 -2.8910 -2.7443 -2.0857
 4627SOL     OW25339   3.678   3.017   3.525 -0.8650  0.4430  0.4576
 4627SOL    HW125340   3.711   2.982   3.442 -0.5777  0.4659  0.5603
 4627SOL    HW225341   3.682   3.111   3.508  0.7833  0.5189  1.2016
 4628SOL     OW25342   1.937   4.030   4.611  0.0900 -0.3818 -0.1810
 4628SOL    HW125343   1.893   4.115   4.602 -1.2608 -1.2666 -2.0955
 4628SOL    HW225344   1.969   4.040   4.700 -1.3070 -1.0157  0.4025
 4629SOL     OW25345   0.421   3.111   4.621  0.1882 -0.3164 -0.4338
 4629SOL    HW125346   0.489   3.052   4.656 -0.8340 -1.3114 -0.1304
 4629SOL    HW225347   0.352   3.090   4.683  0.5032 -0.0447  0.0063
 4630SOL     OW25348   2.316   1.157   8.590 -0.2203  0.1103  0.0271
 4630SOL    HW125349   2.238   1.207   8.566  0.8445  1.2136 -1.1790
 4630SOL    HW225350   2.349   1.104   8.518 -0.8517  1.2295 -1.0869
 4631SOL     OW25351   0.503   2.214   8.913 -0.7193 -0.6756 -0.3203
 4631SOL    HW125352   0.483   2.124   8.886 -1.4944 -0.0263 -1.8735
 4631SOL    HW225353   0.580   2.224   8.858 -0.9977 -0.6247 -0.7060
 4632SOL     OW25354   4.055   4.204   6.174 -0.6692  0.2270  0.3608
 4632SOL    HW125355   3.972   4.158   6.170  0.0253 -0.9326 -0.7056
 4632SOL    HW225356   4.116   4.136   6.203 -0.1713 -0.6117 -2.6446
 4633SOL     OW25357   2.379   3.616   4.459  0.0814  0.3764  0.1576
 4633SOL    HW125358   2.397   3.630   4.552 -1.1340  0.0778  0.4495
 4633SOL    HW225359   2.294   3.661   4.466 -1.6633 -3.2437  2.5323
 4634SOL     OW25360   4.009   0.160   6.690  0.1968 -0.6811  0.2715
 4634SOL    HW125361   3.934   0.141   6.747  1.5193 -2.5747  1.3562
 4634SOL    HW225362   4.078   0.151   6.754  0.3041  1.3109  0.4245
 4635SOL     OW25363   0.855   2.748  15.337  0.1484  0.1783  0.2449
 4635SOL    HW125364   0.897   2.786  15.414 -1.5851  1.1523  0.7050
 4635SOL    HW225365   0.932   2.712  15.295 -0.5365 -1.4611  0.3831
 4636SOL     OW25366   0.035   0.116   8.272 -0.7829 -0.2612  0.4737
 4636SOL    HW125367   0.063   0.086   8.359 -0.2174 -1.9194 -0.2777
 4636SOL    HW225368   0.093   0.066   8.214 -0.8246  0.0445  0.1698
 4637SOL     OW25369   3.851   4.439   4.408  0.2597 -0.1654  0.1878
 4637SOL    HW125370   3.843   4.351   4.444  2.0447 -0.3913  0.0430
 4637SOL    HW225371   3.874   4.493   4.484  0.4459  1.0940 -0.7687
 4638SOL     OW25372   3.408   1.682   8.657 -0.3676 -0.7645 -0.2854
 4638SOL    HW125373   3.330   1.680   8.712 -0.8361  0.6595 -0.8983
 4638SOL    HW225374   3.470   1.654   8.724 -0.8055  0.5890  0.6778
 4639SOL     OW25375   0.081   1.323   3.013 -0.1360  0.0971 -0.2628
 4639SOL    HW125376   0.095   1.343   2.920  0.3185  0.2401 -0.1636
 4639SOL    HW225377   0.093   1.412   3.045  1.2278 -0.6603  1.3243
 4640SOL     OW25378   3.779   4.683   1.639  0.3100  0.9546  0.0454
 4640SOL    HW125379   3.851   0.012   1.607 -0.4574  1.8499 -0.1245
 4640SOL    HW225380   3.746   4.635   1.563 -1.9768  0.2561  1.4910
 4641SOL     OW25381   1.454   4.331   2.950  0.0821 -0.2662 -0.3654
 4641SOL    HW125382   1.485   4.342   3.040 -0.7889 -0.8674  0.0157
 4641SOL    HW225383   1.476   4.241   2.926  0.7428  0.2469 -1.6222
 4642SOL     OW25384   1.120   2.114   4.811  0.1387 -0.6869 -0.1144
 4642SOL    HW125385   1.044   2.066   4.845  0.4194 -0.5713  0.6669
 4642SOL    HW225386   1.176   2.045   4.775  1.2859  0.4845 -0.5510
 4643SOL     OW25387   2.141   4.345   5.933  0.7491  0.1941  0.6198
 4643SOL    HW125388   2.092   4.312   6.008 -2.5969  0.6451 -1.3796
 4643SOL    HW225389   2.091   4.424   5.912 -0.0091 -0.7432 -1.0783
 4644SOL     OW25390   0.689   0.871   5.642 -0.6188 -0.7226 -0.0668
 4644SOL    HW125391   0.763   0.860   5.582 -0.1098  1.3303  0.1822
 4644SOL    HW225392   0.684   0.967   5.647 -3.8558 -0.9627  1.4424
 4645SOL     OW25393   1.881   3.648   1.713 -0.8117 -0.0353 -0.4804
 4645SOL    HW125394   1.855   3.724   1.765 -3.6437 -0.7947 -0.7706
 4645SOL    HW225395   1.812   3.582   1.712  1.0388 -1.9788  0.6058
 4646SOL     OW25396   0.222   1.360  16.955 -0.5518  0.0391 -0.1308
 4646SOL    HW125397   0.220   1.289  17.019  3.1631 -0.1094 -0.2156
 4646SOL    HW225398   0.163   1.337  16.883  1.0451 -0.8388 -1.1566
 4647SOL     OW25399   2.740   0.541   9.265 -0.4132 -0.3908  0.1741
 4647SOL    HW125400   2.747   0.541   9.169  0.6303  0.3599  0.2547
 4647SOL    HW225401   2.645   0.535   9.270 -0.3505 -0.7058  0.9853
 4648SOL     OW25402   1.583   1.899   6.358 -0.0596 -0.4298  0.1080
 4648SOL    HW125403   1.625   1.851   6.286 -0.3422  1.8246 -1.5455
 4648SOL    HW225404   1.659   1.938   6.400  0.1416 -0.0462 -0.6133
 4649SOL     OW25405   1.098   4.034   4.919  0.3301  0.1680 -0.3387
 4649SOL    HW125406   1.158   4.015   4.991  0.2470 -1.8459 -0.8053
 4649SOL    HW225407   1.052   4.098   4.973  2.3264  0.9825  0.4050
 4650SOL     OW25408   1.057   0.235   9.102  0.3334 -0.2893  0.5022
 4650SOL    HW125409   1.003   0.283   9.040  0.0184  0.2578  1.2109
 4650SOL    HW225410   1.150   0.258   9.096  0.3910 -0.5423  0.4185
 4651SOL     OW25411   4.057   4.284  13.083 -0.4561 -0.2266 -0.2032
 4651SOL    HW125412   3.983   4.286  13.021 -0.4005 -0.8706 -0.2855
 4651SOL    HW225413   4.030   4.210  13.137  0.1487  1.1436  1.9641
 4652SOL     OW25414   3.268   0.725  15.088 -0.0925  0.2488  0.7425
 4652SOL    HW125415   3.241   0.648  15.138  0.7576 -0.6574 -0.1997
 4652SOL    HW225416   3.195   0.734  15.026  0.9107 -1.1597 -0.6500
 4653SOL     OW25417   2.536   3.687  16.185 -0.1957  0.3415  0.3161
 4653SOL    HW125418   2.612   3.734  16.219  0.1654  0.0790 -0.1223
 4653SOL    HW225419   2.527   3.691  16.089 -0.7591 -1.1589  0.3069
 4654SOL     OW25420   0.073   1.670   2.900 -0.0991 -0.4672  0.0523
 4654SOL    HW125421   0.161   1.635   2.916  0.8528  2.3556  1.0314
 4654SOL    HW225422   0.094   1.756   2.864  1.1837 -0.8813 -0.1798
 4655SOL     OW25423   0.573   3.325   8.009  0.7917 -0.0134  0.3810
 4655SOL    HW125424   0.516   3.297   7.937  2.0224  0.3000 -0.7237
 4655SOL    HW225425   0.500   3.345   8.068 -0.4227 -1.2728 -0.6831
 4656SOL     OW25426   3.546   0.886   9.519  0.5451 -0.1556 -0.1792
 4656SOL    HW125427   3.485   0.933   9.463 -0.7706  0.4891  1.7964
 4656SOL    HW225428   3.624   0.904   9.466  1.3062  2.3853  1.7725
 4657SOL     OW25429   1.967   1.237   3.183 -0.1060  0.0546 -0.1812
 4657SOL    HW125430   1.935   1.259   3.096 -0.8588 -0.8409 -0.1326
 4657SOL    HW225431   2.006   1.152   3.163 -0.4424  0.0579 -0.8403
 4658SOL     OW25432   1.568   1.076  10.200  0.2416  0.2303  0.0605
 4658SOL    HW125433   1.662   1.069  10.217  0.2755  1.0592  0.2438
 4658SOL    HW225434   1.542   1.152  10.253  3.0257  0.7503  0.6828
 4659SOL     OW25435   1.309   4.301   7.699 -0.0856 -0.2402 -0.2924
 4659SOL    HW125436   1.394   4.346   7.700 -0.3059  0.1681 -0.2029
 4659SOL    HW225437   1.249   4.374   7.685 -1.3816 -1.3514 -0.5157
 4660SOL     OW25438   3.760   2.848   8.714 -0.2345  0.0544 -0.1908
 4660SOL    HW125439   3.706   2.862   8.636 -0.9303 -1.0301  0.0961
 4660SOL    HW225440   3.734   2.763   8.750 -0.2102 -0.5016 -1.4907
 4661SOL     OW25441   1.227   4.017   1.908  0.2183  0.2148  0.0837
 4661SOL    HW125442   1.300   3.990   1.852 -0.2945 -1.9417  0.4166
 4661SOL    HW225443   1.207   4.104   1.873  0.0347 -0.2366 -0.9492
 4662SOL     OW25444   2.622   2.753   2.229 -0.1337  0.0532  0.1132
 4662SOL    HW125445   2.682   2.747   2.155 -1.0787  0.6349 -0.6915
 4662SOL    HW225446   2.580   2.667   2.237  1.3354 -0.6939 -0.2516
 4663SOL     OW25447   0.540   3.949  11.356 -0.4229  0.5438 -0.4669
 4663SOL    HW125448   0.545   3.856  11.375  1.7908  1.4453  3.2252
 4663SOL    HW225449   0.575   3.946  11.267  0.5906 -1.1960  0.0064
 4664SOL     OW25450   2.851   1.247  13.798 -0.2037  0.2183 -0.2002
 4664SOL    HW125451   2.771   1.236  13.851 -0.3102  1.7479 -0.0373
 4664SOL    HW225452   2.822   1.191  13.726 -2.3928  0.6948  0.2970
 4665SOL     OW25453   3.363   3.350   7.247 -0.2655 -0.5004  0.4045
 4665SOL    HW125454   3.401   3.418   7.192 -0.4234 -1.5955 -1.0614
 4665SOL    HW225455   3.422   3.283   7.213  0.6380 -0.3131  1.6205
 4666SOL     OW25456   0.993   1.473   3.326  0.1755  0.6192 -0.1524
 4666SOL    HW125457   1.060   1.517   3.379  0.0078  1.1151 -0.3495
 4666SOL    HW225458   0.988   1.537   3.255 -1.5086  0.3696 -0.2487
 4667SOL     OW25459   1.964   3.147   2.684 -0.8223 -0.0682 -0.1855
 4667SOL    HW125460   1.929   3.058   2.674 -0.5335 -0.4732  2.2902
 4667SOL    HW225461   1.963   3.174   2.592 -1.9253  0.4630 -0.0206
 4668SOL     OW25462   3.078   1.670   6.048  0.1001 -0.0364 -0.0513
 4668SOL    HW125463   2.984   1.688   6.050  0.7018  3.3706 -2.0736
 4668SOL    HW225464   3.087   1.629   5.962  0.0327 -1.1474  0.4665
 4669SOL     OW25465   2.008   3.120  12.825  0.4425  0.4828  0.1307
 4669SOL    HW125466   2.004   3.076  12.910 -0.8607 -0.5354 -0.4647
 4669SOL    HW225467   2.002   3.211  12.854  0.0776  0.2320  0.8299
 4670SOL     OW25468   0.448   3.939  15.181  0.3128  0.0886  0.6786
 4670SOL    HW125469   0.420   3.866  15.236 -0.6398 -0.1505 -0.1199
 4670SOL    HW225470   0.436   4.009  15.245 -1.7775  0.8851 -0.5453
 4671SOL     OW25471   2.354   2.781   6.422  0.2127  0.1826  0.5082
 4671SOL    HW125472   2.345   2.842   6.495  0.3839 -0.0350  0.7114
 4671SOL    HW225473   2.313   2.831   6.352  1.7317  0.9286  0.1463
 4672SOL     OW25474   2.080   0.214   2.852 -0.4433 -0.0049  0.5016
 4672SOL    HW125475   2.129   0.223   2.770  0.0427  2.4353  1.0629
 4672SOL    HW225476   2.124   0.141   2.895 -1.5490 -0.9260  0.0838
 4673SOL     OW25477   2.278   0.748   7.695 -0.6404 -0.3309  0.0966
 4673SOL    HW125478   2.304   0.746   7.603  0.5138 -0.0924  0.4216
 4673SOL    HW225479   2.183   0.751   7.685 -0.7204  0.6260  1.2514
 4674SOL     OW25480   3.422   0.591   3.993  0.2476  0.6196  0.0191
 4674SOL    HW125481   3.416   0.509   4.042  1.8967 -0.0789 -0.9543
 4674SOL    HW225482   3.514   0.582   3.968  0.5415 -0.6589  1.5459
 4675SOL     OW25483   3.231   0.468   6.946 -0.1673 -0.3625  0.3805
 4675SOL    HW125484   3.290   0.510   6.885 -1.1707  0.8481  0.2405
 4675SOL    HW225485   3.245   0.522   7.024  1.6636 -1.0751  0.5374
 4676SOL     OW25486   3.751   2.578   4.999 -0.5208  0.5065 -0.0614
 4676SOL    HW125487   3.706   2.522   4.936 -2.8830 -1.0574  3.0656
 4676SOL    HW225488   3.702   2.659   4.991  2.2483  2.1807 -0.2427
 4677SOL     OW25489   1.346   3.927   0.108  0.3741  0.1736  0.7648
 4677SOL    HW125490   1.424   3.885   0.144 -0.0021  0.1305  1.5332
 4677SOL    HW225491   1.291   3.851   0.086 -1.1823  0.7761  2.6197
 4678SOL     OW25492   0.335   0.757  12.003 -0.3870 -0.0227  0.2387
 4678SOL    HW125493   0.299   0.781  12.088  0.5024  1.8277  0.0834
 4678SOL    HW225494   0.293   0.825  11.951  1.2702  0.6789 -0.1710
 4679SOL     OW25495   3.205   3.067   7.840 -0.8106  0.1608 -0.2895
 4679SOL    HW125496   3.223   3.041   7.749 -0.0474  2.9264 -0.9328
 4679SOL    HW225497   3.151   3.146   7.836 -2.9996 -1.2950  0.5160
 4680SOL     OW25498   3.553   0.487   4.260  0.3348 -0.0948  0.3584
 4680SOL    HW125499   3.605   0.528   4.190  0.6620  0.8965  1.1787
 4680SOL    HW225500   3.530   0.409   4.210 -1.1487  0.5781  0.0061
 4681SOL     OW25501   3.494   2.907   5.153 -0.2096  0.0087 -0.0182
 4681SOL    HW125502   3.479   2.829   5.099  0.3953 -0.6688  0.7837
 4681SOL    HW225503   3.545   2.864   5.222 -2.3717 -1.8430  0.4290
 4682SOL     OW25504   1.368   0.894   2.892 -0.0101  0.2655  0.3172
 4682SOL    HW125505   1.291   0.940   2.858  0.9183 -0.8824 -3.3452
 4682SOL    HW225506   1.325   0.819   2.933  0.9065 -0.3358  0.2009
 4683SOL     OW25507   3.939   0.218   2.189 -0.2907  0.1446 -0.2450
 4683SOL    HW125508   4.018   0.167   2.170 -0.1754 -0.4092  1.7396
 4683SOL    HW225509   3.901   0.178   2.267  2.2700 -1.3658  0.1918
 4684SOL     OW25510   4.266   3.816   7.409  0.0001 -0.3005 -0.4406
 4684SOL    HW125511   4.185   3.848   7.450  1.4766  0.1436  2.1729
 4684SOL    HW225512   4.240   3.798   7.319  0.1344 -1.5211 -0.2383
 4685SOL     OW25513   0.768   1.619   4.861  0.2129  0.3006 -0.1697
 4685SOL    HW125514   0.765   1.530   4.896 -3.5996 -0.1358 -1.6461
 4685SOL    HW225515   0.863   1.627   4.867  0.0215  2.1994  0.4919
 4686SOL     OW25516   2.111   4.496   8.335 -0.1236 -0.1963 -0.6410
 4686SOL    HW125517   2.040   4.542   8.379  1.7741  0.2461  1.9619
 4686SOL    HW225518   2.069   4.457   8.258 -1.0830  3.0370 -1.7484
 4687SOL     OW25519   1.193   1.532   4.398  0.3548  0.2710 -0.7345
 4687SOL    HW125520   1.269   1.525   4.456 -0.0414 -1.6373 -0.4566
 4687SOL    HW225521   1.238   1.576   4.325  0.8892  1.7490  0.4840
 4688SOL     OW25522   2.542   1.807   8.283  0.2316  0.4965  0.7179
 4688SOL    HW125523   2.516   1.898   8.296  0.2250  0.6870 -0.6254
 4688SOL    HW225524   2.474   1.770   8.340  0.4644 -0.9508  0.0590
 4689SOL     OW25525   3.526   1.419  11.157 -0.3835  0.8833  0.0054
 4689SOL    HW125526   3.465   1.490  11.134  0.0661  1.7188  1.3967
 4689SOL    HW225527   3.591   1.442  11.091 -0.5296 -1.6991 -1.0570
 4690SOL     OW25528   4.306   0.002   3.486 -0.1279 -0.4107  0.3489
 4690SOL    HW125529   4.269   4.682   3.410  0.4766 -0.7771  0.2749
 4690SOL    HW225530   4.373   4.672   3.523  2.8449  2.4248 -0.7429
 4691SOL     OW25531   1.703   1.858   6.690  0.8177  0.1072  0.0975
 4691SOL    HW125532   1.780   1.825   6.642  1.0995 -1.0159  1.3244
 4691SOL    HW225533   1.711   1.950   6.664 -0.8926  0.5022  0.9935
 4692SOL     OW25534   0.305   0.657  17.243 -1.0357 -0.2661  0.6019
 4692SOL    HW125535   0.308   0.681  17.336 -0.4165  0.9900  0.2696
 4692SOL    HW225536   0.225   0.707  17.223 -1.2898 -0.9779 -0.1393
 4693SOL     OW25537   1.948   2.444   6.892  0.0616  0.2974  0.0278
 4693SOL    HW125538   1.882   2.511   6.873 -1.5129 -0.8691  1.3214
 4693SOL    HW225539   2.023   2.489   6.854  1.1849 -0.1014  1.7960
 4694SOL     OW25540   3.095   2.671  16.592  0.6532  0.4362 -0.3816
 4694SOL    HW125541   3.068   2.714  16.674 -2.7823  0.4660 -1.5086
 4694SOL    HW225542   3.013   2.667  16.543  0.4247  1.8686 -0.1194
 4695SOL     OW25543   1.583   2.996   3.985  0.0787  0.0271  0.1367
 4695SOL    HW125544   1.545   2.944   4.055 -0.2349 -0.4236 -0.3722
 4695SOL    HW225545   1.504   3.023   3.938 -0.9075 -0.3676  1.5548
 4696SOL     OW25546   4.707   2.457  12.502  0.3017 -0.4658 -0.4528
 4696SOL    HW125547   4.642   2.389  12.519  0.5395 -1.0840 -1.9581
 4696SOL    HW225548   4.649   2.532  12.517 -0.2802 -0.7780 -1.1497
 4697SOL     OW25549   3.137   1.274   4.336 -0.2063 -0.1142  0.3981
 4697SOL    HW125550   3.137   1.186   4.374 -0.6144 -0.9804 -1.6160
 4697SOL    HW225551   3.230   1.291   4.320 -0.4976  1.0445 -0.0544
 4698SOL     OW25552   3.518   1.378   5.403  0.2811 -0.1021  0.6729
 4698SOL    HW125553   3.604   1.347   5.375 -0.4031  0.2006 -1.8243
 4698SOL    HW225554   3.540   1.430   5.480 -0.9126  0.6439  0.5092
 4699SOL     OW25555   2.649   2.990  16.767 -0.3520 -0.2194 -0.5202
 4699SOL    HW125556   2.641   3.057  16.699 -0.0106  0.6741  0.3142
 4699SOL    HW225557   2.565   2.945  16.760  0.2592 -1.2679 -1.2089
 4700SOL     OW25558   0.850   3.118  12.313 -0.4323  0.3310  0.2726
 4700SOL    HW125559   0.941   3.141  12.293 -0.6001  1.0810  0.3414
 4700SOL    HW225560   0.827   3.160  12.396  1.2662  0.2802  0.7704
 4701SOL     OW25561   1.382   4.690   0.751 -0.0729 -0.0040  0.0939
 4701SOL    HW125562   1.449   4.631   0.717 -1.0591  0.0312 -1.8851
 4701SOL    HW225563   1.304   4.643   0.722  0.5468 -0.9694  0.0140
 4702SOL     OW25564   1.838   1.167   2.012 -0.0524 -0.8662  0.4539
 4702SOL    HW125565   1.897   1.241   1.999 -0.0356 -0.6439  1.7587
 4702SOL    HW225566   1.861   1.142   2.102 -0.3447  0.3545  0.8788
 4703SOL     OW25567   1.533   4.098  17.064  0.1093 -0.4530 -0.6476
 4703SOL    HW125568   1.531   4.168  16.999 -3.7190 -1.0986 -1.2070
 4703SOL    HW225569   1.613   4.124  17.108 -0.3150 -0.1276 -0.0820
 4704SOL     OW25570   3.318   2.786   8.423 -0.3023 -0.8157  0.9279
 4704SOL    HW125571   3.348   2.736   8.499  2.3670 -0.7228 -0.0409
 4704SOL    HW225572   3.233   2.820   8.449 -1.6322 -0.6267 -3.5798
 4705SOL     OW25573   3.439   2.243   6.092 -0.1207  0.4707 -0.2139
 4705SOL    HW125574   3.456   2.262   6.184 -0.7679  2.7260 -0.5706
 4705SOL    HW225575   3.495   2.307   6.048  0.9725 -1.1505 -1.2211
 4706SOL     OW25576   2.649   3.902   1.217 -0.4487  0.5566  0.6307
 4706SOL    HW125577   2.678   3.810   1.212 -0.4052  0.7273 -2.3694
 4706SOL    HW225578   2.723   3.946   1.259  0.2331  0.6496 -0.6593
 4707SOL     OW25579   3.638   2.369   7.561 -0.0795 -0.2679 -0.6503
 4707SOL    HW125580   3.629   2.279   7.529 -1.2016  0.1532 -1.5084
 4707SOL    HW225581   3.579   2.388   7.633  1.1315 -0.8132  0.5029
 4708SOL     OW25582   4.268   0.882  15.131  0.7207  0.6626  0.0817
 4708SOL    HW125583   4.205   0.893  15.059 -0.7906 -0.2109  1.2711
 4708SOL    HW225584   4.310   0.967  15.145 -2.2727  2.3232 -1.0725
 4709SOL     OW25585   3.948   0.544   3.395  0.4979 -0.0413 -0.3934
 4709SOL    HW125586   4.042   0.527   3.383  0.3434 -0.7896 -0.5673
 4709SOL    HW225587   3.926   0.473   3.455  3.7565 -1.1376 -0.4974
 4710SOL     OW25588   4.568   4.704  10.399  0.9934  0.3115 -0.5810
 4710SOL    HW125589   4.600   0.067  10.411 -0.6561  0.6974  0.9544
 4710SOL    HW225590   4.654   4.662  10.394  1.4670  1.0887  0.9114
 4711SOL     OW25591   0.260   2.985  12.629  0.5381 -0.2872  0.1734
 4711SOL    HW125592   0.248   3.048  12.557 -1.9506 -0.8933  0.0818
 4711SOL    HW225593   0.241   2.897  12.597 -0.4219 -0.0776  0.1676
 4712SOL     OW25594   2.575   0.279   4.370 -0.2060  0.4900 -0.0053
 4712SOL    HW125595   2.617   0.215   4.312 -2.1394 -0.6139 -0.1622
 4712SOL    HW225596   2.651   0.327   4.403  0.0406  1.2806 -1.7238
 4713SOL     OW25597   4.509   3.327   7.493 -0.1251  0.8876 -0.0894
 4713SOL    HW125598   4.414   3.325   7.510  0.2343 -0.2945  1.8024
 4713SOL    HW225599   4.522   3.357   7.404 -0.5125 -1.5926 -1.0004
 4714SOL     OW25600   2.297   0.083   3.890  0.2383  0.0931 -0.8925
 4714SOL    HW125601   2.212   0.051   3.920  0.6245 -0.0779  0.0179
 4714SOL    HW225602   2.298   0.177   3.907  0.9819  0.6095 -3.7105
 4715SOL     OW25603   0.838   2.880  11.714 -0.2420  0.1906 -0.4749
 4715SOL    HW125604   0.834   2.931  11.794  0.5613 -0.0034 -0.3072
 4715SOL    HW225605   0.758   2.829  11.725 -0.3807 -0.5764 -4.9325
 4716SOL     OW25606   4.634   2.118   1.732  0.4606 -0.4982 -0.6029
 4716SOL    HW125607   4.587   2.035   1.737  1.4080 -1.0932 -1.5219
 4716SOL    HW225608   4.712   2.082   1.689  1.7166  0.5881  0.7783
 4717SOL     OW25609   1.314   0.626  12.405 -0.0978  0.1739 -0.2918
 4717SOL    HW125610   1.402   0.592  12.391 -0.2456 -0.0603 -0.6470
 4717SOL    HW225611   1.261   0.552  12.376  0.1716 -0.7362  1.5937
 4718SOL     OW25612   3.086   0.526   2.175  0.1350  0.1332 -0.2907
 4718SOL    HW125613   3.000   0.569   2.168 -0.9775 -1.9392  0.5838
 4718SOL    HW225614   3.119   0.530   2.265  0.3878  0.0189 -0.3811
 4719SOL     OW25615   0.978   3.134   6.591 -0.4637  0.1712  0.2091
 4719SOL    HW125616   1.029   3.183   6.655 -0.5832 -0.6794  0.9461
 4719SOL    HW225617   1.040   3.074   6.550  0.4836  0.6131  1.0099
 4720SOL     OW25618   0.305   0.898  14.194 -0.7324 -0.0421 -0.3133
 4720SOL    HW125619   0.361   0.926  14.121  1.9063 -1.4009  1.1687
 4720SOL    HW225620   0.360   0.833  14.238  2.9865  2.8208 -0.6936
 4721SOL     OW25621   3.577   3.596   6.953 -0.0752 -0.4798 -0.5808
 4721SOL    HW125622   3.494   3.588   7.001  0.7070 -0.8850  0.6797
 4721SOL    HW225623   3.558   3.530   6.887  1.6927 -0.9454 -0.6141
 4722SOL     OW25624   4.094   1.111  11.587 -0.0534 -0.3256 -0.4337
 4722SOL    HW125625   4.103   1.184  11.526 -3.2331  0.0200 -0.4974
 4722SOL    HW225626   4.189   1.096  11.584 -0.2413 -1.1925 -2.6181
 4723SOL     OW25627   2.477   3.021  16.412  0.3641  0.5332 -0.3130
 4723SOL    HW125628   2.544   2.979  16.359  1.1067  1.0963  0.1821
 4723SOL    HW225629   2.464   2.951  16.476  1.2434  0.9612  0.3318
 4724SOL     OW25630   3.982   2.798   3.706  0.0334 -0.2754  0.1296
 4724SOL    HW125631   3.924   2.868   3.734  0.9944 -0.1359  1.7879
 4724SOL    HW225632   3.955   2.720   3.755 -0.6071  0.6665  1.2758
 4725SOL     OW25633   2.677   4.363  10.885  0.4153 -0.2047  0.3708
 4725SOL    HW125634   2.581   4.369  10.879  0.5374  1.0488 -0.2892
 4725SOL    HW225635   2.698   4.391  10.795  2.8324  0.3684  1.1180
 4726SOL     OW25636   3.711   3.191   7.591  0.2135 -0.1559  0.2102
 4726SOL    HW125637   3.744   3.128   7.655 -2.6532 -2.3644 -0.4895
 4726SOL    HW225638   3.619   3.197   7.617  0.3533  1.0133  0.4417
 4727SOL     OW25639   2.546   2.049   2.322  0.7350 -0.7920 -0.5738
 4727SOL    HW125640   2.458   2.013   2.333  0.6667 -1.1322 -2.3291
 4727SOL    HW225641   2.568   2.015   2.235  3.0393  0.3505 -0.4463
 4728SOL     OW25642   2.306   1.500   5.540  0.4982  0.0867  0.1556
 4728SOL    HW125643   2.359   1.460   5.470  2.5375 -0.4515  1.9852
 4728SOL    HW225644   2.375   1.538   5.593 -0.4830 -0.0090  1.4982
 4729SOL     OW25645   1.935   2.341   1.692  0.3915  0.4066 -0.2553
 4729SOL    HW125646   1.897   2.254   1.705  0.3433  0.4568 -0.0636
 4729SOL    HW225647   1.913   2.359   1.600 -0.8517  0.7412  0.1075
 4730SOL     OW25648   3.010   2.065   9.623  0.4880 -0.4735 -0.4098
 4730SOL    HW125649   2.971   2.056   9.710  1.3775 -0.4422 -0.0124
 4730SOL    HW225650   3.082   2.006   9.642  0.2159 -0.1029  1.7311
 4731SOL     OW25651   4.672   3.571  13.093  0.7851  0.8984 -0.3021
 4731SOL    HW125652   4.584   3.575  13.056 -0.2264 -0.0287  2.0428
 4731SOL    HW225653   4.675   3.480  13.124 -3.1367  1.0580  0.4489
 4732SOL     OW25654   0.757   0.266   9.146 -0.2582 -0.0928 -0.5952
 4732SOL    HW125655   0.682   0.315   9.179 -0.8234 -2.0159  0.9597
 4732SOL    HW225656   0.837   0.299   9.186 -0.3705  1.4413 -1.6046
 4733SOL     OW25657   4.223   3.524   4.911  0.0727  0.5075 -0.3622
 4733SOL    HW125658   4.205   3.513   5.005  0.3869 -0.1706 -0.3860
 4733SOL    HW225659   4.279   3.602   4.905  1.4602 -0.5811 -1.3316
 4734SOL     OW25660   4.081   0.042   7.632 -0.4537  0.2019  0.1711
 4734SOL    HW125661   4.000   0.080   7.666 -0.6893  0.9223 -1.1954
 4734SOL    HW225662   4.141   0.104   7.674 -1.1174 -0.1133  1.5981
 4735SOL     OW25663   0.763   3.406   6.660 -0.4715  0.6004  0.3347
 4735SOL    HW125664   0.807   3.440   6.738 -1.2036 -1.0542  1.4744
 4735SOL    HW225665   0.773   3.483   6.605 -0.2158 -0.6008 -1.2846
 4736SOL     OW25666   4.640   4.661   0.801 -0.5131 -0.4383  0.1282
 4736SOL    HW125667   4.616   0.008   0.858 -0.5332 -0.9820  0.8171
 4736SOL    HW225668   4.611   4.713   0.725 -1.1792 -1.2796 -0.1994
 4737SOL     OW25669   3.158   4.178   2.856  0.0022  0.2466 -0.2562
 4737SOL    HW125670   3.142   4.195   2.763 -0.8572 -1.1122 -0.3566
 4737SOL    HW225671   3.248   4.149   2.843 -0.8115 -0.7970 -3.6572
 4738SOL     OW25672   0.419   3.927   4.885 -0.0209  0.6507 -0.2702
 4738SOL    HW125673   0.496   3.906   4.833  0.7045 -0.4293  1.2369
 4738SOL    HW225674   0.434   3.861   4.953  0.7490  1.5906  0.4726
 4739SOL     OW25675   0.668   1.543   2.469  0.0479  0.2095  0.0929
 4739SOL    HW125676   0.676   1.636   2.490 -0.9842  0.3167  0.0113
 4739SOL    HW225677   0.719   1.540   2.389  0.0143  0.8110  0.0531
 4740SOL     OW25678   3.252   0.702  10.290  0.0517 -0.0338  0.0216
 4740SOL    HW125679   3.188   0.675  10.357 -0.8632  1.1425 -0.3840
 4740SOL    HW225680   3.248   0.795  10.311  0.8588  0.0559 -0.2499
 4741SOL     OW25681   0.736   0.916   6.161 -0.5303  0.1894 -0.0035
 4741SOL    HW125682   0.660   0.972   6.175 -0.0249  0.3697  1.9016
 4741SOL    HW225683   0.785   0.976   6.104  2.2002 -0.5936  1.5144
 4742SOL     OW25684   4.142   0.488   2.049 -0.0667 -0.1393 -0.2751
 4742SOL    HW125685   4.171   0.492   1.958  2.2664 -1.2876  0.4212
 4742SOL    HW225686   4.155   0.395   2.066 -0.2721 -0.4508 -1.8013
 4743SOL     OW25687   0.022   3.564   5.403  0.7824  0.3386 -0.1358
 4743SOL    HW125688   0.060   3.477   5.388  0.4488  0.1550  0.0775
 4743SOL    HW225689   4.693   3.578   5.327 -0.0714  0.7524  0.5686
 4744SOL     OW25690   0.669   3.526  11.656 -0.1183 -0.0088 -0.1870
 4744SOL    HW125691   0.763   3.520  11.670  0.0583  2.0244 -0.4220
 4744SOL    HW225692   0.638   3.561  11.740  0.8208 -0.7859  0.4829
 4745SOL     OW25693   0.551   0.612   7.362  0.2257  0.2711  0.2213
 4745SOL    HW125694   0.555   0.704   7.336  1.3865  0.4699  1.1092
 4745SOL    HW225695   0.595   0.621   7.447  3.3940  1.1171 -1.5010
 4746SOL     OW25696   4.141   0.632   6.895 -0.4961 -0.4242 -0.1596
 4746SOL    HW125697   4.127   0.727   6.894  1.7502 -0.0947 -0.8929
 4746SOL    HW225698   4.184   0.629   6.981  2.0649 -1.3368 -1.4942
 4747SOL     OW25699   3.594   4.387   4.893  0.1259  0.2050  0.0825
 4747SOL    HW125700   3.634   4.324   4.953  2.2366  1.7834  0.3551
 4747SOL    HW225701   3.525   4.428   4.946 -0.4581 -0.0344 -0.4905
 4748SOL     OW25702   3.020   2.556   2.240 -0.1490 -0.0353 -1.4168
 4748SOL    HW125703   2.928   2.528   2.243 -0.0033 -0.2311  0.9064
 4748SOL    HW225704   3.024   2.562   2.144 -1.8649 -2.6996 -1.6542
 4749SOL     OW25705   1.650   2.659   6.411 -0.8641 -0.2780 -0.5576
 4749SOL    HW125706   1.724   2.711   6.379 -2.3023  1.3146 -1.3197
 4749SOL    HW225707   1.598   2.655   6.330  1.4937 -1.1482 -2.0542
 4750SOL     OW25708   3.220   1.469   2.591 -0.0452 -0.3235 -0.0970
 4750SOL    HW125709   3.153   1.467   2.659 -1.6064  2.2973 -1.5318
 4750SOL    HW225710   3.269   1.550   2.605  1.4525 -1.1144 -0.7204
 4751SOL     OW25711   1.017   0.152  12.674 -0.5021 -0.1798  0.0985
 4751SOL    HW125712   0.959   0.227  12.668  1.2043  1.3500  2.4604
 4751SOL    HW225713   1.103   0.187  12.699 -1.1903  0.2957  1.7778
 4752SOL     OW25714   0.588   0.045   6.893  0.2528 -0.2139 -0.1466
 4752SOL    HW125715   0.663   0.102   6.877  0.9422 -1.1298 -0.1682
 4752SOL    HW225716   0.539   0.088   6.963 -2.0784 -0.0102 -1.9011
 4753SOL     OW25717   2.140   2.622   6.769  0.6548 -0.0799 -0.4432
 4753SOL    HW125718   2.131   2.681   6.844 -1.1262  0.5491 -1.1584
 4753SOL    HW225719   2.229   2.656   6.759  0.5124 -0.3760 -2.6667
 4754SOL     OW25720   1.180   2.442   8.353 -0.5946 -0.0160  0.2429
 4754SOL    HW125721   1.266   2.400   8.356 -0.9223 -0.7939 -1.8330
 4754SOL    HW225722   1.211   2.524   8.393  1.6031 -0.6759 -0.1360
 4755SOL     OW25723   3.985   1.212   6.478  0.2681 -0.0018  0.1934
 4755SOL    HW125724   3.955   1.226   6.389 -0.1997 -2.6938 -0.0637
 4755SOL    HW225725   3.986   1.116   6.482  1.0993  0.0599  1.6803
 4756SOL     OW25726   3.766   0.455   2.131  0.3307 -0.3412 -0.1895
 4756SOL    HW125727   3.809   0.372   2.150 -0.2863 -0.8314 -0.9169
 4756SOL    HW225728   3.681   0.424   2.099 -0.6579  0.7528  1.3176
 4757SOL     OW25729   1.902   1.587  16.486 -0.2969  0.0684  0.0470
 4757SOL    HW125730   1.894   1.654  16.418 -0.3142  0.8110  0.7754
 4757SOL    HW225731   1.952   1.629  16.557  0.3243  1.1578 -1.0259
 4758SOL     OW25732   2.083   2.403   2.782 -0.4249  0.3408  0.1331
 4758SOL    HW125733   2.056   2.429   2.694  0.5936  0.5425 -0.1170
 4758SOL    HW225734   2.159   2.460   2.777 -0.7441  0.8105  0.6817
 4759SOL     OW25735   0.685   3.746   3.942  0.0023 -0.1197 -0.0490
 4759SOL    HW125736   0.672   3.734   3.848 -1.6780  0.2176  0.1454
 4759SOL    HW225737   0.737   3.825   3.955  0.2027  0.1256 -2.5248
 4760SOL     OW25738   4.031   2.809   7.582  0.1957  0.1301 -0.1010
 4760SOL    HW125739   3.963   2.842   7.523 -0.0412 -1.6242 -0.8145
 4760SOL    HW225740   3.977   2.768   7.650 -1.1379  0.1698 -1.1363
 4761SOL     OW25741   0.078   0.247  12.123 -0.0990 -0.2596  0.7515
 4761SOL    HW125742   0.109   0.335  12.145  0.1665 -0.7644  2.4570
 4761SOL    HW225743   0.029   0.216  12.199 -1.7811 -1.2728 -0.7780
 4762SOL     OW25744   4.067   4.724   2.643  0.0798  0.1439  0.4007
 4762SOL    HW125745   4.147   4.705   2.594 -0.4948  1.9173 -1.2444
 4762SOL    HW225746   4.008   4.671   2.589  0.2267  1.3533 -0.9500
 4763SOL     OW25747   1.690   3.159  14.083 -0.2223 -0.5689  0.8133
 4763SOL    HW125748   1.736   3.240  14.105  0.2675 -0.5245 -0.3787
 4763SOL    HW225749   1.742   3.096  14.133  1.5573  1.4447  1.5155
 4764SOL     OW25750   3.456   2.032   8.312  0.4999 -0.1302  0.4296
 4764SOL    HW125751   3.421   1.944   8.324  2.3603 -0.7465  1.3851
 4764SOL    HW225752   3.530   2.004   8.257 -0.1676  1.2332 -1.1592
 4765SOL     OW25753   3.201   0.175   6.006  0.1558  0.0103  0.1837
 4765SOL    HW125754   3.147   0.103   5.973 -0.6331 -0.2502  2.0137
 4765SOL    HW225755   3.189   0.158   6.100  0.5352 -0.6287  0.1197
 4766SOL     OW25756   2.777   0.215  15.447 -0.0298  0.5538 -0.1821
 4766SOL    HW125757   2.732   0.299  15.453  0.8571  1.0913 -1.1480
 4766SOL    HW225758   2.749   0.168  15.526  1.0473  1.5081  0.7592
 4767SOL     OW25759   1.265   1.287   3.222  0.3616 -0.2638  0.5920
 4767SOL    HW125760   1.336   1.224   3.216 -0.0493 -0.6907  0.2025
 4767SOL    HW225761   1.314   1.361   3.258 -0.7086  0.3901  0.7024
 4768SOL     OW25762   0.309   3.333   2.732  0.2384  0.3948  0.4000
 4768SOL    HW125763   0.230   3.311   2.781 -0.8633  0.7503 -1.2199
 4768SOL    HW225764   0.328   3.254   2.682 -2.4440 -0.1555  0.2333
 4769SOL     OW25765   3.290   0.360   7.845  0.3683 -0.0117  1.0410
 4769SOL    HW125766   3.248   0.317   7.919  1.8846 -1.4863  1.0504
 4769SOL    HW225767   3.344   0.289   7.808 -0.0600  0.3869 -0.3650
 4770SOL     OW25768   3.269   1.712  16.920 -0.2266 -0.3847  0.2840
 4770SOL    HW125769   3.266   1.619  16.940  0.6717 -0.3083  0.7972
 4770SOL    HW225770   3.239   1.754  17.001  0.8546 -1.3720  1.1894
 4771SOL     OW25771   4.347   0.941  16.680 -0.7188 -0.3223  0.2619
 4771SOL    HW125772   4.439   0.936  16.709 -0.9780 -0.0297  1.1303
 4771SOL    HW225773   4.315   0.880  16.747  1.2226 -2.1446 -0.4631
 4772SOL     OW25774   0.662   4.342   7.990 -0.0013 -0.7338  0.1350
 4772SOL    HW125775   0.724   4.282   8.032  2.0243  0.9708 -0.4045
 4772SOL    HW225776   0.620   4.361   8.074 -1.5651  0.6225 -0.9623
 4773SOL     OW25777   0.960   3.135   3.564 -0.3902  0.1113 -0.3333
 4773SOL    HW125778   1.035   3.077   3.582 -0.5510  0.1726  0.5336
 4773SOL    HW225779   0.993   3.189   3.492  0.4626 -2.2763 -1.7578
 4774SOL     OW25780   4.595   2.951   5.936  0.3583  0.5649  0.1821
 4774SOL    HW125781   4.628   2.912   6.017  2.1657 -0.2634 -0.9557
 4774SOL    HW225782   4.661   2.919   5.874  0.0893  1.5111 -0.5917
 4775SOL     OW25783   0.251   0.931   1.410  0.8368  0.5271 -0.2465
 4775SOL    HW125784   0.275   0.849   1.453  1.1448 -0.1652 -1.7363
 4775SOL    HW225785   0.316   0.941   1.340 -0.0212 -0.3440 -1.1571
 4776SOL     OW25786   1.367   3.061  16.681  0.0465 -0.2309 -0.2239
 4776SOL    HW125787   1.352   3.040  16.589 -0.4651 -0.3034 -0.1239
 4776SOL    HW225788   1.289   3.029  16.726  1.1751 -0.5889  1.4797
 4777SOL     OW25789   0.012   0.280   5.805  0.1610  0.3374  0.0333
 4777SOL    HW125790   0.002   0.193   5.843  0.4580  0.9137  1.4489
 4777SOL    HW225791   0.070   0.311   5.875  0.7456 -0.3060 -0.1658
 4778SOL     OW25792   4.682   0.193  13.678 -0.3331 -0.7135 -0.1876
 4778SOL    HW125793   4.670   0.103  13.709 -0.1011 -0.4559  0.6591
 4778SOL    HW225794   0.051   0.204  13.677 -0.3231 -1.1015 -3.8449
 4779SOL     OW25795   0.197   2.494   4.099  0.4587 -0.0213  0.0509
 4779SOL    HW125796   0.143   2.455   4.031 -0.4841  0.9226  0.2489
 4779SOL    HW225797   0.156   2.581   4.094 -0.1595 -0.1867  2.1878
 4780SOL     OW25798   1.662   1.197   1.229  0.1878  0.3658  0.1633
 4780SOL    HW125799   1.654   1.149   1.311 -0.6785  1.0546  0.4734
 4780SOL    HW225800   1.583   1.251   1.235  0.4713  0.7727  0.2383
 4781SOL     OW25801   3.172   2.720   7.158  0.7509 -0.1261  0.4057
 4781SOL    HW125802   3.179   2.691   7.067 -0.2450 -0.4938  0.4433
 4781SOL    HW225803   3.105   2.788   7.148  1.4337  0.8389  2.4858
 4782SOL     OW25804   1.457   2.836   4.160 -0.1574 -0.1860  0.1083
 4782SOL    HW125805   1.459   2.795   4.246 -0.0061  1.5844  0.9401
 4782SOL    HW225806   1.367   2.826   4.131  0.2549 -2.3259 -0.4331
 4783SOL     OW25807   2.095   3.798  15.115 -0.2391  0.3098  0.5870
 4783SOL    HW125808   2.120   3.710  15.143  2.3978  0.6677 -0.6839
 4783SOL    HW225809   2.115   3.800  15.022 -0.2803  1.7003  0.6025
 4784SOL     OW25810   4.243   4.642   6.093 -0.0074 -0.1078 -0.6236
 4784SOL    HW125811   4.322   4.688   6.124 -1.3107  1.4646  0.3558
 4784SOL    HW225812   4.173   4.693   6.133 -0.0509 -0.9192  0.3207
 4785SOL     OW25813   4.591   0.185   7.892 -0.2908  0.2998 -0.3731
 4785SOL    HW125814   4.572   0.108   7.946  1.3316  0.0055 -0.2335
 4785SOL    HW225815   4.680   0.162   7.868  0.9736  1.9144  2.7959
 4786SOL     OW25816   4.121   1.482  17.372 -0.5109 -0.1293 -0.2117
 4786SOL    HW125817   4.113   1.561  17.426  1.3049  0.0226 -0.1659
 4786SOL    HW225818   4.046   1.488  17.313 -0.3172  0.8360 -0.3574
 4787SOL     OW25819   1.306   4.626   7.522  0.1488  0.1852 -0.0611
 4787SOL    HW125820   1.273   4.601   7.435  1.2132  0.4908 -0.5531
 4787SOL    HW225821   1.258   4.706   7.543  0.5288  0.6429 -0.9197
 4788SOL     OW25822   2.227   3.372  12.594 -0.4721 -0.2493  0.4370
 4788SOL    HW125823   2.281   3.436  12.641  0.2266 -1.5228  1.3785
 4788SOL    HW225824   2.239   3.413  12.509 -0.2593 -0.7115  0.2410
 4789SOL     OW25825   2.133   0.977   3.671  0.1879 -0.1272 -0.6493
 4789SOL    HW125826   2.094   0.894   3.640  1.4357 -1.2426  0.7657
 4789SOL    HW225827   2.073   1.050   3.654  0.5315  0.6689  1.6405
 4790SOL     OW25828   0.966   3.660  12.511  0.0832 -0.4724  0.1501
 4790SOL    HW125829   0.972   3.755  12.497  3.6854 -0.4800  1.5844
 4790SOL    HW225830   0.963   3.653  12.607  1.5054 -0.6343  0.1827
 4791SOL     OW25831   1.629   2.649   7.850  0.5492  0.2878  0.3923
 4791SOL    HW125832   1.643   2.645   7.756 -1.0117  0.5936  0.1559
 4791SOL    HW225833   1.581   2.568   7.868  1.7686 -1.0793 -2.5375
 4792SOL     OW25834   0.675   3.587   7.550 -0.4401 -0.3651  0.3062
 4792SOL    HW125835   0.760   3.577   7.593 -0.0308  3.9828  0.5943
 4792SOL    HW225836   0.697   3.535   7.473  0.8193 -0.4313  0.7122
 4793SOL     OW25837   2.172   0.277  11.475  0.6608  0.1742 -0.6986
 4793SOL    HW125838   2.225   0.242  11.547 -1.2963  2.4274  1.7968
 4793SOL    HW225839   2.222   0.240  11.401  1.1539  0.1279 -0.3394
 4794SOL     OW25840   0.831   0.738   0.571 -0.0878 -0.5167 -0.2367
 4794SOL    HW125841   0.759   0.674   0.567 -2.2074  1.6165  3.6484
 4794SOL    HW225842   0.865   0.737   0.481 -1.2797  4.0507 -0.6961
 4795SOL     OW25843   0.411   4.635  11.433 -0.4589 -0.1261 -0.2327
 4795SOL    HW125844   0.421   4.544  11.404 -0.5795 -1.0628  2.6007
 4795SOL    HW225845   0.346   4.629  11.503 -2.0166 -1.1758 -1.7718
 4796SOL     OW25846   2.969   1.803   1.815 -0.2870 -0.2145  0.2175
 4796SOL    HW125847   2.947   1.750   1.738  1.0592  0.2311 -0.4761
 4796SOL    HW225848   3.064   1.814   1.804 -0.1454 -1.9565 -0.2208
 4797SOL     OW25849   4.171   2.998  11.895 -0.0893  0.2938 -0.1722
 4797SOL    HW125850   4.078   3.019  11.903  0.1224  1.6171 -1.1379
 4797SOL    HW225851   4.187   3.019  11.803  0.5937  3.2853  0.6301
 4798SOL     OW25852   2.394   3.144   6.819 -0.0860 -0.0873  0.3094
 4798SOL    HW125853   2.306   3.173   6.841 -0.1345 -0.2793  0.3662
 4798SOL    HW225854   2.444   3.225   6.830  1.5059 -1.2253  1.4376
 4799SOL     OW25855   4.358   3.155   7.727 -0.2571 -0.1341  0.6540
 4799SOL    HW125856   4.429   3.101   7.694  0.6474 -0.4652  3.1363
 4799SOL    HW225857   4.378   3.140   7.820  0.3236 -4.4320 -0.1837
 4800SOL     OW25858   2.789   1.411   8.118 -0.4078 -0.1632  0.2349
 4800SOL    HW125859   2.822   1.498   8.097 -0.5078 -0.3400 -0.6325
 4800SOL    HW225860   2.869   1.359   8.122 -0.6676 -0.4409  1.9723
 4801SOL     OW25861   1.951   1.215   1.273  0.6924 -0.1835 -0.3297
 4801SOL    HW125862   1.859   1.191   1.257 -0.1190  3.2035 -0.6736
 4801SOL    HW225863   1.983   1.198   1.184 -1.1293 -0.1689 -0.9855
 4802SOL     OW25864   2.990   3.835   5.606 -0.6588 -0.5600  0.0347
 4802SOL    HW125865   3.003   3.764   5.543  0.1697  1.0732 -1.6001
 4802SOL    HW225866   3.067   3.827   5.663  1.3970 -1.4732 -2.8962
 4803SOL     OW25867   4.387   2.643  11.525  0.0358  0.2479  0.1558
 4803SOL    HW125868   4.303   2.598  11.521  0.3011 -0.3329  0.9592
 4803SOL    HW225869   4.441   2.576  11.483  1.2972  1.1414  0.3491
 4804SOL     OW25870   3.490   4.610   3.727  0.2457  1.0243  0.1260
 4804SOL    HW125871   3.547   4.539   3.756 -2.3307 -1.2716 -0.5146
 4804SOL    HW225872   3.565   4.665   3.704  0.6504 -0.5032 -2.1881
 4805SOL     OW25873   1.747   2.938   3.753 -0.4804  0.0739 -0.0197
 4805SOL    HW125874   1.693   2.953   3.675  1.6704  2.9017 -0.9428
 4805SOL    HW225875   1.693   2.968   3.827  1.5672  1.9933  0.7045
 4806SOL     OW25876   1.638   3.677   2.004  0.1737 -0.2576 -0.3039
 4806SOL    HW125877   1.686   3.597   1.983 -1.9046 -1.3018 -1.0965
 4806SOL    HW225878   1.589   3.647   2.081  0.7741  1.7434  0.8808
 4807SOL     OW25879   2.871   0.326   9.015  0.2465  0.5329 -0.0967
 4807SOL    HW125880   2.913   0.337   8.930 -0.6101  0.1124 -0.5693
 4807SOL    HW225881   2.895   0.234   9.030 -0.5417  0.1685 -1.1309
 4808SOL     OW25882   3.703   4.370   3.001  0.3291  0.3254 -0.3742
 4808SOL    HW125883   3.797   4.385   3.016  0.5968 -2.1514  0.3426
 4808SOL    HW225884   3.665   4.444   3.049 -0.6850 -1.6330  1.8589
 4809SOL     OW25885   3.435   1.080   4.878  0.0187 -0.0471  0.4743
 4809SOL    HW125886   3.500   1.126   4.931 -0.0649  1.4285 -0.6837
 4809SOL    HW225887   3.478   1.064   4.794  2.5685 -0.6735  1.9359
 4810SOL     OW25888   1.445   4.609  14.310 -0.5350  0.2545 -0.0883
 4810SOL    HW125889   1.500   4.679  14.345  0.5443  0.3684 -1.9590
 4810SOL    HW225890   1.459   4.541  14.376 -2.2444 -1.3221 -1.3442
 4811SOL     OW25891   1.262   0.431   4.963  0.6378 -0.6041 -0.5187
 4811SOL    HW125892   1.286   0.441   4.871  1.4313  0.1266 -0.2287
 4811SOL    HW225893   1.276   0.339   4.983  0.3506 -1.0415 -2.3248
 4812SOL     OW25894   2.474   3.247   5.708  0.1429  0.2518 -0.0618
 4812SOL    HW125895   2.519   3.180   5.656 -1.2621 -0.3477 -0.5007
 4812SOL    HW225896   2.388   3.240   5.668 -0.1429 -0.3789  0.6692
 4813SOL     OW25897   3.550   2.838  14.203 -0.1216 -0.0984 -0.8218
 4813SOL    HW125898   3.508   2.924  14.210  1.3848  0.5001  1.0518
 4813SOL    HW225899   3.492   2.786  14.148  0.3604  0.7046 -2.0914
 4814SOL     OW25900   3.330   0.927   7.314  0.2719 -0.4562  0.5061
 4814SOL    HW125901   3.422   0.942   7.293 -0.2925  1.3749 -0.6204
 4814SOL    HW225902   3.340   0.886   7.400  2.4331  1.3740  1.1374
 4815SOL     OW25903   3.090   4.079   5.546  0.3839  0.0953  0.2877
 4815SOL    HW125904   3.148   4.076   5.621  0.4169  0.5679  0.2820
 4815SOL    HW225905   3.051   3.992   5.546 -0.6235  0.5386  1.5598
 4816SOL     OW25906   4.005   4.361   1.806 -0.1763 -0.4750 -0.3097
 4816SOL    HW125907   3.926   4.414   1.789 -1.2114 -2.5971 -2.1713
 4816SOL    HW225908   4.006   4.306   1.727  0.0500  0.5486 -1.0279
 4817SOL     OW25909   2.057   3.902   6.865 -0.4002  0.3277 -0.1231
 4817SOL    HW125910   1.979   3.959   6.863 -2.0672 -1.9747 -0.9243
 4817SOL    HW225911   2.074   3.879   6.774 -2.6906  0.0734 -0.4921
 4818SOL     OW25912   3.542   0.531   7.881 -0.5987 -0.2293  0.5629
 4818SOL    HW125913   3.518   0.622   7.896 -1.8036 -0.7303  1.6864
 4818SOL    HW225914   3.455   0.492   7.873 -1.8840  2.8309 -0.4687
 4819SOL     OW25915   3.698   2.376   3.139  0.6301 -0.2061  0.2193
 4819SOL    HW125916   3.674   2.299   3.088  3.5111 -0.2918 -1.0065
 4819SOL    HW225917   3.747   2.423   3.071 -1.0168 -0.3352 -1.0741
 4820SOL     OW25918   4.132   2.517   3.419  0.0735 -0.0397  0.6541
 4820SOL    HW125919   4.048   2.473   3.411 -1.7400  3.2718  1.6810
 4820SOL    HW225920   4.130   2.565   3.337 -1.8733 -3.2666 -1.1759
 4821SOL     OW25921   1.617   1.274   7.058  0.1072  0.2146 -0.5100
 4821SOL    HW125922   1.558   1.254   7.130  1.9173 -1.5132  0.4818
 4821SOL    HW225923   1.577   1.358   7.033  0.6641 -0.3664 -3.3281
 4822SOL     OW25924   2.714   3.792  12.279 -0.5022  0.1546  0.0286
 4822SOL    HW125925   2.637   3.803  12.335 -1.1055  1.8861 -1.1209
 4822SOL    HW225926   2.724   3.697  12.285  0.2173  0.2246 -0.0555
 4823SOL     OW25927   3.967   4.333   7.111 -0.3634  0.3682 -0.0220
 4823SOL    HW125928   4.025   4.284   7.054  0.1787 -1.5614  2.2282
 4823SOL    HW225929   3.888   4.329   7.057  1.3531  1.3953 -2.6055
 4824SOL     OW25930   3.062   1.746   3.503 -0.2515 -0.6267 -0.6078
 4824SOL    HW125931   3.110   1.813   3.455 -0.4781  1.1698  1.6937
 4824SOL    HW225932   3.005   1.807   3.549 -1.8417 -1.4964 -1.3872
 4825SOL     OW25933   3.601   3.521   3.548 -0.3096  0.1056 -0.1472
 4825SOL    HW125934   3.524   3.577   3.544 -1.1407 -1.0517 -0.0504
 4825SOL    HW225935   3.600   3.509   3.642  2.1244  0.2560 -0.0830
 4826SOL     OW25936   0.617   2.716   2.249 -0.0062  0.0685 -0.1366
 4826SOL    HW125937   0.616   2.710   2.153  0.4633 -1.6558 -0.0281
 4826SOL    HW225938   0.696   2.768   2.258 -0.3649  0.1669  2.5274
 4827SOL     OW25939   1.954   3.289   5.325  0.1295 -0.2764  0.0053
 4827SOL    HW125940   1.924   3.289   5.416 -1.6087 -2.9653 -0.5519
 4827SOL    HW225941   1.924   3.208   5.283 -2.1763  0.6022 -0.0565
 4828SOL     OW25942   1.253   0.726  11.921 -0.1863  0.6175  0.3956
 4828SOL    HW125943   1.214   0.651  11.964  0.0256  1.7821  2.5992
 4828SOL    HW225944   1.340   0.690  11.902 -1.0021  0.2827 -2.8144
 4829SOL     OW25945   3.805   2.606   2.289  0.9238 -0.4582 -0.5834
 4829SOL    HW125946   3.806   2.702   2.293 -0.0164 -0.4912  0.5410
 4829SOL    HW225947   3.738   2.591   2.223 -0.3002  1.1546  0.2754
 4830SOL     OW25948   1.690   1.021   3.768  0.3248  0.1854 -0.4261
 4830SOL    HW125949   1.766   1.032   3.710  0.2563  0.5914 -0.4397
 4830SOL    HW225950   1.633   1.086   3.726  1.2695  1.2283 -0.0882
 4831SOL     OW25951   0.037   1.777   0.275 -0.2296  0.0235  0.0936
 4831SOL    HW125952   4.722   1.713   0.216  0.3174 -1.2514  1.1029
 4831SOL    HW225953   0.099   1.735   0.334  0.3065  1.6546  0.6793
 4832SOL     OW25954   1.941   1.546  11.639 -0.4821  0.3654 -0.2251
 4832SOL    HW125955   2.022   1.498  11.623  1.1446  1.8854  3.5108
 4832SOL    HW225956   1.923   1.577  11.550 -2.4494  3.1315  1.1372
 4833SOL     OW25957   1.377   1.245   9.248  0.6108 -0.0282  0.0064
 4833SOL    HW125958   1.412   1.237   9.337 -0.3636 -0.1473  0.3773
 4833SOL    HW225959   1.340   1.332   9.262 -0.1232 -0.7053  2.2498
 4834SOL     OW25960   0.508   0.733   8.028 -0.1672  0.1998 -0.3860
 4834SOL    HW125961   0.595   0.705   7.998 -0.2375 -3.1432  2.4798
 4834SOL    HW225962   0.462   0.690   7.956  1.6441 -1.5027 -0.5554
 4835SOL     OW25963   2.805   0.937   8.807  0.6502 -0.1018  0.2426
 4835SOL    HW125964   2.715   0.942   8.839  1.2198 -2.3878  2.2051
 4835SOL    HW225965   2.843   0.888   8.880  1.7668 -1.2862 -1.1323
 4836SOL     OW25966   1.294   0.185  13.454  0.4812  0.0911 -0.1052
 4836SOL    HW125967   1.229   0.212  13.519  2.8569  3.2532  0.9687
 4836SOL    HW225968   1.314   0.097  13.486  2.1000  0.5136  0.0701
 4837SOL     OW25969   2.127   2.969   6.414  0.4532  0.2036  0.2522
 4837SOL    HW125970   2.050   3.025   6.414  0.0059 -0.3831  3.5422
 4837SOL    HW225971   2.110   2.889   6.464  1.0642  0.0069  0.1502
 4838SOL     OW25972   3.184   1.384   2.141  0.1320  0.6504 -0.1510
 4838SOL    HW125973   3.231   1.466   2.157 -0.9528  1.0667  0.9785
 4838SOL    HW225974   3.094   1.411   2.163 -0.4468 -0.0275 -1.6823
 4839SOL     OW25975   0.484   1.128   5.782  0.2575  0.6259 -0.0227
 4839SOL    HW125976   0.443   1.199   5.733 -1.0032  0.2082  0.4384
 4839SOL    HW225977   0.416   1.098   5.843 -2.0892  0.0637 -2.9203
 4840SOL     OW25978   4.472   2.169   8.087 -0.0967 -0.2559 -0.8332
 4840SOL    HW125979   4.430   2.228   8.024  1.1254  0.3990 -1.0302
 4840SOL    HW225980   4.504   2.232   8.151 -0.3875 -1.1706  0.2109
 4841SOL     OW25981   3.103   3.392   7.320 -0.0642 -0.3887  0.4390
 4841SOL    HW125982   3.197   3.397   7.300 -0.1768 -0.9962 -0.2451
 4841SOL    HW225983   3.108   3.376   7.414  1.4447 -0.9701  0.2560
 4842SOL     OW25984   3.034   2.470   2.708  0.5665 -0.0302  0.4433
 4842SOL    HW125985   2.991   2.444   2.626  2.1622  0.3716 -0.5160
 4842SOL    HW225986   2.954   2.484   2.759  1.4707 -0.9468  2.0927
 4843SOL     OW25987   3.293   2.178   4.746  0.0302 -0.0805  0.2654
 4843SOL    HW125988   3.235   2.170   4.671  0.8120  1.0066 -0.4546
 4843SOL    HW225989   3.361   2.114   4.725 -2.4045 -3.1280  1.5042
 4844SOL     OW25990   2.646   2.983   7.937  0.1478 -0.5717 -0.2068
 4844SOL    HW125991   2.735   2.952   7.953 -0.0229 -0.0821  1.7024
 4844SOL    HW225992   2.596   2.903   7.953 -0.8789  0.6859  2.9251
 4845SOL     OW25993   3.599   0.329   6.626  0.2493 -0.2479  0.4980
 4845SOL    HW125994   3.657   0.404   6.617 -1.4526  0.5706 -3.4001
 4845SOL    HW225995   3.596   0.314   6.721 -1.3620  3.6680  1.0461
 4846SOL     OW25996   3.958   1.130  11.096 -0.5851  0.0580  0.4554
 4846SOL    HW125997   3.870   1.093  11.085 -0.9202  0.9864  0.0401
 4846SOL    HW225998   4.002   1.113  11.013 -0.6867 -1.7622  0.7749
 4847SOL     OW25999   0.536   2.907   4.760  0.2027  0.1963  0.4700
 4847SOL    HW126000   0.556   2.893   4.852  0.5333  0.1539  0.3912
 4847SOL    HW226001   0.621   2.875   4.729  0.0935  0.1028  0.2658
 4848SOL     OW26002   0.874   0.748  15.788 -0.8443  0.6040 -0.3572
 4848SOL    HW126003   0.917   0.824  15.826  0.7602 -0.2248 -0.5215
 4848SOL    HW226004   0.914   0.670  15.827 -2.0351 -0.5689 -1.4456
 4849SOL     OW26005   2.738   4.140   4.833  0.3290  0.3043  0.6119
 4849SOL    HW126006   2.701   4.169   4.916 -0.3288 -2.3524  1.2561
 4849SOL    HW226007   2.750   4.228   4.798 -0.8944 -0.0884 -0.7673
 4850SOL     OW26008   0.347   2.860   4.012  0.8222  0.0233 -0.3098
 4850SOL    HW126009   0.356   2.848   4.107 -2.5462 -0.4693 -0.0362
 4850SOL    HW226010   0.252   2.856   3.998  0.6451 -0.9622  1.1394
 4851SOL     OW26011   4.363   3.892   6.577  0.2095 -0.0571  0.1251
 4851SOL    HW126012   4.296   3.957   6.552  2.1081  0.3277 -3.9885
 4851SOL    HW226013   4.434   3.944   6.615  2.2092 -1.5631 -1.5774
 4852SOL     OW26014   1.501   0.079   9.705  0.1827 -0.0788  0.4419
 4852SOL    HW126015   1.586   0.041   9.684  1.4278  1.3656  2.8901
 4852SOL    HW226016   1.457   0.075   9.620  2.8931  0.3605 -0.9468
 4853SOL     OW26017   4.600   3.605   6.045  0.4173 -0.0330  0.0647
 4853SOL    HW126018   4.574   3.676   5.986  0.8280 -0.2616 -0.3899
 4853SOL    HW226019   4.576   3.643   6.130 -0.4053 -1.9611  0.6817
 4854SOL     OW26020   0.678   1.053  12.685  0.2340 -0.4091  0.0968
 4854SOL    HW126021   0.648   1.143  12.670  1.4687 -0.6180 -3.7589
 4854SOL    HW226022   0.632   1.043  12.768  1.0387  2.6091  0.9207
 4855SOL     OW26023   3.043   3.076   6.808 -0.4612  0.2987  0.5783
 4855SOL    HW126024   2.990   3.135   6.753  0.3708 -0.5558 -1.1310
 4855SOL    HW226025   3.024   2.995   6.762  2.5462  0.7505 -1.4322
 4856SOL     OW26026   3.236   4.368  10.696 -0.4825  0.6316  0.3888
 4856SOL    HW126027   3.296   4.411  10.634  0.1703  0.9789  1.2616
 4856SOL    HW226028   3.152   4.353  10.653 -0.3854  0.1864  0.3462
 4857SOL     OW26029   4.623   3.739   1.985 -0.4763  0.0523  0.3274
 4857SOL    HW126030   4.617   3.655   2.030  0.2206 -0.0210  0.2779
 4857SOL    HW226031   4.530   3.764   1.978 -1.2430 -2.4790  1.5053
 4858SOL     OW26032   2.241   0.326   8.180  0.7328 -0.1762  0.1885
 4858SOL    HW126033   2.281   0.405   8.218  1.0837  0.6870 -1.9278
 4858SOL    HW226034   2.235   0.356   8.089 -0.9794 -0.1466  0.3055
 4859SOL     OW26035   0.660   3.699  17.612  0.2836 -0.0670 -0.0273
 4859SOL    HW126036   0.629   3.676  17.524 -0.2634  0.3953  0.0414
 4859SOL    HW226037   0.706   3.620  17.637 -0.7185 -0.3314  0.9505
 4860SOL     OW26038   1.821   4.616   0.881  0.5475  0.0090 -0.0454
 4860SOL    HW126039   1.747   4.572   0.840  0.7627 -1.3358  0.9781
 4860SOL    HW226040   1.880   4.628   0.806  0.3767  0.5353 -0.0952
 4861SOL     OW26041   4.245   2.905   7.177  0.2608  0.3856  0.1248
 4861SOL    HW126042   4.317   2.956   7.212 -0.2527  1.3056 -0.1602
 4861SOL    HW226043   4.235   2.835   7.243 -0.6191  1.2447  0.9207
 4862SOL     OW26044   4.590   3.281   1.440 -0.3427  0.3225  0.1386
 4862SOL    HW126045   4.635   3.332   1.507  1.7807 -1.7834  0.2800
 4862SOL    HW226046   4.642   3.201   1.437 -1.1411 -0.1411 -1.6039
 4863SOL     OW26047   3.360   2.156  12.337 -0.1809  0.2259  0.1911
 4863SOL    HW126048   3.421   2.164  12.410  3.0988 -2.5869 -2.1918
 4863SOL    HW226049   3.397   2.215  12.271  2.9841 -0.6568  1.2167
 4864SOL     OW26050   0.505   2.089   8.118 -0.1419  0.0072  0.0597
 4864SOL    HW126051   0.481   2.047   8.035  0.1046 -2.5213  1.3099
 4864SOL    HW226052   0.459   2.172   8.103 -1.3863 -0.8032 -0.6543
 4865SOL     OW26053   2.939   1.760  15.463  0.0219 -0.1073  0.8317
 4865SOL    HW126054   2.911   1.683  15.512  2.9634 -1.5055  0.3098
 4865SOL    HW226055   2.853   1.785  15.429  0.3890 -2.6257 -1.9367
 4866SOL     OW26056   0.595   3.415   2.699 -0.0379  0.1628  0.1137
 4866SOL    HW126057   0.637   3.398   2.783 -0.0693 -1.4462 -0.1922
 4866SOL    HW226058   0.504   3.392   2.719  0.0795 -1.4035 -1.2115
 4867SOL     OW26059   4.100   1.789   3.848 -0.1088 -0.3549 -0.1591
 4867SOL    HW126060   4.194   1.800   3.830 -0.9794  4.2140 -1.8836
 4867SOL    HW226061   4.051   1.817   3.771 -1.7333  0.1967  1.0766
 4868SOL     OW26062   2.469   2.109   7.897 -0.0878  0.3765  0.7201
 4868SOL    HW126063   2.531   2.059   7.950  1.5938  1.1061 -0.5598
 4868SOL    HW226064   2.394   2.083   7.951 -0.4876 -2.2488 -1.1308
 4869SOL     OW26065   2.901   3.490  12.012 -0.4195  0.7139  0.1717
 4869SOL    HW126066   2.995   3.501  11.998 -0.6344  2.7271  0.2345
 4869SOL    HW226067   2.860   3.509  11.928 -0.5333 -1.2975 -0.2049
 4870SOL     OW26068   3.409   1.238  10.844 -0.3305 -0.1817 -0.0041
 4870SOL    HW126069   3.466   1.199  10.910  0.3062  0.9741  0.1424
 4870SOL    HW226070   3.410   1.183  10.766 -1.5010  0.1769 -0.2751
 4871SOL     OW26071   1.580   1.548   7.003  0.1604  0.0983 -0.1062
 4871SOL    HW126072   1.520   1.600   7.056 -0.4204 -1.3606  0.6704
 4871SOL    HW226073   1.648   1.611   6.980  0.7402 -0.6151 -0.3702
 4872SOL     OW26074   2.175   4.176   4.188 -0.4166 -0.1957  0.7558
 4872SOL    HW126075   2.128   4.127   4.256 -0.9887 -1.7394 -0.7658
 4872SOL    HW226076   2.167   4.266   4.221  0.4410 -0.0141  0.4613
 4873SOL     OW26077   0.138   0.033   6.958 -0.4931  0.1701  0.7101
 4873SOL    HW126078   0.111   0.013   7.048  0.7252  0.9204  1.2389
 4873SOL    HW226079   0.167   4.675   6.924 -1.2109  0.2638 -0.1262
 4874SOL     OW26080   2.399   1.186  11.947 -0.9254 -0.3425 -0.4184
 4874SOL    HW126081   2.382   1.280  11.938  0.2205 -0.1149 -0.1902
 4874SOL    HW226082   2.458   1.173  11.873  0.1595 -2.3056  0.7931
 4875SOL     OW26083   2.271   2.110  10.724  0.2467  0.4230 -0.3977
 4875SOL    HW126084   2.332   2.153  10.664  1.8564 -0.8344  0.3344
 4875SOL    HW226085   2.239   2.188  10.770  0.9253  0.4864 -0.0433
 4876SOL     OW26086   0.225   4.334   7.869  0.3310 -0.3955 -0.2423
 4876SOL    HW126087   0.144   4.327   7.919 -1.3788  2.2080 -2.6151
 4876SOL    HW226088   0.240   4.241   7.856 -0.9341 -0.8229  1.2800
 4877SOL     OW26089   0.955   1.445   0.145 -0.2346  0.0914 -0.3525
 4877SOL    HW126090   1.047   1.459   0.169 -1.0168  1.2529  2.0074
 4877SOL    HW226091   0.914   1.523   0.110 -2.4289 -1.0592 -0.3245
 4878SOL     OW26092   2.746   1.203  15.781  0.0673  0.1134 -0.0541
 4878SOL    HW126093   2.837   1.225  15.797  0.0634 -0.5384  0.8617
 4878SOL    HW226094   2.701   1.288  15.775 -1.1050 -0.7036 -2.9256
 4879SOL     OW26095   4.262   4.579  13.205  0.5578 -0.2101  0.0914
 4879SOL    HW126096   4.195   4.620  13.259  0.0195 -0.3998 -0.4355
 4879SOL    HW226097   4.343   4.620  13.237 -0.3725  1.2301  0.6011
 4880SOL     OW26098   1.858   2.283  12.663 -0.1814  0.2706  0.2327
 4880SOL    HW126099   1.899   2.284  12.750 -2.3143 -4.3364  1.2590
 4880SOL    HW226100   1.921   2.230  12.613  0.8230 -0.2060  1.9927
 4881SOL     OW26101   2.583   1.982   0.722  0.3840 -0.1915  0.6120
 4881SOL    HW126102   2.668   1.940   0.727 -0.1572 -1.2228  1.2320
 4881SOL    HW226103   2.585   2.004   0.629 -1.4133 -0.7861  0.4204
 4882SOL     OW26104   1.494   3.873  16.292 -0.0462  0.5943  0.2326
 4882SOL    HW126105   1.560   3.804  16.296  2.2367  2.7997  1.1948
 4882SOL    HW226106   1.531   3.924  16.364  3.0331 -1.2307 -0.0683
 4883SOL     OW26107   1.747   2.968   3.376 -0.0281  0.5910  0.0997
 4883SOL    HW126108   1.706   3.030   3.436 -2.0190 -0.4384 -0.2008
 4883SOL    HW226109   1.753   3.023   3.298 -0.6553 -0.7426 -0.8986
 4884SOL     OW26110   1.626   2.365   3.950  0.0906 -0.3697  0.1778
 4884SOL    HW126111   1.542   2.376   3.905  0.6528  3.6904  0.0891
 4884SOL    HW226112   1.652   2.457   3.957  2.5994 -1.0480 -0.2680
 4885SOL     OW26113   1.095   1.127   5.001  0.5897 -0.5515 -0.4639
 4885SOL    HW126114   1.008   1.098   4.974 -0.1995 -0.4029  1.9370
 4885SOL    HW226115   1.091   1.140   5.096 -1.7627  1.9790 -0.9149
 4886SOL     OW26116   2.816   3.412   2.208  0.0374  0.7870  0.3031
 4886SOL    HW126117   2.767   3.437   2.129  1.6629 -0.8147 -1.2145
 4886SOL    HW226118   2.761   3.357   2.264 -0.2548 -1.1540 -1.8952
 4887SOL     OW26119   0.522   0.177   5.193 -0.2107  0.5232  1.0723
 4887SOL    HW126120   0.553   0.265   5.172  0.4625 -0.3001 -1.2745
 4887SOL    HW226121   0.594   0.145   5.248 -1.2173 -1.3470  1.3079
 4888SOL     OW26122   0.946   1.437   7.962 -0.1964  0.4974 -0.3809
 4888SOL    HW126123   1.004   1.513   7.960  2.7865 -1.7149  1.6841
 4888SOL    HW226124   1.018   1.379   7.986  0.5795  1.5281 -0.2186
 4889SOL     OW26125   1.886   1.341   2.945 -0.0271 -0.1983  0.0499
 4889SOL    HW126126   1.874   1.434   2.924 -0.5419  0.1842  1.9999
 4889SOL    HW226127   1.800   1.307   2.920 -0.0613  0.2719 -0.4949
 4890SOL     OW26128   2.817   0.726   3.665 -0.1546 -0.6671 -0.0328
 4890SOL    HW126129   2.886   0.790   3.651 -0.4753 -0.4279 -0.5277
 4890SOL    HW226130   2.867   0.647   3.642 -1.4223 -1.7173  0.7912
 4891SOL     OW26131   0.791   2.876  13.109 -0.0059 -0.9175  0.1269
 4891SOL    HW126132   0.724   2.922  13.057  1.8235  0.9656 -0.5471
 4891SOL    HW226133   0.870   2.890  13.057  1.3075  1.4077  2.7689
 4892SOL     OW26134   0.454   2.126   6.615 -0.1051  0.6282 -0.2593
 4892SOL    HW126135   0.505   2.073   6.554 -1.8681 -0.8158 -0.4947
 4892SOL    HW226136   0.443   2.060   6.684 -3.1475  1.7081  0.2774
 4893SOL     OW26137   1.232   3.371   2.483 -0.2834 -0.0077 -0.5292
 4893SOL    HW126138   1.278   3.451   2.457  1.3528 -0.5671  0.6355
 4893SOL    HW226139   1.142   3.400   2.496 -0.1596  0.4261 -0.6259
 4894SOL     OW26140   0.556   4.607  16.514  1.0786  0.3801 -0.9378
 4894SOL    HW126141   0.546   4.693  16.554 -0.0392 -0.0958 -0.2223
 4894SOL    HW226142   0.533   4.552  16.588 -0.1697  1.0931 -0.7975
 4895SOL     OW26143   3.569   3.837   7.787 -0.2183  0.1534 -0.3764
 4895SOL    HW126144   3.622   3.853   7.709  0.0671  0.9055 -0.0287
 4895SOL    HW226145   3.505   3.908   7.781  1.4541  1.8814  2.6740
 4896SOL     OW26146   4.400   3.182   5.954  0.3094  0.0441  0.1805
 4896SOL    HW126147   4.470   3.247   5.962 -0.9860  1.5825 -1.1158
 4896SOL    HW226148   4.463   3.112   5.935 -0.0907  0.3676 -2.2983
 4897SOL     OW26149   3.691   3.878   8.010  0.4282 -0.6554  0.0172
 4897SOL    HW126150   3.647   3.866   7.926 -0.3783 -0.8952  0.4807
 4897SOL    HW226151   3.709   3.972   8.010 -0.8824 -0.4058 -0.5810
 4898SOL     OW26152   2.306   2.819  15.648  0.5252  0.1842 -0.5717
 4898SOL    HW126153   2.225   2.795  15.602  0.4307 -0.3229 -0.1501
 4898SOL    HW226154   2.300   2.913  15.633 -0.6932  0.5425  2.0763
 4899SOL     OW26155   1.087   0.423   7.130  0.3006 -0.5265  0.0898
 4899SOL    HW126156   1.090   0.490   7.062  1.1930  0.9800  1.6167
 4899SOL    HW226157   1.013   0.455   7.181  0.1780  1.0168 -1.0930
 4900SOL     OW26158   0.660   0.075   2.694 -0.1597 -0.6934 -0.3262
 4900SOL    HW126159   0.597   0.124   2.748 -0.4216 -1.3867  0.0029
 4900SOL    HW226160   0.691   0.138   2.629  0.7945 -1.6284 -0.7731
 4901SOL     OW26161   1.042   2.151   7.822  0.5855 -0.8081 -0.0681
 4901SOL    HW126162   0.988   2.075   7.844 -0.6078  0.0918  0.1356
 4901SOL    HW226163   1.110   2.151   7.890  0.6534 -0.8250 -0.1361
 4902SOL     OW26164   0.716   3.428   2.956 -0.1426  1.0325 -0.8751
 4902SOL    HW126165   0.735   3.338   2.982 -0.0328  1.2937 -0.0407
 4902SOL    HW226166   0.731   3.467   3.043 -2.5139  2.4193 -1.0978
 4903SOL     OW26167   3.333   3.313   4.488  0.3460  0.0757  0.4269
 4903SOL    HW126168   3.419   3.327   4.446  0.5917  0.2978  1.0074
 4903SOL    HW226169   3.365   3.286   4.574 -0.2713 -2.6733 -0.2000
 4904SOL     OW26170   3.129   4.256   2.596  0.9225  0.3403  0.0714
 4904SOL    HW126171   3.187   4.210   2.535 -0.2669 -2.4527  1.0945
 4904SOL    HW226172   3.136   4.345   2.559  0.9578  0.5906  0.6766
 4905SOL     OW26173   4.196   1.190   3.502 -0.2628 -0.1637  0.1863
 4905SOL    HW126174   4.164   1.225   3.419 -0.0408 -0.2845  0.0506
 4905SOL    HW226175   4.271   1.249   3.510  0.4665 -0.8740 -1.5170
 4906SOL     OW26176   4.296   0.508   0.880 -0.2736  0.1421  0.2547
 4906SOL    HW126177   4.209   0.532   0.913  0.3328  2.2275  0.3643
 4906SOL    HW226178   4.270   0.419   0.856  2.4548 -0.7623  0.7165
 4907SOL     OW26179   0.531   3.836  14.860  0.0196  0.0775  0.0471
 4907SOL    HW126180   0.584   3.826  14.781 -0.6619  0.3432 -0.4419
 4907SOL    HW226181   0.585   3.772  14.906 -0.7405  1.3428  2.7178
 4908SOL     OW26182   0.825   1.746   7.214  0.1733  0.6380 -0.1985
 4908SOL    HW126183   0.846   1.676   7.153  1.9763  0.4647  0.6236
 4908SOL    HW226184   0.888   1.727   7.283 -1.0612 -2.2381  0.1258
 4909SOL     OW26185   2.166   0.538   4.976 -0.4265  0.4821 -0.3479
 4909SOL    HW126186   2.240   0.542   4.916 -1.7578 -1.3624 -2.1183
 4909SOL    HW226187   2.146   0.626   5.008 -2.8124 -0.2128  0.1117
 4910SOL     OW26188   4.322   3.208   6.598 -0.0111  0.1697  0.6414
 4910SOL    HW126189   4.388   3.157   6.647  0.1274  0.6170  0.9217
 4910SOL    HW226190   4.279   3.150   6.536  0.3529 -0.2143  0.7434
 4911SOL     OW26191   0.253   0.671   8.472 -0.1679  0.3410  0.4858
 4911SOL    HW126192   0.191   0.743   8.476 -0.0699  0.5044 -0.9986
 4911SOL    HW226193   0.317   0.722   8.423  0.0411 -0.9907 -0.6222
 4912SOL     OW26194   2.813   4.119   8.432  0.3305 -0.1008 -0.5667
 4912SOL    HW126195   2.780   4.138   8.520 -0.3588  1.5069 -1.1791
 4912SOL    HW226196   2.793   4.025   8.430 -0.5871  0.1282 -1.9728
 4913SOL     OW26197   3.560   4.637   7.653  0.0622  0.0598 -0.7306
 4913SOL    HW126198   3.653   4.632   7.631  0.4186  0.8264  0.5747
 4913SOL    HW226199   3.531   4.553   7.618  0.9546 -1.3827  2.0329
 4914SOL     OW26200   1.730   4.329   0.086  0.0308 -0.4465  0.4765
 4914SOL    HW126201   1.784   4.323   0.164  0.5645 -0.8289  0.0796
 4914SOL    HW226202   1.674   4.251   0.078 -1.9874  0.9265  0.9995
 4915SOL     OW26203   0.312   4.327  11.765 -0.6073  0.2147  0.4573
 4915SOL    HW126204   0.251   4.295  11.831 -2.2278  1.5999 -0.3811
 4915SOL    HW226205   0.394   4.312  11.813 -0.0585  0.3992 -0.4297
 4916SOL     OW26206   1.940   2.973  12.608 -0.1521  0.7291 -0.4873
 4916SOL    HW126207   1.959   3.026  12.686  0.3413  0.7163 -0.5939
 4916SOL    HW226208   2.004   3.017  12.551  0.6536  1.3410  0.8982
 4917SOL     OW26209   0.775   2.176  12.570 -0.4954  1.3171 -0.3824
 4917SOL    HW126210   0.777   2.110  12.640  1.4450 -0.3375 -2.0031
 4917SOL    HW226211   0.697   2.164  12.515  0.4706 -2.5015 -0.9385
 4918SOL     OW26212   3.537   0.446   1.801  0.2485 -0.2363  0.1860
 4918SOL    HW126213   3.518   0.477   1.890  2.8425 -1.6128  1.2416
 4918SOL    HW226214   3.476   0.493   1.744 -0.6002 -0.9129  0.5367
 4919SOL     OW26215   1.139   3.609  15.553 -0.4437 -0.6406  0.4391
 4919SOL    HW126216   1.232   3.629  15.553 -0.6330  0.2749  0.4610
 4919SOL    HW226217   1.115   3.607  15.645  1.2699  0.6288  0.9154
 4920SOL     OW26218   3.774   3.844   4.834 -0.5554  0.8227  0.5228
 4920SOL    HW126219   3.774   3.781   4.906 -1.4613 -0.4594 -0.6085
 4920SOL    HW226220   3.793   3.927   4.879  0.7104 -0.3389  2.1682
 4921SOL     OW26221   4.214   3.582   1.288  0.2118  0.1159 -0.2091
 4921SOL    HW126222   4.161   3.533   1.226  0.7698 -0.4620 -0.2231
 4921SOL    HW226223   4.298   3.578   1.243  0.7229 -0.6409  0.8209
 4922SOL     OW26224   1.303   0.017   5.701 -0.2033  0.0342 -0.3528
 4922SOL    HW126225   1.221   4.724   5.745  1.8823  4.0386  5.3060
 4922SOL    HW226226   1.346   0.070   5.768 -2.6281  0.6013  0.7350
 4923SOL     OW26227   1.640   2.209   1.811  0.2541  0.6111 -0.2600
 4923SOL    HW126228   1.695   2.139   1.848 -2.5358 -1.0620  0.7013
 4923SOL    HW226229   1.570   2.166   1.763  2.3835 -1.8919 -1.1595
 4924SOL     OW26230   2.978   0.577  11.784  0.3994 -0.3882 -1.0200
 4924SOL    HW126231   3.013   0.490  11.763  1.6793  0.0784 -0.8450
 4924SOL    HW226232   2.896   0.587  11.736  0.3560  3.1764 -0.1704
 4925SOL     OW26233   4.722   4.315   4.492  0.6021  0.5603  0.1108
 4925SOL    HW126234   0.089   4.335   4.493  0.1743  2.5152  0.5534
 4925SOL    HW226235   4.709   4.321   4.397 -0.5683  0.3311  0.2481
 4926SOL     OW26236   4.342   4.022   5.065  0.0650  0.0090  0.5501
 4926SOL    HW126237   4.296   4.105   5.075 -0.2197 -0.2388  1.2880
 4926SOL    HW226238   4.432   4.050   5.080  0.4545 -0.4404 -0.8777
 4927SOL     OW26239   0.211   0.361   5.620 -0.0469 -0.2425  0.8362
 4927SOL    HW126240   0.254   0.303   5.683 -0.1781 -1.2995 -0.0425
 4927SOL    HW226241   0.119   0.357   5.647 -0.7402  1.2091 -1.3241
 4928SOL     OW26242   2.921   4.247  11.533 -0.4421 -0.3010  0.3866
 4928SOL    HW126243   2.866   4.188  11.482  0.5835 -0.0934 -0.9391
 4928SOL    HW226244   2.911   4.332  11.491 -1.4750 -1.5010 -1.7905
 4929SOL     OW26245   2.861   4.540  11.613  0.5889 -0.6582 -0.3673
 4929SOL    HW126246   2.815   4.525  11.696 -0.8796 -0.4035 -1.1336
 4929SOL    HW226247   2.930   4.593  11.653  0.2037 -1.8239  1.8938
 4930SOL     OW26248   2.047   1.740   8.892  0.1259  0.0864  0.3304
 4930SOL    HW126249   2.104   1.813   8.917  1.2870 -0.9831  0.8281
 4930SOL    HW226250   2.107   1.666   8.886 -1.0971 -0.9420  0.8084
 4931SOL     OW26251   1.600   4.708   2.908  0.3096 -0.6415  0.4038
 4931SOL    HW126252   1.690   0.014   2.903 -0.9484  2.7018 -0.8414
 4931SOL    HW226253   1.599   4.618   2.875 -0.4536 -0.1569 -0.8957
 4932SOL     OW26254   1.527   4.525  14.769  0.4495  0.5745 -0.4155
 4932SOL    HW126255   1.447   4.481  14.799  0.2525  0.8758 -0.4904
 4932SOL    HW226256   1.537   4.602  14.827 -0.5506 -0.3921  1.0441
 4933SOL     OW26257   4.314   0.452   1.501  0.4032 -0.4063  0.5291
 4933SOL    HW126258   4.345   0.543   1.495  0.9687 -0.6102  0.3667
 4933SOL    HW226259   4.229   0.472   1.461  0.2572 -0.5317  0.7813
 4934SOL     OW26260   1.348   1.495  10.344  0.2139  0.0221 -0.2013
 4934SOL    HW126261   1.263   1.462  10.314  0.6677 -1.7052  0.3962
 4934SOL    HW226262   1.391   1.414  10.373  2.0693  0.0561 -2.9129
 4935SOL     OW26263   4.722   0.574   8.300  0.3116  0.0190  0.0312
 4935SOL    HW126264   4.667   0.645   8.269 -0.1801 -0.5346 -0.3681
 4935SOL    HW226265   0.006   0.595   8.393 -2.5891 -0.5804  0.4828
 4936SOL     OW26266   1.813   0.220  14.525  0.4161 -0.8074 -0.5593
 4936SOL    HW126267   1.900   0.218  14.564 -0.6526  1.0106  1.9455
 4936SOL    HW226268   1.786   0.311  14.537  0.4786 -1.1747  2.1790
 4937SOL     OW26269   1.786   0.229  14.947 -0.0108 -0.3611 -0.1778
 4937SOL    HW126270   1.728   0.297  14.913  0.2812  1.0795  2.1978
 4937SOL    HW226271   1.724   0.188  15.007  1.5348 -1.5323  0.6093
 4938SOL     OW26272   3.325   0.673  13.944  0.2978  0.3086  0.3729
 4938SOL    HW126273   3.337   0.578  13.949  0.0765  0.3377  1.3682
 4938SOL    HW226274   3.410   0.705  13.973 -0.2515  1.3227  0.8755
 4939SOL     OW26275   1.382   3.442  13.444  0.2483 -0.2230  0.0011
 4939SOL    HW126276   1.309   3.405  13.394 -0.6140  0.1932  0.9431
 4939SOL    HW226277   1.351   3.531  13.458  0.1548 -0.0083 -1.5521
 4940SOL     OW26278   3.174   4.415   2.997 -0.1898  0.2905 -0.0266
 4940SOL    HW126279   3.229   4.420   3.075  3.1980  1.5748 -2.5281
 4940SOL    HW226280   3.179   4.322   2.977  0.5255  0.4151 -0.4307
 4941SOL     OW26281   0.956   2.087   5.931 -0.3122 -0.4568 -0.0005
 4941SOL    HW126282   1.031   2.140   5.959 -1.6335  1.9491 -1.0293
 4941SOL    HW226283   0.914   2.130   5.857 -1.2827 -1.3644  0.0214
 4942SOL     OW26284   4.051   2.270  10.555  0.1722 -0.3330  0.5723
 4942SOL    HW126285   4.099   2.346  10.585 -1.0789  0.1917  1.2445
 4942SOL    HW226286   4.113   2.217  10.505  0.7472  0.5380  0.3649
 4943SOL     OW26287   3.270   1.008   1.370 -0.4273 -0.3913 -0.1999
 4943SOL    HW126288   3.254   0.952   1.294  0.3337 -1.3666  0.3600
 4943SOL    HW226289   3.355   0.974   1.398 -0.9823 -0.8853  0.9054
 4944SOL     OW26290   0.473   0.650   0.826 -0.0750 -0.1966  0.6438
 4944SOL    HW126291   0.547   0.678   0.880 -0.8997  0.3486  1.5109
 4944SOL    HW226292   0.404   0.691   0.878  0.1437 -0.6436  1.2865
 4945SOL     OW26293   3.489   4.373   2.615 -0.0122  0.3709 -0.0214
 4945SOL    HW126294   3.441   4.353   2.535  0.6427 -0.5367 -0.1837
 4945SOL    HW226295   3.477   4.468   2.609 -1.9230  0.2698  1.8908
 4946SOL     OW26296   4.173   1.080   8.205  0.3952  0.3014  0.5650
 4946SOL    HW126297   4.093   1.030   8.218  0.9169 -1.0739 -1.5842
 4946SOL    HW226298   4.232   1.011   8.177 -0.1185  0.2545 -0.3924
 4947SOL     OW26299   2.310   4.053   7.379 -0.0201 -0.2975 -0.2916
 4947SOL    HW126300   2.299   4.047   7.284  0.6781  1.4225 -0.4922
 4947SOL    HW226301   2.398   4.092   7.371 -0.2653 -0.0227 -1.7002
 4948SOL     OW26302   2.647   3.850   7.189  0.3279  0.6861  0.6016
 4948SOL    HW126303   2.613   3.820   7.274  0.7889 -1.6158 -0.0283
 4948SOL    HW226304   2.563   3.890   7.165 -0.1743 -0.5165  0.3499
 4949SOL     OW26305   4.597   2.458   1.445  0.0742 -0.2777  0.0178
 4949SOL    HW126306   4.679   2.417   1.419  0.6025 -0.6019  2.1979
 4949SOL    HW226307   4.566   2.483   1.358 -2.0580 -1.8575  0.3045
 4950SOL     OW26308   0.351   3.255   4.383 -0.5516 -0.8839  0.6932
 4950SOL    HW126309   0.312   3.316   4.445  0.6019  0.0346  0.5233
 4950SOL    HW226310   0.380   3.183   4.440  1.8656 -0.1361  0.3969
 4951SOL     OW26311   3.272   3.569   4.482 -1.0874  0.0735  0.0997
 4951SOL    HW126312   3.288   3.476   4.493  0.3161  0.3114  0.0713
 4951SOL    HW226313   3.176   3.565   4.475 -0.8596 -1.1547 -2.3542
 4952SOL     OW26314   3.922   0.959   3.421  0.1110  0.0352 -0.0520
 4952SOL    HW126315   4.006   0.942   3.377  1.1195  0.0096  1.8651
 4952SOL    HW226316   3.854   0.930   3.360 -0.9160 -0.3726  1.2895
 4953SOL     OW26317   2.763   4.593  12.469 -0.1260  0.2615  0.3829
 4953SOL    HW126318   2.840   4.651  12.470  0.5542 -0.6353 -0.2120
 4953SOL    HW226319   2.692   4.657  12.469 -2.5590 -2.4312  1.1300
 4954SOL     OW26320   2.948   0.920  10.421 -0.0164  0.2751 -0.1493
 4954SOL    HW126321   2.929   0.889  10.510 -0.9793 -0.1559 -0.4985
 4954SOL    HW226322   2.861   0.941  10.387  0.7537  0.0769 -2.2754
 4955SOL     OW26323   4.041   0.853   3.129  0.3122 -0.7474 -0.4225
 4955SOL    HW126324   4.099   0.823   3.059  0.7752  2.8464 -1.5539
 4955SOL    HW226325   3.962   0.805   3.104 -1.1345  1.4991 -0.1428
 4956SOL     OW26326   3.306   1.951  13.167  0.0724  0.4868  0.0942
 4956SOL    HW126327   3.397   1.929  13.148  0.5704  2.5231  0.1155
 4956SOL    HW226328   3.311   2.034  13.120  2.4107  0.6847  0.7082
 4957SOL     OW26329   4.346   1.053   6.806  0.3122 -0.4427 -0.3925
 4957SOL    HW126330   4.397   1.008   6.874 -2.0458  0.5884  2.0282
 4957SOL    HW226331   4.395   1.136   6.807  0.2370 -0.4262  1.4742
 4958SOL     OW26332   0.181   1.146  14.189  0.3681  0.8329  0.2609
 4958SOL    HW126333   0.230   1.067  14.211 -2.5397 -1.8180 -2.8861
 4958SOL    HW226334   0.099   1.146  14.239  0.6257 -3.3030  0.6578
 4959SOL     OW26335   3.519   0.497   3.207 -0.7043 -0.2797 -0.6032
 4959SOL    HW126336   3.470   0.478   3.127 -0.9966 -0.6328 -0.3438
 4959SOL    HW226337   3.555   0.409   3.223 -2.3401 -0.7541  0.5769
 4960SOL     OW26338   1.515   3.656   3.597  0.2481 -0.3580 -0.2921
 4960SOL    HW126339   1.480   3.713   3.665 -0.4129 -1.7286  0.5150
 4960SOL    HW226340   1.556   3.718   3.537  0.0636  0.4149  0.3902
 4961SOL     OW26341   0.538   3.256   4.903  0.8260  0.1500 -0.4031
 4961SOL    HW126342   0.521   3.292   4.816 -1.7141  0.9861  0.4649
 4961SOL    HW226343   0.451   3.227   4.929  1.6419 -1.1203  0.9345
 4962SOL     OW26344   2.673   4.451   7.886  0.1032  0.0706  0.7836
 4962SOL    HW126345   2.751   4.406   7.919  0.6552  1.3961  1.2981
 4962SOL    HW226346   2.720   4.525   7.846 -0.4053 -0.2245 -0.3595
 4963SOL     OW26347   2.422   1.277   0.277 -1.0961  0.4504 -0.3641
 4963SOL    HW126348   2.391   1.272   0.368 -2.1922 -1.4749 -0.8526
 4963SOL    HW226349   2.443   1.370   0.276  0.5676  0.0834 -0.6572
 4964SOL     OW26350   1.480   0.046  16.021  0.0249  0.1807 -0.2486
 4964SOL    HW126351   1.513   0.073  15.935 -0.5226 -0.5357 -0.6817
 4964SOL    HW226352   1.401   0.099  16.032  1.1339  2.0172 -0.9974
 4965SOL     OW26353   0.638   2.665   3.953 -0.1262  0.7249  0.7774
 4965SOL    HW126354   0.557   2.692   3.910 -0.1329  1.5283  1.2828
 4965SOL    HW226355   0.700   2.699   3.888  0.1888 -0.4871  0.4543
 4966SOL     OW26356   0.945   3.539   7.589  0.0348  0.3955 -0.4915
 4966SOL    HW126357   0.967   3.446   7.594 -1.3597  0.1366  0.8899
 4966SOL    HW226358   1.021   3.578   7.632  0.7128 -2.3652  0.8536
 4967SOL     OW26359   2.425   4.362   2.699  0.3408 -0.9454  0.2563
 4967SOL    HW126360   2.508   4.318   2.682 -0.2474 -1.9561  0.0187
 4967SOL    HW226361   2.429   4.352   2.795  0.9165  0.0587  0.3293
 4968SOL     OW26362   0.218   0.279   4.000  0.0666  0.1609 -0.3010
 4968SOL    HW126363   0.283   0.329   4.050  0.0991  0.6390 -0.8173
 4968SOL    HW226364   0.176   0.352   3.954  1.0042  0.3941 -0.7777
 4969SOL     OW26365   0.004   2.087   7.866 -0.5253 -0.2491 -0.1368
 4969SOL    HW126366   4.674   2.146   7.817  2.1083  0.0973 -2.7389
 4969SOL    HW226367   0.089   2.132   7.871 -0.0339 -1.3443  1.4395
 4970SOL     OW26368   4.296   4.284   2.733  0.2152  0.2189 -1.0387
 4970SOL    HW126369   4.389   4.295   2.749 -0.0108  1.3030 -0.4497
 4970SOL    HW226370   4.283   4.219   2.665 -0.6565 -0.8661  0.1475
 4971SOL     OW26371   0.188   4.687  13.579 -0.3500 -0.0438 -0.0544
 4971SOL    HW126372   0.229   0.030  13.631  1.0538 -0.4593 -0.6263
 4971SOL    HW226373   0.214   4.610  13.631  0.2881  0.5354  0.4794
 4972SOL     OW26374   0.191   4.349   6.110  0.7817 -0.0108  0.1328
 4972SOL    HW126375   0.237   4.414   6.163  0.8689 -0.2154  0.3132
 4972SOL    HW226376   0.196   4.270   6.164  0.2848 -0.0133  0.1740
 4973SOL     OW26377   2.879   0.594  14.237 -0.4469 -0.4411 -0.2657
 4973SOL    HW126378   2.821   0.586  14.162 -1.7736 -2.9676  1.0287
 4973SOL    HW226379   2.964   0.599  14.193 -0.3546  1.5573  0.1347
 4974SOL     OW26380   3.051   1.759   9.684  0.2172  0.0444 -0.2974
 4974SOL    HW126381   2.962   1.784   9.707  0.8246  1.5412  0.4145
 4974SOL    HW226382   3.040   1.693   9.615  2.5891 -2.4960  1.7642
 4975SOL     OW26383   3.172   3.285   6.934  0.0600 -0.2023 -1.3190
 4975SOL    HW126384   3.143   3.199   6.903 -0.3953 -0.3478 -0.4654
 4975SOL    HW226385   3.161   3.255   7.024 -1.3827  0.3398 -1.3269
 4976SOL     OW26386   4.600   3.177   1.813 -0.3930  0.5198  0.1053
 4976SOL    HW126387   4.535   3.147   1.750  1.6056 -0.9542 -1.2525
 4976SOL    HW226388   4.678   3.136   1.776  1.5010  3.0300  1.3339
 4977SOL     OW26389   4.172   4.593  16.287  0.7840 -0.6518  0.8489
 4977SOL    HW126390   4.192   4.500  16.298  0.7590 -1.1446 -3.2601
 4977SOL    HW226391   4.091   4.578  16.238  2.3559 -4.2620 -0.6880
 4978SOL     OW26392   3.306   2.575   4.898 -0.2822 -0.1784 -0.3689
 4978SOL    HW126393   3.265   2.603   4.817 -2.9392  1.3725  1.5152
 4978SOL    HW226394   3.262   2.491   4.909 -0.2780  0.0294  1.3469
 4979SOL     OW26395   4.208   1.888  14.765 -0.4025 -0.3843  0.9053
 4979SOL    HW126396   4.160   1.823  14.817 -0.1566 -0.1762  1.3901
 4979SOL    HW226397   4.298   1.857  14.777  0.0995  0.7327  0.0132
 4980SOL     OW26398   2.475   4.706   8.734  0.0967 -0.6221  0.2637
 4980SOL    HW126399   2.438   4.654   8.805  0.1921  0.1676  0.9001
 4980SOL    HW226400   2.427   4.670   8.660 -0.1417  0.6611 -0.2114
 4981SOL     OW26401   0.736   2.604  13.213 -0.3901 -0.3614  0.4319
 4981SOL    HW126402   0.647   2.613  13.178 -1.3148  1.3207  3.2051
 4981SOL    HW226403   0.755   2.698  13.205 -0.3448 -0.2759  1.5318
 4982SOL     OW26404   4.497   2.820   5.462  0.2205 -0.4283 -0.6708
 4982SOL    HW126405   4.463   2.890   5.406  0.6197 -1.4257 -2.1387
 4982SOL    HW226406   4.415   2.778   5.486 -0.8235  1.8946 -0.1407
 4983SOL     OW26407   4.493   0.391   6.863 -0.1161  0.3365 -0.1312
 4983SOL    HW126408   4.575   0.365   6.903  0.2125 -0.7972 -1.5626
 4983SOL    HW226409   4.509   0.482   6.838  0.1352  0.2711 -0.2037
 4984SOL     OW26410   2.157   3.424   5.233  0.2572 -0.2870  0.0307
 4984SOL    HW126411   2.202   3.354   5.185  4.0963  2.4351 -0.3279
 4984SOL    HW226412   2.075   3.384   5.264  0.1964 -0.3907 -0.2598
 4985SOL     OW26413   0.657   3.026   8.728  0.2010 -0.0176  0.0965
 4985SOL    HW126414   0.751   3.035   8.711  0.8825  0.0620  3.7129
 4985SOL    HW226415   0.665   3.006   8.822 -2.3107  1.7963  0.6814
 4986SOL     OW26416   0.488   0.276   7.052  0.5175 -0.0883 -0.0885
 4986SOL    HW126417   0.442   0.251   7.132 -1.4402  0.7392 -0.9265
 4986SOL    HW226418   0.474   0.369   7.071  0.3647 -0.4966  1.7377
 4987SOL     OW26419   2.131   2.003   0.669  0.1778  0.3721 -0.1123
 4987SOL    HW126420   2.139   1.977   0.577  0.2338 -0.9592  0.2764
 4987SOL    HW226421   2.192   1.948   0.718  0.4366 -0.3574 -1.2383
 4988SOL     OW26422   0.223   1.198  11.626 -0.1648  0.3103 -0.0330
 4988SOL    HW126423   0.283   1.229  11.693  0.3033 -1.3458  0.3037
 4988SOL    HW226424   0.276   1.231  11.553 -0.6636  3.4369  1.0318
 4989SOL     OW26425   0.061   4.085  11.140 -0.1667  0.1688  0.3795
 4989SOL    HW126426   0.040   4.069  11.232  1.1430  2.9514  1.1561
 4989SOL    HW226427   4.709   4.048  11.101  1.0429 -0.1272 -1.7661
 4990SOL     OW26428   0.497   1.092   7.805  0.1346  0.0716 -0.0608
 4990SOL    HW126429   0.473   1.100   7.898 -1.9318  0.8237 -0.6640
 4990SOL    HW226430   0.567   1.027   7.803  0.1616  0.0411  1.6923
 4991SOL     OW26431   1.938   0.992   2.216 -0.2230  0.2512 -0.0131
 4991SOL    HW126432   1.947   0.906   2.175 -1.2003  0.8137 -1.4146
 4991SOL    HW226433   2.028   1.004   2.246 -0.3421  1.2294 -0.0430
 4992SOL     OW26434   1.016   2.089   6.812  0.4508 -0.1313 -0.2374
 4992SOL    HW126435   0.938   2.034   6.817  1.0235 -0.8197  1.2120
 4992SOL    HW226436   1.003   2.129   6.726  0.1063 -1.3058 -0.7361
 4993SOL     OW26437   2.218   0.291  16.384  0.4938  0.0119 -0.0065
 4993SOL    HW126438   2.236   0.226  16.451 -1.1566 -0.7881 -0.3308
 4993SOL    HW226439   2.304   0.271  16.348 -0.5709 -4.0835 -0.2251
 4994SOL     OW26440   1.948   3.011  11.300  0.1775 -0.0721 -0.3293
 4994SOL    HW126441   2.003   3.073  11.348 -2.2051 -0.1032  2.4561
 4994SOL    HW226442   1.927   3.066  11.225  0.3493  1.1215  0.4916
 4995SOL     OW26443   3.281   1.359  12.207  0.1783  0.2898 -0.0029
 4995SOL    HW126444   3.335   1.414  12.150 -0.3145 -0.3322 -1.0729
 4995SOL    HW226445   3.257   1.283  12.154  0.5107  2.1259 -2.8291
 4996SOL     OW26446   1.338   2.070   6.122  0.1935  0.8208 -0.0542
 4996SOL    HW126447   1.343   2.101   6.032  0.5992  3.3859  0.8475
 4996SOL    HW226448   1.280   1.995   6.107  0.2286  0.9301 -0.7519
 4997SOL     OW26449   1.984   1.212   3.659 -0.1268 -1.2120 -0.3235
 4997SOL    HW126450   1.899   1.223   3.617  0.0995  0.2258 -0.4151
 4997SOL    HW226451   2.032   1.273   3.602  1.3590 -1.6066  0.5261
 4998SOL     OW26452   4.483   1.485   7.541 -0.3889 -0.1475 -0.1725
 4998SOL    HW126453   4.537   1.528   7.608 -1.9029  1.1708  0.1823
 4998SOL    HW226454   4.516   1.529   7.463  0.0503 -0.7233 -0.3175
 4999SOL     OW26455   1.908   2.708  13.484 -0.8983 -0.8881  0.5397
 4999SOL    HW126456   1.930   2.668  13.400  0.7137  0.3362  0.3829
 4999SOL    HW226457   1.949   2.652  13.550 -0.0023 -0.7283  0.1175
 5000SOL     OW26458   3.838   3.426   7.702 -0.1151 -0.1923  0.4189
 5000SOL    HW126459   3.924   3.403   7.666  0.9526  2.3758  1.3336
 5000SOL    HW226460   3.786   3.357   7.661  1.9355  0.5384 -3.3460
 5001SOL     OW26461   2.707   0.654   5.894  1.0407 -0.3897  0.7002
 5001SOL    HW126462   2.767   0.627   5.824  1.0602 -1.0482  0.9687
 5001SOL    HW226463   2.745   0.608   5.969 -1.5596 -5.9350 -1.3796
 5002SOL     OW26464   2.864   0.679  16.784  0.1176  0.4918 -0.4958
 5002SOL    HW126465   2.850   0.678  16.879 -1.5605 -0.2631 -0.7606
 5002SOL    HW226466   2.775   0.671  16.751  0.0399  0.2131 -0.2186
 5003SOL     OW26467   1.844   3.858   7.107  0.2338  0.6309  0.7004
 5003SOL    HW126468   1.840   3.838   7.014  0.3120 -2.5985  1.4017
 5003SOL    HW226469   1.776   3.798   7.138 -1.2270  3.1230  2.3012
 5004SOL     OW26470   3.505   0.594   2.471  0.1323  0.3033  0.6506
 5004SOL    HW126471   3.493   0.501   2.451 -0.0268  0.5344 -0.3224
 5004SOL    HW226472   3.433   0.631   2.420  0.1226  0.6072  0.8842
 5005SOL     OW26473   1.615   1.199  11.448  0.1207 -0.7797  0.2813
 5005SOL    HW126474   1.681   1.158  11.392 -0.6738  0.7028 -1.7420
 5005SOL    HW226475   1.536   1.196  11.394  0.5215 -0.0335 -0.3541
 5006SOL     OW26476   3.471   3.525  13.981 -0.1348 -0.6593  0.1351
 5006SOL    HW126477   3.432   3.604  14.017  0.3413 -0.2998 -0.1419
 5006SOL    HW226478   3.422   3.456  14.027 -1.6733  0.7999  0.6818
 5007SOL     OW26479   1.197   1.570   8.789 -0.3108  0.0023  0.5035
 5007SOL    HW126480   1.222   1.501   8.849  1.1692  1.6085  1.7116
 5007SOL    HW226481   1.134   1.617   8.844  0.8377  1.2651  0.7542
 5008SOL     OW26482   3.802   2.969   7.733  0.2740  0.7456  0.7235
 5008SOL    HW126483   3.767   3.008   7.814 -0.9496 -0.8187  0.9457
 5008SOL    HW226484   3.755   2.886   7.727  0.4822  0.6862 -0.0403
 5009SOL     OW26485   4.168   3.910   3.616  0.2932  0.1153  0.2572
 5009SOL    HW126486   4.228   3.890   3.688 -1.1730  0.7650  1.6433
 5009SOL    HW226487   4.082   3.929   3.652  0.7049  1.0133  0.7713
 5010SOL     OW26488   2.961   4.306   6.309 -0.2991  0.0337 -0.2127
 5010SOL    HW126489   2.935   4.218   6.336 -0.5288  0.3700  0.6869
 5010SOL    HW226490   2.879   4.353   6.293  0.0831  0.7762 -0.0178
 5011SOL     OW26491   3.679   2.165   3.975 -0.4635 -0.1819 -0.0314
 5011SOL    HW126492   3.608   2.194   4.033 -0.1563  0.7078 -0.0925
 5011SOL    HW226493   3.627   2.150   3.897  0.2950 -1.0508 -0.3694
 5012SOL     OW26494   4.052   2.331   8.041 -0.1830  0.2715 -0.0441
 5012SOL    HW126495   4.032   2.415   8.000  2.8443  0.6717 -0.7300
 5012SOL    HW226496   4.124   2.356   8.099 -0.9772  0.1419  0.9953
 5013SOL     OW26497   3.853   1.381   6.647 -0.1272  0.5174  0.2614
 5013SOL    HW126498   3.785   1.319   6.673  0.0544 -0.2885 -1.1513
 5013SOL    HW226499   3.911   1.343   6.581  1.9150  1.0134  1.7582
 5014SOL     OW26500   0.706   2.433  12.416 -0.1179 -0.0230 -0.0159
 5014SOL    HW126501   0.634   2.403  12.472  1.0263 -2.6427  0.0993
 5014SOL    HW226502   0.701   2.386  12.333  1.0297  0.6429 -0.4537
 5015SOL     OW26503   3.301   0.629  13.645 -0.0296  0.2777  0.2924
 5015SOL    HW126504   3.229   0.662  13.592 -2.2673 -0.0856  3.1147
 5015SOL    HW226505   3.271   0.650  13.733 -2.2091  1.2305 -0.6712
 5016SOL     OW26506   2.889   1.777  13.039 -0.0264 -0.0652 -0.1136
 5016SOL    HW126507   2.878   1.796  12.946  2.5606  3.3079  0.2687
 5016SOL    HW226508   2.799   1.772  13.073 -0.1646 -1.0756 -0.6299
 5017SOL     OW26509   4.484   3.838   5.907  0.2899  0.0143  0.0509
 5017SOL    HW126510   4.441   3.920   5.933  0.1984  0.4540 -1.4850
 5017SOL    HW226511   4.409   3.782   5.883 -0.3160  1.2399 -0.9093
 5018SOL     OW26512   1.678   2.643   4.915  0.2280 -0.1992 -0.5162
 5018SOL    HW126513   1.608   2.629   4.850 -1.7484  0.7752  1.4252
 5018SOL    HW226514   1.711   2.560   4.950 -0.5488 -0.7606 -1.1233
 5019SOL     OW26515   2.489   0.882   9.405 -0.4342  0.6254 -0.6513
 5019SOL    HW126516   2.426   0.847   9.342 -2.6623  3.1754  0.1374
 5019SOL    HW226517   2.471   0.975   9.391 -0.8505  0.6672  0.1812
 5020SOL     OW26518   2.519   1.953  10.570  0.4428  0.0022  0.3257
 5020SOL    HW126519   2.459   2.027  10.580 -2.2025 -2.2302  1.2961
 5020SOL    HW226520   2.589   1.982  10.512 -0.5057 -0.9152 -1.2684
 5021SOL     OW26521   2.386   4.415  10.900  0.0263  0.1697  0.2894
 5021SOL    HW126522   2.290   4.418  10.904  0.0799  1.0989  1.0823
 5021SOL    HW226523   2.407   4.502  10.935 -1.1784  0.1754  0.9962
 5022SOL     OW26524   0.784   1.359   8.745  0.2120 -0.0759 -0.6069
 5022SOL    HW126525   0.746   1.278   8.712 -1.0871  0.3465 -0.1187
 5022SOL    HW226526   0.711   1.405   8.786 -0.8704 -1.9193 -0.4786
 5023SOL     OW26527   0.732   3.208   8.231 -0.2499 -1.0565 -0.0504
 5023SOL    HW126528   0.727   3.299   8.201 -0.4704 -0.6913  1.1052
 5023SOL    HW226529   0.675   3.207   8.308  0.1150  1.1695  0.2391
 5024SOL     OW26530   4.674   4.480   8.859 -0.5436 -0.7656  0.0044
 5024SOL    HW126531   0.019   4.527   8.902  0.7265 -1.9986 -0.7512
 5024SOL    HW226532   4.604   4.545   8.868  1.3337  1.0249  1.5397
 5025SOL     OW26533   4.381   1.329  15.456 -0.2542  0.2601  0.5018
 5025SOL    HW126534   4.460   1.350  15.505 -0.1162  0.1430  0.3288
 5025SOL    HW226535   4.315   1.313  15.524 -1.6354  0.2378 -0.8392
 5026SOL     OW26536   4.594   0.860   4.693  0.4945 -0.2860 -0.2114
 5026SOL    HW126537   4.536   0.873   4.769 -0.6190  0.0880 -1.1298
 5026SOL    HW226538   4.678   0.841   4.736  1.2961  1.6452 -0.9152
 5027SOL     OW26539   4.446   1.580   6.157  0.1731 -0.5755 -0.2690
 5027SOL    HW126540   4.473   1.657   6.205  1.3697 -1.2897  0.2004
 5027SOL    HW226541   4.411   1.614   6.075  1.2239  0.5689 -0.2298
 5028SOL     OW26542   3.511   4.414   6.818  0.7358 -0.4639  0.6283
 5028SOL    HW126543   3.501   4.336   6.762 -0.4095 -0.2665  0.5430
 5028SOL    HW226544   3.518   4.490   6.760  0.3678  2.0919  3.9380
 5029SOL     OW26545   0.115   1.869   1.781  0.4305  0.0479  0.2159
 5029SOL    HW126546   0.065   1.802   1.734 -2.3608  1.8436  0.5708
 5029SOL    HW226547   0.150   1.919   1.707 -0.1636 -1.6880 -1.2415
 5030SOL     OW26548   0.885   3.697   4.842  0.2431 -0.3574  0.1240
 5030SOL    HW126549   0.907   3.629   4.778  0.3469 -0.0646 -0.1494
 5030SOL    HW226550   0.968   3.703   4.890 -0.3469 -1.1493  1.2609
 5031SOL     OW26551   2.155   0.663   0.156  0.1672 -0.5327  0.0298
 5031SOL    HW126552   2.194   0.741   0.196 -1.0826 -1.0903  2.3194
 5031SOL    HW226553   2.064   0.684   0.173  0.3160  1.1361 -1.1469
 5032SOL     OW26554   3.721   1.921  12.476 -0.9059  0.0897  0.5482
 5032SOL    HW126555   3.799   1.921  12.421  0.2496  0.6065  2.1775
 5032SOL    HW226556   3.693   1.830  12.469 -0.8972  0.1517 -0.2653
 5033SOL     OW26557   3.453   4.232   4.370 -0.2718 -0.0702  1.0357
 5033SOL    HW126558   3.483   4.201   4.456  2.6108  1.6514  0.6276
 5033SOL    HW226559   3.392   4.164   4.342 -0.7142  1.8090 -2.5461
 5034SOL     OW26560   0.324   0.738   5.314  0.8300 -0.1526 -0.1185
 5034SOL    HW126561   0.322   0.687   5.395 -0.2174 -0.8610 -0.5931
 5034SOL    HW226562   0.379   0.811   5.342  0.8262 -0.0669 -0.3328
 5035SOL     OW26563   1.423   1.442  16.674 -0.0727  0.7486 -0.8379
 5035SOL    HW126564   1.497   1.427  16.615  0.6006  1.4948 -0.1985
 5035SOL    HW226565   1.438   1.532  16.705 -0.3790  1.0762 -1.6530
 5036SOL     OW26566   1.606   1.332  11.786 -0.2097 -0.0201  0.1826
 5036SOL    HW126567   1.654   1.409  11.817  2.2427 -0.9340 -1.3283
 5036SOL    HW226568   1.679   1.270  11.775 -1.3659 -1.6679  1.7247
 5037SOL     OW26569   3.548   1.923   2.600  0.0782 -0.4489  0.0800
 5037SOL    HW126570   3.557   2.012   2.564  1.5110 -0.6154  0.0430
 5037SOL    HW226571   3.454   1.925   2.620  0.3129 -0.6635  1.2014
 5038SOL     OW26572   3.760   2.350   0.643 -0.4749  0.0945 -0.4383
 5038SOL    HW126573   3.707   2.419   0.602 -2.6180 -1.5409 -0.4583
 5038SOL    HW226574   3.773   2.307   0.558 -0.6001 -0.1212 -0.3481
 5039SOL     OW26575   0.410   0.560   0.210  0.1724  0.2657  0.4459
 5039SOL    HW126576   0.417   0.643   0.256 -0.2001  0.1369  0.7316
 5039SOL    HW226577   0.496   0.546   0.169  0.4787 -1.2156  1.5793
 5040SOL     OW26578   0.656   4.286   9.518 -0.4016  0.1333 -0.5973
 5040SOL    HW126579   0.599   4.217   9.551 -1.1747  1.8795  1.7756
 5040SOL    HW226580   0.738   4.240   9.500  0.7446  1.5423  0.9581
 5041SOL     OW26581   3.388   1.197  11.187  0.4865 -0.2723  0.5126
 5041SOL    HW126582   3.439   1.274  11.162 -1.4280  1.0853  0.7747
 5041SOL    HW226583   3.361   1.222  11.276  2.7977  0.6956  0.9551
 5042SOL     OW26584   1.641   0.910   2.786  0.4979 -0.2298 -0.2671
 5042SOL    HW126585   1.568   0.897   2.846  0.1772 -2.0231 -1.0342
 5042SOL    HW226586   1.603   0.877   2.705 -2.0861  1.7448  0.1375
 5043SOL     OW26587   0.408   1.802   7.515 -0.3911  0.7518 -0.0564
 5043SOL    HW126588   0.421   1.859   7.592 -3.4965 -0.7180  1.5714
 5043SOL    HW226589   0.422   1.711   7.541 -1.8550 -0.2558 -2.8926
 5044SOL     OW26590   1.009   4.659   1.575 -0.4369 -0.5126  0.1599
 5044SOL    HW126591   0.926   4.677   1.532 -0.1285  0.5848  0.0155
 5044SOL    HW226592   1.012   4.563   1.570 -2.0136 -0.6170  1.2308
 5045SOL     OW26593   2.345   3.971   5.012  0.2322 -0.4923 -0.1683
 5045SOL    HW126594   2.313   4.060   5.024  0.8686  0.1880 -3.4819
 5045SOL    HW226595   2.439   3.983   5.027 -0.0432 -0.8134  1.8427
 5046SOL     OW26596   4.440   3.856   1.286  0.3864  0.2441 -0.0559
 5046SOL    HW126597   4.421   3.849   1.380 -1.8583 -0.2182 -0.5485
 5046SOL    HW226598   4.502   3.929   1.280  0.0978  0.3064 -2.1596
 5047SOL     OW26599   4.475   1.635  12.015  0.0199 -1.0894  0.1240
 5047SOL    HW126600   4.504   1.719  11.980 -1.0011 -0.5253  0.6548
 5047SOL    HW226601   4.529   1.620  12.093 -2.2807  1.5999  2.1965
 5048SOL     OW26602   1.731   4.332   3.744 -0.3062 -0.0240  0.0979
 5048SOL    HW126603   1.645   4.289   3.739  0.0317 -0.6603 -0.1896
 5048SOL    HW226604   1.774   4.270   3.686  0.8624  0.5942  0.3192
 5049SOL     OW26605   3.206   1.232   3.011  0.5066  0.5559 -0.7760
 5049SOL    HW126606   3.284   1.239   3.066 -0.0018 -0.9345  0.1484
 5049SOL    HW226607   3.213   1.154   2.955 -3.0868 -1.1307  1.1195
 5050SOL     OW26608   1.693   2.940   5.394 -0.1547  0.1269  0.0811
 5050SOL    HW126609   1.782   2.919   5.420  0.2184  2.2967  0.5418
 5050SOL    HW226610   1.670   2.858   5.352 -0.5983  2.1030 -3.6068
 5051SOL     OW26611   0.795   1.768  12.876 -0.4231 -0.5051  0.2581
 5051SOL    HW126612   0.767   1.832  12.810  0.9400  0.4885  0.6564
 5051SOL    HW226613   0.888   1.765  12.855 -0.5823 -0.6797 -0.4424
 5052SOL     OW26614   2.730   4.687   3.265 -0.1721  0.0486  0.3871
 5052SOL    HW126615   2.772   0.043   3.290 -1.1653  0.4181  0.8439
 5052SOL    HW226616   2.806   4.629   3.266 -0.2627 -0.0728  0.0851
 5053SOL     OW26617   4.108   1.843  10.151  0.4331  0.3997  0.0502
 5053SOL    HW126618   4.083   1.922  10.199 -2.4537 -0.8901  0.6800
 5053SOL    HW226619   4.040   1.832  10.085 -0.1981  0.6349  0.6568
 5054SOL     OW26620   3.287   4.056   7.456 -0.4451  0.2807 -0.1501
 5054SOL    HW126621   3.372   4.093   7.480  0.4509 -1.1370 -1.1655
 5054SOL    HW226622   3.230   4.101   7.519  0.3003  1.7218 -0.4868
 5055SOL     OW26623   2.204   1.529   8.887  0.1992 -0.3902  0.4453
 5055SOL    HW126624   2.127   1.474   8.903  0.1366 -0.8018 -1.3000
 5055SOL    HW226625   2.247   1.513   8.971  1.1879  2.3358  0.4562
 5056SOL     OW26626   0.107   3.183   1.166 -0.1261  0.4972  0.9076
 5056SOL    HW126627   0.159   3.181   1.246 -1.0406 -0.1314  1.4944
 5056SOL    HW226628   0.176   3.145   1.112 -0.8813 -0.4173  0.5667
 5057SOL     OW26629   0.524   2.758   8.300 -0.7961 -0.0337  0.5619
 5057SOL    HW126630   0.542   2.834   8.244  0.1049 -1.0397 -0.5079
 5057SOL    HW226631   0.591   2.694   8.279  0.2709  1.5685 -0.8983
 5058SOL     OW26632   0.268   0.668   1.571  0.1093 -0.1954  0.0547
 5058SOL    HW126633   0.335   0.699   1.510  1.1052 -1.8445  0.3091
 5058SOL    HW226634   0.252   0.578   1.543  1.3970  0.8225 -3.9813
 5059SOL     OW26635   2.491   4.573   8.039 -0.1961  0.5145 -0.0828
 5059SOL    HW126636   2.527   4.506   7.980 -1.6835  0.9055 -1.4542
 5059SOL    HW226637   2.421   4.522   8.080 -1.1586  0.4700 -1.7546
 5060SOL     OW26638   3.594   2.560   2.094 -0.1785  0.1064  0.2205
 5060SOL    HW126639   3.513   2.549   2.045  0.5358 -1.5003 -0.6130
 5060SOL    HW226640   3.612   2.466   2.094  1.9691  0.5042  0.5113
 5061SOL     OW26641   4.500   2.069  17.063 -0.1063  0.5263  0.2777
 5061SOL    HW126642   4.543   2.154  17.077  0.8422  0.2061 -0.7258
 5061SOL    HW226643   4.414   2.097  17.031 -0.3615 -0.9157 -0.2895
 5062SOL     OW26644   1.040   3.675  15.268  0.2462  0.2284 -0.3570
 5062SOL    HW126645   1.135   3.670  15.277  0.2599  3.2989  1.1272
 5062SOL    HW226646   1.020   3.609  15.334  1.3796 -1.0093 -1.2519
 5063SOL     OW26647   1.196   3.298   4.022 -0.4258 -0.3951  0.0810
 5063SOL    HW126648   1.125   3.281   3.960  0.9449 -3.2955 -0.6526
 5063SOL    HW226649   1.217   3.389   4.000 -3.2924 -0.0166 -1.1393
 5064SOL     OW26650   1.058   3.494   5.842  0.4694  0.6197  0.1130
 5064SOL    HW126651   1.042   3.404   5.870 -5.0973  1.1785 -1.2372
 5064SOL    HW226652   1.107   3.479   5.761 -2.5536  0.5459 -1.6861
 5065SOL     OW26653   3.714   2.266  15.780  0.2054  0.1370 -0.4907
 5065SOL    HW126654   3.803   2.238  15.758  0.6450  0.9599  0.2191
 5065SOL    HW226655   3.732   2.359  15.766  4.2474 -0.3689  1.3276
 5066SOL     OW26656   0.022   1.602  13.792 -0.3617  0.5167  0.2664
 5066SOL    HW126657   4.653   1.617  13.786 -0.9069 -3.3987 -1.1921
 5066SOL    HW226658   0.043   1.693  13.811  0.3905  0.2442  0.7079
 5067SOL     OW26659   3.123   2.082   8.126 -0.0105 -0.0696 -0.3859
 5067SOL    HW126660   3.147   2.023   8.055  1.0670 -1.6792  1.3199
 5067SOL    HW226661   3.031   2.062   8.142  0.5862 -0.0396  3.1678
 5068SOL     OW26662   0.698   4.105   3.438  0.2062  0.4808 -0.0946
 5068SOL    HW126663   0.713   4.060   3.521  1.3496  0.7302 -0.1718
 5068SOL    HW226664   0.722   4.195   3.456 -0.6816  0.1962  2.6007
 5069SOL     OW26665   0.070   1.538   7.917 -0.0339 -0.7151 -0.2100
 5069SOL    HW126666   0.027   1.559   8.000 -0.0037 -0.8158 -0.1696
 5069SOL    HW226667   0.015   1.468   7.882 -2.2758  0.2268  1.4264
 5070SOL     OW26668   3.192   3.208   3.222  0.1333  0.4267  0.0629
 5070SOL    HW126669   3.131   3.243   3.157  0.0012  2.2345  1.1824
 5070SOL    HW226670   3.234   3.289   3.248  1.0100 -0.3528  1.0852
 5071SOL     OW26671   0.657   0.182   1.155  0.7383  0.5578 -0.3521
 5071SOL    HW126672   0.716   0.252   1.183 -0.4108  1.2113  0.4600
 5071SOL    HW226673   0.719   0.119   1.119  0.8751  0.2321  0.4388
 5072SOL     OW26674   1.863   3.904   4.227 -0.7210  0.1774 -0.3996
 5072SOL    HW126675   1.825   3.854   4.155 -0.7484  1.2517 -1.1352
 5072SOL    HW226676   1.863   3.992   4.189 -3.3295 -0.5063 -1.9806
 5073SOL     OW26677   3.532   4.674   5.309 -0.0529  0.3116  0.0799
 5073SOL    HW126678   3.619   4.635   5.308 -0.6160 -0.9582 -0.0831
 5073SOL    HW226679   3.525   4.712   5.396 -0.1663 -1.2980  0.7758
 5074SOL     OW26680   3.717   1.123  11.526  0.3122 -0.5261  0.1960
 5074SOL    HW126681   3.622   1.117  11.521  0.0244  2.4210  2.2893
 5074SOL    HW226682   3.730   1.212  11.492  1.5256 -0.0271  1.9294
 5075SOL     OW26683   0.042   4.435   0.637  0.1872 -0.5135  0.3950
 5075SOL    HW126684   0.106   4.441   0.708  1.8302 -2.9585 -0.8577
 5075SOL    HW226685   4.717   4.512   0.660  2.7025  1.9149 -2.1473
 5076SOL     OW26686   0.899   3.926   6.491 -0.9438  0.6398  0.1204
 5076SOL    HW126687   0.879   3.893   6.579  1.7281  0.3179  0.6070
 5076SOL    HW226688   0.952   4.003   6.509  1.2952 -0.9796  0.3867
 5077SOL     OW26689   4.214   1.386   6.456  0.1109  0.2256 -0.3507
 5077SOL    HW126690   4.150   1.435   6.404 -1.4818  0.1011  1.5250
 5077SOL    HW226691   4.165   1.305   6.464  0.9549 -0.1008  1.4150
 5078SOL     OW26692   1.410   1.464  15.819  0.8735 -0.4072  0.4235
 5078SOL    HW126693   1.341   1.420  15.769 -0.3412 -0.4451  2.1541
 5078SOL    HW226694   1.478   1.473  15.752 -1.8658  0.4655 -2.2250
 5079SOL     OW26695   4.408   2.993   8.375 -0.3583 -0.8916 -0.2987
 5079SOL    HW126696   4.461   3.050   8.431  1.8639 -2.4837 -0.7805
 5079SOL    HW226697   4.443   2.905   8.394 -3.5850 -2.0603  0.1730
 5080SOL     OW26698   0.722   2.780  15.106 -0.8586  0.5650  0.2681
 5080SOL    HW126699   0.754   2.769  15.195 -1.2975 -1.1304  0.2021
 5080SOL    HW226700   0.805   2.813  15.071 -0.6137 -0.2220  0.0981
 5081SOL     OW26701   3.850   2.365  10.745  0.3184 -0.2401 -0.0941
 5081SOL    HW126702   3.858   2.347  10.651 -3.1374  0.2954 -0.4944
 5081SOL    HW226703   3.888   2.294  10.796  0.8790 -1.3684 -2.0627
 5082SOL     OW26704   2.563   0.733   1.967 -0.0443  0.1582 -0.8326
 5082SOL    HW126705   2.608   0.805   1.924 -1.0830  2.1347  1.3690
 5082SOL    HW226706   2.560   0.775   2.053  1.6554 -0.7385 -0.3110
 5083SOL     OW26707   2.281   2.646  15.963  0.0239 -0.3994  0.2811
 5083SOL    HW126708   2.291   2.684  16.051  1.4327  2.4460 -1.1287
 5083SOL    HW226709   2.357   2.690  15.926 -1.1680 -0.0549 -1.6953
 5084SOL     OW26710   2.828   1.112   8.013 -0.4984  0.0405 -0.1532
 5084SOL    HW126711   2.875   1.176   8.066 -0.7465  0.4434 -0.4181
 5084SOL    HW226712   2.894   1.050   7.981  2.6107  2.9052  0.6381
 5085SOL     OW26713   3.815   2.486   6.981 -0.2869 -0.3769 -0.5086
 5085SOL    HW126714   3.853   2.547   6.918  0.2171  0.0030  0.1627
 5085SOL    HW226715   3.878   2.481   7.053 -1.2825 -1.1512  0.2974
 5086SOL     OW26716   0.274   1.899  16.671 -0.0522  0.0403 -0.7029
 5086SOL    HW126717   0.289   1.897  16.765  2.6480 -2.0179 -1.1782
 5086SOL    HW226718   0.344   1.957  16.642  0.3084  0.0517  0.1762
 5087SOL     OW26719   2.598   4.649   5.823 -0.3544  0.5032 -0.3453
 5087SOL    HW126720   2.611   4.554   5.819  1.1069  0.6649  0.5310
 5087SOL    HW226721   2.542   4.656   5.900 -0.6469 -2.4494 -0.2707
 5088SOL     OW26722   4.012   2.650   4.076 -0.0777 -0.1209  0.6239
 5088SOL    HW126723   3.964   2.674   4.156 -0.6914  3.1581 -0.7190
 5088SOL    HW226724   4.093   2.700   4.090 -0.1816  0.3332 -0.4567
 5089SOL     OW26725   1.925   0.032   7.511  0.0718 -0.2484  0.0742
 5089SOL    HW126726   1.944   0.010   7.420 -0.9209 -1.8878  0.2471
 5089SOL    HW226727   1.993   4.710   7.559  0.6959  0.9625  0.4079
 5090SOL     OW26728   4.726   0.797   5.741  0.2720  0.6172  0.3028
 5090SOL    HW126729   0.091   0.786   5.768  0.5897  0.1520 -0.9841
 5090SOL    HW226730   0.009   0.792   5.646 -1.8470 -1.2643  0.1841
 5091SOL     OW26731   0.023   4.460   6.712  0.0580 -0.4936 -0.4127
 5091SOL    HW126732   4.667   4.509   6.718  0.7807  0.5955  0.7468
 5091SOL    HW226733   0.053   4.451   6.803  0.2530  0.0540 -0.4236
 5092SOL     OW26734   2.785   3.111   5.716  0.0005 -0.1123  0.2084
 5092SOL    HW126735   2.804   3.052   5.789 -0.3619 -0.4362  0.0416
 5092SOL    HW226736   2.800   3.186   5.774 -2.5247  0.5852 -0.0262
 5093SOL     OW26737   2.534   3.986  15.531 -0.3589  0.3799  0.0853
 5093SOL    HW126738   2.521   4.010  15.439 -0.6175 -1.4307 -0.3651
 5093SOL    HW226739   2.444   3.997  15.561  0.5213  1.9890  2.0724
 5094SOL     OW26740   2.134   3.343  16.126  0.1849 -0.4127 -0.2585
 5094SOL    HW126741   2.152   3.437  16.131  0.0570 -0.4122  0.2177
 5094SOL    HW226742   2.050   3.328  16.170 -0.7486  0.1211 -1.8305
 5095SOL     OW26743   3.343   1.833   2.991  0.2752  0.6355  0.2776
 5095SOL    HW126744   3.377   1.746   3.013  0.6349  0.9531  0.9647
 5095SOL    HW226745   3.402   1.879   3.051  1.3177  1.3751 -1.3009
 5096SOL     OW26746   2.454   0.590   7.884  0.3259 -0.2275 -0.3943
 5096SOL    HW126747   2.415   0.626   7.804 -0.6157  0.0263  0.1708
 5096SOL    HW226748   2.521   0.654   7.907  1.2547 -0.6640 -1.9676
 5097SOL     OW26749   2.979   1.341  12.680 -0.4597  0.0017 -0.3207
 5097SOL    HW126750   2.998   1.270  12.741 -1.8677  0.1302  0.2540
 5097SOL    HW226751   3.005   1.288  12.605  0.1272  0.6797 -0.5977
 5098SOL     OW26752   3.884   0.557   5.996  0.1639 -0.8019  0.5402
 5098SOL    HW126753   3.900   0.532   5.905  1.5496 -1.6765  1.0183
 5098SOL    HW226754   3.868   0.476   6.045  3.8071 -0.7427  1.8676
 5099SOL     OW26755   3.006   0.449   9.239  0.0240  0.0775 -0.1935
 5099SOL    HW126756   2.993   0.436   9.145  0.5837 -1.9231  0.0088
 5099SOL    HW226757   2.917   0.459   9.270 -0.7144 -0.6102 -2.0905
 5100SOL     OW26758   4.170   1.272   4.908 -0.4267  0.5693  0.2398
 5100SOL    HW126759   4.121   1.218   4.845 -1.1924  0.8776  0.5721
 5100SOL    HW226760   4.247   1.298   4.858 -0.2617 -0.7383 -0.1837
 5101SOL     OW26761   2.443   1.529  15.967  0.0275  0.0587  0.2897
 5101SOL    HW126762   2.442   1.622  15.943  0.4311 -0.1481 -0.5545
 5101SOL    HW226763   2.350   1.510  15.959 -0.1034  1.5539 -1.8323
 5102SOL     OW26764   1.961   2.970   2.291  0.7471  0.0077  0.3749
 5102SOL    HW126765   1.874   2.931   2.294  0.2234  1.0932 -0.9501
 5102SOL    HW226766   1.936   3.049   2.339  0.8044  0.2426  0.0127
 5103SOL     OW26767   4.256   4.564   8.524 -0.5041 -0.0830 -1.3269
 5103SOL    HW126768   4.234   4.577   8.616  0.5153 -2.3527 -0.7812
 5103SOL    HW226769   4.178   4.519   8.492 -2.0890  2.5299 -1.2175
 5104SOL     OW26770   1.031   3.572   6.460 -0.8975 -0.6139 -0.3129
 5104SOL    HW126771   1.088   3.641   6.425 -0.0443 -1.8426 -1.3626
 5104SOL    HW226772   1.030   3.516   6.382 -1.7687  1.1400 -1.5707
 5105SOL     OW26773   2.215   2.128  13.920  0.1919  0.3544  0.1400
 5105SOL    HW126774   2.207   2.033  13.913 -2.2567  0.5567  0.1762
 5105SOL    HW226775   2.237   2.134  14.013  1.0373  1.1968 -0.1241
 5106SOL     OW26776   2.031   4.183   6.133 -0.8129 -0.1927 -0.5137
 5106SOL    HW126777   2.101   4.120   6.119  0.3596  1.0686 -0.3548
 5106SOL    HW226778   2.025   4.164   6.227 -0.0597  0.8363 -0.2601
 5107SOL     OW26779   0.333   4.293  15.901  0.2784 -0.5934  0.3484
 5107SOL    HW126780   0.396   4.364  15.911  0.8022 -0.7938 -1.6057
 5107SOL    HW226781   0.254   4.335  15.934  0.6173  1.6720 -1.7183
 5108SOL     OW26782   4.580   0.441   6.140 -0.3903 -0.7184 -0.2821
 5108SOL    HW126783   4.525   0.397   6.204 -4.0522  3.3622 -0.6601
 5108SOL    HW226784   4.552   0.401   6.057 -3.7449  1.5808 -0.2185
 5109SOL     OW26785   0.930   4.238   8.074  0.3096  0.2579  0.2016
 5109SOL    HW126786   1.008   4.219   8.023  0.0393  1.2722 -0.5839
 5109SOL    HW226787   0.970   4.303   8.131  1.2838 -0.3325  0.1835
 5110SOL     OW26788   2.894   3.879   8.980  0.1593 -0.2929 -0.2886
 5110SOL    HW126789   2.933   3.967   8.978  0.2848 -0.4140 -3.0890
 5110SOL    HW226790   2.864   3.871   8.890  1.5399  3.1944 -1.0814
 5111SOL     OW26791   0.986   0.192   5.714 -0.3215 -0.3468 -0.1603
 5111SOL    HW126792   1.025   0.244   5.643 -0.3752  0.4070  0.3634
 5111SOL    HW226793   0.958   0.110   5.674  0.1149 -0.4728 -0.2109
 5112SOL     OW26794   1.314   0.668   6.550 -0.4479  0.5942 -0.1149
 5112SOL    HW126795   1.264   0.587   6.543  0.9895 -0.1822 -1.0817
 5112SOL    HW226796   1.376   0.647   6.620 -0.5969  4.9467  1.3563
 5113SOL     OW26797   4.296   1.690   0.745 -0.5314  0.7304 -0.4184
 5113SOL    HW126798   4.310   1.675   0.838  0.8690 -2.4146 -1.1445
 5113SOL    HW226799   4.201   1.697   0.739 -0.8130 -1.4117  1.4117
 5114SOL     OW26800   1.533   2.866   8.630  0.0986  0.3968  0.2566
 5114SOL    HW126801   1.466   2.855   8.562 -0.4108  2.2068  0.4433
 5114SOL    HW226802   1.608   2.820   8.592  0.9413  1.1589  0.9823
 5115SOL     OW26803   0.063   0.446   1.745  0.0247  0.2751  0.0955
 5115SOL    HW126804   0.112   0.449   1.827  0.6261  0.8037 -0.2828
 5115SOL    HW226805   0.129   0.433   1.677 -1.1198  1.2071 -1.2075
 5116SOL     OW26806   0.590   3.005   5.245 -0.5266  0.2644  0.0834
 5116SOL    HW126807   0.617   3.095   5.227  0.7235  0.2990  2.0574
 5116SOL    HW226808   0.670   2.971   5.285 -1.4472  0.5355  2.1165
 5117SOL     OW26809   0.748   2.077   0.509 -0.2092 -0.5070 -0.1073
 5117SOL    HW126810   0.714   2.002   0.461 -1.6879  0.9554 -1.3323
 5117SOL    HW226811   0.816   2.042   0.567  0.2879  1.0309  0.2366
 5118SOL     OW26812   2.261   1.709   3.832 -0.2517  0.0859  0.5771
 5118SOL    HW126813   2.205   1.778   3.796 -0.8541 -0.4389  0.4973
 5118SOL    HW226814   2.264   1.642   3.763  1.4759 -0.3944  1.1335
 5119SOL     OW26815   3.005   4.338  10.520 -0.2740  0.6089  0.0868
 5119SOL    HW126816   2.992   4.263  10.462 -1.3144  0.0813  1.0116
 5119SOL    HW226817   3.030   4.395  10.447 -0.5145 -0.0934 -0.5468
 5120SOL     OW26818   1.446   4.457   6.469  0.0688  0.0785  0.1810
 5120SOL    HW126819   1.531   4.495   6.492  0.3286 -0.8159  0.6854
 5120SOL    HW226820   1.410   4.511   6.398  0.8253 -1.2187 -1.1866
 5121SOL     OW26821   0.964   1.503   2.675 -0.3540 -0.4101  0.2982
 5121SOL    HW126822   0.939   1.469   2.760 -1.3840  1.5908  0.8074
 5121SOL    HW226823   1.025   1.435   2.648  1.4306  1.0459  0.6684
 5122SOL     OW26824   2.619   4.208   0.813 -0.0962 -0.1928 -0.1449
 5122SOL    HW126825   2.622   4.113   0.799 -0.3791 -0.1804 -0.2922
 5122SOL    HW226826   2.529   4.232   0.790  0.4022  0.3960 -1.4784
 5123SOL     OW26827   2.684   3.017   4.320  0.3624  0.0672  0.0980
 5123SOL    HW126828   2.730   2.937   4.294  2.5581  1.3972 -0.0314
 5123SOL    HW226829   2.697   3.070   4.241  2.3810 -1.1428 -0.3721
 5124SOL     OW26830   4.439   1.965   2.660 -0.2760 -0.2135 -0.2932
 5124SOL    HW126831   4.526   1.926   2.647 -0.3799  0.0196 -1.6696
 5124SOL    HW226832   4.418   2.008   2.578  1.9211  2.0400  0.3118
 5125SOL     OW26833   4.069   2.510  10.740  0.5247  0.7540  0.2336
 5125SOL    HW126834   4.090   2.509  10.833 -1.8677  0.1836  0.7702
 5125SOL    HW226835   3.978   2.482  10.738  0.9897 -0.8516  1.7519
 5126SOL     OW26836   4.161   3.209  14.171  0.7381 -0.3784 -0.2232
 5126SOL    HW126837   4.069   3.227  14.153  0.3812  0.8589  2.8428
 5126SOL    HW226838   4.161   3.277  14.238  0.2650  1.5032 -2.1314
 5127SOL     OW26839   0.576   0.748  15.980 -0.5007  0.7965  0.3900
 5127SOL    HW126840   0.607   0.794  16.058  0.2759 -4.0625  2.9858
 5127SOL    HW226841   0.483   0.732  15.999 -0.5085  1.2401  0.7218
 5128SOL     OW26842   0.485   2.720  14.194 -0.6298 -0.2220  0.1579
 5128SOL    HW126843   0.467   2.814  14.198 -0.4937 -0.2324  0.9512
 5128SOL    HW226844   0.400   2.683  14.217 -0.8360  1.6975  2.5125
 5129SOL     OW26845   0.772   3.652   6.505 -0.9177 -0.2617  0.4218
 5129SOL    HW126846   0.864   3.640   6.479 -0.4878  1.7036  1.0751
 5129SOL    HW226847   0.789   3.684   6.593  0.9696  1.5486 -0.5938
 5130SOL     OW26848   3.867   2.248  10.190 -0.1348 -0.0214  0.3637
 5130SOL    HW126849   3.788   2.193  10.187  0.6793 -1.0802 -1.7108
 5130SOL    HW226850   3.835   2.319  10.134  3.1667 -0.1577 -1.6998
 5131SOL     OW26851   0.967   3.458   4.712 -0.3070 -0.2064 -0.5083
 5131SOL    HW126852   1.059   3.432   4.705 -0.9782 -2.3893 -1.1838
 5131SOL    HW226853   0.932   3.386   4.766 -0.1371  0.0410 -0.0649
 5132SOL     OW26854   1.323   4.118   5.919 -0.2118 -0.0439 -0.3401
 5132SOL    HW126855   1.411   4.116   5.880  0.4596 -0.9559  1.2238
 5132SOL    HW226856   1.268   4.090   5.847 -0.2950  1.1995 -0.7611
 5133SOL     OW26857   3.679   0.560   4.674 -0.0020 -0.3948 -0.2545
 5133SOL    HW126858   3.667   0.649   4.642  1.5229 -0.1316 -0.1097
 5133SOL    HW226859   3.700   0.580   4.765  1.2863  0.8294 -0.8244
 5134SOL     OW26860   1.839   3.093  14.343 -0.4389  0.4559  0.2748
 5134SOL    HW126861   1.894   3.067  14.417 -0.8291  0.9697  0.7569
 5134SOL    HW226862   1.896   3.152  14.294  1.0333 -1.3766 -0.2058
 5135SOL     OW26863   2.365   0.146   6.689  0.5108 -0.3781 -0.3822
 5135SOL    HW126864   2.428   0.110   6.751  0.1073 -0.4338 -0.0057
 5135SOL    HW226865   2.356   0.068   6.634 -0.3055 -0.8254  0.3869
 5136SOL     OW26866   4.709   3.964   4.340  0.0751  0.4116  0.1554
 5136SOL    HW126867   4.685   3.999   4.426 -2.3201  0.9084 -0.7168
 5136SOL    HW226868   0.005   4.049   4.302  0.4934  0.6252  0.8623
 5137SOL     OW26869   1.221   3.672   5.264 -0.4443 -0.1508  0.4670
 5137SOL    HW126870   1.285   3.736   5.296  2.5333 -2.3268 -1.0705
 5137SOL    HW226871   1.192   3.636   5.348 -0.3060 -0.9281  0.1842
 5138SOL     OW26872   0.375   3.602   4.299 -0.1083 -0.1051  0.0410
 5138SOL    HW126873   0.336   3.660   4.365 -1.5793  0.0827 -0.9725
 5138SOL    HW226874   0.309   3.618   4.230 -0.2647  1.2432  0.4941
 5139SOL     OW26875   0.994   2.122   2.457  0.1410  0.4241  0.0242
 5139SOL    HW126876   1.004   2.137   2.363  1.1017 -0.9267 -0.0887
 5139SOL    HW226877   1.087   2.138   2.474  0.2785 -0.6259  0.2888
 5140SOL     OW26878   1.980   1.929   9.199  0.4694  0.0352 -0.1904
 5140SOL    HW126879   2.041   1.954   9.130 -0.1729 -2.0634 -1.5088
 5140SOL    HW226880   2.025   1.973   9.271  0.3017 -0.9396  0.5044
 5141SOL     OW26881   0.137   4.235  17.525 -0.0922 -0.4179  0.0607
 5141SOL    HW126882   0.138   4.143  17.550  0.7800 -0.2059  0.7967
 5141SOL    HW226883   0.085   4.270  17.597 -0.2576  1.2834 -0.8901
 5142SOL     OW26884   0.606   2.672  13.955  0.1940 -0.2896 -0.1540
 5142SOL    HW126885   0.582   2.713  14.038 -0.9739 -1.6630  0.1925
 5142SOL    HW226886   0.697   2.699  13.941 -0.1831 -0.1841 -2.3879
 5143SOL     OW26887   4.036   1.999   6.202  0.2482 -0.1008  0.2068
 5143SOL    HW126888   4.044   1.999   6.107 -1.1860  0.9097  0.0752
 5143SOL    HW226889   4.046   1.906   6.221 -1.5462  0.1565  2.3572
 5144SOL     OW26890   1.539   1.295   3.027  0.2704  0.3620  0.2001
 5144SOL    HW126891   1.590   1.249   2.960 -3.7050 -2.8660 -0.6680
 5144SOL    HW226892   1.490   1.349   2.965  1.1801  1.7256  0.6839
 5145SOL     OW26893   3.696   1.580  15.815  0.9989  0.0616  0.2011
 5145SOL    HW126894   3.698   1.511  15.749  0.3133  0.5491 -0.3368
 5145SOL    HW226895   3.637   1.636  15.765  2.2182  1.1276 -0.0508
 5146SOL     OW26896   1.265   3.351  15.503 -0.6889  0.8055  0.0154
 5146SOL    HW126897   1.234   3.441  15.494 -2.9671 -0.2751 -2.9196
 5146SOL    HW226898   1.262   3.318  15.413 -2.5955 -1.2420  0.8091
 5147SOL     OW26899   1.977   3.467   9.181 -0.0051 -0.1112 -0.2001
 5147SOL    HW126900   2.027   3.518   9.117 -0.3548 -0.2617 -0.5953
 5147SOL    HW226901   2.039   3.401   9.212 -0.2759  0.1866  0.9541
 5148SOL     OW26902   4.007   3.069   5.660  0.2645 -0.4185  0.2631
 5148SOL    HW126903   3.945   3.077   5.733  0.1101 -0.0574  0.0931
 5148SOL    HW226904   4.044   3.157   5.668 -1.2848  0.4099 -1.7145
 5149SOL     OW26905   1.843   1.791  16.304  0.1121  0.0688 -0.2097
 5149SOL    HW126906   1.860   1.742  16.224 -0.3429  0.5127 -0.5761
 5149SOL    HW226907   1.921   1.847  16.303  0.3251 -0.2031  1.0279
 5150SOL     OW26908   2.471   4.058   4.705 -0.0243  0.0163 -0.1828
 5150SOL    HW126909   2.461   4.149   4.677 -1.2126  0.4199  1.5829
 5150SOL    HW226910   2.561   4.073   4.734 -0.0314 -0.2476 -0.0257
 5151SOL     OW26911   2.286   2.656   2.342 -0.2520 -0.3133 -0.2128
 5151SOL    HW126912   2.254   2.577   2.300  2.8384 -1.0361 -1.2164
 5151SOL    HW226913   2.252   2.719   2.279 -0.3463 -0.4386 -0.2865
 5152SOL     OW26914   3.548   4.017   2.020 -0.1621 -1.1424 -0.7164
 5152SOL    HW126915   3.554   4.111   2.037 -1.1001 -1.4539  1.2626
 5152SOL    HW226916   3.621   3.987   2.073  1.3181  1.2662 -1.4028
 5153SOL     OW26917   4.186   1.708  13.373  0.0806  0.2380  0.0785
 5153SOL    HW126918   4.247   1.642  13.339 -0.7753 -0.6382  0.2745
 5153SOL    HW226919   4.110   1.657  13.401  1.1879 -0.3811  1.9453
 5154SOL     OW26920   0.593   0.634   3.897 -0.7955  0.1397 -0.0755
 5154SOL    HW126921   0.555   0.568   3.839  0.2221  1.5097 -2.3017
 5154SOL    HW226922   0.555   0.716   3.866 -2.8828 -0.8540 -0.1047
 5155SOL     OW26923   3.260   3.921   9.342  0.7424 -0.7829  0.1779
 5155SOL    HW126924   3.226   3.983   9.407 -1.1934 -0.9303 -0.6846
 5155SOL    HW226925   3.354   3.941   9.338  0.3315  1.1507  0.1120
 5156SOL     OW26926   0.729   0.788   2.472  0.6145 -0.3869  0.4785
 5156SOL    HW126927   0.696   0.870   2.508 -0.2631 -1.8868  3.1198
 5156SOL    HW226928   0.818   0.817   2.451  0.0681  0.4743 -0.6095
 5157SOL     OW26929   3.282   0.230   1.206 -0.0621  0.1534  0.5280
 5157SOL    HW126930   3.343   0.262   1.272 -1.0124  0.5167  1.2256
 5157SOL    HW226931   3.251   0.145   1.237  1.2191  0.3101  2.2328
 5158SOL     OW26932   0.186   3.809  11.647 -0.6346  0.0644  0.4254
 5158SOL    HW126933   0.268   3.836  11.687 -1.0838  2.9655 -0.6343
 5158SOL    HW226934   0.190   3.713  11.639  2.0709  0.1771  0.4155
 5159SOL     OW26935   2.144   0.503  16.192  0.4110 -0.0569  0.3877
 5159SOL    HW126936   2.170   0.416  16.222 -5.7070 -1.8309  0.5656
 5159SOL    HW226937   2.127   0.490  16.099 -1.1716  0.8684  0.5414
 5160SOL     OW26938   0.858   0.519   3.732  0.0156 -0.4106  0.5974
 5160SOL    HW126939   0.821   0.604   3.707 -0.3268 -0.5539  0.6190
 5160SOL    HW226940   0.950   0.545   3.736 -0.6897  1.9805  1.5118
 5161SOL     OW26941   3.018   2.094   7.270  0.2665  1.3760 -0.2619
 5161SOL    HW126942   3.014   2.170   7.328 -2.9697  1.2563 -0.3331
 5161SOL    HW226943   3.108   2.065   7.281  0.0879  1.0170  0.2211
 5162SOL     OW26944   2.771   0.025   6.448  0.0747 -0.1248 -0.0531
 5162SOL    HW126945   2.749   0.037   6.540 -1.3856  2.4192 -0.7444
 5162SOL    HW226946   2.723   0.096   6.405 -0.6064  0.9649  2.5422
 5163SOL     OW26947   3.816   2.379   4.172 -0.4318  0.1544  0.1095
 5163SOL    HW126948   3.738   2.384   4.117  1.0758 -0.4046 -2.0663
 5163SOL    HW226949   3.881   2.434   4.128  0.5284 -1.4680 -0.5036
 5164SOL     OW26950   2.796   1.601   9.407 -0.9095  0.0751 -0.2077
 5164SOL    HW126951   2.886   1.575   9.425 -1.1061  0.8583  1.8558
 5164SOL    HW226952   2.806   1.696   9.399 -2.1160  0.3378  1.5584
 5165SOL     OW26953   0.788   3.652   8.848 -0.7192  0.2557  0.2417
 5165SOL    HW126954   0.856   3.607   8.899 -1.2864 -0.4855  0.3365
 5165SOL    HW226955   0.710   3.658   8.902 -1.1266  0.0270 -0.3173
 5166SOL     OW26956   0.758   1.373   2.072  0.2176 -0.1465 -0.1855
 5166SOL    HW126957   0.708   1.416   2.002 -0.9845 -0.0131  0.7655
 5166SOL    HW226958   0.688   1.318   2.108  1.0743  0.2958  2.1401
 5167SOL     OW26959   4.434   1.845   3.843  0.2356 -0.4698  0.3377
 5167SOL    HW126960   4.434   1.788   3.766 -1.3214 -1.2618  0.9122
 5167SOL    HW226961   4.529   1.856   3.850  0.0012  1.8508 -0.2595
 5168SOL     OW26962   1.165   3.850   6.430  0.0541 -0.6043 -0.3952
 5168SOL    HW126963   1.070   3.865   6.432 -0.1654 -2.0599  0.3988
 5168SOL    HW226964   1.200   3.938   6.421 -0.5410 -0.2663  0.5761
 5169SOL     OW26965   0.937   3.321   2.559  0.3050  0.3133  0.3679
 5169SOL    HW126966   0.917   3.397   2.506 -0.0008 -1.3438 -1.8906
 5169SOL    HW226967   0.964   3.262   2.488 -2.7903  0.1060 -0.6283
 5170SOL     OW26968   1.184   1.238   1.026  0.5256 -0.6553 -0.1818
 5170SOL    HW126969   1.144   1.226   0.940  2.0530  0.9059 -1.1068
 5170SOL    HW226970   1.107   1.218   1.079 -0.0278 -0.8012 -1.0398
 5171SOL     OW26971   0.766   0.150   7.122  0.1198  0.0871 -0.2994
 5171SOL    HW126972   0.693   0.212   7.127  1.3875  1.4608  1.1865
 5171SOL    HW226973   0.781   0.110   7.208  1.6152  1.4004  0.0506
 5172SOL     OW26974   1.424   1.455   4.522 -0.2796 -0.4612 -0.0941
 5172SOL    HW126975   1.513   1.426   4.501 -0.8115 -0.5216 -2.2596
 5172SOL    HW226976   1.391   1.372   4.557 -1.3754 -0.6182 -1.5169
 5173SOL     OW26977   2.170   0.682  10.610  0.3680 -0.4659 -0.5121
 5173SOL    HW126978   2.241   0.723  10.660  1.0799 -2.2440 -0.0459
 5173SOL    HW226979   2.091   0.696  10.661  0.4366  0.1021 -0.5615
 5174SOL     OW26980   0.494   2.446   6.027 -0.8572 -0.2264 -0.0605
 5174SOL    HW126981   0.459   2.416   6.111 -0.6795  0.0832  0.1261
 5174SOL    HW226982   0.444   2.527   6.018 -1.1220 -0.2057  1.5367
 5175SOL     OW26983   0.310   1.770   9.600  0.1492  0.5976 -0.2226
 5175SOL    HW126984   0.264   1.812   9.526  0.6683  0.4111 -0.6477
 5175SOL    HW226985   0.301   1.679   9.573 -1.1730  1.3756 -2.4888
 5176SOL     OW26986   1.143   2.139   7.071  0.1345  0.2653  0.2106
 5176SOL    HW126987   1.183   2.223   7.049  0.4473  0.1034  0.1590
 5176SOL    HW226988   1.083   2.121   6.999 -1.1397  2.9962  0.6073
 5177SOL     OW26989   0.281   0.256   6.882  0.2897 -0.3525 -0.2677
 5177SOL    HW126990   0.345   0.257   6.953 -1.1585  1.1805  1.0226
 5177SOL    HW226991   0.237   0.173   6.901  0.9543 -0.5047  0.5929
 5178SOL     OW26992   0.848   4.560   8.920  0.3201  0.3378 -0.1621
 5178SOL    HW126993   0.913   4.526   8.982 -0.5698  0.1729  0.6810
 5178SOL    HW226994   0.891   4.591   8.840  1.1069 -0.3871 -0.0168
 5179SOL     OW26995   2.939   1.616   7.594  0.8694  0.4681  0.1565
 5179SOL    HW126996   2.859   1.622   7.647  1.0489  0.4555  0.4288
 5179SOL    HW226997   2.998   1.572   7.656  1.0886 -1.1226 -1.1754
 5180SOL     OW26998   2.644   2.389  14.593  0.4276 -0.0216 -0.2255
 5180SOL    HW126999   2.578   2.362  14.657  1.8275  2.0073  2.0755
 5180SOL    HW227000   2.722   2.403  14.645 -0.3620 -2.3378  1.5640
 5181SOL     OW27001   2.717   2.527  12.100 -0.3486  0.1870  0.5939
 5181SOL    HW127002   2.796   2.500  12.147  0.5220 -0.3224 -1.1579
 5181SOL    HW227003   2.711   2.448  12.046  1.4029  0.1478  0.4620
 5182SOL     OW27004   4.257   3.291   2.992 -1.0891  0.0153  0.3283
 5182SOL    HW127005   4.244   3.304   3.086  0.2347 -2.5166  0.8259
 5182SOL    HW227006   4.182   3.236   2.968  0.0404 -0.5464 -1.8869
 5183SOL     OW27007   0.325   3.830   5.869  0.3541  0.3805 -0.0075
 5183SOL    HW127008   0.270   3.904   5.843 -1.9601 -1.7471 -1.2078
 5183SOL    HW227009   0.351   3.855   5.958  0.0298 -0.5352  0.3525
 5184SOL     OW27010   3.185   2.653   4.691  0.2786  0.2369  0.6260
 5184SOL    HW127011   3.239   2.725   4.658  0.1609 -0.5953 -1.4340
 5184SOL    HW227012   3.191   2.588   4.621  1.3313  1.4513 -0.3929
 5185SOL     OW27013   1.489   3.396   6.387  0.1953 -0.1113  0.3425
 5185SOL    HW127014   1.462   3.465   6.327  0.7619  0.1012  0.3328
 5185SOL    HW227015   1.412   3.383   6.441 -1.2085  0.9050 -1.4227
 5186SOL     OW27016   3.110   3.326  13.461  0.4388  0.2161 -0.2080
 5186SOL    HW127017   3.194   3.370  13.471 -0.1596  0.8957  1.7940
 5186SOL    HW227018   3.051   3.382  13.512  0.1031  0.0556 -0.4149
 5187SOL     OW27019   0.783   1.227   3.415  0.8742 -0.3664  0.4629
 5187SOL    HW127020   0.699   1.192   3.384  0.5016  0.2930  0.7450
 5187SOL    HW227021   0.756   1.304   3.465  0.4412 -0.4960  0.4298
 5188SOL     OW27022   4.009   3.985   3.187  0.4790  0.0756  0.3069
 5188SOL    HW127023   3.964   4.016   3.108  0.1107 -1.1066  0.0568
 5188SOL    HW227024   4.082   3.945   3.140  1.2931  1.5046  0.3475
 5189SOL     OW27025   2.512   2.511   1.276  0.6658 -0.8024  0.1272
 5189SOL    HW127026   2.440   2.470   1.324  0.1214  0.6291  0.5251
 5189SOL    HW227027   2.543   2.434   1.227  3.0345 -1.0944  2.1092
 5190SOL     OW27028   2.609   2.820   5.963 -0.2209 -0.0977 -0.0201
 5190SOL    HW127029   2.590   2.796   6.054 -0.2223  0.4953  0.1366
 5190SOL    HW227030   2.616   2.732   5.925 -1.2319 -0.6002  0.9837
 5191SOL     OW27031   2.076   3.272   3.280  0.4088  0.6589  0.3703
 5191SOL    HW127032   2.025   3.288   3.359  0.0283 -0.7314  0.4086
 5191SOL    HW227033   2.157   3.317   3.302  0.3714  0.8849  0.0412
 5192SOL     OW27034   0.081   1.480   7.040 -0.8214 -0.1074  0.7297
 5192SOL    HW127035   0.110   1.498   7.129  0.9507  0.4171  0.0324
 5192SOL    HW227036   0.139   1.408   7.016  2.4071  2.6035  0.5221
 5193SOL     OW27037   3.963   3.927   6.441 -0.3812  0.0649 -0.3278
 5193SOL    HW127038   3.967   3.878   6.360 -0.0826  0.4687 -0.5583
 5193SOL    HW227039   3.914   3.873   6.503 -0.7640  0.8927  0.1015
 5194SOL     OW27040   2.800   1.302   3.317  0.1354  0.5989 -0.0184
 5194SOL    HW127041   2.707   1.289   3.334  0.0268  1.6949  0.1983
 5194SOL    HW227042   2.828   1.227   3.264 -0.1374  0.2571  0.3237
 5195SOL     OW27043   1.103   3.322  10.991  0.1683  0.4013  0.0315
 5195SOL    HW127044   1.051   3.401  11.005  1.3624  1.6728 -2.7644
 5195SOL    HW227045   1.143   3.328  11.078 -1.1308 -1.4830  0.7572
 5196SOL     OW27046   0.612   2.088   5.392 -0.0823  0.5478  0.1282
 5196SOL    HW127047   0.599   2.175   5.430 -0.2834  0.9185 -0.8084
 5196SOL    HW227048   0.643   2.111   5.305  0.3571  0.2553  0.2080
 5197SOL     OW27049   4.355   2.842   7.816  0.3513 -0.2808  0.3304
 5197SOL    HW127050   4.289   2.776   7.794 -0.2692  0.4254  0.0683
 5197SOL    HW227051   4.299   2.897   7.872 -0.3331  0.2992 -0.9334
 5198SOL     OW27052   3.679   1.081   7.303 -0.1619 -0.0365 -0.2286
 5198SOL    HW127053   3.652   1.107   7.391 -0.1989 -2.7252  0.5569
 5198SOL    HW227054   3.732   1.156   7.279  0.2123 -0.4191 -0.5785
 5199SOL     OW27055   2.264   0.249  12.859 -0.0561  0.2308  0.5763
 5199SOL    HW127056   2.169   0.250  12.869 -0.3178  1.8550 -2.1455
 5199SOL    HW227057   2.283   0.165  12.900 -1.8858  0.0332  1.0427
 5200SOL     OW27058   1.691   4.592   6.825 -0.9834  0.4866  0.2161
 5200SOL    HW127059   1.687   4.685   6.802 -0.9130  0.6030  0.6587
 5200SOL    HW227060   1.744   4.551   6.757 -2.0999 -0.1025 -0.2875
 5201SOL     OW27061   4.119   2.708  13.877 -0.5234  0.2875 -0.0311
 5201SOL    HW127062   4.034   2.749  13.870 -1.1647 -1.0224  0.0090
 5201SOL    HW227063   4.087   2.627  13.917 -2.1357  0.7359 -0.4329
 5202SOL     OW27064   3.700   3.637   7.595  0.4578 -0.1259 -0.6669
 5202SOL    HW127065   3.716   3.577   7.667 -1.8500 -0.4491 -0.4221
 5202SOL    HW227066   3.613   3.613   7.565  0.7593 -2.2591  0.2212
 5203SOL     OW27067   2.142   2.144   4.072 -0.4680  0.3676 -0.6837
 5203SOL    HW127068   2.148   2.154   4.167 -0.7147 -3.5127 -0.2426
 5203SOL    HW227069   2.168   2.052   4.064 -0.9059  0.1811  0.0671
 5204SOL     OW27070   2.211   2.345   1.968  0.2718 -0.1409  0.0527
 5204SOL    HW127071   2.192   2.268   2.022 -0.4783  0.9045  1.2825
 5204SOL    HW227072   2.233   2.297   1.888 -0.4116  1.0782 -0.8606
 5205SOL     OW27073   3.765   0.900   9.845 -0.1273 -0.3411 -0.6414
 5205SOL    HW127074   3.788   0.836   9.778 -1.5377 -1.0799 -0.4209
 5205SOL    HW227075   3.669   0.895   9.852 -0.0088 -1.7077 -0.0008
 5206SOL     OW27076   0.867   0.738   5.011  0.1977 -0.0261  0.2181
 5206SOL    HW127077   0.829   0.653   4.990 -0.6304  0.7672 -1.4141
 5206SOL    HW227078   0.820   0.748   5.094  0.4231  1.1980  0.2010
 5207SOL     OW27079   4.703   0.571  13.725 -0.1613 -0.2055  0.2255
 5207SOL    HW127080   0.034   0.511  13.678 -1.1143 -0.6795 -0.3253
 5207SOL    HW227081   0.011   0.654  13.692  1.3220 -1.7344 -2.0266
 5208SOL     OW27082   1.195   1.116  11.644 -0.1633  0.5969  0.0457
 5208SOL    HW127083   1.261   1.178  11.614 -0.1020  1.0694  1.1445
 5208SOL    HW227084   1.246   1.076  11.715 -1.5426  0.5035  0.9844
 5209SOL     OW27085   0.745   0.665   4.107 -0.0541 -0.0382  0.1921
 5209SOL    HW127086   0.692   0.639   4.032  0.7290 -0.5766 -0.1678
 5209SOL    HW227087   0.724   0.758   4.114  1.0802  0.1014  1.8438
 5210SOL     OW27088   1.024   2.173   7.509  0.2321 -0.0297  0.0633
 5210SOL    HW127089   1.053   2.105   7.448 -1.3680 -0.2585 -0.4679
 5210SOL    HW227090   0.930   2.159   7.522  0.0353  0.5351 -0.7223
 5211SOL     OW27091   2.214   2.870   7.773  0.1946 -0.0170 -0.4026
 5211SOL    HW127092   2.251   2.948   7.732 -1.7605  0.7289 -0.7564
 5211SOL    HW227093   2.121   2.887   7.758  0.1718 -0.4636 -0.7805
 5212SOL     OW27094   2.777   3.190   4.693  0.4091 -0.5290 -0.6551
 5212SOL    HW127095   2.721   3.113   4.700  2.4534 -1.8456  1.1038
 5212SOL    HW227096   2.726   3.264   4.725 -0.7415 -1.2302 -0.8604
 5213SOL     OW27097   2.086   0.801   4.274  0.3582 -0.3724 -0.3540
 5213SOL    HW127098   2.105   0.893   4.253 -2.2011  0.1824 -0.2780
 5213SOL    HW227099   2.171   0.767   4.302  0.4239  2.6606  3.2087
 5214SOL     OW27100   1.932   1.357   5.575 -0.0814 -0.2480  0.2617
 5214SOL    HW127101   1.930   1.449   5.602 -1.2826 -0.5325  1.1159
 5214SOL    HW227102   1.900   1.366   5.485  0.2804  0.1296  0.1693
 5215SOL     OW27103   1.391   3.144   8.121 -0.7379  0.5828 -0.3455
 5215SOL    HW127104   1.486   3.142   8.109 -0.7124  3.4578 -0.5146
 5215SOL    HW227105   1.369   3.051   8.131 -0.1317  0.3206 -1.4496
 5216SOL     OW27106   4.096   3.665   1.987  0.5542 -0.0906  0.3167
 5216SOL    HW127107   4.102   3.611   1.908 -2.6475 -0.4946  0.3277
 5216SOL    HW227108   4.124   3.599   2.051 -3.4574 -2.8562 -0.7513
 5217SOL     OW27109   3.150   1.466   5.231 -0.1939  0.6727 -0.2669
 5217SOL    HW127110   3.076   1.406   5.243 -0.0776  0.2894 -1.4619
 5217SOL    HW227111   3.100   1.541   5.198 -0.6230  0.4476 -0.1370
 5218SOL     OW27112   2.648   1.596   3.924  0.0439  0.0941  0.1230
 5218SOL    HW127113   2.612   1.535   3.860 -0.1534 -1.2802  1.5389
 5218SOL    HW227114   2.573   1.597   3.984  0.6902 -0.3414  0.9486
 5219SOL     OW27115   3.220   3.817   8.076 -0.6535 -0.1447 -0.0588
 5219SOL    HW127116   3.141   3.845   8.031 -2.3223 -3.6834  0.7187
 5219SOL    HW227117   3.199   3.731   8.112 -0.0997 -0.1580  0.2378
 5220SOL     OW27118   0.515   2.009  16.656  0.1159  0.2980  0.2386
 5220SOL    HW127119   0.518   2.088  16.709 -0.9424  1.9130 -2.0911
 5220SOL    HW227120   0.527   2.045  16.568  1.0753 -0.1765  0.1700
 5221SOL     OW27121   4.599   1.377  14.115 -0.5968  0.3726  0.3046
 5221SOL    HW127122   4.592   1.282  14.118 -1.3524  0.3683 -1.3461
 5221SOL    HW227123   4.594   1.415  14.202  0.0383 -1.0705  0.9629
 5222SOL     OW27124   0.378   1.959   8.824 -0.1085 -0.0799  0.2108
 5222SOL    HW127125   0.302   2.016   8.814 -0.4713 -0.3806  1.2445
 5222SOL    HW227126   0.400   1.946   8.732  0.1457  1.0354  0.1157
 5223SOL     OW27127   0.285   0.789   3.042 -0.1433  0.1616 -0.1252
 5223SOL    HW127128   0.358   0.750   2.994 -1.4330 -2.3781  0.0189
 5223SOL    HW227129   0.335   0.803   3.122  0.3398  2.6325 -0.8597
 5224SOL     OW27130   3.420   0.606  16.248 -0.2151 -0.1898  0.0994
 5224SOL    HW127131   3.356   0.676  16.234 -1.5345 -1.5713 -0.7994
 5224SOL    HW227132   3.360   0.531  16.256 -1.6799  1.0340  0.6851
 5225SOL     OW27133   1.836   0.388   2.155 -0.5335 -0.6454 -0.0936
 5225SOL    HW127134   1.798   0.305   2.126 -1.2786 -0.0366 -0.8528
 5225SOL    HW227135   1.908   0.350   2.206 -1.9461 -0.7663  1.8167
 5226SOL     OW27136   0.711   3.817  14.646 -0.2699 -0.0266 -0.1140
 5226SOL    HW127137   0.737   3.729  14.621  0.2327  0.4867 -1.3756
 5226SOL    HW227138   0.738   3.862  14.566  0.0693  0.2076  0.1303
 5227SOL     OW27139   2.992   2.043   2.044 -0.0541 -0.4090  0.0785
 5227SOL    HW127140   3.001   1.960   1.998 -1.7026  1.1502 -3.0411
 5227SOL    HW227141   3.028   2.026   2.132 -0.3556  0.4535  0.3669
 5228SOL     OW27142   3.144   3.432  16.493 -0.7026  0.2708  0.2018
 5228SOL    HW127143   3.057   3.391  16.490 -1.0496  0.9750  0.5179
 5228SOL    HW227144   3.150   3.457  16.401 -2.3284  0.2924  0.0911
 5229SOL     OW27145   2.330   4.382   8.171  0.6034 -0.4754  0.1644
 5229SOL    HW127146   2.267   4.357   8.104 -0.9388 -0.8466  1.7686
 5229SOL    HW227147   2.279   4.444   8.223 -0.2927  0.8028 -2.2380
 5230SOL     OW27148   3.106   0.379   5.805  0.4703  0.0598  0.0384
 5230SOL    HW127149   3.130   0.329   5.883  1.3907 -1.0435 -0.9497
 5230SOL    HW227150   3.194   0.407   5.777  1.1460 -0.1819  1.9305
 5231SOL     OW27151   3.159   1.803  12.268  0.5818 -0.4281  0.1473
 5231SOL    HW127152   3.193   1.772  12.185  1.8008 -0.4445  0.6473
 5231SOL    HW227153   3.102   1.873  12.237  2.7274  1.0873 -0.3355
 5232SOL     OW27154   0.387   4.567   1.293  0.0846  0.0916  0.0094
 5232SOL    HW127155   0.479   4.543   1.298  0.6098  2.5731  1.7594
 5232SOL    HW227156   0.387   4.626   1.219 -2.1692  0.3064  0.1655
 5233SOL     OW27157   4.016   1.916   6.555 -0.3472  0.2196 -0.3831
 5233SOL    HW127158   3.972   1.923   6.640  0.3794  1.5964 -0.1276
 5233SOL    HW227159   4.031   2.007   6.532  1.5739  0.0864  0.4142
 5234SOL     OW27160   0.214   1.069  13.506  0.5554  0.3797 -0.7731
 5234SOL    HW127161   0.302   1.034  13.492 -0.4793 -1.9207 -1.4632
 5234SOL    HW227162   0.188   1.061  13.414  0.0212  0.2308 -0.6108
 5235SOL     OW27163   0.255   1.989  10.169  0.3512  0.2285  0.0791
 5235SOL    HW127164   0.185   1.975  10.105 -0.6794  0.3223  1.1936
 5235SOL    HW227165   0.228   1.919  10.228  0.1511  0.1583 -0.0971
 5236SOL     OW27166   3.293   3.441   5.451  0.2479  0.0352  0.2593
 5236SOL    HW127167   3.205   3.413   5.474  0.6921 -0.5116  1.3083
 5236SOL    HW227168   3.277   3.494   5.373  0.5067 -1.1038 -0.5689
 5237SOL     OW27169   4.075   3.790   3.904  0.4502 -0.5258 -0.5384
 5237SOL    HW127170   4.044   3.880   3.892 -0.2473 -0.8078 -0.8651
 5237SOL    HW227171   4.012   3.750   3.844  0.4562  1.7138 -2.0425
 5238SOL     OW27172   1.978   0.719   7.738 -0.3611  0.1697  0.0893
 5238SOL    HW127173   1.916   0.676   7.798  1.1490 -1.0518  0.7848
 5238SOL    HW227174   1.924   0.778   7.687 -0.2097  1.7701  1.7638
 5239SOL     OW27175   3.266   0.595   0.147 -0.4601 -0.5252 -0.2247
 5239SOL    HW127176   3.278   0.588   0.241 -0.0864  1.5301 -0.1184
 5239SOL    HW227177   3.183   0.643   0.136  0.2861  1.0707  1.2305
 5240SOL     OW27178   2.899   2.078   8.455 -0.4339 -0.8313 -0.0441
 5240SOL    HW127179   2.992   2.060   8.469 -0.5652 -1.1148  0.4404
 5240SOL    HW227180   2.866   2.040   8.536 -1.6799  0.8588  0.2429
 5241SOL     OW27181   3.442   4.003   8.287  0.0478  0.2036 -0.5139
 5241SOL    HW127182   3.454   3.909   8.298 -1.1116  0.3037  1.8285
 5241SOL    HW227183   3.385   4.026   8.361  1.1313  1.4316 -0.0572
 5242SOL     OW27184   4.332   3.584   4.436  0.1032  0.1804  0.2455
 5242SOL    HW127185   4.333   3.677   4.414  0.7489 -0.7858 -3.9591
 5242SOL    HW227186   4.242   3.571   4.404 -0.3006 -0.2968  1.5891
 5243SOL     OW27187   2.316   0.354   6.972  0.2063  0.1898  0.0819
 5243SOL    HW127188   2.285   0.386   7.057 -1.2384 -0.4677 -0.1909
 5243SOL    HW227189   2.371   0.286   7.010  0.3073 -0.4070 -1.1438
 5244SOL     OW27190   2.222   2.938   8.552 -0.1825 -0.1512 -0.0222
 5244SOL    HW127191   2.258   2.932   8.463 -0.8513  1.1724 -0.3740
 5244SOL    HW227192   2.279   2.871   8.591 -0.8626 -0.5753  0.2302
 5245SOL     OW27193   1.305   4.381   3.557  0.1178 -0.3924  0.3243
 5245SOL    HW127194   1.312   4.477   3.552 -0.2769 -0.2678  2.1120
 5245SOL    HW227195   1.248   4.369   3.633 -0.1114  1.6096  0.4834
 5246SOL     OW27196   2.666   0.731  13.406 -0.1860  0.0381  0.1219
 5246SOL    HW127197   2.645   0.821  13.432  3.7013  1.0955 -0.2980
 5246SOL    HW227198   2.601   0.719  13.338  0.9513  0.8502 -1.1112
 5247SOL     OW27199   0.770   2.237   7.836 -0.6796  0.1427  0.5436
 5247SOL    HW127200   0.799   2.156   7.878  0.4391  1.5226  2.5023
 5247SOL    HW227201   0.858   2.274   7.822 -0.0424 -0.7593  2.1119
 5248SOL     OW27202   3.631   0.769   6.745 -0.7909  0.2716 -0.1055
 5248SOL    HW127203   3.720   0.734   6.747 -1.5699 -1.6291  1.6315
 5248SOL    HW227204   3.645   0.841   6.684 -1.0900 -0.3263 -0.8817
 5249SOL     OW27205   2.209   3.092   1.812 -0.4165 -0.1167 -0.2636
 5249SOL    HW127206   2.283   3.059   1.762  0.5806 -2.5001  2.7870
 5249SOL    HW227207   2.253   3.142   1.880  1.6412 -1.1286 -0.8605
 5250SOL     OW27208   3.597   3.736   4.047 -0.2242 -0.1409 -0.3675
 5250SOL    HW127209   3.565   3.825   4.028  0.0531 -0.7256 -3.5613
 5250SOL    HW227210   3.630   3.710   3.961  0.8618 -1.0900  0.3469
 5251SOL     OW27211   1.343   0.118   2.950  0.2371 -0.1971  0.1691
 5251SOL    HW127212   1.415   0.058   2.929  0.5226 -0.1601  1.0498
 5251SOL    HW227213   1.301   0.101   2.865  1.5653  0.7906 -0.6815
 5252SOL     OW27214   3.877   4.609   6.406  0.0982  0.3689 -0.3525
 5252SOL    HW127215   3.806   4.667   6.435  0.0125  0.2208 -0.2662
 5252SOL    HW227216   3.944   4.630   6.472 -1.7214 -0.4254  1.7406
 5253SOL     OW27217   3.484   2.161   3.782  0.1338  0.1043 -0.1620
 5253SOL    HW127218   3.460   2.248   3.750 -0.8603 -0.2440 -0.3490
 5253SOL    HW227219   3.438   2.110   3.715 -0.5936 -0.9210  1.1208
 5254SOL     OW27220   2.439   0.573  11.312 -0.3373 -0.6813  0.1632
 5254SOL    HW127221   2.458   0.515  11.239 -1.6055 -0.6821 -0.1486
 5254SOL    HW227222   2.470   0.520  11.386  0.1754  0.3269  0.6806
 5255SOL     OW27223   0.853   2.990   6.306  0.0515  0.1532 -0.3035
 5255SOL    HW127224   0.946   2.970   6.317  0.1731 -0.0627 -1.8197
 5255SOL    HW227225   0.861   3.039   6.224  2.2411 -0.7275 -0.6136
 5256SOL     OW27226   3.615   2.822   6.193 -0.1486 -0.3920  0.0616
 5256SOL    HW127227   3.531   2.868   6.197 -0.4461 -0.8026 -1.5054
 5256SOL    HW227228   3.639   2.866   6.274 -2.0858  1.7370 -0.5036
 5257SOL     OW27229   4.633   1.674   0.828  0.7180  0.1277  0.3117
 5257SOL    HW127230   4.665   1.715   0.748  2.5902 -1.1228  0.4235
 5257SOL    HW227231   4.608   1.749   0.881  0.9306  0.0252  0.5615
 5258SOL     OW27232   1.847   1.986   2.842  0.2348  0.4170 -0.0213
 5258SOL    HW127233   1.879   1.959   2.757  0.3940  1.3001 -0.2493
 5258SOL    HW227234   1.830   2.076   2.814 -0.2411  0.7531  1.3475
 5259SOL     OW27235   0.659   4.243   0.146 -0.2829  0.3303  0.5816
 5259SOL    HW127236   0.695   4.164   0.187  1.9615 -0.0630 -2.1557
 5259SOL    HW227237   0.696   4.310   0.202  1.7562  0.2811 -0.7365
 5260SOL     OW27238   4.646   2.566   9.720 -0.5225  0.0758  0.6774
 5260SOL    HW127239   4.612   2.655   9.718 -1.5590 -0.2982  1.8431
 5260SOL    HW227240   0.010   2.580   9.749 -0.8583  0.7041  1.4137
 5261SOL     OW27241   4.245   3.988   8.386  0.2261 -0.2601  0.1395
 5261SOL    HW127242   4.232   4.009   8.479 -0.9197 -2.3938  0.4518
 5261SOL    HW227243   4.181   3.918   8.373 -1.3065  1.1978 -0.2423
 5262SOL     OW27244   1.957   0.521   6.746 -0.6050  0.3873 -0.8976
 5262SOL    HW127245   1.928   0.603   6.708 -1.2299  0.3633 -0.4674
 5262SOL    HW227246   2.024   0.512   6.678  0.1665 -1.5908  0.1021
 5263SOL     OW27247   2.845   0.740   6.935 -0.1554  0.2433  0.1748
 5263SOL    HW127248   2.756   0.713   6.955  0.5533 -0.4074  2.4149
 5263SOL    HW227249   2.869   0.668   6.876 -0.2128  0.9437 -0.7064
 5264SOL     OW27250   2.647   1.966  16.970  0.1329 -0.5733 -0.0066
 5264SOL    HW127251   2.668   1.963  16.877  3.4329 -1.3027  0.7405
 5264SOL    HW227252   2.590   1.888  16.974  1.1764 -1.3050  0.7470
 5265SOL     OW27253   2.597   1.566  12.773  0.3072  0.4645  0.0929
 5265SOL    HW127254   2.535   1.588  12.843 -0.1378 -1.0506  0.1733
 5265SOL    HW227255   2.558   1.614  12.701 -1.2350 -0.8971  0.0289
 5266SOL     OW27256   3.517   3.318   6.140  0.2787 -0.4899  0.3902
 5266SOL    HW127257   3.593   3.262   6.153  0.1577 -0.5093  1.0177
 5266SOL    HW227258   3.485   3.329   6.229  0.5829  0.3473  0.4023
 5267SOL     OW27259   3.893   1.699  10.387 -0.0120 -0.0277 -0.1927
 5267SOL    HW127260   3.827   1.637  10.419  0.4481 -0.6160 -0.3887
 5267SOL    HW227261   3.881   1.682  10.294 -0.9687 -0.6479  0.0449
 5268SOL     OW27262   2.328   3.963   8.313  0.0862  0.0512  0.5039
 5268SOL    HW127263   2.254   3.902   8.308 -1.0327  1.2901  1.8133
 5268SOL    HW227264   2.408   3.911   8.312 -1.1474 -1.8663  0.2180
 5269SOL     OW27265   1.351   2.994   2.120  0.0425  0.4711 -0.4039
 5269SOL    HW127266   1.417   3.008   2.188  0.2375 -0.7025 -0.3489
 5269SOL    HW227267   1.320   2.907   2.144  2.7274 -0.1982  0.5789
 5270SOL     OW27268   2.708   4.541  11.820  0.3301 -0.2860  0.1452
 5270SOL    HW127269   2.715   4.450  11.850 -0.1908 -0.7236 -1.0652
 5270SOL    HW227270   2.678   4.577  11.903  0.9947  2.1113 -0.6592
 5271SOL     OW27271   4.030   0.404   6.525 -0.5033  0.0721  0.2801
 5271SOL    HW127272   4.011   0.330   6.582 -2.8235  0.0442 -0.5410
 5271SOL    HW227273   4.123   0.417   6.540 -0.2824  0.9782 -1.8424
 5272SOL     OW27274   2.996   1.205  10.103 -0.2539  0.3119  0.4665
 5272SOL    HW127275   2.983   1.287  10.150  0.4544  1.5695 -1.5328
 5272SOL    HW227276   3.001   1.143  10.176  0.4620  1.3503  1.3051
 5273SOL     OW27277   0.965   1.051   1.410  0.6824  0.3441 -0.1120
 5273SOL    HW127278   0.909   1.027   1.484  2.9423 -1.9377  0.8891
 5273SOL    HW227279   1.019   0.971   1.406 -0.7566 -0.7114  1.5651
 5274SOL     OW27280   1.702   0.461   4.517 -0.0959 -0.0363  0.0287
 5274SOL    HW127281   1.748   0.416   4.588  2.3113  0.1169 -1.4598
 5274SOL    HW227282   1.682   0.542   4.563 -0.0678 -1.7533  3.0484
 5275SOL     OW27283   0.963   4.167   5.121  0.6943 -0.6355 -0.8419
 5275SOL    HW127284   1.035   4.196   5.176  1.6471 -4.1288 -0.2786
 5275SOL    HW227285   0.936   4.094   5.177  0.3764 -0.1173 -0.3170
 5276SOL     OW27286   3.278   2.258  15.544 -1.2550  0.1645  0.1069
 5276SOL    HW127287   3.290   2.333  15.602 -1.8258 -0.9980  1.6971
 5276SOL    HW227288   3.255   2.193  15.610  0.7407 -3.2417 -2.5480
 5277SOL     OW27289   3.668   2.546   5.607 -0.1061 -0.4921  0.2732
 5277SOL    HW127290   3.663   2.525   5.514 -1.0048  3.1088 -0.4639
 5277SOL    HW227291   3.717   2.469   5.637 -1.3976 -0.3049  2.8096
 5278SOL     OW27292   3.959   1.483   7.327  0.2295  0.0218  0.4393
 5278SOL    HW127293   4.003   1.509   7.247 -1.9599 -0.1088 -0.8009
 5278SOL    HW227294   4.032   1.486   7.389 -0.6457  2.4879  1.3769
 5279SOL     OW27295   4.410   2.829  13.104 -0.5240 -0.7029 -0.0317
 5279SOL    HW127296   4.348   2.780  13.049 -1.1355 -0.0778  0.0970
 5279SOL    HW227297   4.464   2.751  13.117  0.0476 -0.1152  1.0300
 5280SOL     OW27298   3.188   3.381   8.767 -0.1590  0.3310 -0.4240
 5280SOL    HW127299   3.230   3.296   8.778  1.5634  0.9469 -2.1466
 5280SOL    HW227300   3.096   3.360   8.754 -0.1037  0.3325 -0.8196
 5281SOL     OW27301   1.280   1.425   8.287  0.1793  0.3101 -0.3647
 5281SOL    HW127302   1.204   1.483   8.289  0.5931  0.6944  3.2200
 5281SOL    HW227303   1.306   1.437   8.378  0.9232 -0.0744 -0.5294
 5282SOL     OW27304   2.092   3.181  11.483  0.0818 -0.2492  0.3822
 5282SOL    HW127305   2.132   3.261  11.449 -2.7814  0.5898 -0.9837
 5282SOL    HW227306   2.026   3.215  11.543 -1.9516 -1.4222 -1.1912
 5283SOL     OW27307   3.731   2.008   8.252  0.0265  0.2031  0.4756
 5283SOL    HW127308   3.796   1.997   8.182  1.3755 -0.2088  1.8005
 5283SOL    HW227309   3.752   2.098   8.278  0.6489  0.0441  0.5281
 5284SOL     OW27310   1.651   3.853   9.089 -0.4800 -0.0921 -0.0673
 5284SOL    HW127311   1.560   3.850   9.117 -0.6594  1.8191 -0.4172
 5284SOL    HW227312   1.660   3.947   9.070  2.2580 -0.1220  1.0360
 5285SOL     OW27313   0.866   0.791   3.035 -0.0260  0.3295 -0.6927
 5285SOL    HW127314   0.846   0.723   2.970 -1.4912 -0.9051  1.0752
 5285SOL    HW227315   0.789   0.847   3.039  2.1263  3.3065 -0.4812
 5286SOL     OW27316   4.504   4.696  13.300  0.0186  0.1286 -0.5312
 5286SOL    HW127317   4.572   4.640  13.336 -1.7837 -0.5454  1.8017
 5286SOL    HW227318   4.476   0.013  13.381  0.0307 -1.0102  0.0654
 5287SOL     OW27319   1.537   0.264   7.663 -0.2106 -0.0995 -0.2464
 5287SOL    HW127320   1.573   0.175   7.671 -0.8219 -0.4089 -0.9318
 5287SOL    HW227321   1.448   0.229   7.657 -0.6017  0.8973 -0.2539
 5288SOL     OW27322   0.033   1.434   5.218  0.1059  0.1914  0.2637
 5288SOL    HW127323   0.094   1.392   5.157  1.2104 -1.6069  2.5963
 5288SOL    HW227324   0.093   1.449   5.292 -0.9025  0.1792  1.0825
 5289SOL     OW27325   2.674   4.136  14.820 -0.5065 -0.0622 -0.1421
 5289SOL    HW127326   2.668   4.222  14.862 -0.6548  0.6066 -1.5421
 5289SOL    HW227327   2.745   4.101  14.873  0.7369 -0.2945 -1.9763
 5290SOL     OW27328   0.065   2.956   9.355 -0.2059  0.3036  0.6214
 5290SOL    HW127329   0.069   2.916   9.443 -1.1585 -0.0545  0.5014
 5290SOL    HW227330   0.115   2.891   9.306  2.4980  2.8215  0.0294
 5291SOL     OW27331   0.732   1.727   2.025 -0.0396 -0.3958 -0.5373
 5291SOL    HW127332   0.665   1.663   2.001  0.3870 -1.1418  0.2904
 5291SOL    HW227333   0.678   1.794   2.066  1.6343 -0.1550  1.2537
 5292SOL     OW27334   0.736   4.437   9.727 -0.4559  0.9404 -0.5713
 5292SOL    HW127335   0.717   4.372   9.659  1.7404  0.6635 -0.9220
 5292SOL    HW227336   0.651   4.455   9.767 -0.8001 -3.7291  0.7560
 5293SOL     OW27337   3.086   1.176   5.518 -0.3142 -0.0274 -0.3142
 5293SOL    HW127338   3.054   1.155   5.430 -0.3889  0.7576 -0.4736
 5293SOL    HW227339   3.176   1.142   5.513 -0.1847 -0.0182  1.7795
 5294SOL     OW27340   1.649   1.757   3.677  0.0948  0.7207 -0.0196
 5294SOL    HW127341   1.655   1.811   3.756 -1.7824 -0.6502  1.0736
 5294SOL    HW227342   1.705   1.805   3.617 -0.0517  0.0003 -0.7341
 5295SOL     OW27343   2.154   2.263   7.508  0.1801  0.3472 -0.4655
 5295SOL    HW127344   2.203   2.240   7.587 -1.0656  0.8528  0.4488
 5295SOL    HW227345   2.067   2.229   7.529  0.8544 -1.0611  0.0390
 5296SOL     OW27346   1.730   0.161   0.157 -0.0737 -0.1335  0.4246
 5296SOL    HW127347   1.729   0.103   0.081  1.7873  1.2395 -0.6664
 5296SOL    HW227348   1.801   0.220   0.130 -0.0958  0.3993  1.5275
 5297SOL     OW27349   3.207   0.708  12.809  0.1642 -0.3893  0.2325
 5297SOL    HW127350   3.174   0.691  12.721  0.2455 -1.3181  0.3889
 5297SOL    HW227351   3.177   0.636  12.864 -0.1487 -0.2382  0.2641
 5298SOL     OW27352   0.938   4.521  15.233  0.3033 -0.3522 -0.1600
 5298SOL    HW127353   1.032   4.511  15.243  0.0045 -2.0957  0.9839
 5298SOL    HW227354   0.927   4.444  15.177  1.4160 -1.4279  1.1252
 5299SOL     OW27355   2.907   0.739   2.120  0.1156 -0.4839 -0.1740
 5299SOL    HW127356   2.914   0.785   2.203  0.7971 -0.4624 -0.2481
 5299SOL    HW227357   2.925   0.809   2.057 -2.8751  0.2321 -0.2237
 5300SOL     OW27358   3.345   3.515   9.070  0.1424  0.1219  0.5631
 5300SOL    HW127359   3.367   3.559   9.152  0.7267 -0.1569  0.5616
 5300SOL    HW227360   3.392   3.432   9.084  3.3826  1.9581  0.6600
 5301SOL     OW27361   0.194   2.576   6.262 -0.2076 -0.4778 -0.1555
 5301SOL    HW127362   0.206   2.666   6.294 -0.1260 -1.1147  1.5652
 5301SOL    HW227363   0.134   2.550   6.332  0.8879  0.1963  1.0251
 5302SOL     OW27364   3.721   3.577   1.476  0.1968 -0.2485  0.0442
 5302SOL    HW127365   3.771   3.561   1.556 -0.3648 -1.9154  0.0584
 5302SOL    HW227366   3.687   3.490   1.454  1.8504 -1.2573  1.5122
 5303SOL     OW27367   3.404   3.544   3.766  0.1914  1.1024  0.4005
 5303SOL    HW127368   3.361   3.597   3.833 -0.9566 -0.3840  0.8424
 5303SOL    HW227369   3.434   3.472   3.822 -0.2580  0.0043 -0.7705
 5304SOL     OW27370   2.807   0.449   2.308 -0.7395 -0.7475  0.8134
 5304SOL    HW127371   2.781   0.541   2.312  4.0123  0.7083 -1.2905
 5304SOL    HW227372   2.734   0.421   2.253 -0.8051  0.8799  0.0842
 5305SOL     OW27373   0.355   2.348   1.296  0.4077 -0.5101 -0.2411
 5305SOL    HW127374   0.335   2.288   1.223  1.1624  1.6026 -2.1979
 5305SOL    HW227375   0.450   2.351   1.280  0.0082 -0.6637 -2.6968
 5306SOL     OW27376   4.470   3.265  10.553  0.1130 -0.7782  0.1850
 5306SOL    HW127377   4.465   3.254  10.458  0.0137  0.2552  0.0693
 5306SOL    HW227378   4.409   3.197  10.581  1.1311 -1.8001 -0.1028
 5307SOL     OW27379   1.611   1.312   8.444  0.5508 -0.4368  0.1655
 5307SOL    HW127380   1.620   1.361   8.525  1.2623 -1.2533  0.5895
 5307SOL    HW227381   1.571   1.230   8.473 -1.3153  0.4039 -0.0378
 5308SOL     OW27382   1.805   4.600   8.020 -0.3521  0.0576  0.2682
 5308SOL    HW127383   1.787   4.626   8.111  2.4076 -1.7330  1.3470
 5308SOL    HW227384   1.799   4.691   7.992 -1.4207  0.0790  0.5771
 5309SOL     OW27385   3.169   3.941   8.763  0.0500 -0.0576 -0.5146
 5309SOL    HW127386   3.113   4.010   8.797  0.5710 -0.2475  0.7320
 5309SOL    HW227387   3.242   3.951   8.824  0.5013  1.9101 -1.3743
 5310SOL     OW27388   1.711   2.039  14.970 -0.5829  0.2123  0.3910
 5310SOL    HW127389   1.697   2.134  14.963  1.7477  0.6199  1.4217
 5310SOL    HW227390   1.679   2.001  14.888 -0.0534 -1.8494  1.1421
 5311SOL     OW27391   2.850   0.805   4.800  0.6484  0.3008  0.1039
 5311SOL    HW127392   2.820   0.782   4.888  2.0331  0.3130  0.5755
 5311SOL    HW227393   2.937   0.764   4.791  1.1961  1.7579 -1.1699
 5312SOL     OW27394   3.687   2.536   3.556 -0.0055  0.3770  0.3272
 5312SOL    HW127395   3.654   2.585   3.481  0.3716  0.6998  0.3726
 5312SOL    HW227396   3.774   2.510   3.525 -0.2611  0.9304 -0.8454
 5313SOL     OW27397   0.213   2.904  13.603  0.2751  0.1218 -0.6339
 5313SOL    HW127398   0.278   2.965  13.637 -0.1280  0.5088 -0.5502
 5313SOL    HW227399   0.135   2.958  13.619  0.3439  0.2182 -0.6264
 5314SOL     OW27400   2.410   2.305   2.253  0.3393 -0.0920 -0.3395
 5314SOL    HW127401   2.419   2.218   2.290  0.9807  0.0600 -0.1370
 5314SOL    HW227402   2.431   2.287   2.161 -2.0604 -1.4790 -0.6304
 5315SOL     OW27403   0.726   4.569   7.045 -0.2663  0.0951 -0.0673
 5315SOL    HW127404   0.742   4.655   7.007  0.8824 -1.0214 -2.0832
 5315SOL    HW227405   0.702   4.603   7.131  1.0202 -0.2972  0.4414
 5316SOL     OW27406   0.920   2.090   0.736  0.3402 -0.0997 -0.6122
 5316SOL    HW127407   0.899   2.064   0.825  1.9469 -0.1240 -0.2424
 5316SOL    HW227408   0.939   2.182   0.750  1.3079 -0.8658  3.1346
 5317SOL     OW27409   3.081   0.856   6.639  0.5000  0.4827 -0.0858
 5317SOL    HW127410   3.091   0.780   6.696  1.2319  0.0206 -0.8167
 5317SOL    HW227411   3.136   0.831   6.565  0.5348 -0.8906  0.4042
 5318SOL     OW27412   1.708   0.088   1.045  0.3162  0.3241  0.1587
 5318SOL    HW127413   1.773   0.022   1.019 -0.6064 -0.1827 -0.8586
 5318SOL    HW227414   1.700   0.153   0.976  1.3953  1.5679  1.2110
 5319SOL     OW27415   0.361   3.098   7.063  0.4122  0.0151  0.5782
 5319SOL    HW127416   0.274   3.069   7.092  0.2562 -0.4320 -0.3179
 5319SOL    HW227417   0.347   3.104   6.968 -0.2431  1.4606  0.7666
 5320SOL     OW27418   3.934   0.329   3.568  0.0945  0.6946 -0.3190
 5320SOL    HW127419   3.962   0.237   3.568 -1.1457  0.3099 -1.8257
 5320SOL    HW227420   3.903   0.329   3.658 -0.3959  0.6304 -0.4899
 5321SOL     OW27421   0.116   0.549  16.999 -0.1699  0.1741  0.0088
 5321SOL    HW127422   0.126   0.534  17.093 -1.3840  1.4489  0.3478
 5321SOL    HW227423   0.022   0.547  16.984 -0.3157  1.5400  0.6909
 5322SOL     OW27424   2.315   1.353   4.851  0.2586 -0.0072  0.0854
 5322SOL    HW127425   2.265   1.298   4.791 -1.4902  1.5104  0.1415
 5322SOL    HW227426   2.300   1.441   4.815  2.0118  0.3461  0.2078
 5323SOL     OW27427   3.295   3.032   4.687 -0.0260  0.1743  0.4720
 5323SOL    HW127428   3.344   3.094   4.740 -0.3070  0.8138 -0.0115
 5323SOL    HW227429   3.203   3.044   4.710 -0.1497  1.6208 -0.7985
 5324SOL     OW27430   1.322   0.105   4.745  0.1188 -0.0147  0.3817
 5324SOL    HW127431   1.405   0.061   4.763 -0.7495 -1.3511  1.1143
 5324SOL    HW227432   1.356   0.194   4.739 -0.6207  0.2355 -0.0227
 5325SOL     OW27433   1.172   2.916   8.820 -0.2911 -0.2321  0.3602
 5325SOL    HW127434   1.210   2.947   8.902  0.0727  2.1242 -0.7018
 5325SOL    HW227435   1.198   2.976   8.750 -2.9113 -1.0675 -1.3291
 5326SOL     OW27436   3.179   1.910  17.125 -0.2089 -0.2289 -0.2018
 5326SOL    HW127437   3.259   1.962  17.131 -1.1147  1.3754 -2.1470
 5326SOL    HW227438   3.116   1.965  17.171 -1.0553 -2.9937  1.8927
 5327SOL     OW27439   0.663   3.860   4.785  0.2742  0.3506 -0.1420
 5327SOL    HW127440   0.722   3.789   4.810 -1.0194 -1.5435 -2.3867
 5327SOL    HW227441   0.653   3.826   4.697  1.1588  0.2279 -0.1924
 5328SOL     OW27442   4.709   1.870   5.442 -0.3328  0.1008 -0.1704
 5328SOL    HW127443   4.710   1.860   5.346  0.5575  0.1353 -0.1653
 5328SOL    HW227444   0.070   1.837   5.465 -1.0699 -0.9630  1.0726
 5329SOL     OW27445   3.750   0.016   0.779  0.3476  0.2767 -0.7839
 5329SOL    HW127446   3.730   0.093   0.725  1.8686  1.2754  0.0863
 5329SOL    HW227447   3.824   0.055   0.826  0.7421 -1.6177  0.1482
 5330SOL     OW27448   1.130   1.268   6.432  0.0567 -0.5182 -0.0918
 5330SOL    HW127449   1.198   1.235   6.374  2.3901  0.8532  1.8604
 5330SOL    HW227450   1.108   1.210   6.504  0.4919  1.0107  1.2711
 5331SOL     OW27451   2.570   1.444  15.497 -0.3889 -0.4112 -0.2926
 5331SOL    HW127452   2.567   1.407  15.585  1.2983 -0.1063 -0.0907
 5331SOL    HW227453   2.487   1.492  15.498  0.0786  0.4252 -1.3276
 5332SOL     OW27454   2.844   4.016   6.145 -0.2031  0.0184  0.2483
 5332SOL    HW127455   2.873   3.960   6.218  0.3000  0.9935  0.7877
 5332SOL    HW227456   2.750   4.024   6.160  0.1473 -0.0593  2.5294
 5333SOL     OW27457   1.549   0.475   3.828  0.5892  0.4417 -0.2044
 5333SOL    HW127458   1.508   0.561   3.822  0.4659  0.5121  1.7255
 5333SOL    HW227459   1.513   0.437   3.748  0.9869  1.8280 -1.0260
 5334SOL     OW27460   0.945   2.576   7.610 -0.2265  0.0261 -0.0640
 5334SOL    HW127461   0.927   2.484   7.591  3.3452 -1.0616  1.7993
 5334SOL    HW227462   1.040   2.572   7.625 -0.5663  0.5481  2.1849
 5335SOL     OW27463   0.222   4.450  13.701  0.5668 -0.3679  0.0411
 5335SOL    HW127464   0.153   4.386  13.721  0.6068  0.0710  1.6049
 5335SOL    HW227465   0.284   4.388  13.662  0.0235  0.6249 -2.3843
 5336SOL     OW27466   0.494   2.726  13.158  0.4487  0.3136 -0.2262
 5336SOL    HW127467   0.412   2.703  13.115  0.8085 -0.4693 -0.5038
 5336SOL    HW227468   0.458   2.786  13.222 -0.5372  0.9788 -1.4056
 5337SOL     OW27469   0.993   3.733  13.807  0.1351 -0.3488  0.2141
 5337SOL    HW127470   0.943   3.809  13.837 -1.5158 -1.1623 -0.5027
 5337SOL    HW227471   1.072   3.785  13.791  0.4723 -0.9089  0.0848
 5338SOL     OW27472   0.981   1.247  14.046  0.1556 -0.2304 -0.4506
 5338SOL    HW127473   1.040   1.295  13.989 -0.1601  0.5388 -0.1218
 5338SOL    HW227474   0.988   1.154  14.023 -1.6276 -1.3422  3.4654
 5339SOL     OW27475   1.445   3.366  11.093  0.1770  0.0728 -0.0925
 5339SOL    HW127476   1.376   3.401  11.149  1.4136  2.3720 -0.0309
 5339SOL    HW227477   1.505   3.328  11.158  0.3133 -0.7617 -0.7046
 5340SOL     OW27478   0.727   1.570   9.172 -0.5567  0.2375  0.2234
 5340SOL    HW127479   0.651   1.605   9.219 -0.4188 -3.1315  2.9618
 5340SOL    HW227480   0.737   1.486   9.217 -1.3564  0.2597  0.4423
 5341SOL     OW27481   2.945   0.461   5.604 -0.0460 -0.0362 -0.3883
 5341SOL    HW127482   2.991   0.446   5.687  2.2065 -0.5122 -1.7366
 5341SOL    HW227483   2.952   0.372   5.571  0.1696  0.0846 -0.6660
 5342SOL     OW27484   4.137   2.332  11.292 -0.7728  0.3239  0.2628
 5342SOL    HW127485   4.077   2.316  11.219 -1.2722  0.3916  0.6574
 5342SOL    HW227486   4.174   2.245  11.312 -0.3038  0.0416 -1.9128
 5343SOL     OW27487   1.764   4.634   4.305 -0.2884  0.3412  0.5889
 5343SOL    HW127488   1.733   4.564   4.362  0.7854  1.4673  2.5338
 5343SOL    HW227489   1.782   4.705   4.366  1.0063  0.0380  0.5577
 5344SOL     OW27490   0.597   2.010   4.067  0.3139 -0.4434 -0.0815
 5344SOL    HW127491   0.514   2.027   4.023  0.7945 -0.1728 -0.8662
 5344SOL    HW227492   0.562   1.937   4.119 -2.0158  0.6118 -0.1780
 5345SOL     OW27493   0.961   0.733   2.061  0.1747 -0.2891 -0.3198
 5345SOL    HW127494   0.991   0.744   1.971  0.0257  0.1240 -0.3199
 5345SOL    HW227495   0.957   0.638   2.073  0.7223 -0.3007 -0.1990
 5346SOL     OW27496   0.644   0.870  15.758 -0.0689  0.2018  0.0261
 5346SOL    HW127497   0.731   0.832  15.771 -0.2654  0.4053  1.9769
 5346SOL    HW227498   0.605   0.842  15.840 -1.3194 -1.4869 -1.1630
 5347SOL     OW27499   2.063   4.643   7.291  0.0457 -0.0011  0.0865
 5347SOL    HW127500   2.049   4.721   7.238  0.5648  1.3012  1.8659
 5347SOL    HW227501   2.144   4.661   7.339 -1.2809  3.4801  0.9665
 5348SOL     OW27502   3.723   1.543   6.325  0.5573 -0.0255  0.0338
 5348SOL    HW127503   3.639   1.525   6.369  0.6544 -1.0684 -0.1939
 5348SOL    HW227504   3.684   1.541   6.238  0.0074  1.5535  0.2523
 5349SOL     OW27505   3.272   1.833   8.422  0.6133  0.3873 -0.7715
 5349SOL    HW127506   3.232   1.914   8.454 -2.3313 -0.9035 -1.1843
 5349SOL    HW227507   3.281   1.786   8.505 -1.9133 -1.3488 -1.4742
 5350SOL     OW27508   4.374   4.225   1.602 -0.0637 -0.3768  0.1026
 5350SOL    HW127509   4.286   4.257   1.579 -0.4533  0.4010  2.7561
 5350SOL    HW227510   4.411   4.292   1.660 -1.0193 -2.0931  2.6695
 5351SOL     OW27511   2.488   1.164   9.387  0.0154 -0.1455  0.2755
 5351SOL    HW127512   2.445   1.202   9.463 -0.3755  0.2999 -0.1721
 5351SOL    HW227513   2.525   1.247   9.357 -1.4302  0.7415  0.9581
 5352SOL     OW27514   4.164   2.349   6.971  0.9236  0.3732 -0.0357
 5352SOL    HW127515   4.173   2.424   6.912 -0.1756 -0.5934 -1.4320
 5352SOL    HW227516   4.143   2.391   7.054  2.3109  0.2178  0.3802
 5353SOL     OW27517   4.112   2.881   7.970 -0.4140  0.9680 -0.9479
 5353SOL    HW127518   4.151   2.917   8.050 -0.4948 -0.3999 -0.2914
 5353SOL    HW227519   4.036   2.938   7.957 -1.8776 -0.7906 -0.1466
 5354SOL     OW27520   1.597   2.669  16.650 -0.2925  0.6018 -0.0771
 5354SOL    HW127521   1.615   2.762  16.664  0.2099  0.6463 -1.0104
 5354SOL    HW227522   1.506   2.685  16.627 -0.2706  2.2810  1.0195
 5355SOL     OW27523   1.972   4.317   6.541 -0.3653  0.0756 -0.2920
 5355SOL    HW127524   1.906   4.383   6.520 -0.7639  0.9549  3.5935
 5355SOL    HW227525   1.919   4.275   6.609 -1.7841 -0.7496 -1.9045
 5356SOL     OW27526   4.528   1.124   1.754 -0.2321  0.8144 -0.1838
 5356SOL    HW127527   4.480   1.096   1.676 -3.0780  2.9732  0.7827
 5356SOL    HW227528   4.608   1.075   1.740 -1.3448 -1.4821  1.5817
 5357SOL     OW27529   0.990   4.016  11.757 -0.2822 -0.2036 -0.5425
 5357SOL    HW127530   0.991   3.956  11.681 -0.4765  0.0720 -0.7647
 5357SOL    HW227531   0.896   4.017  11.774 -0.0685  3.1582  0.4122
 5358SOL     OW27532   0.325   2.302  12.382 -0.9518 -0.1351  0.0527
 5358SOL    HW127533   0.305   2.395  12.377 -1.1945 -0.1355  1.0243
 5358SOL    HW227534   0.347   2.284  12.290  2.7267 -0.4869  1.0059
 5359SOL     OW27535   2.299   3.954  16.216  0.6932  0.9858  0.7005
 5359SOL    HW127536   2.337   3.983  16.133 -0.5798  0.8105  0.0456
 5359SOL    HW227537   2.369   3.967  16.280  1.5336  1.1537 -0.2621
 5360SOL     OW27538   3.038   1.404  11.193  0.0541  0.4974  0.7723
 5360SOL    HW127539   2.954   1.431  11.156 -0.0128  0.7903  1.1447
 5360SOL    HW227540   3.093   1.413  11.115  0.2435  2.1366  1.0896
 5361SOL     OW27541   0.793   0.034  17.111  0.0570 -0.4748  0.0053
 5361SOL    HW127542   0.886   0.053  17.097 -0.0479 -0.7519 -1.0539
 5361SOL    HW227543   0.765   0.002  17.026  0.6628 -0.4952 -0.1819
 5362SOL     OW27544   4.645   0.741   2.448 -0.0286 -0.2027  0.2686
 5362SOL    HW127545   4.571   0.799   2.468  0.5763 -0.0558  2.1651
 5362SOL    HW227546   4.618   0.664   2.498 -0.8664  0.5918  1.0403
 5363SOL     OW27547   2.036   4.123  12.150  0.2972  0.2708  0.6842
 5363SOL    HW127548   1.957   4.082  12.185 -0.7387  2.2110  0.6368
 5363SOL    HW227549   2.023   4.136  12.056  0.3517  0.7294  0.7398
 5364SOL     OW27550   3.769   1.443   7.721 -0.2596  0.3058 -0.6364
 5364SOL    HW127551   3.828   1.517   7.738 -0.2181 -0.1505  1.2005
 5364SOL    HW227552   3.779   1.429   7.627 -2.2008 -2.0093 -0.5090
 5365SOL     OW27553   0.472   1.756  12.370 -0.4045 -0.2482  0.1024
 5365SOL    HW127554   0.393   1.805  12.395 -2.3728 -1.7161 -3.1986
 5365SOL    HW227555   0.449   1.734  12.280 -1.9934 -1.3801  0.7696
 5366SOL     OW27556   0.638   0.131   3.295  0.4044 -0.3845  0.4698
 5366SOL    HW127557   0.686   0.050   3.315  1.1137  0.0094  0.3701
 5366SOL    HW227558   0.673   0.142   3.206  0.9516 -0.7962  0.6349
 5367SOL     OW27559   4.609   4.007   6.603  0.3955  0.1983  0.3060
 5367SOL    HW127560   4.657   3.929   6.576  3.3058  1.6552  1.2569
 5367SOL    HW227561   4.678   4.053   6.653 -0.4751  0.6457  1.0940
 5368SOL     OW27562   4.714   1.314  11.557 -0.5955 -0.3950 -0.3040
 5368SOL    HW127563   4.699   1.220  11.551 -0.6652 -0.2555 -2.5578
 5368SOL    HW227564   0.077   1.311  11.591 -1.2805  0.8779  1.5755
 5369SOL     OW27565   4.103   0.572  12.174  0.1294 -0.3089  0.1904
 5369SOL    HW127566   4.192   0.536  12.176  0.2615  0.1160  2.0303
 5369SOL    HW227567   4.085   0.571  12.080 -3.4239 -2.4481  0.8788
 5370SOL     OW27568   2.457   2.231  10.554  0.3953 -0.0697 -0.3108
 5370SOL    HW127569   2.531   2.263  10.502  2.1855 -0.9321  1.6791
 5370SOL    HW227570   2.385   2.287  10.525  2.9251  4.5988  2.4129
 5371SOL     OW27571   4.541   1.883  15.287  0.2209 -0.4958 -0.0301
 5371SOL    HW127572   4.450   1.895  15.313  0.0883  0.3024 -0.8986
 5371SOL    HW227573   4.551   1.960  15.232  0.1353  0.1105  0.7951
 5372SOL     OW27574   1.597   4.247  13.064 -0.4063  0.0497 -0.0750
 5372SOL    HW127575   1.576   4.280  13.152 -0.1370 -0.2043  0.0857
 5372SOL    HW227576   1.675   4.299  13.050  0.9868 -1.4012  2.2189
 5373SOL     OW27577   4.443   2.353  10.690  0.4598 -0.3143 -0.4100
 5373SOL    HW127578   4.386   2.409  10.638  1.8986 -0.0362 -1.7022
 5373SOL    HW227579   4.394   2.273  10.676  0.4253 -0.8333  2.5586
 5374SOL     OW27580   4.680   1.885   7.208 -0.3007 -0.0284 -0.1540
 5374SOL    HW127581   0.038   1.862   7.248  0.4529  1.0935 -1.1043
 5374SOL    HW227582   4.674   1.980   7.216  1.1855 -0.0965  1.7574
 5375SOL     OW27583   1.431   3.254   5.641  0.3273 -0.4424 -0.0940
 5375SOL    HW127584   1.499   3.309   5.680 -1.0961  1.3178 -0.1385
 5375SOL    HW227585   1.421   3.178   5.699 -0.0913 -0.5792 -0.3472
 5376SOL     OW27586   3.996   1.436  12.128  0.1290  0.2158 -0.2798
 5376SOL    HW127587   4.047   1.487  12.065  2.7557  1.8660  3.1696
 5376SOL    HW227588   4.003   1.348  12.093  0.7357  0.4488 -0.7397
 5377SOL     OW27589   1.393   2.116   6.655  0.4809  0.3826  0.0637
 5377SOL    HW127590   1.378   2.029   6.690  0.0600  1.1021  1.6497
 5377SOL    HW227591   1.351   2.096   6.571 -0.6379 -2.3617  1.2638
 5378SOL     OW27592   0.813   1.981   3.882 -0.4895 -0.3127  0.5246
 5378SOL    HW127593   0.733   1.969   3.934  0.6278 -2.4856  1.7593
 5378SOL    HW227594   0.868   2.026   3.946 -0.9527 -0.1900  0.8370
 5379SOL     OW27595   1.895   0.356   3.756  0.2942 -0.2795  0.1725
 5379SOL    HW127596   1.821   0.302   3.782 -0.0061 -0.4056 -0.9524
 5379SOL    HW227597   1.899   0.315   3.670  0.6490 -1.7430  0.8849
 5380SOL     OW27598   0.117   2.634   4.422 -1.2081  0.5507  0.3020
 5380SOL    HW127599   0.043   2.580   4.396 -1.6734  0.9748  0.7240
 5380SOL    HW227600   0.072   2.712   4.456 -0.4167  0.8643  0.6253
 5381SOL     OW27601   1.760   0.143   2.055  0.6633  0.1981  0.7906
 5381SOL    HW127602   1.808   0.061   2.066 -1.1430 -0.9290  0.2755
 5381SOL    HW227603   1.676   0.101   2.041  0.2726  1.0554  0.5842
 5382SOL     OW27604   4.030   4.434   5.364  0.1907  0.8509 -0.0750
 5382SOL    HW127605   4.046   4.340   5.365  3.1070  1.3356 -0.6591
 5382SOL    HW227606   4.119   4.468   5.351  0.4536  0.5082  0.8362
 5383SOL     OW27607   0.835   1.934  10.287 -0.0127 -0.7335 -0.1289
 5383SOL    HW127608   0.770   1.971  10.347  0.2153 -0.8851  0.2102
 5383SOL    HW227609   0.834   1.841  10.309  0.5587 -0.5336  0.7430
 5384SOL     OW27610   1.441   2.772   0.979  0.5815  0.6391 -0.2555
 5384SOL    HW127611   1.359   2.723   0.976  3.1940 -3.6243 -1.9504
 5384SOL    HW227612   1.428   2.839   0.912 -0.8221 -0.0979 -0.7216
 5385SOL     OW27613   3.557   1.667   9.157 -0.5499  0.2623 -0.1865
 5385SOL    HW127614   3.611   1.641   9.231 -0.2661  1.0088 -0.1361
 5385SOL    HW227615   3.502   1.589   9.146 -0.9212  0.2396  1.8808
 5386SOL     OW27616   2.115   0.799   5.510  0.9502  0.0764 -0.5908
 5386SOL    HW127617   2.072   0.883   5.530  2.6090  0.5465  1.0188
 5386SOL    HW227618   2.205   0.831   5.514  1.2425 -0.7788 -0.3237
 5387SOL     OW27619   1.932   4.565  10.907 -0.0665  0.1735 -0.8967
 5387SOL    HW127620   1.927   4.651  10.948 -3.0583 -0.3137 -0.2677
 5387SOL    HW227621   1.966   4.519  10.984 -1.8518  0.5388  0.1038
 5388SOL     OW27622   0.772   2.759  14.241  0.2011 -0.0478 -0.1084
 5388SOL    HW127623   0.801   2.668  14.248 -0.1675 -0.2553 -1.2950
 5388SOL    HW227624   0.676   2.760  14.252 -0.0263 -0.8826 -2.0430
 5389SOL     OW27625   1.754   0.130   5.228 -0.4558 -0.0535  0.3953
 5389SOL    HW127626   1.692   0.113   5.299 -0.1829 -0.7458  0.4690
 5389SOL    HW227627   1.774   0.223   5.234  0.5736 -0.2420 -0.0133
 5390SOL     OW27628   4.590   0.148   1.554 -0.2712 -0.4480 -0.0624
 5390SOL    HW127629   4.651   0.075   1.567  0.7460  0.6556  1.3013
 5390SOL    HW227630   4.554   0.156   1.642 -2.4762  2.5578 -1.2432
 5391SOL     OW27631   4.669   0.794   5.162 -0.6473 -0.1311  0.0349
 5391SOL    HW127632   4.646   0.882   5.134 -0.0932  0.7696  2.3801
 5391SOL    HW227633   4.587   0.755   5.192 -0.7199 -3.0547 -3.9082
 5392SOL     OW27634   0.128   4.243   2.823 -0.4646  0.0648  0.4739
 5392SOL    HW127635   0.092   4.163   2.783 -0.8623  0.4603  0.0392
 5392SOL    HW227636   0.138   4.289   2.739 -0.4680  0.4494  0.6844
 5393SOL     OW27637   4.517   4.315  10.319  0.2964  1.0027  0.1686
 5393SOL    HW127638   4.491   4.241  10.264  0.4074  0.2005  1.1849
 5393SOL    HW227639   4.457   4.383  10.288  0.9227  2.3317  1.8913
 5394SOL     OW27640   0.132   2.205   2.315  0.0137  0.0948  0.5608
 5394SOL    HW127641   0.175   2.262   2.252 -0.1460  0.5556  0.8695
 5394SOL    HW227642   0.073   2.164   2.252  0.8498 -2.8922  1.7390
 5395SOL     OW27643   2.851   2.392   8.275 -0.0350  0.2609 -0.4410
 5395SOL    HW127644   2.908   2.379   8.351 -2.4520  3.4534  1.8822
 5395SOL    HW227645   2.916   2.401   8.205 -0.6881  0.0856 -1.0683
 5396SOL     OW27646   0.952   0.003  15.390  0.2132  0.0479  0.2504
 5396SOL    HW127647   0.941   4.691  15.477  0.7630 -1.9539 -0.5436
 5396SOL    HW227648   0.934   4.655  15.332 -1.8647 -0.2806  1.3195
 5397SOL     OW27649   2.467   1.678  11.978  0.1824 -0.5524  0.8282
 5397SOL    HW127650   2.538   1.627  12.018 -0.7134 -2.0451  0.5044
 5397SOL    HW227651   2.502   1.767  11.984 -2.6478  0.7261 -1.7607
 5398SOL     OW27652   1.921   1.938   4.079 -0.0571  0.4737 -0.2216
 5398SOL    HW127653   2.015   1.926   4.072 -0.2412 -0.6746 -0.7218
 5398SOL    HW227654   1.913   1.974   4.167  0.6378 -1.5728  0.6807
 5399SOL     OW27655   2.564   3.424   1.815  0.0661  0.0358 -0.0116
 5399SOL    HW127656   2.609   3.484   1.874  1.2919  0.9176 -1.8264
 5399SOL    HW227657   2.525   3.487   1.754  3.1047  0.4833 -1.5127
 5400SOL     OW27658   3.557   3.787   9.026  0.2232  0.5036 -0.1948
 5400SOL    HW127659   3.512   3.773   9.109  0.2894 -2.6268 -0.6613
 5400SOL    HW227660   3.590   3.698   9.009  0.8231  0.5175  0.9284
 5401SOL     OW27661   4.422   2.606   8.403  0.2669  0.5441  0.2949
 5401SOL    HW127662   4.339   2.574   8.438  0.3520 -0.3773 -0.3653
 5401SOL    HW227663   4.467   2.634   8.484 -1.5255  0.6323  1.2548
 5402SOL     OW27664   2.152   4.442   7.108 -0.3567  0.7510  0.0105
 5402SOL    HW127665   2.087   4.493   7.156 -1.6501 -0.7027 -0.1933
 5402SOL    HW227666   2.217   4.401   7.164 -0.4138  3.0496  1.7730
 5403SOL     OW27667   1.456   0.238   0.798  0.5111 -0.2071  0.0774
 5403SOL    HW127668   1.430   0.157   0.755 -1.0207  1.6176 -2.5151
 5403SOL    HW227669   1.388   0.243   0.865 -1.3288  0.6465 -1.8205
 5404SOL     OW27670   0.196   3.676   9.824 -0.2503 -0.1350  0.3683
 5404SOL    HW127671   0.115   3.699   9.869  1.5631  2.2636  2.4157
 5404SOL    HW227672   0.213   3.758   9.778 -2.1440  0.8186  1.3894
 5405SOL     OW27673   0.720   3.640  14.900  0.0292  1.0422  0.3241
 5405SOL    HW127674   0.779   3.701  14.855  0.7675  1.1897  1.4963
 5405SOL    HW227675   0.776   3.564  14.915 -0.1442  1.0272  0.8831
 5406SOL     OW27676   4.201   1.736   1.965  0.4915 -0.4062  0.7431
 5406SOL    HW127677   4.197   1.739   1.869  0.9924 -2.4339  0.6698
 5406SOL    HW227678   4.145   1.812   1.980  0.6523 -0.7674  3.1615
 5407SOL     OW27679   4.579   0.068   2.032 -0.1227  0.3049  0.3628
 5407SOL    HW127680   4.525   0.105   1.962  0.8129 -1.1369 -1.1017
 5407SOL    HW227681   4.626   0.150   2.047 -0.0084 -0.1662  2.5724
 5408SOL     OW27682   3.367   4.148   1.040 -0.3740 -0.3581 -0.4725
 5408SOL    HW127683   3.417   4.223   1.072  0.6633 -2.2746  2.3465
 5408SOL    HW227684   3.279   4.180   1.021 -0.0794  1.0189  0.5642
 5409SOL     OW27685   1.688   0.544   6.381 -0.0092  0.5143  0.4675
 5409SOL    HW127686   1.722   0.583   6.462  0.7121  2.9714 -1.0146
 5409SOL    HW227687   1.758   0.576   6.324 -1.4442  1.3883 -0.8346
 5410SOL     OW27688   2.116   0.007  17.193  0.5978 -0.4210  0.0131
 5410SOL    HW127689   2.191   0.044  17.241  0.7256  0.2641 -0.7160
 5410SOL    HW227690   2.053   0.014  17.265  1.7696  1.4373  0.8725
 5411SOL     OW27691   2.132   2.557   6.439  0.5885  0.7163 -0.0099
 5411SOL    HW127692   2.072   2.605   6.496  1.4664  1.4892  0.2626
 5411SOL    HW227693   2.214   2.599   6.463  0.6299  0.1913  0.7641
 5412SOL     OW27694   2.385   0.996   6.980 -0.6997  0.8920 -0.0950
 5412SOL    HW127695   2.375   1.085   6.948  2.2903 -0.5080 -4.9461
 5412SOL    HW227696   2.478   0.979   6.964 -0.5561  0.9900  0.5998
 5413SOL     OW27697   3.130   2.949   8.719 -0.2482  0.2862 -0.4642
 5413SOL    HW127698   3.177   2.977   8.641 -1.4835  0.3549 -1.1854
 5413SOL    HW227699   3.174   2.868   8.745 -0.3347  0.3836  0.0018
 5414SOL     OW27700   3.861   2.046   8.720  0.5361  0.2236 -1.2769
 5414SOL    HW127701   3.777   2.004   8.738 -0.2543  2.7801  0.7816
 5414SOL    HW227702   3.864   2.131   8.763  2.3655 -0.8454  0.6787
 5415SOL     OW27703   2.014   2.893   0.689 -0.3301 -0.0125 -0.1147
 5415SOL    HW127704   2.037   2.986   0.681 -2.0590  0.4464  0.2117
 5415SOL    HW227705   1.929   2.901   0.731  0.0032  0.7002  0.4201
 5416SOL     OW27706   0.695   0.061   5.383 -0.3047 -0.0338  0.2557
 5416SOL    HW127707   0.723   4.722   5.447  1.7157  2.0770  1.5233
 5416SOL    HW227708   0.755   0.046   5.311 -1.0344 -2.9742  0.2791
 5417SOL     OW27709   2.199   4.434   7.931  0.0779  0.4164  0.6972
 5417SOL    HW127710   2.253   4.499   7.886 -1.4702  0.5974 -0.8735
 5417SOL    HW227711   2.201   4.349   7.886  0.0146  0.4537  0.6251
 5418SOL     OW27712   3.294   1.466  10.103  0.5858  0.1203 -0.0538
 5418SOL    HW127713   3.258   1.513  10.028 -0.4505 -0.9837 -0.2615
 5418SOL    HW227714   3.282   1.526  10.176  0.1882 -0.3458  0.2696
 5419SOL     OW27715   0.787   3.867   4.367  0.4010 -0.3140 -0.2300
 5419SOL    HW127716   0.712   3.838   4.315  0.9284 -2.1155  0.0011
 5419SOL    HW227717   0.759   3.958   4.379 -0.8533 -0.8576  0.8885
 5420SOL     OW27718   3.713   3.646   3.801  0.0850 -0.3709  0.2705
 5420SOL    HW127719   3.799   3.678   3.773 -0.1277 -0.0648 -0.0296
 5420SOL    HW227720   3.737   3.554   3.802  1.3630 -0.0415  0.0339
 5421SOL     OW27721   0.535   2.124  16.409  0.2174  0.7639  0.4191
 5421SOL    HW127722   0.524   2.197  16.349  0.5021  1.4634  1.2218
 5421SOL    HW227723   0.609   2.076  16.371 -0.1896  0.6461 -0.2259
 5422SOL     OW27724   2.785   2.346   6.741  0.7347 -0.1550  0.5976
 5422SOL    HW127725   2.821   2.270   6.694  1.4182 -0.7764  2.1047
 5422SOL    HW227726   2.798   2.333   6.835 -0.5168  0.8382  0.9127
 5423SOL     OW27727   1.961   0.723   3.561 -0.0728 -0.1009 -0.1090
 5423SOL    HW127728   1.888   0.725   3.622  0.0294  0.2128  0.0043
 5423SOL    HW227729   1.940   0.637   3.525  0.5994  0.1479 -1.1115
 5424SOL     OW27730   2.693   3.333   3.645  0.2244  0.0458 -0.1068
 5424SOL    HW127731   2.669   3.424   3.629 -3.2552 -1.1160 -1.5333
 5424SOL    HW227732   2.668   3.335   3.737 -0.1964  0.3716 -0.2307
 5425SOL     OW27733   1.923   0.501  13.893  0.5392 -1.0535  0.1513
 5425SOL    HW127734   1.830   0.489  13.873  0.5419 -2.3699  0.8692
 5425SOL    HW227735   1.936   0.571  13.829 -1.0058 -0.8224  0.0946
 5426SOL     OW27736   4.103   0.769   7.810  0.4972 -0.1325 -0.5326
 5426SOL    HW127737   4.136   0.723   7.886  3.7094  0.3673 -1.6066
 5426SOL    HW227738   4.185   0.798   7.769  0.4117 -0.8037 -1.1599
 5427SOL     OW27739   3.617   0.335   8.371  0.2032 -0.1418 -0.1658
 5427SOL    HW127740   3.657   0.353   8.456 -0.5900  2.3869 -0.3182
 5427SOL    HW227741   3.642   0.416   8.326 -0.3485  0.3042  0.3407
 5428SOL     OW27742   1.595   3.587   0.217 -0.3612 -0.3967  0.3350
 5428SOL    HW127743   1.523   3.594   0.153 -0.3806  2.4281  0.6644
 5428SOL    HW227744   1.675   3.618   0.175  1.4782 -1.3516  3.1642
 5429SOL     OW27745   2.273   1.896   2.348 -0.8288  0.1229 -0.5854
 5429SOL    HW127746   2.198   1.841   2.326 -0.4178 -0.4504 -0.5482
 5429SOL    HW227747   2.347   1.841   2.323 -0.4221  0.6238 -0.4692
 5430SOL     OW27748   1.084   4.409   2.443  0.3997  0.0849  0.4396
 5430SOL    HW127749   1.015   4.453   2.394 -1.1429 -2.0215  0.7231
 5430SOL    HW227750   1.087   4.324   2.399  0.4131  0.1865  0.2444
 5431SOL     OW27751   4.238   2.703  15.799 -0.0847 -0.7930 -0.2228
 5431SOL    HW127752   4.254   2.623  15.848 -0.2756  0.0239  1.1801
 5431SOL    HW227753   4.250   2.772  15.864 -2.2302 -0.5782 -0.0327
 5432SOL     OW27754   4.076   2.185   6.562 -0.0213 -0.1278 -0.2034
 5432SOL    HW127755   4.090   2.200   6.655 -2.3262  1.1528 -0.0370
 5432SOL    HW227756   4.138   2.255   6.539 -0.5235  0.6973  0.9671
 5433SOL     OW27757   1.129   2.136   6.465  0.3598  0.0027 -0.3789
 5433SOL    HW127758   1.211   2.091   6.445  0.5211  0.5919 -1.0356
 5433SOL    HW227759   1.130   2.206   6.400  1.7716  1.0983  0.8221
 5434SOL     OW27760   4.039   3.228  15.970  0.2023 -0.3416  0.0746
 5434SOL    HW127761   4.012   3.254  15.882  2.7910  1.2063 -0.2763
 5434SOL    HW227762   4.070   3.314  15.999 -1.3865 -0.2180  1.3869
 5435SOL     OW27763   4.284   0.579   5.037  0.1983 -0.0097  0.0793
 5435SOL    HW127764   4.241   0.649   4.987  0.4772 -0.0221 -0.1762
 5435SOL    HW227765   4.235   0.610   5.114 -1.0413  0.9157 -1.0860
 5436SOL     OW27766   1.305   1.139   0.304 -0.4934  0.1778  0.3776
 5436SOL    HW127767   1.364   1.161   0.231  0.3588 -3.0761  0.0562
 5436SOL    HW227768   1.232   1.117   0.246  1.2067 -0.8795 -1.3743
 5437SOL     OW27769   2.124   2.983   4.548  0.4472  0.7721 -0.1874
 5437SOL    HW127770   2.162   3.069   4.530 -2.0476  2.1068  0.9000
 5437SOL    HW227771   2.077   2.971   4.465 -0.0228 -0.8614  0.3102
 5438SOL     OW27772   4.509   1.933   5.158 -0.6527  0.2368  0.3428
 5438SOL    HW127773   4.546   1.845   5.159 -2.5248 -0.5612  0.2697
 5438SOL    HW227774   4.479   1.925   5.068  2.6917  1.8926 -0.8945
 5439SOL     OW27775   4.414   2.485   5.278  0.1541  0.0846 -0.4206
 5439SOL    HW127776   4.475   2.433   5.329  0.2182  1.5765  1.0075
 5439SOL    HW227777   4.456   2.571   5.271 -1.5428  0.8355 -1.5765
 5440SOL     OW27778   2.517   4.407   8.494  0.5583  0.4708  0.1388
 5440SOL    HW127779   2.458   4.337   8.466  0.3885  1.1358 -1.1627
 5440SOL    HW227780   2.459   4.469   8.540 -2.7505 -2.0631 -0.6136
 5441SOL     OW27781   3.406   4.688  11.017  0.0506 -0.3014  0.7887
 5441SOL    HW127782   3.484   4.653  11.059  0.1024  2.9532  3.3868
 5441SOL    HW227783   3.351   4.696  11.095  1.5954 -0.7928  1.9283
 5442SOL     OW27784   2.595   4.232   7.129 -0.1253 -0.0282  0.4380
 5442SOL    HW127785   2.685   4.201   7.126  0.1408  0.6036  1.5966
 5442SOL    HW227786   2.614   4.326   7.124 -2.6311  0.4022 -1.0677
 5443SOL     OW27787   4.509   0.261   0.212  0.6227 -0.3987  0.5425
 5443SOL    HW127788   4.523   0.246   0.119 -1.0788 -0.8691  0.3690
 5443SOL    HW227789   4.596   0.286   0.242  0.7151 -1.1355  0.8896
 5444SOL     OW27790   1.344   0.986  11.824  0.4071  0.3640  0.1414
 5444SOL    HW127791   1.310   0.899  11.842 -1.1786  0.1856 -3.6365
 5444SOL    HW227792   1.375   1.012  11.911  0.3698  3.6206 -0.8041
 5445SOL     OW27793   0.733   2.667   7.083  0.0205  0.0640  0.1652
 5445SOL    HW127794   0.677   2.606   7.132  0.9101 -1.6867 -1.0062
 5445SOL    HW227795   0.730   2.625   6.997  0.6670 -0.7662  0.5521
 5446SOL     OW27796   0.112   1.589   8.981  0.1274  0.0153  0.1243
 5446SOL    HW127797   0.136   1.501   9.009  0.2105 -0.5084 -1.5643
 5446SOL    HW227798   0.122   1.641   9.061 -0.9516 -1.1043  0.9707
 5447SOL     OW27799   3.452   3.491   9.469  0.1085  0.4639 -0.3232
 5447SOL    HW127800   3.394   3.460   9.539 -1.9281  2.5342 -1.0596
 5447SOL    HW227801   3.481   3.408   9.432 -1.8758 -0.1445 -0.5089
 5448SOL     OW27802   1.897   3.142   1.722  0.4988 -0.9335 -1.0272
 5448SOL    HW127803   1.840   3.083   1.671 -1.6428 -0.8487  1.2688
 5448SOL    HW227804   1.835   3.160   1.793  2.8491  0.2225  0.7114
 5449SOL     OW27805   4.669   2.834   9.587  0.2100  0.0182  0.2887
 5449SOL    HW127806   4.576   2.848   9.608 -0.0550  1.3509 -1.8002
 5449SOL    HW227807   4.717   2.908   9.623  0.8340 -0.0409 -0.4360
 5450SOL     OW27808   0.231   1.849   3.945  0.2467  0.3766  0.0726
 5450SOL    HW127809   0.285   1.814   4.016  0.6748  2.9137  1.0152
 5450SOL    HW227810   0.177   1.775   3.917 -0.1441  0.5638  0.3205
 5451SOL     OW27811   1.223   4.723   6.602  0.6165  0.2901  0.0004
 5451SOL    HW127812   1.135   0.017   6.634 -0.4515 -3.0997 -0.7363
 5451SOL    HW227813   1.192   4.662   6.535  0.0207  0.9438 -0.3236
 5452SOL     OW27814   2.853   2.123   3.174 -0.3372  0.2543 -0.5346
 5452SOL    HW127815   2.909   2.054   3.211 -2.5488 -1.1122  0.2588
 5452SOL    HW227816   2.767   2.114   3.216  0.5515  0.3589  1.3418
 5453SOL     OW27817   1.746   2.503  16.503  0.5486  0.4217  0.3369
 5453SOL    HW127818   1.698   2.556  16.567 -0.8379 -0.3364 -0.0746
 5453SOL    HW227819   1.829   2.550  16.495  0.4879  0.5704  0.5762
 5454SOL     OW27820   2.320   3.021   6.252  0.2792 -0.5992  0.3672
 5454SOL    HW127821   2.311   2.989   6.162 -0.9168 -0.8094  0.5541
 5454SOL    HW227822   2.233   3.012   6.290  0.4169  0.9993  1.0317
 5455SOL     OW27823   1.449   4.417   2.526  0.3596  0.0362  0.8204
 5455SOL    HW127824   1.504   4.463   2.590 -1.8426  2.3325  1.0577
 5455SOL    HW227825   1.490   4.431   2.440 -1.8861  1.9545  0.0707
 5456SOL     OW27826   2.069   4.120  16.348  0.2639  0.0287 -0.4561
 5456SOL    HW127827   2.100   4.037  16.312  3.5180  1.0697 -0.0821
 5456SOL    HW227828   2.064   4.097  16.441 -0.1912 -2.0170 -0.9858
 5457SOL     OW27829   1.448   3.262   2.646  0.2684  0.6492 -0.1988
 5457SOL    HW127830   1.409   3.288   2.563  0.9910 -1.1765 -1.0909
 5457SOL    HW227831   1.465   3.340   2.700 -0.6327  0.6148  0.1358
 5458SOL     OW27832   0.963   3.152   2.345 -0.2693 -0.1252 -0.2928
 5458SOL    HW127833   0.948   3.057   2.345 -0.3977 -0.0987 -1.4715
 5458SOL    HW227834   0.966   3.169   2.251 -1.2624  0.6039 -0.1903
 5459SOL     OW27835   0.070   0.690   0.859 -0.3260  0.0507  0.1370
 5459SOL    HW127836   4.725   0.716   0.916 -0.5337 -2.0617  0.8162
 5459SOL    HW227837   0.024   0.623   0.809  0.8756 -1.0214  0.4617
 5460SOL     OW27838   4.072   1.279  14.441 -0.2053 -0.2848  0.0915
 5460SOL    HW127839   4.034   1.354  14.394 -0.1142  0.0384  0.5264
 5460SOL    HW227840   4.048   1.289  14.533  1.2463  0.5843  0.3867
 5461SOL     OW27841   1.818   3.998  12.263  0.1730  0.0048  0.4265
 5461SOL    HW127842   1.778   3.919  12.299 -0.6092 -0.3461 -1.2512
 5461SOL    HW227843   1.790   4.064  12.328 -1.9076 -1.4128  0.9482
 5462SOL     OW27844   2.374   1.177   2.896  0.4734  0.4953  0.7201
 5462SOL    HW127845   2.328   1.260   2.886 -0.3658 -0.3092 -2.3410
 5462SOL    HW227846   2.348   1.123   2.821 -1.5009  1.3825  0.7626
 5463SOL     OW27847   2.750   0.643  11.661 -0.1614 -0.0359  0.3042
 5463SOL    HW127848   2.768   0.724  11.614  2.9496 -0.8173  0.1388
 5463SOL    HW227849   2.667   0.620  11.620 -1.0486  2.4000  0.7863
 5464SOL     OW27850   3.317   1.379  14.422 -0.2517 -0.5858 -0.4099
 5464SOL    HW127851   3.276   1.440  14.360 -0.5805  0.4653  0.8270
 5464SOL    HW227852   3.318   1.428  14.504  0.3283 -0.5666 -0.4282
 5465SOL     OW27853   3.474   4.654   6.404  0.5354 -0.5273  0.1319
 5465SOL    HW127854   3.472   4.703   6.322 -1.8060 -0.7915  0.0236
 5465SOL    HW227855   3.441   4.570   6.373 -0.1826 -0.6218  1.1439
 5466SOL     OW27856   4.561   3.793   0.354  0.1372  0.2952  0.0871
 5466SOL    HW127857   4.599   3.714   0.317 -0.6123  0.3864 -0.8691
 5466SOL    HW227858   4.636   3.817   0.409  1.1598  0.4091 -1.3719
 5467SOL     OW27859   0.064   4.269  13.811 -0.6009 -0.2636 -0.5284
 5467SOL    HW127860   0.069   4.175  13.822  0.1650 -0.4301 -2.2591
 5467SOL    HW227861   0.078   4.278  13.905 -0.6608 -0.5235 -0.4955
 5468SOL     OW27862   2.888   3.685   2.239 -0.9407  0.0023 -0.6012
 5468SOL    HW127863   2.829   3.729   2.178 -1.3970  0.1801 -0.0296
 5468SOL    HW227864   2.876   3.591   2.228  0.2703 -0.2289  0.0517
 5469SOL     OW27865   2.036   4.610   1.078 -0.5392 -0.1242 -0.8281
 5469SOL    HW127866   2.093   4.665   1.026 -0.4343  0.3239 -0.2427
 5469SOL    HW227867   1.956   4.609   1.025  0.3006 -1.0827 -2.0574
 5470SOL     OW27868   0.617   3.654   5.314 -0.0933 -0.1700 -0.0123
 5470SOL    HW127869   0.682   3.646   5.245 -1.4878 -2.7036 -1.0535
 5470SOL    HW227870   0.564   3.574   5.307  0.2454 -0.3793 -0.1888
 5471SOL     OW27871   2.950   3.731   7.116 -0.2293  0.5855 -0.4852
 5471SOL    HW127872   2.910   3.644   7.112  1.2871 -0.2908  3.1395
 5471SOL    HW227873   3.039   3.707   7.089 -0.0958 -0.1719  0.6419
 5472SOL     OW27874   3.830   1.036   5.370  0.0181 -0.0019  0.3254
 5472SOL    HW127875   3.755   0.998   5.324 -1.2995  1.6853  1.0941
 5472SOL    HW227876   3.821   1.009   5.462  2.3154 -1.3374  0.1562
 5473SOL     OW27877   2.357   3.101   3.540  0.1725 -0.5014  0.1800
 5473SOL    HW127878   2.307   3.091   3.621 -1.1289 -0.0229 -0.5740
 5473SOL    HW227879   2.419   3.029   3.553  1.1361  0.1961 -0.4929
 5474SOL     OW27880   3.686   1.331   7.939  0.0734 -1.0588  0.1731
 5474SOL    HW127881   3.721   1.348   7.852  0.5003  2.6973  1.0820
 5474SOL    HW227882   3.610   1.389   7.939  1.5880  0.9201 -0.6395
 5475SOL     OW27883   1.425   3.466   7.479 -0.3733 -0.5503  0.3113
 5475SOL    HW127884   1.398   3.375   7.479  0.6508 -0.8625 -1.1703
 5475SOL    HW227885   1.362   3.486   7.548  1.0086  1.5100  1.0012
 5476SOL     OW27886   4.430   4.102   2.100 -0.6571  0.4633 -0.5734
 5476SOL    HW127887   4.394   4.190   2.085 -2.6249 -0.3890 -0.8940
 5476SOL    HW227888   4.355   4.045   2.116  0.8333 -1.5889 -1.0175
 5477SOL     OW27889   2.651   2.173   5.417  0.3090  0.0505  0.3436
 5477SOL    HW127890   2.702   2.152   5.495 -2.1266 -1.1803  1.5990
 5477SOL    HW227891   2.564   2.154   5.451 -0.2301 -0.6485 -1.3993
 5478SOL     OW27892   1.354   3.168   9.584 -0.2971 -0.1813 -0.7939
 5478SOL    HW127893   1.309   3.123   9.513  1.6093 -1.6235 -1.0943
 5478SOL    HW227894   1.445   3.141   9.570  0.0066  0.4145  0.0207
 5479SOL     OW27895   3.473   4.720   0.857  0.0887 -0.5610  0.5887
 5479SOL    HW127896   3.464   0.085   0.885 -1.5646  0.2565 -2.5657
 5479SOL    HW227897   3.554   0.005   0.808  0.2969  0.6437  1.1993
 5480SOL     OW27898   0.120   3.390  13.391  0.5247 -0.5074  0.1900
 5480SOL    HW127899   0.188   3.328  13.366  0.0996 -1.5530  1.6156
 5480SOL    HW227900   0.048   3.341  13.432 -1.4301  2.7084  0.6321
 5481SOL     OW27901   4.176   4.675   1.805  0.5830 -0.4097 -0.1955
 5481SOL    HW127902   4.210   4.601   1.854  0.6220 -0.6891 -0.6422
 5481SOL    HW227903   4.116   4.713   1.870 -0.1095 -1.4673 -0.2194
 5482SOL     OW27904   2.426   2.539   3.089 -0.0043  0.1983 -0.5731
 5482SOL    HW127905   2.509   2.494   3.108  0.6277  1.1607 -1.0529
 5482SOL    HW227906   2.448   2.610   3.029  2.3548 -0.6546 -0.7158
 5483SOL     OW27907   4.724   0.565   4.875 -0.0882 -0.4331 -0.6164
 5483SOL    HW127908   4.678   0.581   4.957 -2.4263 -2.6389 -1.4990
 5483SOL    HW227909   4.712   0.472   4.857  0.3061 -0.2552 -1.8541
 5484SOL     OW27910   1.306   0.525   4.087  0.2920 -0.4984 -0.1434
 5484SOL    HW127911   1.348   0.439   4.094  1.7323 -0.0135 -2.8052
 5484SOL    HW227912   1.379   0.574   4.126  1.0089 -1.2717 -0.4997
 5485SOL     OW27913   3.450   3.018   8.073  0.0359  0.3562  0.1763
 5485SOL    HW127914   3.416   3.047   7.988  0.1348 -4.6512 -1.5998
 5485SOL    HW227915   3.413   2.930   8.083  2.3068 -0.6937 -0.5623
 5486SOL     OW27916   0.281   4.701  11.918  0.1302  0.3312  0.1023
 5486SOL    HW127917   0.326   0.055  11.893 -0.0311 -0.1657 -1.7311
 5486SOL    HW227918   0.250   4.717  12.008 -1.0133  0.7897 -0.3763
 5487SOL     OW27919   1.119   4.244  11.830 -0.1958 -0.3461 -0.3634
 5487SOL    HW127920   1.086   4.154  11.827 -1.2221  0.0109  0.1497
 5487SOL    HW227921   1.192   4.238  11.890 -0.5487  1.9504  0.3050
 5488SOL     OW27922   3.885   0.944  11.638 -0.4818 -0.1602 -0.2745
 5488SOL    HW127923   3.819   1.010  11.617  0.1297  0.5705  0.0784
 5488SOL    HW227924   3.966   0.994  11.638 -0.1621 -0.6652  1.3560
 5489SOL     OW27925   0.894   4.318   2.926  0.0004  0.0447  0.0125
 5489SOL    HW127926   0.987   4.334   2.912  0.1388 -0.6039  0.1949
 5489SOL    HW227927   0.868   4.285   2.841  1.4193 -0.4454 -0.2245
 5490SOL     OW27928   2.066   2.642   5.204 -0.1543  0.0373 -0.2215
 5490SOL    HW127929   2.089   2.694   5.127  1.2338  1.6688  1.2916
 5490SOL    HW227930   2.115   2.562   5.190  0.0906 -0.0548  1.0834
 5491SOL     OW27931   3.515   2.695   4.388 -0.2135  0.0764  0.0968
 5491SOL    HW127932   3.431   2.720   4.428 -1.4069 -1.4025 -1.4923
 5491SOL    HW227933   3.509   2.759   4.317  1.5800  0.0816 -0.0381
 5492SOL     OW27934   0.835   3.746   7.006  0.0258 -0.7486  0.0195
 5492SOL    HW127935   0.760   3.686   7.003 -0.0835 -0.4827 -2.6722
 5492SOL    HW227936   0.828   3.780   7.095 -1.1570  2.9970 -1.4998
 5493SOL     OW27937   0.458   4.047   3.307  0.3886 -0.4428  0.2697
 5493SOL    HW127938   0.456   3.951   3.303  1.6385 -0.5249  1.4500
 5493SOL    HW227939   0.542   4.073   3.344 -0.1310 -1.0000  1.8407
 5494SOL     OW27940   3.883   4.143   7.286 -0.6691  0.2578  0.4069
 5494SOL    HW127941   3.926   4.160   7.369 -0.9417  2.6569  0.0483
 5494SOL    HW227942   3.923   4.208   7.228 -0.2837 -1.2216 -0.9994
 5495SOL     OW27943   1.817   3.360   2.793 -0.0242 -0.5367 -0.4445
 5495SOL    HW127944   1.847   3.271   2.774  1.5369 -0.1215  0.0699
 5495SOL    HW227945   1.820   3.370   2.888  0.3239  0.8116 -0.6048
 5496SOL     OW27946   4.113   3.383   2.706  0.1631 -0.1393  0.1413
 5496SOL    HW127947   4.106   3.288   2.694  0.3741 -0.1866  0.3945
 5496SOL    HW227948   4.022   3.408   2.721  0.2099  1.2326 -1.8871
 5497SOL     OW27949   2.838   1.223  14.810  0.1542  0.4581 -0.4453
 5497SOL    HW127950   2.859   1.131  14.822  2.2866  0.7773 -1.5834
 5497SOL    HW227951   2.760   1.244  14.861 -0.7563 -1.0020 -1.2691
 5498SOL     OW27952   3.946   3.572   7.409 -0.3149  0.0736 -0.1042
 5498SOL    HW127953   3.864   3.522   7.406 -0.5016  0.3525  0.3111
 5498SOL    HW227954   3.997   3.510   7.460 -1.0136  0.6309  1.2751
 5499SOL     OW27955   2.780   2.791  13.237  0.2571 -0.2262  0.2577
 5499SOL    HW127956   2.711   2.807  13.173 -0.2609  1.4881  1.2429
 5499SOL    HW227957   2.861   2.790  13.186  1.1866  1.7988  1.6606
 5500SOL     OW27958   2.850   3.659   8.239 -0.3136  0.1563  0.1262
 5500SOL    HW127959   2.843   3.576   8.192 -0.8815  0.7771 -0.8975
 5500SOL    HW227960   2.885   3.713   8.168 -0.2626  0.2125  0.1927
 5501SOL     OW27961   0.006   1.291   0.005 -0.1895  0.1173 -0.2121
 5501SOL    HW127962   4.684   1.359  17.666 -0.6533 -0.4773 -0.6213
 5501SOL    HW227963   0.063   1.268  17.638 -1.5949 -1.1212 -0.9142
 5502SOL     OW27964   3.322   1.573  14.611 -0.0011  0.9315 -0.6618
 5502SOL    HW127965   3.267   1.651  14.617  1.4983  1.9669 -0.5504
 5502SOL    HW227966   3.334   1.553  14.704 -0.4294  0.6735 -0.6616
 5503SOL     OW27967   4.082   4.684   0.611  0.3254 -0.0953  0.1200
 5503SOL    HW127968   4.047   4.606   0.570 -3.0691  0.5436  1.8137
 5503SOL    HW227969   4.005   0.014   0.619 -0.8511 -1.6859 -0.2759
 5504SOL     OW27970   2.183   4.430   2.132 -0.0849  0.0219  0.5980
 5504SOL    HW127971   2.181   4.443   2.037  0.7220 -1.0531  0.4297
 5504SOL    HW227972   2.243   4.502   2.150 -0.4438  0.2209  0.9783
 5505SOL     OW27973   2.826   1.619   0.152  0.4734 -0.8614  0.5907
 5505SOL    HW127974   2.894   1.665   0.103 -0.8084 -1.0597 -1.4196
 5505SOL    HW227975   2.872   1.583   0.227  2.6618 -1.1142 -0.8695
 5506SOL     OW27976   1.604   0.065  14.444 -0.0711  0.7216  0.1830
 5506SOL    HW127977   1.562   0.050  14.529 -1.0253  1.5391 -0.1390
 5506SOL    HW227978   1.672   0.130  14.457  0.7988 -0.2260  0.3802
 5507SOL     OW27979   0.392   0.162   7.276  0.2597  0.3114  0.4433
 5507SOL    HW127980   0.463   0.101   7.293 -0.2038 -0.0721  1.0129
 5507SOL    HW227981   0.326   0.094   7.289 -1.5328  2.1072  0.7158
 5508SOL     OW27982   4.264   0.804   2.179 -0.4064  0.3808  0.7148
 5508SOL    HW127983   4.341   0.748   2.170 -1.1700 -0.2808 -1.5517
 5508SOL    HW227984   4.219   0.743   2.238  0.3875  1.0595  2.0376
 5509SOL     OW27985   4.152   1.010   0.586  0.9731 -0.1299  0.3853
 5509SOL    HW127986   4.244   0.999   0.562  1.4345  2.6890  0.8555
 5509SOL    HW227987   4.149   0.961   0.668 -0.6193 -1.2694 -0.3579
 5510SOL     OW27988   2.783   1.013   5.102  0.3168 -0.0274 -0.5225
 5510SOL    HW127989   2.757   0.929   5.065  1.3854 -0.6869  0.2258
 5510SOL    HW227990   2.699   1.025   5.145 -0.3641 -1.2566 -1.5090
 5511SOL     OW27991   1.913   4.541   0.251  0.2229 -0.7572  0.1062
 5511SOL    HW127992   1.849   4.602   0.288  0.0450  0.8678 -2.8414
 5511SOL    HW227993   1.883   4.536   0.160 -0.1581  1.3886  0.1017
 5512SOL     OW27994   1.199   0.855   8.892 -0.4364  0.2247 -0.3239
 5512SOL    HW127995   1.156   0.914   8.830  0.6286  0.8733 -0.4411
 5512SOL    HW227996   1.255   0.913   8.944 -0.4022  1.1755 -1.3956
 5513SOL     OW27997   4.652   1.668   3.600  0.1850  0.0129 -0.0752
 5513SOL    HW127998   4.558   1.682   3.591  0.3770  1.2524 -0.1846
 5513SOL    HW227999   4.679   1.614   3.526 -0.6419 -2.3733  1.3305
 5514SOL     OW28000   2.421   4.346   0.350 -0.3640  0.2373 -0.0896
 5514SOL    HW128001   2.353   4.331   0.416 -0.2869  1.7634  0.3477
 5514SOL    HW228002   2.501   4.317   0.393 -0.9849 -0.7051  0.4222
 5515SOL     OW28003   0.705   3.243   5.292  0.3614 -0.0175  0.0450
 5515SOL    HW128004   0.760   3.239   5.370 -1.4306 -0.9474  1.2414
 5515SOL    HW228005   0.732   3.334   5.276 -0.6303  0.1373 -0.7873
 5516SOL     OW28006   1.026   4.083   4.593  0.1633 -0.1877  0.2539
 5516SOL    HW128007   1.026   3.999   4.639  0.2309  0.3182  1.1707
 5516SOL    HW228008   1.074   4.136   4.656 -1.4883  0.4824  0.9549
 5517SOL     OW28009   2.426   4.264   5.037 -0.0109  0.6774  0.3051
 5517SOL    HW128010   2.432   4.309   5.122 -0.0489  1.5342 -0.1469
 5517SOL    HW228011   2.390   4.335   4.984 -0.9831 -1.2586 -1.5948
 5518SOL     OW28012   1.866   2.126   8.663 -0.8510  0.3361 -0.1281
 5518SOL    HW128013   1.873   2.199   8.601  0.1438 -0.1036 -0.5234
 5518SOL    HW228014   1.889   2.169   8.746  0.6490 -0.8010  0.0464
 5519SOL     OW28015   3.097   1.451  16.858 -0.1698 -0.1532 -0.1793
 5519SOL    HW128016   3.117   1.357  16.857 -0.0464 -0.1236 -0.4206
 5519SOL    HW228017   3.026   1.440  16.922 -0.4205  1.3769 -0.2044
 5520SOL     OW28018   1.614   2.317   2.599 -0.1812 -0.0800 -0.2200
 5520SOL    HW128019   1.594   2.308   2.506  0.7762 -1.9831 -0.2327
 5520SOL    HW228020   1.606   2.229   2.635 -1.0355  0.2974  0.5178
 5521SOL     OW28021   0.125   0.539   6.885 -0.6923 -0.1859  0.1586
 5521SOL    HW128022   0.110   0.449   6.916 -0.8049  0.1262  1.0203
 5521SOL    HW228023   0.194   0.524   6.821 -0.9816 -0.5928 -0.0599
 5522SOL     OW28024   2.103   2.464   8.564 -0.5278 -0.1224 -0.0235
 5522SOL    HW128025   2.173   2.472   8.499  0.0317  2.0277  0.8487
 5522SOL    HW228026   2.113   2.374   8.594  0.2446 -0.6755 -1.9448
 5523SOL     OW28027   1.625   0.452  12.022  0.5780 -0.1630 -0.1576
 5523SOL    HW128028   1.548   0.507  12.010  0.8461 -0.2506 -2.3931
 5523SOL    HW228029   1.697   0.515  12.013  0.9386 -0.8292 -1.9756
 5524SOL     OW28030   4.163   2.138   9.750  0.4049 -0.2084 -0.1710
 5524SOL    HW128031   4.251   2.113   9.777 -0.7740 -3.7058  0.2988
 5524SOL    HW228032   4.116   2.100   9.823 -1.3181  0.5343 -0.8908
 5525SOL     OW28033   1.910   4.691   3.155  0.2169  0.7133  0.0650
 5525SOL    HW128034   1.988   0.020   3.154 -1.5359  3.1639 -0.6314
 5525SOL    HW228035   1.955   4.628   3.211  1.2742  0.9747 -0.4977
 5526SOL     OW28036   3.925   0.324   4.825 -0.1841 -0.0890 -0.5170
 5526SOL    HW128037   3.906   0.403   4.876 -0.3210 -1.4491  1.5257
 5526SOL    HW228038   4.019   0.311   4.841 -0.6554 -1.4459  1.1058
 5527SOL     OW28039   2.707   1.271   7.584  0.0912  0.7335  0.0797
 5527SOL    HW128040   2.643   1.288   7.515  0.4350 -1.1216 -0.7000
 5527SOL    HW228041   2.670   1.307   7.665  0.5785  0.6096  0.3571
 5528SOL     OW28042   1.013   4.686   8.740  0.7372  0.2401  0.6596
 5528SOL    HW128043   1.089   4.631   8.722 -1.6441 -3.0485  0.6238
 5528SOL    HW228044   1.044   0.048   8.722  2.8838 -0.6296  0.1381
 5529SOL     OW28045   0.545   3.781   6.430  0.5303  0.6539  0.0383
 5529SOL    HW128046   0.564   3.747   6.343 -0.5785 -0.4309  0.2243
 5529SOL    HW228047   0.609   3.737   6.485 -1.7216 -3.3470 -0.5015
 5530SOL     OW28048   4.411   3.935   5.520 -0.2212 -0.3106  0.6397
 5530SOL    HW128049   4.376   3.990   5.590 -0.1698  1.3581 -0.6675
 5530SOL    HW228050   4.465   4.001   5.476  0.7156 -0.6853  1.2171
 5531SOL     OW28051   1.322   2.639   5.176 -0.4884  0.1722  0.3506
 5531SOL    HW128052   1.261   2.612   5.245 -1.0721 -1.9755 -0.9960
 5531SOL    HW228053   1.271   2.697   5.120 -0.1851 -0.8237 -0.9499
 5532SOL     OW28054   2.573   3.022   3.069  0.4246  0.1312 -0.9739
 5532SOL    HW128055   2.514   2.982   3.133 -0.6303  2.5799 -0.4227
 5532SOL    HW228056   2.628   3.059   3.138  0.0227 -1.2542  0.1026
 5533SOL     OW28057   3.854   1.135   3.027 -0.5203 -0.1253 -0.3474
 5533SOL    HW128058   3.797   1.090   2.964 -0.6319 -0.5438  0.0507
 5533SOL    HW228059   3.937   1.093   3.003  0.4020  0.4937  1.8258
 5534SOL     OW28060   1.355   2.973   9.039 -0.3760  0.2047  0.1113
 5534SOL    HW128061   1.381   3.032   9.110  0.7014  1.1432 -1.0624
 5534SOL    HW228062   1.437   2.935   9.008 -0.5824  1.3030 -1.8068
 5535SOL     OW28063   1.446   3.366  16.478  0.2648  0.0759  0.5730
 5535SOL    HW128064   1.478   3.449  16.513  0.4066  0.8174 -1.3054
 5535SOL    HW228065   1.377   3.334  16.537  0.9738  0.8867  1.8191
 5536SOL     OW28066   4.565   3.456   6.577 -0.7150  0.2932 -0.0178
 5536SOL    HW128067   4.596   3.442   6.667  0.2261  0.3472 -0.3405
 5536SOL    HW228068   4.469   3.455   6.584 -0.7267 -0.9099 -0.3257
 5537SOL     OW28069   2.145   2.492  11.742  0.1888  0.5611 -0.3947
 5537SOL    HW128070   2.230   2.520  11.709  0.6274 -0.2133  0.0764
 5537SOL    HW228071   2.141   2.401  11.711 -1.5330  1.0750 -1.6801
 5538SOL     OW28072   3.850   0.099   5.568  0.2100 -0.6212  0.4995
 5538SOL    HW128073   3.837   0.087   5.662 -2.0235 -1.4580  0.0777
 5538SOL    HW228074   3.941   0.070   5.556  0.3649  0.0923 -0.0552
 5539SOL     OW28075   1.854   2.716  12.568  0.2948  0.6420 -0.3215
 5539SOL    HW128076   1.865   2.811  12.568  0.2770  0.6427 -0.9083
 5539SOL    HW228077   1.935   2.675  12.540 -0.1356 -0.0516 -0.5374
 5540SOL     OW28078   1.189   2.181  13.471  0.7032 -0.1657  0.3266
 5540SOL    HW128079   1.106   2.141  13.500  1.4724 -1.2488  1.0385
 5540SOL    HW228080   1.154   2.230  13.397  1.3830 -1.3082 -0.7397
 5541SOL     OW28081   1.011   0.492   6.591  0.2798 -0.4989  0.0654
 5541SOL    HW128082   1.107   0.490   6.586  0.2917  0.4276 -0.2353
 5541SOL    HW228083   0.988   0.402   6.567 -0.0458 -0.4018  0.0134
 5542SOL     OW28084   0.180   2.959  14.705  0.3048 -0.1179  0.4745
 5542SOL    HW128085   0.144   2.983  14.791  1.0883  1.1121  0.4472
 5542SOL    HW228086   0.239   3.033  14.691  0.4767 -0.4107 -0.3289
 5543SOL     OW28087   1.912   3.394   3.091  0.2163 -0.0006 -0.4837
 5543SOL    HW128088   1.965   3.337   3.147 -0.6231  1.4499  1.7560
 5543SOL    HW228089   1.975   3.412   3.021 -0.0183 -0.1139 -0.7228
 5544SOL     OW28090   3.890   2.579   9.726  0.9111  0.5334 -0.1262
 5544SOL    HW128091   3.858   2.599   9.639  1.8355 -1.4914 -0.9384
 5544SOL    HW228092   3.808   2.591   9.774 -1.0053 -1.2555 -2.9729
 5545SOL     OW28093   1.151   2.489   2.537 -0.0803 -0.1821 -0.6751
 5545SOL    HW128094   1.105   2.470   2.455  0.0133  0.3796 -0.8514
 5545SOL    HW228095   1.241   2.506   2.508  1.4703 -4.2108  1.8274
 5546SOL     OW28096   1.525   0.654   2.619 -0.3843  0.4125  1.0055
 5546SOL    HW128097   1.576   0.634   2.540 -0.8298  1.0363  0.5569
 5546SOL    HW228098   1.455   0.705   2.578  0.2677  0.5169 -0.0072
 5547SOL     OW28099   3.732   3.824   5.546  0.2169  0.3793  0.5683
 5547SOL    HW128100   3.644   3.844   5.515 -0.0935 -0.4565  0.8940
 5547SOL    HW228101   3.702   3.761   5.612  3.2688 -2.2146 -0.5318
 5548SOL     OW28102   1.143   0.910  12.128 -0.2101 -0.0102  0.0708
 5548SOL    HW128103   1.177   0.917  12.217 -0.8572 -0.4339  0.3470
 5548SOL    HW228104   1.213   0.863  12.082 -0.3101 -0.4850  0.4047
 5549SOL     OW28105   1.310   1.126   5.668 -0.2846  0.1930  0.3218
 5549SOL    HW128106   1.305   1.033   5.690  0.8011  0.3265  1.1381
 5549SOL    HW228107   1.224   1.156   5.696  0.2315  0.6697  1.3909
 5550SOL     OW28108   3.440   1.423   4.884 -0.0995  0.0255  0.3967
 5550SOL    HW128109   3.453   1.398   4.975 -0.0126 -1.9168 -0.1496
 5550SOL    HW228110   3.369   1.360   4.872 -0.8413  0.9268  0.0452
 5551SOL     OW28111   3.937   2.475   6.681  0.1168 -0.1941  0.0256
 5551SOL    HW128112   3.901   2.526   6.609 -1.9919 -3.3750 -1.1906
 5551SOL    HW228113   3.890   2.394   6.660  1.1043 -0.8219  0.2188
 5552SOL     OW28114   1.209   2.594   3.426  0.1350 -0.1634  0.2902
 5552SOL    HW128115   1.225   2.670   3.370  1.1262 -0.5692  0.0108
 5552SOL    HW228116   1.115   2.600   3.443  0.6837  1.6931  2.7896
 5553SOL     OW28117   1.255   1.502   4.843 -0.3296 -0.7907  0.6154
 5553SOL    HW128118   1.248   1.408   4.823 -0.4621 -0.6363 -0.0369
 5553SOL    HW228119   1.333   1.527   4.794 -0.5313  1.4259  1.4591
 5554SOL     OW28120   3.049   1.397   6.568 -0.1032  0.5711  0.5378
 5554SOL    HW128121   3.067   1.452   6.492 -0.6349  0.5519  0.3976
 5554SOL    HW228122   3.128   1.344   6.563 -0.9385 -0.4924 -1.0944
 5555SOL     OW28123   2.567   0.656   9.062 -0.2204 -0.5256  0.0089
 5555SOL    HW128124   2.504   0.713   9.107  0.0807 -0.2252  0.0499
 5555SOL    HW228125   2.517   0.579   9.038 -0.6673 -0.3618  0.4023
 5556SOL     OW28126   2.289   1.972   2.961 -0.0441 -0.8497 -0.3771
 5556SOL    HW128127   2.275   2.066   2.950 -0.0768 -0.6365  1.5485
 5556SOL    HW228128   2.308   1.951   2.869  1.6882  0.3920 -0.2996
 5557SOL     OW28129   2.802   4.157  12.616  0.5734  0.1591  0.4816
 5557SOL    HW128130   2.770   4.109  12.540  2.7312  0.9494 -0.9377
 5557SOL    HW228131   2.820   4.086  12.678  0.6535  0.5567  0.9199
 5558SOL     OW28132   4.014   0.131  17.220 -0.0430 -0.2072  0.1486
 5558SOL    HW128133   4.065   0.054  17.244  0.7877  1.3815  3.5237
 5558SOL    HW228134   4.076   0.204  17.212 -0.1511 -0.2556 -1.1969
 5559SOL     OW28135   0.992   0.796   6.796  0.1945 -0.5301 -0.6405
 5559SOL    HW128136   1.035   0.714   6.817 -0.5613 -0.5380  0.8638
 5559SOL    HW228137   1.073   0.836   6.764 -0.9591 -0.3156 -3.2624
 5560SOL     OW28138   1.131   4.404   4.333  0.1128  0.7258 -0.0280
 5560SOL    HW128139   1.133   4.317   4.294 -1.6542  0.5966  0.1629
 5560SOL    HW228140   1.088   4.463   4.271  0.5697 -0.6333 -1.6492
 5561SOL     OW28141   2.930   2.212   4.260 -0.0425 -0.2722 -0.3797
 5561SOL    HW128142   2.868   2.163   4.314 -0.0923  0.7031  0.4488
 5561SOL    HW228143   3.010   2.213   4.313 -1.2901 -0.4155  1.5316
 5562SOL     OW28144   1.760   3.617   8.518  0.4034 -0.1628 -0.0347
 5562SOL    HW128145   1.778   3.610   8.424 -1.3190 -1.7382 -0.2590
 5562SOL    HW228146   1.722   3.704   8.514  2.1768  0.6090  0.1142
 5563SOL     OW28147   0.758   4.706   1.811 -0.2073 -0.4660 -0.0256
 5563SOL    HW128148   0.750   4.672   1.722  0.0627  1.6366 -0.8524
 5563SOL    HW228149   0.818   4.652   1.862  1.3196  0.3748 -0.9669
 5564SOL     OW28150   0.141   4.012   6.120  0.1268 -0.0264  0.7520
 5564SOL    HW128151   0.126   4.019   6.026  0.3213 -2.8452  0.5229
 5564SOL    HW228152   0.055   4.030   6.160 -1.2787  0.2282 -2.3872
 5565SOL     OW28153   2.465   0.148   4.591 -0.3093 -0.2381 -0.3983
 5565SOL    HW128154   2.532   0.166   4.525 -1.3516  1.0620 -1.0921
 5565SOL    HW228155   2.386   0.148   4.537 -0.8504 -0.4616  0.4059
 5566SOL     OW28156   1.370   3.367  15.945  0.9079 -0.2312 -0.4387
 5566SOL    HW128157   1.291   3.314  15.946  0.5289  0.3808  2.6559
 5566SOL    HW228158   1.419   3.327  15.874 -1.8992 -1.1248 -1.8677
 5567SOL     OW28159   2.268   0.884   5.206 -0.5796  0.4565  0.1027
 5567SOL    HW128160   2.174   0.867   5.207 -0.5283  0.1859  0.3302
 5567SOL    HW228161   2.271   0.958   5.267 -2.9398  0.3635  0.2972
 5568SOL     OW28162   4.497   2.240   3.531  0.4483 -0.1175  0.0210
 5568SOL    HW128163   4.462   2.173   3.590  0.0392  1.0413  1.0904
 5568SOL    HW228164   4.444   2.317   3.554  1.2336  0.7027 -0.9056
 5569SOL     OW28165   0.292   2.094   2.667 -0.1493 -0.3809 -0.3375
 5569SOL    HW128166   0.242   2.165   2.627 -1.0137 -0.9687 -0.3012
 5569SOL    HW228167   0.348   2.074   2.593  0.2178  4.1571 -1.2616
 5570SOL     OW28168   2.958   0.606   8.831 -0.3925  0.3789 -0.2515
 5570SOL    HW128169   2.926   0.644   8.913 -0.4256 -0.5931  0.1821
 5570SOL    HW228170   2.894   0.631   8.764 -0.4133  2.7659  0.6589
 5571SOL     OW28171   1.437   1.693   5.084  0.3983 -0.3200 -0.3472
 5571SOL    HW128172   1.473   1.664   4.999 -1.2929  0.2849 -1.2635
 5571SOL    HW228173   1.351   1.651   5.086  1.0052 -1.5584 -0.3532
 5572SOL     OW28174   0.383   1.436   1.753 -0.0473  0.2245 -0.4447
 5572SOL    HW128175   0.367   1.499   1.683  0.5320  1.6928  0.7447
 5572SOL    HW228176   0.336   1.360   1.719  0.6965 -0.8485  0.9353
 5573SOL     OW28177   2.017   4.112   0.287 -0.2142 -0.2750 -0.0948
 5573SOL    HW128178   1.961   4.036   0.275  0.9622 -1.4624  2.0912
 5573SOL    HW228179   1.948   4.172   0.315 -1.5638 -1.1889 -1.4695
 5574SOL     OW28180   1.696   3.961   4.485 -0.4110  0.0448  0.1625
 5574SOL    HW128181   1.763   3.941   4.551 -0.4873  0.2336  0.2932
 5574SOL    HW228182   1.744   3.958   4.402  0.1235  2.0077  0.4079
 5575SOL     OW28183   2.006   0.577   8.818  0.4870 -0.6239 -0.2073
 5575SOL    HW128184   1.975   0.528   8.894  0.5658 -2.7708 -1.5598
 5575SOL    HW228185   1.997   0.669   8.844 -0.0670 -1.0234  0.9847
 5576SOL     OW28186   4.608   1.426   0.684  0.1141  0.3560  0.0489
 5576SOL    HW128187   4.580   1.514   0.707 -2.4447  0.1305 -2.2753
 5576SOL    HW228188   4.701   1.421   0.708 -0.3318 -0.7607  1.5914
 5577SOL     OW28189   2.160   2.343  15.466 -0.4530 -0.1035  0.4047
 5577SOL    HW128190   2.070   2.325  15.493 -0.1236  0.5647  1.9439
 5577SOL    HW228191   2.147   2.411  15.400  1.3388  0.3720  0.5485
 5578SOL     OW28192   0.502   0.654   1.362 -0.3283  1.2895  0.1380
 5578SOL    HW128193   0.556   0.727   1.330 -1.3563  1.0091 -2.3022
 5578SOL    HW228194   0.569   0.586   1.366  0.4020  2.0230  0.3493
 5579SOL     OW28195   3.463   1.686   9.780  0.3215 -0.2057  0.0301
 5579SOL    HW128196   3.520   1.762   9.792 -1.6587  1.0704  1.5775
 5579SOL    HW228197   3.519   1.612   9.802  0.1372 -0.0465  1.0214
 5580SOL     OW28198   1.007   3.704   2.986  0.5815 -0.0733 -0.4227
 5580SOL    HW128199   1.020   3.613   3.010  5.4564  0.9639  0.8163
 5580SOL    HW228200   0.977   3.686   2.897  0.3254  0.2015 -0.3928
 5581SOL     OW28201   1.540   1.992   2.613  0.1510 -0.2145 -0.5133
 5581SOL    HW128202   1.458   1.951   2.584  0.9105 -2.4935  0.5588
 5581SOL    HW228203   1.606   1.946   2.561  2.1209  1.3886  0.5964
 5582SOL     OW28204   2.223   2.617   7.986 -0.2728  0.5315  0.6507
 5582SOL    HW128205   2.180   2.586   7.905 -1.2855  2.0683  0.6028
 5582SOL    HW228206   2.192   2.707   7.985  0.9914  0.9688  0.9846
 5583SOL     OW28207   0.878   3.435  12.394 -0.0114 -0.2650  0.5729
 5583SOL    HW128208   0.893   3.524  12.424  3.7600 -1.0671  1.0762
 5583SOL    HW228209   0.969   3.406  12.388 -0.4393 -1.3351 -0.9360
 5584SOL     OW28210   0.403   0.791  14.537 -0.9861  0.3809  0.1536
 5584SOL    HW128211   0.415   0.773  14.444 -0.2988 -0.0518  0.3243
 5584SOL    HW228212   0.464   0.862  14.555 -0.2638  0.6625 -3.4749
 5585SOL     OW28213   3.376   3.710   5.484  0.1457 -0.5350 -0.0042
 5585SOL    HW128214   3.283   3.719   5.462  0.4031 -0.2419 -0.9681
 5585SOL    HW228215   3.381   3.619   5.515 -0.6885 -0.3865  0.5636
 5586SOL     OW28216   2.140   3.680   5.060 -0.1464  0.2292 -0.0165
 5586SOL    HW128217   2.075   3.717   5.000  0.5804  2.5181  0.6113
 5586SOL    HW228218   2.126   3.585   5.062  1.1634  0.0706  1.4001
 5587SOL     OW28219   3.032   3.944   5.044  0.3430  0.1173  0.2135
 5587SOL    HW128220   3.069   3.925   4.958 -1.2071 -0.2308 -0.3808
 5587SOL    HW228221   3.083   4.020   5.071  2.0440 -0.8216 -0.3168
 5588SOL     OW28222   1.273   3.685   6.618  0.3451 -0.4355  0.0210
 5588SOL    HW128223   1.310   3.730   6.694 -1.0166  0.1960  0.3129
 5588SOL    HW228224   1.224   3.758   6.580 -0.2579  0.3168  2.2173
 5589SOL     OW28225   3.839   2.624   9.266 -0.1713 -0.0906  0.4889
 5589SOL    HW128226   3.863   2.540   9.306  0.0075 -0.2716  0.0106
 5589SOL    HW228227   3.881   2.687   9.323 -1.0191 -0.4479  1.5046
 5590SOL     OW28228   1.515   3.701   5.897  0.4700 -0.6677  0.3887
 5590SOL    HW128229   1.520   3.775   5.956  1.1928 -0.3578 -0.0726
 5590SOL    HW228230   1.572   3.636   5.938 -1.5293 -1.9298  1.1690
 5591SOL     OW28231   1.830   1.975   5.162  0.2368  0.2755 -0.3585
 5591SOL    HW128232   1.883   1.907   5.120  2.0431  0.4537  1.6100
 5591SOL    HW228233   1.769   1.907   5.191 -1.4416  1.0657 -2.0389
 5592SOL     OW28234   1.022   0.618   3.375 -0.7795  0.1601  0.2049
 5592SOL    HW128235   0.999   0.684   3.309 -1.0526  1.3722  1.5192
 5592SOL    HW228236   0.938   0.604   3.418  0.8292 -1.3709  2.7971
 5593SOL     OW28237   0.768   1.142   7.100 -0.4562  0.2761  0.1973
 5593SOL    HW128238   0.766   1.099   7.186  0.0943  1.5588  0.8523
 5593SOL    HW228239   0.806   1.076   7.042 -0.1293  0.8853 -0.2845
 5594SOL     OW28240   4.581   1.219   7.508 -0.3138  0.2626 -0.0191
 5594SOL    HW128241   4.544   1.303   7.533  2.3005  1.6457 -0.8580
 5594SOL    HW228242   4.674   1.226   7.529  0.0879 -1.2385 -1.2573
 5595SOL     OW28243   4.546   3.752   8.145 -0.6601 -0.2706  0.1438
 5595SOL    HW128244   4.595   3.694   8.086 -0.1815  0.2357  0.0401
 5595SOL    HW228245   4.540   3.819   8.076  0.6430  0.6417  0.9070
 5596SOL     OW28246   0.193   1.045   0.571 -0.1604  0.0348 -0.5859
 5596SOL    HW128247   0.144   1.029   0.652  1.2666 -1.0337  0.0562
 5596SOL    HW228248   0.260   0.977   0.574  2.6856  2.8739  0.0556
 5597SOL     OW28249   3.046   1.048  10.745 -0.1864 -0.3904  0.2016
 5597SOL    HW128250   3.048   0.952  10.736  0.1671 -0.1074 -2.5479
 5597SOL    HW228251   3.103   1.055  10.822 -1.6945 -0.3620  1.3203
 5598SOL     OW28252   0.257   1.576   5.317 -0.2870  0.1348 -0.2839
 5598SOL    HW128253   0.310   1.602   5.241 -0.5026 -0.6572 -0.6994
 5598SOL    HW228254   0.280   1.631   5.392  1.9025 -1.9827  0.5872
 5599SOL     OW28255   1.400   2.487   4.936  0.0558  0.3646 -0.0050
 5599SOL    HW128256   1.340   2.532   4.876 -0.3400 -0.2148 -0.0525
 5599SOL    HW228257   1.387   2.540   5.015 -0.8310 -0.0160  0.1145
 5600SOL     OW28258   3.543   0.322   2.060 -0.1940 -0.6743 -0.3250
 5600SOL    HW128259   3.462   0.311   2.110 -0.4653 -0.6154 -0.7566
 5600SOL    HW228260   3.544   0.235   2.020 -0.7017  0.1978 -2.1766
 5601SOL     OW28261   1.673   0.621   2.362  0.3927 -0.0322  0.2526
 5601SOL    HW128262   1.660   0.643   2.269  0.1835 -0.2274  0.2371
 5601SOL    HW228263   1.756   0.573   2.353  1.5279  1.7872  1.0370
 5602SOL     OW28264   2.372   0.100   5.041  0.3756 -0.1291  0.4434
 5602SOL    HW128265   2.430   0.041   5.089 -0.6592 -1.9515 -0.5428
 5602SOL    HW228266   2.426   0.160   4.990  1.6045 -0.2369  1.6149
 5603SOL     OW28267   2.535   2.929  12.991  0.4329  0.0672  0.1761
 5603SOL    HW128268   2.604   2.992  12.970 -0.2699  0.0598 -2.2243
 5603SOL    HW228269   2.458   2.984  12.999 -1.0255 -1.9995  0.1723
 5604SOL     OW28270   1.070   2.572  12.936  0.5496 -0.1263  0.3043
 5604SOL    HW128271   1.119   2.653  12.923 -0.5599  0.4831 -0.0671
 5604SOL    HW228272   1.134   2.501  12.940  1.9765  1.1088 -0.8420
 5605SOL     OW28273   4.219   4.064   7.969  0.7369 -0.2461 -0.2174
 5605SOL    HW128274   4.279   4.020   8.029  1.8510  1.4943 -0.0463
 5605SOL    HW228275   4.203   3.994   7.905 -0.2968  0.3571 -0.6072
 5606SOL     OW28276   1.914   0.422   7.026 -0.1883  0.1957 -0.0672
 5606SOL    HW128277   1.900   0.446   6.934 -1.6856 -0.4919 -0.0134
 5606SOL    HW228278   1.988   0.480   7.044  0.1611 -0.4919  0.7054
 5607SOL     OW28279   3.484   3.492   4.120  0.1035 -0.3582  0.3488
 5607SOL    HW128280   3.531   3.572   4.102  0.7904 -1.2067 -1.6074
 5607SOL    HW228281   3.560   3.437   4.136  0.4345  0.6779  2.3532
 5608SOL     OW28282   2.323   3.991  17.245  0.8558 -0.3675  0.6488
 5608SOL    HW128283   2.357   4.012  17.157  0.5991 -0.8006  0.4477
 5608SOL    HW228284   2.364   4.070  17.282  0.9325 -1.2902  2.4985
 5609SOL     OW28285   3.228   3.391   3.597  0.2682  0.4349  0.3072
 5609SOL    HW128286   3.180   3.459   3.550 -0.1803 -0.0876  0.0048
 5609SOL    HW228287   3.293   3.448   3.637 -0.4575 -0.0801  2.2334
 5610SOL     OW28288   1.160   2.986   4.325 -0.4330 -0.2598 -0.3543
 5610SOL    HW128289   1.146   3.067   4.276  2.5405  0.1752 -0.4764
 5610SOL    HW228290   1.196   2.923   4.263 -4.3004 -1.3120 -1.5283
 5611SOL     OW28291   4.468   3.816  16.817  0.8906 -0.1834 -0.1392
 5611SOL    HW128292   4.499   3.726  16.806 -3.5185 -1.6384 -0.7942
 5611SOL    HW228293   4.512   3.874  16.755  1.3082 -0.8435 -0.4640
 5612SOL     OW28294   4.038   1.241   6.857  0.3220 -0.2575  0.0194
 5612SOL    HW128295   4.099   1.169   6.870 -0.1117 -1.1164 -2.7745
 5612SOL    HW228296   4.088   1.288   6.790 -0.3966 -0.2532 -0.5103
 5613SOL     OW28297   0.911   1.563   6.438 -0.2838 -0.0452  0.1963
 5613SOL    HW128298   1.001   1.562   6.406 -0.1986  4.3944  0.3132
 5613SOL    HW228299   0.880   1.650   6.413  1.3373  0.6919  0.7538
 5614SOL     OW28300   3.389   4.137   4.827  0.4327  0.1987  0.1873
 5614SOL    HW128301   3.343   4.192   4.891 -0.4363 -0.8567  0.4821
 5614SOL    HW228302   3.435   4.071   4.879 -0.7009 -0.1701  0.7425
 5615SOL     OW28303   1.025   3.829   3.785  0.1529  0.2266  0.3208
 5615SOL    HW128304   1.109   3.867   3.760  0.7605 -1.2975  0.0700
 5615SOL    HW228305   1.006   3.776   3.707  0.1118  1.7279 -0.6939
 5616SOL     OW28306   1.221   0.001   2.725 -0.2914 -0.3025  0.0997
 5616SOL    HW128307   1.165   0.064   2.679 -1.4899 -2.2249 -1.0695
 5616SOL    HW228308   1.157   4.669   2.766  0.1286  0.0218  1.2050
 5617SOL     OW28309   4.163   2.107   2.951 -0.0221 -0.7243  0.6633
 5617SOL    HW128310   4.152   2.015   2.926 -0.5946 -0.4714 -0.0154
 5617SOL    HW228311   4.075   2.137   2.926 -0.3106 -0.9045  1.4603
 5618SOL     OW28312   1.045   2.157   3.258 -0.0252  0.2642  0.1765
 5618SOL    HW128313   0.963   2.122   3.222 -0.0883  0.8744 -0.2909
 5618SOL    HW228314   1.106   2.133   3.189  2.1466  1.0028  1.8536
 5619SOL     OW28315   0.796   1.971   6.277 -0.0786  0.3526  0.2312
 5619SOL    HW128316   0.887   1.953   6.301 -0.4510 -1.1661  0.5128
 5619SOL    HW228317   0.788   2.021   6.196  1.2999  1.8663  1.0308
 5620SOL     OW28318   1.996   2.714   9.000 -0.3134 -0.8547 -0.8183
 5620SOL    HW128319   1.996   2.810   8.999  1.2168 -0.8614 -1.2429
 5620SOL    HW228320   2.080   2.702   8.955  1.0118 -0.0985  1.4340
 5621SOL     OW28321   1.477   1.976   8.848  0.1249  0.1347 -0.3303
 5621SOL    HW128322   1.522   1.971   8.933  2.2069 -2.2022 -1.5722
 5621SOL    HW228323   1.544   2.000   8.784 -0.5110  0.7906 -0.7579
 5622SOL     OW28324   2.933   3.708  13.947 -0.2447  0.5857 -0.3448
 5622SOL    HW128325   2.853   3.741  13.906  0.3353 -0.2435 -2.1387
 5622SOL    HW228326   3.002   3.731  13.885  1.4540 -0.9421  1.0241
 5623SOL     OW28327   3.176   2.178  11.384 -0.7972  0.2381  0.1264
 5623SOL    HW128328   3.100   2.206  11.333 -0.1570  1.7878  0.0350
 5623SOL    HW228329   3.207   2.094  11.348 -1.9748 -0.3915  0.5587
 5624SOL     OW28330   0.657   0.716   7.042 -0.1916  0.5269 -0.4878
 5624SOL    HW128331   0.673   0.767   6.963  3.0079 -0.5630 -0.5353
 5624SOL    HW228332   0.678   0.787   7.104 -0.0238 -1.0805  1.3144
 5625SOL     OW28333   3.909   4.099   7.715  0.2827  0.0493 -0.6480
 5625SOL    HW128334   3.927   4.014   7.754  2.0652  0.3529 -0.8148
 5625SOL    HW228335   3.998   4.120   7.686  1.3582  0.9674  3.3312
 5626SOL     OW28336   0.298   2.786   5.515  0.4327 -0.1081 -0.3885
 5626SOL    HW128337   0.210   2.771   5.551  1.0883  0.1974  1.3355
 5626SOL    HW228338   0.293   2.736   5.433 -1.8676 -1.4007  0.5444
 5627SOL     OW28339   0.533   2.587   8.599 -0.0431 -0.0520  0.1361
 5627SOL    HW128340   0.507   2.579   8.691 -0.6572 -0.0573 -0.0334
 5627SOL    HW228341   0.568   2.500   8.581  3.2273  1.0330  1.3036
 5628SOL     OW28342   3.319   2.828   4.492 -0.5649 -0.0742  0.5054
 5628SOL    HW128343   3.295   2.900   4.551  1.9536  1.0783  0.1590
 5628SOL    HW228344   3.265   2.834   4.414 -1.8648 -2.3148  1.2507
 5629SOL     OW28345   3.535   1.563   2.084 -0.0904  0.1626 -0.5321
 5629SOL    HW128346   3.484   1.636   2.119  0.3010 -1.1724  2.8206
 5629SOL    HW228347   3.605   1.548   2.147 -0.4936 -0.9583 -0.3597
 5630SOL     OW28348   3.082   3.733  15.810 -0.3999 -0.2163 -0.3598
 5630SOL    HW128349   3.026   3.810  15.807  0.7123  0.6139 -0.1662
 5630SOL    HW228350   3.148   3.759  15.745 -0.3242 -0.6905 -0.4714
 5631SOL     OW28351   3.570   2.222   1.443 -0.0900 -0.2655  0.1104
 5631SOL    HW128352   3.583   2.312   1.413 -0.5257 -0.3586 -0.3613
 5631SOL    HW228353   3.476   2.223   1.461 -0.0484 -0.1353  0.3264
 5632SOL     OW28354   0.242   0.435   1.454 -0.2395  0.2718 -0.2170
 5632SOL    HW128355   0.160   0.400   1.418 -0.8775  0.9429  0.5932
 5632SOL    HW228356   0.308   0.377   1.414  0.5220  0.8555  0.1895
 5633SOL     OW28357   1.317   3.636  11.541 -0.1304 -0.0027 -0.3760
 5633SOL    HW128358   1.369   3.558  11.557  0.7910  0.9038  1.0666
 5633SOL    HW228359   1.397   3.688  11.541 -0.0351 -0.1580 -1.8077
 5634SOL     OW28360   2.352   1.327   3.597  0.2407 -0.1982 -0.7254
 5634SOL    HW128361   2.373   1.367   3.512 -1.4666  1.1051 -0.5462
 5634SOL    HW228362   2.272   1.370   3.626 -0.5279 -0.5765 -2.2673
 5635SOL     OW28363   4.458   0.272   6.347  0.0503 -0.1272  0.0731
 5635SOL    HW128364   4.365   0.289   6.330 -0.4926 -1.0416  2.1081
 5635SOL    HW228365   4.462   0.262   6.442  1.1685 -1.0353 -0.0738
 5636SOL     OW28366   0.537   2.664   4.449  0.0888  0.1359  0.6253
 5636SOL    HW128367   0.478   2.598   4.484  1.7297 -1.0160  1.2229
 5636SOL    HW228368   0.563   2.626   4.365 -0.3411  0.3975  0.3731
 5637SOL     OW28369   2.396   0.166   1.026 -0.2970  0.2613 -0.3975
 5637SOL    HW128370   2.435   0.087   1.064 -2.9638  0.3026  2.4429
 5637SOL    HW228371   2.464   0.209   0.974  1.0397 -0.2142  0.9775
 5638SOL     OW28372   1.447   4.424  15.688 -0.2357 -0.1288 -0.3566
 5638SOL    HW128373   1.435   4.330  15.699  0.6892 -0.0345  1.5166
 5638SOL    HW228374   1.357   4.452  15.705 -0.2092  0.3052 -0.9088
 5639SOL     OW28375   1.054   0.858  13.219 -0.2620  0.2181  0.0196
 5639SOL    HW128376   1.079   0.767  13.203 -1.5198 -0.3765  1.3802
 5639SOL    HW228377   1.052   0.890  13.129 -1.1020  0.0963 -0.0047
 5640SOL     OW28378   4.119   3.476  13.941 -0.5350  0.2439  0.4591
 5640SOL    HW128379   4.078   3.395  13.910  1.5068 -1.1076  1.3061
 5640SOL    HW228380   4.209   3.448  13.927 -0.9809 -0.8155 -0.3717
 5641SOL     OW28381   4.425   4.145   4.028 -0.7965 -0.7530  0.2195
 5641SOL    HW128382   4.511   4.187   4.035 -1.4717  1.1551 -3.3792
 5641SOL    HW228383   4.417   4.135   3.934  0.4088 -1.5536  0.1895
 5642SOL     OW28384   0.484   3.659   5.021 -0.0830  0.0856 -0.3509
 5642SOL    HW128385   0.556   3.604   5.053 -0.0714  1.3411  1.7578
 5642SOL    HW228386   0.464   3.641   4.929 -2.2453 -2.5439  0.6274
 5643SOL     OW28387   4.621   0.361  13.163 -0.0287  0.0292 -0.5740
 5643SOL    HW128388   4.589   0.284  13.117 -0.6297 -1.8362  2.9348
 5643SOL    HW228389   4.623   0.317  13.248  2.9465  1.4667  0.1166
 5644SOL     OW28390   0.487   2.195   2.209 -0.2409 -0.4564 -0.2718
 5644SOL    HW128391   0.529   2.281   2.217 -1.4056 -0.0142  1.0786
 5644SOL    HW228392   0.408   2.218   2.159  0.3002 -0.5961 -1.1936
 5645SOL     OW28393   0.553   1.626  10.056  0.1682 -0.1791 -0.3645
 5645SOL    HW128394   0.543   1.719  10.079  1.3979  0.1035 -0.9842
 5645SOL    HW228395   0.630   1.635  10.000 -0.7688 -1.1549 -1.7993
 5646SOL     OW28396   3.380   1.163  14.234  0.1767  0.2747  0.0546
 5646SOL    HW128397   3.337   1.216  14.166 -1.0139 -2.4985 -1.3685
 5646SOL    HW228398   3.370   1.212  14.315  0.0017  0.4853 -0.0932
 5647SOL     OW28399   2.201   3.880   4.145 -0.2118  0.2121 -0.3066
 5647SOL    HW128400   2.165   3.934   4.216 -1.7445 -2.7299  1.1255
 5647SOL    HW228401   2.152   3.913   4.069  0.9851 -1.1685 -1.6769
 5648SOL     OW28402   1.847   0.385   5.241  0.3550 -0.6463  0.4400
 5648SOL    HW128403   1.762   0.425   5.261  0.6209  0.3976 -0.5330
 5648SOL    HW228404   1.906   0.445   5.287 -2.5953  0.5077  2.6735
 5649SOL     OW28405   0.160   4.456   6.958 -0.4208  0.1934  0.0380
 5649SOL    HW128406   0.177   4.362   6.963 -0.8923  0.1454  0.6515
 5649SOL    HW228407   0.251   4.485   6.965 -0.0495 -0.1312 -3.1106
 5650SOL     OW28408   3.944   3.868   7.940  0.3715 -0.1420 -0.3485
 5650SOL    HW128409   3.991   3.850   8.021  0.1123 -0.2952 -0.2302
 5650SOL    HW228410   3.853   3.863   7.968  1.2587  0.6906  2.6584
 5651SOL     OW28411   0.405   1.666   2.360  0.2280 -0.1924 -0.1357
 5651SOL    HW128412   0.458   1.745   2.365  1.5784 -0.9707 -2.0495
 5651SOL    HW228413   0.318   1.706   2.357  0.6821  0.6709 -2.2331
 5652SOL     OW28414   3.341   0.881  14.201  0.1272  0.0761 -0.2061
 5652SOL    HW128415   3.426   0.839  14.199  0.6266  1.1928 -1.7794
 5652SOL    HW228416   3.369   0.971  14.219  0.9038 -0.3389  0.6971
 5653SOL     OW28417   2.780   2.591   7.965 -0.0502  0.0265 -0.5157
 5653SOL    HW128418   2.767   2.562   8.056  1.0264  2.6065  0.4661
 5653SOL    HW228419   2.804   2.683   7.970  1.0455 -0.2475 -0.8516
 5654SOL     OW28420   2.938   2.676   9.662 -0.0512 -0.3026 -0.3783
 5654SOL    HW128421   3.019   2.688   9.712  1.0792 -0.0074 -2.2490
 5654SOL    HW228422   2.908   2.764   9.640 -0.3101 -0.4784 -0.7218
 5655SOL     OW28423   0.285   3.278   8.001  0.0983  0.1122  0.4148
 5655SOL    HW128424   0.265   3.220   7.928 -2.0940  0.9648  0.3307
 5655SOL    HW228425   0.303   3.230   8.082 -2.2351 -0.7433  0.4441
 5656SOL     OW28426   0.804   0.918   2.133 -0.0642 -0.1042 -0.6053
 5656SOL    HW128427   0.856   0.993   2.163 -1.1660  0.5281 -0.2706
 5656SOL    HW228428   0.873   0.859   2.104 -0.0627  0.4061 -1.6432
 5657SOL     OW28429   2.317   3.362   2.158  0.5780 -0.0144  0.4660
 5657SOL    HW128430   2.352   3.434   2.105  1.8592 -1.5013 -0.7131
 5657SOL    HW228431   2.226   3.385   2.140  0.9319  1.6759  0.8223
 5658SOL     OW28432   1.268   3.941   8.048 -0.5490 -0.5274 -0.2210
 5658SOL    HW128433   1.320   3.868   8.015  0.2532 -0.5219  1.0489
 5658SOL    HW228434   1.309   3.971   8.129  0.3702  0.8936 -1.2157
 5659SOL     OW28435   3.061   0.914   8.672 -0.4407  0.3995 -0.1207
 5659SOL    HW128436   2.972   0.948   8.681 -0.3915 -0.2038  2.6996
 5659SOL    HW228437   3.048   0.821   8.655 -0.2448  0.1940  0.8549
 5660SOL     OW28438   0.772   2.704   8.634  0.4324  0.2947 -0.2102
 5660SOL    HW128439   0.784   2.767   8.563 -1.1105  1.1920  0.3214
 5660SOL    HW228440   0.686   2.664   8.625 -0.6535  2.1970  1.9623
 5661SOL     OW28441   4.155   1.722  12.680  0.8124 -0.4097 -0.3458
 5661SOL    HW128442   4.190   1.770  12.755  1.4771  1.0219 -1.5767
 5661SOL    HW228443   4.063   1.747  12.680  1.2774  1.3008  0.1307
 5662SOL     OW28444   3.190   0.331   7.288 -0.0980 -0.8662 -0.0156
 5662SOL    HW128445   3.142   0.341   7.371 -3.8479  0.2026 -2.3297
 5662SOL    HW228446   3.164   0.413   7.246  1.6620 -1.3161 -1.9574
 5663SOL     OW28447   2.136   1.885   7.321 -0.0638  0.1657 -0.3144
 5663SOL    HW128448   2.121   1.917   7.232  0.4860  1.8391  0.1966
 5663SOL    HW228449   2.230   1.867   7.330 -0.3817 -1.3104  0.0641
 5664SOL     OW28450   4.009   0.335   6.255  0.0773  0.1023 -0.3664
 5664SOL    HW128451   3.997   0.375   6.341 -0.2132 -0.3552 -0.1994
 5664SOL    HW228452   4.092   0.373   6.224 -0.1305 -0.1956 -1.2889
 5665SOL     OW28453   0.768   1.870   9.825 -0.1460  0.1210 -0.4167
 5665SOL    HW128454   0.797   1.795   9.878  1.4074  0.6693 -0.4763
 5665SOL    HW228455   0.674   1.855   9.814 -0.7146  2.3128  1.3579
 5666SOL     OW28456   0.377   0.650   4.124  0.4375  0.0109  0.1916
 5666SOL    HW128457   0.457   0.611   4.089  0.8697  0.3536  0.7949
 5666SOL    HW228458   0.425   0.723   4.165 -2.4852  2.1637 -0.2405
 5667SOL     OW28459   0.408   0.223  17.569 -0.1853 -0.7841 -0.3074
 5667SOL    HW128460   0.359   0.301  17.595  0.9594  0.6726 -2.5593
 5667SOL    HW228461   0.423   0.231  17.475  1.6604 -1.4826 -0.0804
 5668SOL     OW28462   3.791   0.689   2.301 -0.1191 -0.2702  0.6672
 5668SOL    HW128463   3.883   0.664   2.306  0.0807 -0.2843 -2.9302
 5668SOL    HW228464   3.762   0.606   2.262 -0.5141  1.1647 -2.0670
 5669SOL     OW28465   3.289   2.999   7.261 -0.0877 -0.7540  0.5216
 5669SOL    HW128466   3.278   2.904   7.261 -1.5223 -0.5858  0.4491
 5669SOL    HW228467   3.383   3.008   7.247 -0.3326  3.0596  1.2272
 5670SOL     OW28468   2.588   2.566  15.379  0.6430 -0.0673 -0.1156
 5670SOL    HW128469   2.635   2.593  15.458 -1.7092  0.1810  1.1937
 5670SOL    HW228470   2.599   2.648  15.330  1.3073 -1.3698 -2.1722
 5671SOL     OW28471   3.606   3.302   2.355  0.0655  0.2028  0.0948
 5671SOL    HW128472   3.532   3.243   2.371  0.7214 -0.4826  0.5957
 5671SOL    HW228473   3.573   3.342   2.275 -1.0682 -0.1987  0.3611
 5672SOL     OW28474   4.434   4.724  17.167 -0.6658  0.2053 -0.0232
 5672SOL    HW128475   4.382   4.644  17.168  0.0492 -0.2706 -0.7819
 5672SOL    HW228476   4.428   0.033  17.256  0.7403 -0.7097  0.4370
 5673SOL     OW28477   0.840   3.920   0.025 -0.2512 -0.0007  0.0278
 5673SOL    HW128478   0.838   3.921  17.635 -2.4110  1.2733  0.0778
 5673SOL    HW228479   0.892   3.841   0.040 -1.1538 -0.6717 -0.3661
 5674SOL     OW28480   1.603   2.835  15.799 -0.0960  0.4682  0.0918
 5674SOL    HW128481   1.677   2.854  15.857  0.0111 -2.2737  0.8339
 5674SOL    HW228482   1.649   2.817  15.717 -0.8449  0.5854 -0.3564
 5675SOL     OW28483   1.137   1.283   6.919  0.3863  0.0429 -0.2452
 5675SOL    HW128484   1.081   1.357   6.894  1.7251  0.8588 -0.8330
 5675SOL    HW228485   1.224   1.321   6.918  0.0850  0.7339 -0.3040
 5676SOL     OW28486   2.329   4.587   3.079 -0.1777 -0.5823 -0.2335
 5676SOL    HW128487   2.289   4.502   3.059  1.7813 -2.0536  2.0511
 5676SOL    HW228488   2.378   4.573   3.160  0.7942 -1.6030 -0.9974
 5677SOL     OW28489   3.482   4.364   5.172 -0.0915  0.5462  0.5595
 5677SOL    HW128490   3.442   4.450   5.181  0.7196  0.8856  0.9804
 5677SOL    HW228491   3.558   4.381   5.227  0.4693 -0.2074  0.0345
 5678SOL     OW28492   1.848   2.271   5.184 -0.5810  0.5575  0.3440
 5678SOL    HW128493   1.918   2.275   5.250  0.4557 -0.4455 -0.7009
 5678SOL    HW228494   1.838   2.177   5.169  1.7417  0.0951  1.6285
 5679SOL     OW28495   0.996   3.642  14.442 -0.7536 -0.7578 -0.0014
 5679SOL    HW128496   1.000   3.737  14.445 -0.9552 -0.6248 -3.2542
 5679SOL    HW228497   0.905   3.619  14.464 -1.0414  0.4672  0.0588
 5680SOL     OW28498   2.441   0.175   0.636  0.1522  0.1559  0.1287
 5680SOL    HW128499   2.457   0.212   0.723  2.4244  1.1023 -0.6880
 5680SOL    HW228500   2.423   0.251   0.579  1.7364 -0.6086 -1.3690
 5681SOL     OW28501   3.267   2.906   5.343  0.1734  0.1716 -0.3497
 5681SOL    HW128502   3.350   2.947   5.369  0.0655  0.6105 -0.7018
 5681SOL    HW228503   3.285   2.882   5.252 -0.4583 -0.1035 -0.3986
 5682SOL     OW28504   0.574   1.069   3.705 -0.0649 -0.0757 -0.3338
 5682SOL    HW128505   0.536   1.148   3.744 -0.6140 -0.3170 -0.3791
 5682SOL    HW228506   0.623   1.034   3.779 -0.2582  0.7734  0.2039
 5683SOL     OW28507   3.399   1.480   0.033 -0.2944  0.3097 -0.0702
 5683SOL    HW128508   3.328   1.534  17.703 -1.4555 -1.7436 -0.9089
 5683SOL    HW228509   3.368   1.396  17.705  1.5344  0.5565 -2.3908
 5684SOL     OW28510   0.121   3.254  17.092  0.1042 -0.1834 -0.1934
 5684SOL    HW128511   0.138   3.235  17.184  1.7519 -0.4580 -0.5535
 5684SOL    HW228512   0.035   3.218  17.070 -0.3449  0.4348  0.5522
 5685SOL     OW28513   3.856   4.412  13.417 -0.1247 -0.0179 -0.1648
 5685SOL    HW128514   3.803   4.492  13.408  2.4435  1.7392  0.4569
 5685SOL    HW228515   3.863   4.409  13.513 -1.1755 -0.3656 -0.0909
 5686SOL     OW28516   1.655   0.859   7.115 -0.1408  0.0678 -0.2408
 5686SOL    HW128517   1.561   0.841   7.112  0.0191 -0.6317 -1.1204
 5686SOL    HW228518   1.666   0.925   7.184 -0.4021 -1.8348  1.6143
 5687SOL     OW28519   4.034   1.038   0.880  0.9313 -0.1409  0.5020
 5687SOL    HW128520   4.045   1.133   0.873 -0.2154 -0.1003 -0.6918
 5687SOL    HW228521   3.941   1.035   0.859  0.9956 -0.6532  0.2923
 5688SOL     OW28522   1.811   1.448   5.322 -0.4370  0.0455  0.2144
 5688SOL    HW128523   1.821   1.539   5.348 -1.0807 -0.0139  0.6686
 5688SOL    HW228524   1.720   1.458   5.293  0.3116 -0.9915 -2.4878
 5689SOL     OW28525   0.325   2.663  12.901 -0.0604  0.0963  0.3428
 5689SOL    HW128526   0.304   2.660  12.807 -0.6816  0.2866  0.4817
 5689SOL    HW228527   0.279   2.738  12.938 -0.7486 -0.3493  0.3823
 5690SOL     OW28528   2.931   4.275   3.299  0.1873 -0.0506 -0.7783
 5690SOL    HW128529   2.932   4.364   3.262  0.0151  0.8779  1.4212
 5690SOL    HW228530   2.843   4.282   3.334 -0.0492 -0.1843 -1.3474
 5691SOL     OW28531   0.814   4.666   6.577 -0.1835 -0.5187  0.7893
 5691SOL    HW128532   0.754   4.720   6.525  0.8843 -2.1669 -2.1509
 5691SOL    HW228533   0.883   0.004   6.596  0.0921 -0.5785  0.0063
 5692SOL     OW28534   2.598   0.897   2.826  0.6842 -0.4648  0.0345
 5692SOL    HW128535   2.527   0.842   2.858  0.2840  0.1495  0.2142
 5692SOL    HW228536   2.660   0.828   2.804 -0.4190 -1.5553  0.3620
 5693SOL     OW28537   4.036   1.652   5.504  0.7172 -0.2729  0.4290
 5693SOL    HW128538   4.121   1.656   5.547  1.8502  0.3204 -1.8870
 5693SOL    HW228539   4.001   1.585   5.563 -0.0755  0.1206  0.4028
 5694SOL     OW28540   1.946   3.061   5.176 -0.6596 -0.1770 -0.1639
 5694SOL    HW128541   1.877   3.056   5.110 -4.0952  1.5931  3.2991
 5694SOL    HW228542   2.019   3.044   5.116 -0.9979 -0.3642 -0.5173
 5695SOL     OW28543   0.749   2.911   2.550 -0.1389 -0.3591  0.1783
 5695SOL    HW128544   0.763   3.001   2.580 -2.6286  0.9326 -2.5425
 5695SOL    HW228545   0.688   2.872   2.613 -0.2263  0.9618  0.8994
 5696SOL     OW28546   0.295   2.648  12.619 -0.4167 -0.1998  0.2618
 5696SOL    HW128547   0.339   2.619  12.539 -0.9905  0.2741 -0.2201
 5696SOL    HW228548   0.207   2.671  12.590 -0.6246 -1.6091 -0.2012
 5697SOL     OW28549   2.667   0.265  11.321  0.2121  0.2647 -0.0546
 5697SOL    HW128550   2.649   0.206  11.248  2.3410  1.4591 -1.5482
 5697SOL    HW228551   2.712   0.341  11.282  0.2799 -0.2637 -1.0210
 5698SOL     OW28552   4.669   3.291  13.021  0.3277 -0.1659 -0.7074
 5698SOL    HW128553   0.036   3.287  13.001  0.4554 -3.6620  0.7101
 5698SOL    HW228554   4.671   3.247  13.106 -4.1000 -0.0297 -0.5141
 5699SOL     OW28555   2.266   1.609   0.351  0.4658 -0.6943 -0.2270
 5699SOL    HW128556   2.282   1.643   0.263 -2.7620 -0.0519 -0.5732
 5699SOL    HW228557   2.338   1.650   0.399 -2.6679  1.0330  3.0055
 5700SOL     OW28558   3.249   4.257   8.782  0.9146 -0.5295  0.8775
 5700SOL    HW128559   3.289   4.258   8.869  1.3461  1.1097  0.6546
 5700SOL    HW228560   3.188   4.329   8.793  1.2021  0.1554 -2.1820
 5701SOL     OW28561   0.700   0.116   5.783  0.3948  0.7043  0.0974
 5701SOL    HW128562   0.774   0.174   5.767  0.6751 -0.0433 -1.3411
 5701SOL    HW228563   0.651   0.123   5.701  0.1362 -1.0129  0.1049
 5702SOL     OW28564   0.230   1.103  15.165  0.4493  0.0297 -0.1507
 5702SOL    HW128565   0.154   1.092  15.222 -0.4740  1.5993 -1.0756
 5702SOL    HW228566   0.196   1.181  15.121  1.2840 -0.4433 -1.6142
 5703SOL     OW28567   1.840   4.059   2.034  0.1296 -0.1570 -0.0356
 5703SOL    HW128568   1.891   4.028   2.109  0.0112  1.2300  0.6353
 5703SOL    HW228569   1.871   4.149   2.023  0.5302 -0.3997 -0.8801
 5704SOL     OW28570   2.932   1.407   5.439  0.2657 -0.1931 -0.0622
 5704SOL    HW128571   2.961   1.333   5.492 -0.1914  0.0090  0.4697
 5704SOL    HW228572   2.942   1.378   5.348 -0.0918  0.8016 -0.4253
 5705SOL     OW28573   1.469   2.266   4.508  0.0881  0.3921 -0.4878
 5705SOL    HW128574   1.379   2.237   4.524  0.4116 -0.0075  0.6059
 5705SOL    HW228575   1.488   2.239   4.418 -0.2049 -1.1655 -0.0803
 5706SOL     OW28576   3.374   4.637   2.662 -0.6051  0.9854  0.1816
 5706SOL    HW128577   3.336   4.720   2.691 -1.0698  1.4949 -1.8598
 5706SOL    HW228578   3.296   4.606   2.615  0.7403 -0.5093 -1.0523
 5707SOL     OW28579   3.618   1.205   6.055  0.6113  0.7428  0.3498
 5707SOL    HW128580   3.661   1.144   5.995 -1.2690  0.1272 -0.3852
 5707SOL    HW228581   3.646   1.288   6.016 -0.8641  0.7652 -0.6682
 5708SOL     OW28582   3.433   4.430   5.586 -0.1062 -0.2476 -0.4670
 5708SOL    HW128583   3.424   4.344   5.629  0.1018 -0.2205 -0.3718
 5708SOL    HW228584   3.527   4.430   5.574  0.0329  0.7872  0.6221
 5709SOL     OW28585   1.084   4.157   5.379 -0.2855 -0.3337  0.1395
 5709SOL    HW128586   1.074   4.198   5.465 -0.9841  0.1820 -0.1822
 5709SOL    HW228587   1.046   4.071   5.395 -1.2006  0.1391  0.4966
 5710SOL     OW28588   3.213   4.475  14.486  0.4071 -0.2468  0.0442
 5710SOL    HW128589   3.213   4.478  14.581  1.3958 -0.7529  0.0563
 5710SOL    HW228590   3.165   4.556  14.470 -1.0642 -1.1594 -0.1965
 5711SOL     OW28591   1.983   4.442   8.110 -0.3098  0.1779  0.6905
 5711SOL    HW128592   1.927   4.509   8.072 -1.1717 -0.1128  1.4413
 5711SOL    HW228593   2.052   4.446   8.044 -0.4946  0.0054  0.4884
 5712SOL     OW28594   0.452   0.418   1.666  0.4681 -0.1030  0.0006
 5712SOL    HW128595   0.530   0.441   1.716  1.4228  1.4164 -2.2110
 5712SOL    HW228596   0.445   0.503   1.623  0.2187 -0.0935  0.0567
 5713SOL     OW28597   1.870   3.363  14.103 -0.3287 -0.0208  0.3639
 5713SOL    HW128598   1.936   3.350  14.034 -2.8122  2.3028 -2.4385
 5713SOL    HW228599   1.875   3.458  14.113  0.5697 -0.3387  2.9090
 5714SOL     OW28600   0.515   2.112  12.427 -0.5879  1.1918  0.7261
 5714SOL    HW128601   0.460   2.051  12.475  2.0319 -2.8877 -1.4619
 5714SOL    HW228602   0.447   2.175  12.405  0.1130  1.2735 -1.2211
 5715SOL     OW28603   3.446   3.683   8.618 -0.0201 -0.2817 -0.0773
 5715SOL    HW128604   3.359   3.700   8.654 -0.4137 -1.1903 -0.6039
 5715SOL    HW228605   3.482   3.602   8.654 -0.2441 -0.6295 -0.6473
 5716SOL     OW28606   0.879   1.552   5.373 -0.4066  0.3892 -0.2118
 5716SOL    HW128607   0.831   1.633   5.389  0.8568  1.5014 -2.0926
 5716SOL    HW228608   0.894   1.518   5.461 -0.7080  0.9150  0.0472
 5717SOL     OW28609   4.095   1.117  10.816  0.1856 -0.7680 -0.4423
 5717SOL    HW128610   4.135   1.203  10.831  3.3873 -2.1894 -0.8926
 5717SOL    HW228611   4.041   1.119  10.737  0.5186  3.0441 -0.5622
 5718SOL     OW28612   2.169   2.674   3.489 -0.1878 -0.0045 -0.0540
 5718SOL    HW128613   2.182   2.617   3.564 -1.2487 -0.0923  0.0755
 5718SOL    HW228614   2.083   2.711   3.511 -0.5116  0.2793 -1.7365
 5719SOL     OW28615   2.634   2.500   5.582 -0.8614  0.1649 -0.0209
 5719SOL    HW128616   2.557   2.446   5.564 -1.5303  0.7060  1.2433
 5719SOL    HW228617   2.644   2.568   5.515  0.1117  1.2166  1.1868
 5720SOL     OW28618   2.815   1.325   3.610 -0.5334 -0.2265  0.1831
 5720SOL    HW128619   2.835   1.294   3.522  0.3146 -0.3721  0.4296
 5720SOL    HW228620   2.756   1.262   3.651 -0.7734  0.0964  0.3391
 5721SOL     OW28621   0.991   1.385  10.525  0.0279 -0.3944  0.0864
 5721SOL    HW128622   1.028   1.467  10.492 -0.2104 -0.6724 -0.8701
 5721SOL    HW228623   1.041   1.367  10.605  0.7865 -2.4006 -0.8544
 5722SOL     OW28624   0.657   2.351   8.524  0.4285 -0.4609 -0.0341
 5722SOL    HW128625   0.708   2.333   8.445  0.0355  1.8940 -0.8251
 5722SOL    HW228626   0.564   2.342   8.501  0.5839 -1.0848 -0.4219
 5723SOL     OW28627   2.411   3.120   2.704 -0.8810  0.0299  0.5195
 5723SOL    HW128628   2.392   3.038   2.659 -2.1443  1.6742 -1.9817
 5723SOL    HW228629   2.505   3.107   2.695 -1.2181 -1.5222 -0.7546
 5724SOL     OW28630   0.447   0.350   7.461 -0.0847 -0.2499  0.5176
 5724SOL    HW128631   0.418   0.285   7.397  0.0761  0.2543 -0.0679
 5724SOL    HW228632   0.502   0.415   7.417  0.6444  0.2929  2.2257
 5725SOL     OW28633   2.491   2.798   5.599  0.3713 -0.3488  0.3665
 5725SOL    HW128634   2.538   2.773   5.520  2.0357  0.9749  0.9509
 5725SOL    HW228635   2.510   2.892   5.604  0.9227 -0.4005 -0.6978
 5726SOL     OW28636   4.293   4.542   5.346 -0.8593 -0.4403 -0.0133
 5726SOL    HW128637   4.374   4.569   5.301  0.8743 -0.2599  3.2224
 5726SOL    HW228638   4.325   4.521   5.434 -0.1697 -2.8076 -0.8000
 5727SOL     OW28639   2.937   1.499   3.811  0.9999 -0.5643  0.3774
 5727SOL    HW128640   2.846   1.524   3.830  0.7376  0.5130 -2.2629
 5727SOL    HW228641   2.927   1.441   3.735 -0.4062 -1.3360  1.1418
 5728SOL     OW28642   2.839   0.174   3.375 -0.3531 -0.7591 -0.2523
 5728SOL    HW128643   2.849   0.131   3.460  3.9009  0.0304 -0.3731
 5728SOL    HW228644   2.828   0.265   3.403  0.8903  0.1424 -2.6811
 5729SOL     OW28645   2.499   4.430  14.220  0.3092  0.1218  0.0706
 5729SOL    HW128646   2.529   4.390  14.302  0.6521 -1.5767 -0.8668
 5729SOL    HW228647   2.584   4.452  14.183 -0.2541 -0.5273 -1.6011
 5730SOL     OW28648   2.365   2.430   5.528  0.0146 -0.2590  0.6123
 5730SOL    HW128649   2.326   2.381   5.455 -2.5503  0.1811  1.7017
 5730SOL    HW228650   2.304   2.504   5.530 -0.1284 -0.3488 -0.3612
 5731SOL     OW28651   3.287   1.893  10.654  0.0444 -0.0762 -0.1253
 5731SOL    HW128652   3.310   1.943  10.575 -0.1192 -0.3490 -0.3458
 5731SOL    HW228653   3.204   1.852  10.631  0.6185 -1.8616  0.9864
 5732SOL     OW28654   4.054   1.508   9.993  0.1556  0.3134 -0.3704
 5732SOL    HW128655   4.009   1.424   9.982 -1.3197  1.0977 -0.2301
 5732SOL    HW228656   4.071   1.500  10.086 -2.4726 -0.2607  0.0618
 5733SOL     OW28657   3.859   3.299   6.745 -0.0665  0.2185  0.6859
 5733SOL    HW128658   3.803   3.295   6.667 -0.2649  2.4631  0.7274
 5733SOL    HW228659   3.920   3.229   6.721 -1.9571 -1.6524  1.4055
 5734SOL     OW28660   2.741   3.260   5.426  0.1146 -0.4471  0.2672
 5734SOL    HW128661   2.756   3.355   5.423  1.3119 -0.7014 -1.4149
 5734SOL    HW228662   2.830   3.224   5.433  0.7366  1.1250  0.5181
 5735SOL     OW28663   3.882   1.648  10.794  0.2064  0.4588  0.0576
 5735SOL    HW128664   3.910   1.619  10.707 -0.2245  0.0440  0.0618
 5735SOL    HW228665   3.967   1.683  10.820  0.6061  0.9214 -1.8506
 5736SOL     OW28666   3.258   1.441   9.286 -0.3434  0.0118  0.6244
 5736SOL    HW128667   3.324   1.463   9.219  0.2706  0.1586  1.2788
 5736SOL    HW228668   3.296   1.483   9.363  0.4248  0.9021 -0.2287
 5737SOL     OW28669   3.670   0.159  12.203 -0.2138 -0.2964 -0.3345
 5737SOL    HW128670   3.678   0.070  12.169 -2.9456 -0.9351  0.6793
 5737SOL    HW228671   3.758   0.158  12.242 -0.0382  0.7678 -0.7096
 5738SOL     OW28672   4.562   2.139   6.172 -0.3585  0.3229 -0.3759
 5738SOL    HW128673   4.478   2.093   6.172  0.5911 -1.4070  0.3998
 5738SOL    HW228674   4.613   2.110   6.247 -2.0056  1.9631  1.3644
 5739SOL     OW28675   4.600   0.008   3.195 -0.4512 -0.4153 -0.3453
 5739SOL    HW128676   4.638   0.023   3.109  1.6732 -0.1111  0.6354
 5739SOL    HW228677   4.574   4.642   3.187  2.4218 -1.1078 -1.6664
 5740SOL     OW28678   3.335   2.747   2.312 -0.4574 -0.5914 -0.1532
 5740SOL    HW128679   3.321   2.831   2.357 -1.2389 -0.2492 -1.0250
 5740SOL    HW228680   3.328   2.779   2.222 -0.1420  0.4742  0.1977
 5741SOL     OW28681   1.284   3.059  11.336  0.1199  0.4463 -0.2444
 5741SOL    HW128682   1.250   2.992  11.396  0.2192  0.1644 -0.4995
 5741SOL    HW228683   1.376   3.051  11.358 -0.4205 -0.5069  1.6822
 5742SOL     OW28684   3.189   4.597   5.092 -0.6252 -0.5093 -0.1314
 5742SOL    HW128685   3.264   4.647   5.060 -1.9481 -0.0824 -2.5393
 5742SOL    HW228686   3.222   4.507   5.099  0.3544 -0.0851  0.5888
 5743SOL     OW28687   2.816   1.277   6.653 -0.4981  0.5365  0.5330
 5743SOL    HW128688   2.836   1.207   6.715 -0.1768  0.0249 -0.1496
 5743SOL    HW228689   2.901   1.309   6.624 -1.7602  3.0473 -0.3620
 5744SOL     OW28690   2.647   0.063  15.654 -1.0585 -0.4846  0.5225
 5744SOL    HW128691   2.556   0.046  15.631 -0.0937 -0.3204 -3.4721
 5744SOL    HW228692   2.670   4.707  15.697  1.4047  0.0121  0.1553
 5745SOL     OW28693   3.264   1.557  12.423 -0.0251 -0.2032  0.1351
 5745SOL    HW128694   3.290   1.484  12.366 -2.1560 -2.1085  1.5605
 5745SOL    HW228695   3.222   1.621  12.365 -0.2935  0.7883  1.4407
 5746SOL     OW28696   4.241   1.826   1.412 -0.6894  0.1994  0.2300
 5746SOL    HW128697   4.246   1.917   1.443  0.1073 -0.2259  1.3474
 5746SOL    HW228698   4.150   1.818   1.381 -0.2538  1.5576 -1.4203
 5747SOL     OW28699   3.677   2.940   6.433  0.0634 -0.1813  0.6949
 5747SOL    HW128700   3.653   2.878   6.502 -2.2951 -0.3137 -0.2399
 5747SOL    HW228701   3.614   3.009   6.452  1.8707  1.6126  0.1473
 5748SOL     OW28702   4.106   2.799   6.660 -0.1727  0.6981 -0.6574
 5748SOL    HW128703   4.091   2.786   6.567  1.3907 -2.8588 -0.4153
 5748SOL    HW228704   4.020   2.833   6.684 -1.2284 -2.2952 -0.2212
 5749SOL     OW28705   2.642   3.936  17.344 -0.2239  0.0088  0.9370
 5749SOL    HW128706   2.600   3.937  17.431  0.2897 -0.0111  1.1878
 5749SOL    HW228707   2.665   4.027  17.326 -0.7929  0.2588  1.4736
 5750SOL     OW28708   0.957   1.612   4.272 -0.0649  0.0514  0.2550
 5750SOL    HW128709   0.908   1.669   4.332  1.0474  1.1484  0.1143
 5750SOL    HW228710   1.023   1.570   4.327  0.9488 -2.8374 -3.1752
 5751SOL     OW28711   0.072   4.583   4.930  0.0319 -0.2418  0.7332
 5751SOL    HW128712   0.112   4.670   4.930 -2.0153  0.6995 -0.0474
 5751SOL    HW228713   0.135   4.539   4.988  0.8515  0.0901  0.0973
 5752SOL     OW28714   3.844   3.618   3.399  0.0868  0.2663  0.2593
 5752SOL    HW128715   3.752   3.598   3.417 -0.3244  0.5824 -1.4484
 5752SOL    HW228716   3.854   3.578   3.313 -0.4221 -3.5250  1.9787
 5753SOL     OW28717   1.046   3.931  16.820 -0.4658 -0.4317 -0.3923
 5753SOL    HW128718   1.056   4.008  16.876  0.5460 -2.4190  2.2243
 5753SOL    HW228719   1.004   3.880  16.890 -0.8196 -1.2619 -1.2101
 5754SOL     OW28720   0.614   4.352   4.882  0.4746  0.4535  0.0478
 5754SOL    HW128721   0.591   4.442   4.860  0.1731 -0.4851 -3.5458
 5754SOL    HW228722   0.667   4.368   4.960 -3.5831 -2.1986  3.3508
 5755SOL     OW28723   1.042   2.385  10.339 -0.0398 -0.1785 -0.0444
 5755SOL    HW128724   1.033   2.296  10.372  1.3424 -0.7328 -1.1214
 5755SOL    HW228725   0.950   2.395  10.315 -0.1210 -0.7976  0.0222
 5756SOL     OW28726   3.619   1.245   5.060 -0.7726  0.0634 -0.1215
 5756SOL    HW128727   3.678   1.262   5.133 -0.9461 -0.7395  0.2073
 5756SOL    HW228728   3.535   1.268   5.099 -1.0146  0.5219 -0.9103
 5757SOL     OW28729   0.214   3.930   1.557  0.0140  0.0993 -0.2874
 5757SOL    HW128730   0.150   3.860   1.548  1.1063 -0.7148 -1.7065
 5757SOL    HW228731   0.169   4.011   1.533 -0.7740  0.1701  1.4212
 5758SOL     OW28732   0.255   0.363  14.960 -0.4239  0.0257 -0.0419
 5758SOL    HW128733   0.336   0.348  14.911 -2.4019 -1.3817 -2.8954
 5758SOL    HW228734   0.195   0.315  14.903 -1.3453 -0.6724  1.5078
 5759SOL     OW28735   0.915   0.118  16.158 -0.6773  0.3860 -0.0252
 5759SOL    HW128736   0.903   0.073  16.242  0.0914 -1.9808 -1.1839
 5759SOL    HW228737   0.977   0.055  16.121 -0.4976 -0.2306  1.2887
 5760SOL     OW28738   1.731   0.277  16.652 -0.4830 -0.0408  0.0355
 5760SOL    HW128739   1.705   0.248  16.565 -0.5473  0.0821  0.0136
 5760SOL    HW228740   1.691   0.210  16.707  1.1237 -1.4927 -0.5821
 5761SOL     OW28741   0.421   1.248  11.827 -0.0348  0.2547 -0.1451
 5761SOL    HW128742   0.407   1.231  11.921  1.3716  2.0708  0.3842
 5761SOL    HW228743   0.511   1.219  11.812 -0.6885 -1.2163 -1.2364
 5762SOL     OW28744   1.085   4.627  14.685  0.2962  0.3254 -0.4344
 5762SOL    HW128745   1.095   4.560  14.617 -0.3452 -0.9005  0.6773
 5762SOL    HW228746   1.163   4.682  14.687  0.6286 -0.1517 -0.2210
 5763SOL     OW28747   3.089   0.659   3.209 -1.2339  0.2348 -0.0140
 5763SOL    HW128748   3.159   0.647   3.274  0.8019  2.4263 -1.7796
 5763SOL    HW228749   3.067   0.752   3.217 -2.2432  0.1031 -1.4742
 5764SOL     OW28750   3.578   0.849  10.267 -0.6306  0.0972 -0.2811
 5764SOL    HW128751   3.551   0.878  10.179  1.7801  0.5954 -0.8691
 5764SOL    HW228752   3.491   0.828  10.301  0.0130 -0.1187  1.2048
 5765SOL     OW28753   2.573   1.636   8.046  0.3474 -0.0655  0.3327
 5765SOL    HW128754   2.539   1.705   8.103  0.5633 -0.0934  0.4981
 5765SOL    HW228755   2.588   1.572   8.116  0.5294  0.8289  1.1102
 5766SOL     OW28756   2.859   0.435   8.443 -0.1569  0.4405  0.2010
 5766SOL    HW128757   2.928   0.395   8.390 -0.0826  0.9678 -0.1023
 5766SOL    HW228758   2.915   0.488   8.498 -0.2379 -1.2637  1.9365
 5767SOL     OW28759   4.610   0.611   6.767 -0.1885 -0.4051 -0.0655
 5767SOL    HW128760   4.643   0.701   6.773 -0.3713 -0.3304 -0.1535
 5767SOL    HW228761   4.690   0.567   6.794  0.6405  0.8245 -0.5182
 5768SOL     OW28762   3.493   0.874   9.811 -0.2293 -0.2495 -0.3924
 5768SOL    HW128763   3.407   0.840   9.831 -0.9526 -0.3832 -3.8009
 5768SOL    HW228764   3.489   0.886   9.716 -2.1290 -3.0062 -0.6504
 5769SOL     OW28765   3.246   2.969  16.718  0.2088 -0.0419 -0.1475
 5769SOL    HW128766   3.220   2.915  16.792 -0.8398  1.9573  0.9371
 5769SOL    HW228767   3.195   3.046  16.742 -1.2670 -0.7186 -1.0339
 5770SOL     OW28768   1.183   0.203   2.032 -0.2284  0.2811  0.4642
 5770SOL    HW128769   1.129   0.145   1.978 -0.9851  0.9883  0.4604
 5770SOL    HW228770   1.175   0.164   2.119 -0.0962 -0.9623 -0.0872
 5771SOL     OW28771   4.500   0.696   1.697  0.0129 -0.0186 -0.1720
 5771SOL    HW128772   4.509   0.603   1.716 -0.8237 -0.5511 -2.3723
 5771SOL    HW228773   4.560   0.712   1.624 -0.1232 -0.6577 -0.4194
 5772SOL     OW28774   0.052   1.205   8.134 -0.6119 -0.7489 -0.1294
 5772SOL    HW128775   4.687   1.176   8.145 -0.5661 -0.0715  2.1241
 5772SOL    HW228776   0.077   1.215   8.226 -0.0929 -1.0656 -0.2378
 5773SOL     OW28777   0.807   4.243   1.847  0.5963  0.0107  0.0974
 5773SOL    HW128778   0.845   4.155   1.854  2.5692  0.7633 -1.1809
 5773SOL    HW228779   0.736   4.231   1.784 -0.7307 -1.3817  1.8519
 5774SOL     OW28780   0.760   3.315  11.039  0.2200 -0.1732  0.1667
 5774SOL    HW128781   0.793   3.239  10.990 -0.1732  0.6596 -1.4097
 5774SOL    HW228782   0.768   3.286  11.130  0.1464  1.2981  0.6414
 5775SOL     OW28783   2.351   4.092  16.981  0.2498 -0.1473  0.0003
 5775SOL    HW128784   2.296   4.170  16.972  1.5111  0.5643 -1.4859
 5775SOL    HW228785   2.435   4.137  16.987 -0.1633  0.4960  0.9159
 5776SOL     OW28786   0.865   0.021  14.518  0.8421 -0.5569  0.4317
 5776SOL    HW128787   0.908   4.705  14.443  1.6654 -0.7653  1.0143
 5776SOL    HW228788   0.938   0.053  14.572  1.3811 -0.6459 -0.2460
 5777SOL     OW28789   2.433   3.038  14.422  0.4458 -0.4208  0.5239
 5777SOL    HW128790   2.404   2.947  14.424 -0.4373 -0.1491 -0.3318
 5777SOL    HW228791   2.472   3.044  14.510  1.5620 -0.9258  0.0617
 5778SOL     OW28792   0.767   3.221   0.762  0.2358  0.8743 -0.3765
 5778SOL    HW128793   0.715   3.142   0.775  0.4236  0.3147 -3.2191
 5778SOL    HW228794   0.801   3.205   0.674  1.0656  3.2040 -0.4733
 5779SOL     OW28795   0.282   1.898   8.270  0.3003 -0.1103 -0.0662
 5779SOL    HW128796   0.313   1.810   8.250  2.1821  0.3301  0.8852
 5779SOL    HW228797   0.220   1.917   8.200  1.0725  2.3261 -0.0840
 5780SOL     OW28798   3.440   0.330   2.649 -0.1384  0.1635  0.2068
 5780SOL    HW128799   3.466   0.325   2.557 -0.6985  1.9757 -0.0571
 5780SOL    HW228800   3.442   0.239   2.677 -0.4093 -0.2202 -1.0369
 5781SOL     OW28801   4.126   3.533  16.861 -0.1259 -0.2829 -0.6766
 5781SOL    HW128802   4.064   3.491  16.802  0.9980 -0.7957 -1.4903
 5781SOL    HW228803   4.110   3.489  16.944 -0.8845 -0.3299 -0.8537
 5782SOL     OW28804   2.969   4.516   8.203 -0.9716  0.5942  0.1034
 5782SOL    HW128805   3.034   4.505   8.273 -2.5643 -1.7577  1.2049
 5782SOL    HW228806   2.887   4.493   8.246 -1.2692  0.1053 -0.7355
 5783SOL     OW28807   4.146   4.526   0.829  0.2162  0.5479  0.0720
 5783SOL    HW128808   4.129   4.603   0.775 -1.6843  0.9886  1.2821
 5783SOL    HW228809   4.210   4.472   0.783  0.8315  1.4095 -0.0760
 5784SOL     OW28810   0.448   3.751  15.517 -0.4034 -0.2360 -0.3532
 5784SOL    HW128811   0.409   3.725  15.600 -2.3141  2.9326 -0.2731
 5784SOL    HW228812   0.381   3.817  15.498 -2.7073 -1.8930  1.9875
 5785SOL     OW28813   4.075   4.384   1.055  0.0681  0.5149 -0.2006
 5785SOL    HW128814   4.113   4.433   0.983 -0.9500  0.6160 -0.6606
 5785SOL    HW228815   4.152   4.374   1.111  0.3126  2.1552 -0.2505
 5786SOL     OW28816   1.274   0.503   5.921 -0.1090  0.4828 -0.1412
 5786SOL    HW128817   1.268   0.572   5.987  0.2061 -0.5233  0.9588
 5786SOL    HW228818   1.187   0.515   5.883  0.5508 -1.2219 -2.2191
 5787SOL     OW28819   0.800   3.914   2.973  0.3063 -0.4394 -0.4289
 5787SOL    HW128820   0.867   3.846   2.974  0.2325 -0.5048  0.0583
 5787SOL    HW228821   0.766   3.894   3.061 -1.2701  0.5151 -0.8147
 5788SOL     OW28822   1.258   4.668   9.137  0.3058  0.0245 -0.9380
 5788SOL    HW128823   1.306   4.592   9.106 -1.7427 -1.7283  0.2074
 5788SOL    HW228824   1.271   4.651   9.230  2.5008 -1.9408 -1.6139
 5789SOL     OW28825   0.743   1.686   6.851  0.2157 -0.0246  0.6398
 5789SOL    HW128826   0.706   1.638   6.926  1.9040 -0.3959  1.2378
 5789SOL    HW228827   0.812   1.628   6.818  1.9478  1.2706  1.9870
 5790SOL     OW28828   0.098   3.875   8.910  0.0991 -0.1544  0.4041
 5790SOL    HW128829   0.109   3.783   8.935  1.8844  0.2954  1.2298
 5790SOL    HW228830   0.009   3.867   8.874 -0.1358 -1.9666  1.4027
 5791SOL     OW28831   3.586   3.039   3.822  0.1325  0.0750  0.2212
 5791SOL    HW128832   3.589   3.036   3.727  0.6160 -1.4688  0.2783
 5791SOL    HW228833   3.656   2.982   3.855  0.4634  0.2569 -0.1741
 5792SOL     OW28834   1.890   1.571   2.769 -0.3033 -0.3817 -0.2027
 5792SOL    HW128835   1.949   1.645   2.752  0.4373 -0.8692  0.2259
 5792SOL    HW228836   1.805   1.611   2.788  0.0598 -1.2932  3.2841
 5793SOL     OW28837   0.290   3.685   5.649  0.0278  0.4784  0.4844
 5793SOL    HW128838   0.312   3.732   5.729 -0.0073 -0.9116  1.3110
 5793SOL    HW228839   0.221   3.634   5.691 -1.5794  1.0418 -1.4869
 5794SOL     OW28840   0.461   3.967   1.289 -0.8428 -0.7749  0.0185
 5794SOL    HW128841   0.542   3.922   1.267  1.5191  1.5219  3.8726
 5794SOL    HW228842   0.500   4.008   1.367  1.4932  1.3791 -2.2696
 5795SOL     OW28843   3.244   4.696   6.200  0.5498 -0.3598 -0.1074
 5795SOL    HW128844   3.223   4.606   6.174  1.3655 -0.8319  0.8514
 5795SOL    HW228845   3.218   4.690   6.292  1.6526  3.0020  0.4455
 5796SOL     OW28846   2.996   3.309   7.749  0.0200 -0.2766 -0.4703
 5796SOL    HW128847   2.933   3.359   7.800  1.9387 -0.4256  2.0421
 5796SOL    HW228848   2.934   3.264   7.692  0.5065  0.4005 -1.5359
 5797SOL     OW28849   1.801   3.277   5.535 -0.3269 -0.3645 -0.2168
 5797SOL    HW128850   1.819   3.212   5.603  0.2401  0.9786  0.9353
 5797SOL    HW228851   1.765   3.348   5.588  1.3477  0.1361  0.2812
 5798SOL     OW28852   1.593   4.024   7.466  0.0288 -0.4855  0.1938
 5798SOL    HW128853   1.649   4.044   7.542 -0.2033 -2.2920  0.8416
 5798SOL    HW228854   1.544   3.950   7.501 -0.4217  0.8273  2.2991
 5799SOL     OW28855   1.040   4.078   3.450 -0.4055 -0.3445  0.3108
 5799SOL    HW128856   1.056   4.047   3.361  0.5621  1.5439 -0.1688
 5799SOL    HW228857   1.044   4.173   3.441 -1.4439 -0.5476 -2.4417
 5800SOL     OW28858   0.540   3.186  14.877  0.3191  0.5602  0.2388
 5800SOL    HW128859   0.530   3.226  14.964 -0.1883  2.0738 -0.4993
 5800SOL    HW228860   0.552   3.096  14.906  0.7949 -0.2634 -2.5475
 5801SOL     OW28861   4.351   0.141   7.490  0.1715 -0.2795  0.3916
 5801SOL    HW128862   4.331   0.117   7.581 -1.4315 -0.3255  0.0220
 5801SOL    HW228863   4.430   0.193   7.500  0.2247 -0.1302 -0.7917
 5802SOL     OW28864   4.316   2.499   4.798 -0.1038  0.0184  0.8922
 5802SOL    HW128865   4.398   2.545   4.813  0.8416 -1.2817 -0.2730
 5802SOL    HW228866   4.352   2.417   4.765 -1.0127  0.0800 -0.2529
 5803SOL     OW28867   1.874   2.795   9.640 -0.2504  0.0472  0.5444
 5803SOL    HW128868   1.790   2.804   9.684 -0.1984 -2.1476  1.1213
 5803SOL    HW228869   1.925   2.831   9.712  1.0224 -0.7910  0.0643
 5804SOL     OW28870   0.312   3.009   5.222 -0.2494  0.4354  0.2527
 5804SOL    HW128871   0.303   2.980   5.313 -1.7720  0.3532  0.0724
 5804SOL    HW228872   0.403   3.037   5.221 -0.5359  1.2898 -1.9512
 5805SOL     OW28873   2.104   2.692  15.519 -0.9913  0.4555 -0.1723
 5805SOL    HW128874   2.015   2.697  15.483 -1.2869 -3.6732 -0.0252
 5805SOL    HW228875   2.090   2.658  15.607 -2.1048 -0.1099 -0.5692
 5806SOL     OW28876   1.269   0.416   6.585 -0.2574 -0.6846 -0.1729
 5806SOL    HW128877   1.250   0.378   6.671  1.0395 -0.6680  0.1182
 5806SOL    HW228878   1.327   0.351   6.545 -1.4721 -0.4547 -2.3013
 5807SOL     OW28879   1.334   3.205   7.838 -0.0092  0.1254 -0.0175
 5807SOL    HW128880   1.329   3.153   7.919 -0.3879 -0.3073 -0.3177
 5807SOL    HW228881   1.250   3.183   7.798 -0.1339  0.8468 -0.1541
 5808SOL     OW28882   2.784   3.087  13.371 -0.3183  0.4876 -0.2513
 5808SOL    HW128883   2.830   3.071  13.453 -0.2810 -1.2452 -0.6090
 5808SOL    HW228884   2.690   3.086  13.387 -0.1887 -0.6048  0.4558
 5809SOL     OW28885   3.593   4.066   3.543 -0.0718  0.3649  0.4390
 5809SOL    HW128886   3.619   4.053   3.635 -0.7179 -0.0444  0.5599
 5809SOL    HW228887   3.647   3.997   3.506 -1.1679 -0.3132  0.1183
 5810SOL     OW28888   0.920   1.248   7.567 -0.4538  0.1518 -0.0262
 5810SOL    HW128889   0.826   1.259   7.574 -0.7429 -2.2933 -0.2641
 5810SOL    HW228890   0.933   1.299   7.487  1.7705  0.8677  0.7683
 5811SOL     OW28891   3.381   2.742   3.332  0.1857 -0.2993  0.4447
 5811SOL    HW128892   3.461   2.690   3.332  0.5935  0.3268 -0.7748
 5811SOL    HW228893   3.398   2.796   3.255  0.1942  0.6059  1.0717
 5812SOL     OW28894   3.127   1.489   3.070 -0.4248 -0.4596  0.3182
 5812SOL    HW128895   3.170   1.407   3.047  0.0495 -0.0687 -0.1847
 5812SOL    HW228896   3.199   1.544   3.100  1.5423 -3.3414  0.9099
 5813SOL     OW28897   2.812   2.820  17.169  0.0011  0.1068 -0.2874
 5813SOL    HW128898   2.732   2.805  17.118  0.3123 -0.7494 -0.5391
 5813SOL    HW228899   2.853   2.888  17.116 -0.9455  1.3266  0.5499
 5814SOL     OW28900   2.872   1.974   8.185  0.2457  0.8968 -0.3861
 5814SOL    HW128901   2.879   1.879   8.201  0.3445  1.2051  1.4290
 5814SOL    HW228902   2.845   2.009   8.270 -1.8279 -2.8248  0.4886
 5815SOL     OW28903   1.643   4.087   0.240 -0.0286 -0.3536  0.4858
 5815SOL    HW128904   1.571   4.040   0.282 -0.6066  1.5394  1.6032
 5815SOL    HW228905   1.680   4.013   0.192  0.1581  0.2644 -0.3163
 5816SOL     OW28906   1.392   1.579  13.018 -0.0501  0.1637  0.8672
 5816SOL    HW128907   1.470   1.528  12.998  0.8337  1.5715  0.7900
 5816SOL    HW228908   1.328   1.515  13.050 -1.1119 -0.5967 -2.8365
 5817SOL     OW28909   2.851   4.145   9.276  0.3901 -0.0798 -0.3951
 5817SOL    HW128910   2.831   4.079   9.342 -0.9408 -0.4416 -1.1595
 5817SOL    HW228911   2.946   4.138   9.274  0.5181  1.4688  0.3513
 5818SOL     OW28912   1.778   1.457   1.739  0.0070 -0.4018  0.4277
 5818SOL    HW128913   1.756   1.470   1.832 -1.1974  0.7175 -0.0112
 5818SOL    HW228914   1.852   1.517   1.736 -0.6704  0.4836  1.1348
 5819SOL     OW28915   1.811   1.058   6.090  0.2476 -0.6025 -0.2290
 5819SOL    HW128916   1.779   1.114   6.021  0.2062 -0.9155 -0.4651
 5819SOL    HW228917   1.803   0.970   6.052 -2.1199 -0.6789  0.4618
 5820SOL     OW28918   1.092   1.137   7.163 -0.1274  0.3140  0.5549
 5820SOL    HW128919   1.091   1.176   7.076  0.6246 -0.2426  0.2982
 5820SOL    HW228920   1.090   1.042   7.149 -0.6303  0.3815  0.1720
 5821SOL     OW28921   4.668   4.041   6.307 -0.3614  0.7928 -0.1565
 5821SOL    HW128922   4.685   4.075   6.394  1.6359 -0.3247 -0.1241
 5821SOL    HW228923   4.588   4.089   6.283 -1.2798 -0.6599  0.0060
 5822SOL     OW28924   1.895   3.453   2.264  0.4639  0.0700 -0.4821
 5822SOL    HW128925   1.934   3.455   2.177  1.3507  1.6935 -0.0458
 5822SOL    HW228926   1.966   3.492   2.315  0.6002 -1.7347  0.7524
 5823SOL     OW28927   1.653   3.717  15.864 -0.3913  0.3575 -0.6063
 5823SOL    HW128928   1.714   3.781  15.827 -0.2112  0.8899  0.6086
 5823SOL    HW228929   1.601   3.690  15.789 -1.2780  3.0570 -0.9699
 5824SOL     OW28930   2.436   2.501  12.188 -0.5529 -0.2153  0.8675
 5824SOL    HW128931   2.527   2.474  12.169 -0.7978 -1.0773  0.9022
 5824SOL    HW228932   2.449   2.574  12.247 -1.9692 -0.2621  1.2191
 5825SOL     OW28933   3.033   4.093  12.427 -0.0349 -0.0728 -0.0941
 5825SOL    HW128934   2.993   4.094  12.514  0.0762  0.0803 -0.0443
 5825SOL    HW228935   3.057   4.186  12.427  2.7323 -0.8001 -0.8076
 5826SOL     OW28936   4.358   3.914  17.031 -0.8529 -0.5240  0.2652
 5826SOL    HW128937   4.273   3.870  17.039 -0.8701 -0.5653 -0.1918
 5826SOL    HW228938   4.403   3.868  16.961  2.5404  2.6992  0.3218
 5827SOL     OW28939   4.078   2.154   2.628 -0.2621  0.5079  0.4291
 5827SOL    HW128940   4.167   2.181   2.610  0.2027 -1.7813 -0.7315
 5827SOL    HW228941   4.045   2.114   2.547  0.8202 -1.2608  0.8441
 5828SOL     OW28942   2.465   0.449   9.611 -0.1230 -0.8523  0.2323
 5828SOL    HW128943   2.507   0.530   9.581 -1.3594 -0.0524  0.6917
 5828SOL    HW228944   2.496   0.390   9.543  0.7802  0.5433 -0.5773
 5829SOL     OW28945   4.325   1.361  10.360 -0.2168  0.3616 -1.1826
 5829SOL    HW128946   4.371   1.287  10.400  1.3234  2.5427  1.0924
 5829SOL    HW228947   4.247   1.368  10.416 -0.0240  0.3743 -0.9185
 5830SOL     OW28948   4.486   1.996   2.997  0.1507  0.4222 -0.0571
 5830SOL    HW128949   4.554   1.945   2.953 -3.0533 -1.2609 -3.1615
 5830SOL    HW228950   4.525   2.081   3.016  1.5696 -0.3191  0.3522
 5831SOL     OW28951   4.247   3.825   8.998 -0.5587  0.0530  0.1599
 5831SOL    HW128952   4.202   3.741   9.002  0.6282 -0.5201  1.2900
 5831SOL    HW228953   4.303   3.818   8.921 -1.0425  2.5054 -0.4084
 5832SOL     OW28954   3.718   4.665   0.292  0.0483 -0.4468  0.2250
 5832SOL    HW128955   3.635   4.678   0.246  1.7303 -0.8092 -2.9076
 5832SOL    HW228956   3.696   4.589   0.345  0.1448 -1.0314 -0.5736
 5833SOL     OW28957   0.041   0.581   2.724 -0.2381  0.4820 -0.8470
 5833SOL    HW128958   4.694   0.556   2.669 -1.6674  1.9512  0.3866
 5833SOL    HW228959   0.008   0.669   2.743 -0.0019  0.0385  1.7305
 5834SOL     OW28960   2.821   1.055   7.144  0.1744  0.0732 -0.4701
 5834SOL    HW128961   2.737   1.091   7.174  0.7754  0.9487  0.1514
 5834SOL    HW228962   2.853   1.130   7.094  0.8380 -0.5015 -0.8959
 5835SOL     OW28963   0.374   1.202   1.121  0.0339 -0.9996 -0.2544
 5835SOL    HW128964   0.357   1.150   1.043  0.2771 -1.0081 -0.3028
 5835SOL    HW228965   0.397   1.125   1.174 -1.2187  0.0061  1.7411
 5836SOL     OW28966   2.324   1.082  16.039  0.5103  0.5296  0.5008
 5836SOL    HW128967   2.284   1.090  16.126  1.2344 -0.1473  0.9033
 5836SOL    HW228968   2.248   1.111  15.989 -0.8837 -2.4777  0.8606
 5837SOL     OW28969   0.053   3.941   1.178 -0.2363  0.1437  0.9825
 5837SOL    HW128970   0.087   3.863   1.221  0.5462 -0.8341 -1.3707
 5837SOL    HW228971   4.720   3.909   1.109  0.2745  0.1060  0.5637
 5838SOL     OW28972   1.684   1.217   7.931  0.3540 -0.2220  0.1353
 5838SOL    HW128973   1.613   1.241   7.991 -1.2088 -3.0097 -0.6287
 5838SOL    HW228974   1.751   1.198   7.996  0.3812  1.0876  0.4919
 5839SOL     OW28975   4.560   4.569   3.548  0.1355  0.2701  0.0455
 5839SOL    HW128976   4.523   4.480   3.546 -0.4075  0.5339 -1.6601
 5839SOL    HW228977   4.573   4.573   3.643  2.9778  0.2983 -0.3591
 5840SOL     OW28978   1.871   4.017   7.998  0.4718 -0.7046  0.2850
 5840SOL    HW128979   1.908   4.092   8.045  1.3843 -1.2779  0.4751
 5840SOL    HW228980   1.924   3.941   8.022  0.1969 -0.9833  0.0119
 5841SOL     OW28981   1.087   1.838  10.936  0.0914  0.4635  0.7357
 5841SOL    HW128982   1.079   1.923  10.979  1.7276  0.6990  0.5711
 5841SOL    HW228983   1.179   1.818  10.953  0.3426  0.7762 -0.2749
 5842SOL     OW28984   0.198   2.663   5.944 -0.4154 -0.0034 -0.1504
 5842SOL    HW128985   0.263   2.719   5.985  0.5644 -2.5118  1.6963
 5842SOL    HW228986   0.250   2.586   5.921  0.2314  0.2106  0.6148
 5843SOL     OW28987   2.989   2.610  10.205  0.1272  0.4615  0.0610
 5843SOL    HW128988   2.954   2.677  10.147  2.2647  0.4753 -1.2349
 5843SOL    HW228989   3.069   2.660  10.220 -0.2775  1.2393 -0.4360
 5844SOL     OW28990   2.407   0.770   4.039  0.1390  0.6815  0.1584
 5844SOL    HW128991   2.335   0.825   4.008 -0.7076 -0.9238 -0.7265
 5844SOL    HW228992   2.445   0.744   3.955 -0.8072 -2.1349  0.6146
 5845SOL     OW28993   3.156   3.662  11.456 -0.0295  0.5602 -0.1893
 5845SOL    HW128994   3.065   3.684  11.436 -0.5634 -0.9892  0.5296
 5845SOL    HW228995   3.158   3.568  11.472  0.4825  0.8191  1.2630
 5846SOL     OW28996   2.083   1.704   7.988 -0.2934 -0.6959  0.3912
 5846SOL    HW128997   2.049   1.772   7.929  1.6179 -1.2974 -1.3957
 5846SOL    HW228998   2.067   1.625   7.937  0.6063  0.1895 -1.2812
 5847SOL     OW28999   1.788   3.784   5.901 -0.1634 -0.0003 -0.1865
 5847SOL    HW129000   1.821   3.707   5.855 -0.2470 -0.5762  0.7237
 5847SOL    HW229001   1.707   3.789   5.850 -1.6320 -0.3416  2.1224
 5848SOL     OW29002   4.523   1.233   5.136 -0.4380  0.2487  0.6201
 5848SOL    HW129003   4.599   1.290   5.141  1.7709 -2.5128 -1.9249
 5848SOL    HW229004   4.505   1.227   5.042  0.8968  0.9243  0.3228
 5849SOL     OW29005   3.174   4.310   4.945 -0.0674  0.0869 -0.1721
 5849SOL    HW129006   3.169   4.396   4.904 -2.8994 -0.5273 -1.1255
 5849SOL    HW229007   3.120   4.261   4.883  0.4587 -0.2347 -0.3784
 5850SOL     OW29008   0.547   3.572  17.096  0.4895 -0.0590 -0.0199
 5850SOL    HW129009   0.460   3.532  17.095  0.8717 -0.8233 -3.0641
 5850SOL    HW229010   0.544   3.650  17.041 -1.0319  0.3102  0.5875
 5851SOL     OW29011   4.073   0.251   0.546  0.2542  0.1138  0.3648
 5851SOL    HW129012   4.011   0.179   0.538  0.4463  0.2096 -1.9911
 5851SOL    HW229013   4.076   0.277   0.454  1.9491  2.9764  1.2172
 5852SOL     OW29014   3.191   1.974  16.363  0.0519 -0.3333  0.1611
 5852SOL    HW129015   3.223   2.025  16.288 -0.0874 -0.4778  0.0026
 5852SOL    HW229016   3.274   1.953  16.406 -0.6183  2.2693  2.6863
 5853SOL     OW29017   3.884   2.442   7.722  0.1394  0.0723 -0.2715
 5853SOL    HW129018   3.915   2.357   7.754  2.5646  2.2568  3.2636
 5853SOL    HW229019   3.801   2.421   7.680  0.0939  0.5718 -0.4312
 5854SOL     OW29020   0.493   2.948   3.696 -0.1097  0.2138  0.4482
 5854SOL    HW129021   0.456   3.010   3.758  1.9925  2.4097 -0.5085
 5854SOL    HW229022   0.449   2.867   3.720 -2.1931  1.2937  0.1922
 5855SOL     OW29023   2.410   0.183   8.896 -0.0239 -0.1847  0.1850
 5855SOL    HW129024   2.435   0.115   8.834 -1.6436  1.8685 -2.7036
 5855SOL    HW229025   2.350   0.140   8.957  0.5998  0.6764  1.4201
 5856SOL     OW29026   2.136   0.209   6.805  0.4015 -0.2414  0.0732
 5856SOL    HW129027   2.214   0.176   6.761  0.3753  0.2748 -0.3610
 5856SOL    HW229028   2.174   0.290   6.839 -1.3689  1.4236 -1.8619
 5857SOL     OW29029   0.530   1.899  10.070 -0.1290 -0.4336 -0.3265
 5857SOL    HW129030   0.442   1.914  10.037 -0.4739  0.2731  0.9199
 5857SOL    HW229031   0.556   1.991  10.073  0.7534 -0.6877 -0.0128
 5858SOL     OW29032   0.627   1.479  16.563  0.7662  0.1713 -0.2488
 5858SOL    HW129033   0.603   1.494  16.471 -0.9478 -1.8155 -0.1212
 5858SOL    HW229034   0.623   1.567  16.600  1.1659  0.0265  0.1298
 5859SOL     OW29035   4.060   3.126   3.399 -0.1799 -0.5149 -0.0970
 5859SOL    HW129036   4.021   3.054   3.351  0.0180 -0.1991 -0.7368
 5859SOL    HW229037   3.993   3.132   3.467 -1.3576 -1.6485 -1.1700
 5860SOL     OW29038   2.338   1.513  16.390  0.0804  0.0230 -0.3595
 5860SOL    HW129039   2.265   1.536  16.332  1.9342  1.7938 -2.0027
 5860SOL    HW229040   2.408   1.487  16.331  0.1567 -2.2649  0.7662
 5861SOL     OW29041   4.287   4.559   2.034 -0.1600 -0.2775 -0.1271
 5861SOL    HW129042   4.266   4.466   2.047 -1.7846  0.0998 -0.0309
 5861SOL    HW229043   4.376   4.557   2.068  0.0413  0.8651 -0.6007
 5862SOL     OW29044   0.588   1.331   4.081 -0.5489  0.5532  0.0274
 5862SOL    HW129045   0.676   1.302   4.058  0.2530  1.6512  1.6786
 5862SOL    HW229046   0.530   1.311   4.007  1.5881 -1.9565 -0.9594
 5863SOL     OW29047   1.781   0.880   2.432 -0.0238  0.8330  0.1398
 5863SOL    HW129048   1.838   0.920   2.366 -0.3573  0.9377 -0.0832
 5863SOL    HW229049   1.794   0.788   2.411  0.0022  0.9069 -0.1591
 5864SOL     OW29050   0.650   1.821  13.096  0.4628 -0.0879  0.1088
 5864SOL    HW129051   0.732   1.807  13.143  1.1924 -1.6758 -1.6426
 5864SOL    HW229052   0.680   1.783  13.014 -2.4317 -1.7237 -0.1901
 5865SOL     OW29053   4.227   1.894   2.255 -0.4374 -0.2305  0.3601
 5865SOL    HW129054   4.166   1.924   2.187  1.9370 -1.3068 -2.2479
 5865SOL    HW229055   4.267   1.822   2.206  2.7707  1.9154 -0.1518
 5866SOL     OW29056   1.715   0.317   1.816 -0.0068  0.1138  0.7021
 5866SOL    HW129057   1.684   0.405   1.837 -2.9242 -0.9822  1.0550
 5866SOL    HW229058   1.757   0.296   1.900 -0.7575  1.8167  1.4980
 5867SOL     OW29059   2.038   2.778   8.336 -0.3179  0.1009 -0.1007
 5867SOL    HW129060   2.124   2.781   8.379 -1.5188 -1.2653  2.3519
 5867SOL    HW229061   2.063   2.808   8.249  1.9097  1.0378  0.8612
 5868SOL     OW29062   0.929   3.404   8.463 -0.1987  0.2240  0.1234
 5868SOL    HW129063   0.861   3.369   8.406 -1.2332 -0.2638  1.6454
 5868SOL    HW229064   0.875   3.430   8.537  2.0509  0.2569  1.7532
 5869SOL     OW29065   0.058   1.256   8.719  0.2255 -0.7368  0.1870
 5869SOL    HW129066   0.105   1.338   8.704  2.5612 -1.8136  1.5958
 5869SOL    HW229067   0.008   1.267   8.800  1.2263 -0.6003  0.7890
 5870SOL     OW29068   3.593   4.403   5.868  0.4494  0.0705 -0.0969
 5870SOL    HW129069   3.537   4.470   5.907 -0.4498 -1.3061  0.9880
 5870SOL    HW229070   3.540   4.352   5.806  0.5119  0.0675 -0.1473
 5871SOL     OW29071   4.633   3.273   7.101 -0.4322  0.1876 -0.9622
 5871SOL    HW129072   4.676   3.344   7.147 -1.9854  0.7166 -0.3204
 5871SOL    HW229073   4.598   3.318   7.023  2.1903  0.7319 -1.8214
 5872SOL     OW29074   3.528   3.536   9.800 -0.2486 -0.0366 -0.6982
 5872SOL    HW129075   3.482   3.460   9.836 -1.1786  1.2619  0.8549
 5872SOL    HW229076   3.476   3.536   9.719 -1.3260 -1.0794 -0.0084
 5873SOL     OW29077   0.447   4.247   5.564 -0.3382  0.0895 -0.8540
 5873SOL    HW129078   0.484   4.270   5.479  1.7308 -0.2735 -0.0329
 5873SOL    HW229079   0.454   4.151   5.561  0.6466  0.1026  0.7927
 5874SOL     OW29080   1.718   4.016  12.740 -0.8984  0.4415 -0.3964
 5874SOL    HW129081   1.788   4.073  12.709  0.2870 -1.0990 -0.5383
 5874SOL    HW229082   1.728   4.007  12.834 -3.6001  2.5152  0.1052
 5875SOL     OW29083   3.018   0.021   5.264  0.6481 -0.1710  0.1389
 5875SOL    HW129084   2.999   4.681   5.330 -2.7911  0.1466 -0.5718
 5875SOL    HW229085   3.080   4.709   5.202 -1.3530 -1.1108 -1.2520
 5876SOL     OW29086   3.890   4.474   7.886  0.5581 -0.1018 -0.2788
 5876SOL    HW129087   3.926   4.424   7.959 -1.1194 -0.3316  0.3831
 5876SOL    HW229088   3.862   4.551   7.936  0.0391 -0.5211  0.0699
 5877SOL     OW29089   0.938   3.895   5.386  0.3759 -0.2044  0.1127
 5877SOL    HW129090   0.938   3.843   5.466 -0.7558 -4.3302 -2.5688
 5877SOL    HW229091   0.910   3.829   5.322  1.4984  2.3446 -3.0150
 5878SOL     OW29092   1.314   4.508   4.524  0.4411  0.0196  0.5442
 5878SOL    HW129093   1.276   4.476   4.606 -2.2003  0.6318 -0.4491
 5878SOL    HW229094   1.259   4.464   4.459 -1.3535  3.2403 -0.1187
 5879SOL     OW29095   3.980   1.103   1.479  0.1759  0.5382 -0.3137
 5879SOL    HW129096   4.010   1.192   1.461  2.8480 -0.3460 -0.1534
 5879SOL    HW229097   3.904   1.098   1.420  2.0450 -1.5146 -2.5641
 5880SOL     OW29098   1.185   1.292   2.573 -0.7943 -0.2858 -0.4124
 5880SOL    HW129099   1.215   1.267   2.486 -0.3057  0.0460 -0.3415
 5880SOL    HW229100   1.170   1.207   2.613 -1.6562 -0.0592 -0.2328
 5881SOL     OW29101   0.454   4.516   8.961 -0.3512  0.1716  0.3520
 5881SOL    HW129102   0.422   4.514   9.051  1.1858  4.8415  1.0124
 5881SOL    HW229103   0.541   4.538   8.994  0.8691 -2.2240 -1.2964
 5882SOL     OW29104   2.085   3.456   1.767 -0.2645  0.1682 -0.0196
 5882SOL    HW129105   2.178   3.475   1.757 -0.3600  1.4985  1.6301
 5882SOL    HW229106   2.032   3.531   1.741  0.6877  1.7078  2.4476
 5883SOL     OW29107   3.109   1.709   4.062 -0.3790 -0.3906 -0.3973
 5883SOL    HW129108   3.065   1.712   4.147  0.1464 -1.1927 -0.0970
 5883SOL    HW229109   3.038   1.741   4.007  1.0909  2.3834 -0.6845
 5884SOL     OW29110   3.945   4.038  13.195  0.4607 -0.1905  0.2853
 5884SOL    HW129111   3.984   3.979  13.259  1.1591 -0.4431 -0.3661
 5884SOL    HW229112   3.880   3.994  13.141  0.4130  0.5140 -0.2347
 5885SOL     OW29113   0.309   2.618  13.891 -0.0473 -0.2472  0.1671
 5885SOL    HW129114   0.244   2.677  13.853  0.6261 -0.8416 -1.8934
 5885SOL    HW229115   0.265   2.581  13.968 -2.2293  3.3366  0.6835
 5886SOL     OW29116   0.654   0.184  16.001  0.0668 -0.4098  0.4448
 5886SOL    HW129117   0.701   0.264  16.026  1.7924 -1.7228  1.3060
 5886SOL    HW229118   0.629   0.212  15.913 -0.9852  0.3247  0.9642
 5887SOL     OW29119   4.655   4.472   2.907 -0.4652  0.2406  0.3222
 5887SOL    HW129120   4.717   4.493   2.977 -0.7528  0.1452  0.6032
 5887SOL    HW229121   4.673   4.541   2.843 -0.4765  0.4533  0.5490
 5888SOL     OW29122   0.769   0.329  16.366  0.1388  0.2422  0.5906
 5888SOL    HW129123   0.828   0.380  16.420  1.8248 -0.0026 -1.0382
 5888SOL    HW229124   0.806   0.241  16.357 -2.4752 -0.8464  0.5055
 5889SOL     OW29125   2.497   2.453   8.875 -0.4035 -0.0756  0.0276
 5889SOL    HW129126   2.565   2.428   8.936 -0.3782 -1.1130 -0.4407
 5889SOL    HW229127   2.423   2.476   8.932  2.3978  1.5790  2.9730
 5890SOL     OW29128   0.356   2.552   7.908 -0.1445 -0.6808 -0.2171
 5890SOL    HW129129   0.403   2.483   7.954  2.0218 -0.6132 -2.3301
 5890SOL    HW229130   0.272   2.535   7.949  0.1281  1.9804  1.4643
 5891SOL     OW29131   2.737   3.041   1.011  0.3217  0.0132 -0.0492
 5891SOL    HW129132   2.830   3.064   1.009  0.1465  0.6152 -1.4673
 5891SOL    HW229133   2.694   3.126   1.000  0.6995  0.3185  0.8498
 5892SOL     OW29134   4.254   0.284   0.317 -0.2891 -0.0431 -0.7053
 5892SOL    HW129135   4.270   0.205   0.368 -1.5430  0.3957  0.3763
 5892SOL    HW229136   4.343   0.296   0.283 -0.4494  0.1997 -1.0411
 5893SOL     OW29137   4.077   1.343   2.474  0.0735  0.0013  0.2093
 5893SOL    HW129138   4.086   1.257   2.431  0.3109  0.2557 -0.2482
 5893SOL    HW229139   3.989   1.324   2.504  0.2255 -1.0285  0.0097
 5894SOL     OW29140   0.327   2.654  13.579  0.0711  0.6042 -0.6384
 5894SOL    HW129141   0.302   2.745  13.594 -4.1323 -0.9631  1.7912
 5894SOL    HW229142   0.328   2.652  13.483 -2.0928 -1.6347 -0.6015
 5895SOL     OW29143   2.401   3.987   3.745  0.2009  0.1437  0.5129
 5895SOL    HW129144   2.357   4.057   3.697  0.6005 -0.4579 -0.7334
 5895SOL    HW229145   2.487   4.023   3.770  0.4582 -0.1064 -0.0010
 5896SOL     OW29146   3.434   1.704  10.794  0.4222 -0.6026 -0.0035
 5896SOL    HW129147   3.392   1.756  10.726  2.2137  0.0341 -0.6306
 5896SOL    HW229148   3.525   1.707  10.763  0.1003  1.7837 -0.6930
 5897SOL     OW29149   0.309   3.981  11.131  0.5347  0.4526 -0.1354
 5897SOL    HW129150   0.345   4.001  11.217 -0.5652  3.3832 -0.3465
 5897SOL    HW229151   0.220   4.013  11.147  0.4356 -0.6361  1.4668
 5898SOL     OW29152   0.540   2.611   6.461  0.0111  0.2628 -0.2073
 5898SOL    HW129153   0.542   2.677   6.531 -1.0997  1.4517 -1.2874
 5898SOL    HW229154   0.574   2.662   6.387  0.9050  0.6863  0.4955
 5899SOL     OW29155   2.014   1.614   8.640 -0.3009 -0.0417  0.2602
 5899SOL    HW129156   1.967   1.632   8.721  3.1541 -0.2354  2.2813
 5899SOL    HW229157   2.107   1.629   8.658  0.0586 -1.0617 -0.6989
 5900SOL     OW29158   3.987   0.237   7.959 -0.2095  0.1256  0.6908
 5900SOL    HW129159   3.946   0.150   7.962  0.1512 -0.0523  0.4808
 5900SOL    HW229160   4.078   0.215   7.939 -1.1838 -1.6184 -1.8518
 5901SOL     OW29161   1.901   3.223   2.391  0.4973 -0.0525  0.5997
 5901SOL    HW129162   1.809   3.218   2.417 -0.2235 -0.1194 -1.9478
 5901SOL    HW229163   1.910   3.316   2.370  0.4450 -0.3304 -0.6660
 5902SOL     OW29164   1.084   4.535   5.227 -0.2468 -0.0572 -0.5217
 5902SOL    HW129165   1.082   4.449   5.270 -0.9461 -0.1994 -0.8471
 5902SOL    HW229166   1.165   4.568   5.267 -0.8639  1.2808 -0.4070
 5903SOL     OW29167   3.682   3.635   5.717 -0.0996 -0.1990 -0.1912
 5903SOL    HW129168   3.717   3.551   5.746  0.5003  0.3427  0.6476
 5903SOL    HW229169   3.593   3.610   5.691  0.2829 -0.1598 -1.5444
 5904SOL     OW29170   2.860   3.335  17.595  0.4083  0.2614  0.2690
 5904SOL    HW129171   2.817   3.421  17.589  1.0222  0.5906  0.6182
 5904SOL    HW229172   2.900   3.343  17.682  0.1235  0.3954  0.3875
 5905SOL     OW29173   1.495   3.821   0.341 -0.4417  0.5025  0.5191
 5905SOL    HW129174   1.463   3.803   0.429 -0.7338 -3.8007 -0.4699
 5905SOL    HW229175   1.537   3.736   0.328  0.5886  1.2171 -0.8379
 5906SOL     OW29176   1.620   4.143   8.474 -0.2151  0.3876  0.2330
 5906SOL    HW129177   1.556   4.131   8.545  0.0208  1.3196  0.5989
 5906SOL    HW229178   1.572   4.204   8.418  3.1323  2.9243  0.1704
 5907SOL     OW29179   3.942   2.836   7.027  0.1603  0.1823 -0.4860
 5907SOL    HW129180   3.897   2.899   7.084  0.1169 -2.7441  2.7760
 5907SOL    HW229181   4.005   2.799   7.089 -0.9539  0.9390  1.1104
 5908SOL     OW29182   4.127   2.341   7.346  0.2310 -0.3681  0.4629
 5908SOL    HW129183   4.147   2.268   7.404  0.5767 -0.3051  0.4257
 5908SOL    HW229184   4.136   2.418   7.402  2.0744 -0.1520 -0.1211
 5909SOL     OW29185   4.278   3.657  15.572 -0.1003 -0.3845 -0.5490
 5909SOL    HW129186   4.275   3.664  15.476  0.3152  3.1487 -0.3254
 5909SOL    HW229187   4.283   3.749  15.599  0.4735  0.0339 -2.0638
 5910SOL     OW29188   4.373   0.637   3.973  0.0782 -0.1763 -0.2945
 5910SOL    HW129189   4.392   0.729   3.986  0.2821 -0.5380  2.0013
 5910SOL    HW229190   4.426   0.619   3.895  1.3706 -0.8784  0.7579
 5911SOL     OW29191   2.766   2.662   8.216  1.0182 -0.1218  0.2447
 5911SOL    HW129192   2.710   2.669   8.293  1.6313 -2.1661  0.8715
 5911SOL    HW229193   2.840   2.714   8.245  1.7966  0.1108 -2.1649
 5912SOL     OW29194   0.799   4.519   4.250  0.0020 -0.0323 -0.3006
 5912SOL    HW129195   0.794   4.424   4.262  0.1344  0.2922  2.4278
 5912SOL    HW229196   0.782   4.532   4.157 -1.7755 -1.0161 -0.1092
 5913SOL     OW29197   0.081   2.654   8.441 -0.4491 -0.2815  0.4524
 5913SOL    HW129198   0.077   2.744   8.409 -1.5499 -0.7780 -0.8030
 5913SOL    HW229199   0.129   2.668   8.523 -0.1502 -2.1608  0.5874
 5914SOL     OW29200   2.459   3.840  10.299  0.2517  0.2077  0.0365
 5914SOL    HW129201   2.516   3.792  10.358  2.7634  2.1976 -0.7588
 5914SOL    HW229202   2.381   3.851  10.353  1.1116 -1.5056  1.6165
 5915SOL     OW29203   2.359   3.557   4.011  0.1696  0.1137 -0.2640
 5915SOL    HW129204   2.429   3.550   4.076 -0.1847  1.7808  0.2895
 5915SOL    HW229205   2.399   3.617   3.947  1.0225 -0.2393 -0.0568
 5916SOL     OW29206   0.133   2.279   6.205 -0.0748  0.5509 -0.0900
 5916SOL    HW129207   0.161   2.370   6.195 -1.6773  0.9357 -1.2158
 5916SOL    HW229208   0.098   2.280   6.294 -1.6988  1.2430 -0.7246
 5917SOL     OW29209   1.720   0.716   0.344 -0.1298  0.1590 -0.4388
 5917SOL    HW129210   1.757   0.771   0.414 -0.8220  2.6542 -2.0241
 5917SOL    HW229211   1.644   0.764   0.312  0.2793 -0.1527 -1.8553
 5918SOL     OW29212   4.536   1.206   9.852 -0.9641 -0.2058  0.0093
 5918SOL    HW129213   4.599   1.216   9.923 -0.6378  1.1023 -0.4774
 5918SOL    HW229214   4.457   1.245   9.888  0.2293  2.2028 -0.0092
 5919SOL     OW29215   3.408   2.535  10.158  0.9131  0.3083 -0.1882
 5919SOL    HW129216   3.470   2.604  10.178 -0.3121  1.6051 -0.8281
 5919SOL    HW229217   3.383   2.550  10.066  0.7310  1.0403 -0.0229
 5920SOL     OW29218   1.864   1.665   4.542  0.2563  0.1712 -0.2556
 5920SOL    HW129219   1.888   1.720   4.468  3.1142  2.0508  2.0507
 5920SOL    HW229220   1.802   1.726   4.582 -2.3227 -0.6680 -3.0131
 5921SOL     OW29221   1.561   4.160   5.497 -0.3462 -0.7658  0.1927
 5921SOL    HW129222   1.641   4.198   5.531 -1.5595  1.4574  0.5646
 5921SOL    HW229223   1.541   4.094   5.564  0.6388 -1.4041 -0.1495
 5922SOL     OW29224   1.887   1.894   2.588 -0.0514 -0.0009  0.1628
 5922SOL    HW129225   1.813   1.851   2.545 -1.1215  2.9242 -0.9059
 5922SOL    HW229226   1.929   1.947   2.521  0.9975  1.1474  1.7213
 5923SOL     OW29227   3.160   2.358   4.923  0.2482  0.2577 -0.1798
 5923SOL    HW129228   3.194   2.306   4.996 -2.0069 -0.0706  0.6292
 5923SOL    HW229229   3.101   2.289   4.892  1.4051 -1.2403  0.9565
 5924SOL     OW29230   4.017   2.768   6.359 -0.1209 -0.2948  0.4600
 5924SOL    HW129231   4.090   2.712   6.334 -0.1340 -0.5417  0.9683
 5924SOL    HW229232   3.989   2.794   6.271  1.2983 -0.3794 -0.0181
 5925SOL     OW29233   2.418   2.600  10.348 -0.1976  0.5864  0.2810
 5925SOL    HW129234   2.465   2.520  10.371 -1.5280 -0.2704  0.0458
 5925SOL    HW229235   2.347   2.565  10.294  1.7312 -1.4696 -0.9247
 5926SOL     OW29236   2.672   1.677   2.370 -0.3204 -0.3493 -0.3107
 5926SOL    HW129237   2.703   1.753   2.420  0.2917 -1.4458  0.9928
 5926SOL    HW229238   2.689   1.604   2.429 -0.4161  0.4146  0.6753
 5927SOL     OW29239   0.880   1.655  10.405 -0.5081 -0.2809  0.2003
 5927SOL    HW129240   0.808   1.593  10.417 -0.7542 -0.0848 -0.2694
 5927SOL    HW229241   0.875   1.693  10.493 -1.4548  0.5565 -0.2227
 5928SOL     OW29242   4.650   0.437   7.916  0.0871  0.0804 -0.8941
 5928SOL    HW129243   4.617   0.348   7.925 -0.5104  0.5191  1.1702
 5928SOL    HW229244   4.661   0.445   7.821 -0.2675 -0.9015 -1.0195
 5929SOL     OW29245   0.558   1.483   2.719 -0.4945 -0.0105 -0.4203
 5929SOL    HW129246   0.566   1.578   2.722 -0.5273 -0.0247  0.0929
 5929SOL    HW229247   0.599   1.481   2.633 -1.3681  0.6839 -0.8449
 5930SOL     OW29248   0.463   4.396   8.264  0.0779  0.4773  0.2596
 5930SOL    HW129249   0.443   4.356   8.348 -2.7403  1.4386  0.0506
 5930SOL    HW229250   0.492   4.482   8.296 -1.4533  1.1663 -0.1968
 5931SOL     OW29251   3.168   3.252  10.700 -0.3775 -0.4724  0.2773
 5931SOL    HW129252   3.217   3.314  10.754 -0.4843  0.1333 -0.3187
 5931SOL    HW229253   3.179   3.165  10.740 -0.0830 -0.4351  0.2830
 5932SOL     OW29254   0.956   2.805   8.204 -0.3425  0.0653  0.5311
 5932SOL    HW129255   0.972   2.897   8.223 -0.6125 -0.1010  1.5614
 5932SOL    HW229256   0.920   2.780   8.289 -0.6508  1.0550  0.6833
 5933SOL     OW29257   4.457   3.298   3.827  0.6580  0.2789 -0.2224
 5933SOL    HW129258   4.539   3.332   3.864  0.4441 -1.4264  1.8052
 5933SOL    HW229259   4.475   3.285   3.734 -0.7627 -0.7380 -0.3418
 5934SOL     OW29260   4.521   2.721   0.072 -0.1017 -0.6919 -0.0448
 5934SOL    HW129261   4.495   2.798   0.122  0.7165 -1.4788  1.6256
 5934SOL    HW229262   4.445   2.703   0.016 -0.7870  0.0023  0.6589
 5935SOL     OW29263   3.139   0.571   2.418  0.6957  0.9487 -0.4238
 5935SOL    HW129264   3.169   0.504   2.479 -1.8098  0.1301 -0.0756
 5935SOL    HW229265   3.068   0.617   2.463  0.1002  0.6634 -1.0745
 5936SOL     OW29266   1.012   3.638  12.786  0.4283 -0.3967 -0.3360
 5936SOL    HW129267   1.031   3.560  12.837  0.7700  0.9253  1.5431
 5936SOL    HW229268   1.065   3.704  12.830 -1.1221  0.6421 -0.0153
 5937SOL     OW29269   1.408   0.744   8.222  0.4778 -0.3194  0.7038
 5937SOL    HW129270   1.414   0.660   8.176  0.7075  1.7153 -3.0130
 5937SOL    HW229271   1.323   0.775   8.191  0.8053  0.1259  0.2548
 5938SOL     OW29272   1.596   2.944  16.646  0.2029 -0.3091 -0.6318
 5938SOL    HW129273   1.513   2.975  16.681  0.1113 -0.3052 -0.8484
 5938SOL    HW229274   1.600   3.002  16.570 -1.9281 -0.5842 -0.9787
 5939SOL     OW29275   4.284   1.778   7.486  0.1417 -0.0244 -0.5014
 5939SOL    HW129276   4.326   1.859   7.457 -0.0799  0.2916  0.0741
 5939SOL    HW229277   4.362   1.726   7.467  0.7069 -0.1104  2.1374
 5940SOL     OW29278   2.090   1.909  16.260  0.0811  0.0504  0.1769
 5940SOL    HW129279   2.183   1.892  16.244  0.4482  0.7674  1.5423
 5940SOL    HW229280   2.084   2.004  16.251 -1.2870  0.1036  1.7015
 5941SOL     OW29281   3.305   1.149  12.490 -0.5055 -0.1886 -0.1888
 5941SOL    HW129282   3.215   1.165  12.464 -1.4628 -0.2026  3.1280
 5941SOL    HW229283   3.355   1.174  12.412  1.9683  0.9457  1.7326
 5942SOL     OW29284   3.048   4.594   9.757 -0.3441 -0.0264 -0.7293
 5942SOL    HW129285   2.969   4.627   9.799 -1.2106 -1.0118 -1.6184
 5942SOL    HW229286   3.110   4.605   9.830 -0.7304 -1.7337 -0.1618
 5943SOL     OW29287   2.578   2.465   4.493 -0.3368 -0.2797 -0.4563
 5943SOL    HW129288   2.592   2.515   4.412  0.1712 -0.1856 -0.3099
 5943SOL    HW229289   2.661   2.421   4.511  0.7513  2.2912  0.7115
 5944SOL     OW29290   2.746   3.124   4.056 -0.2341 -0.3487  0.3872
 5944SOL    HW129291   2.760   3.094   3.967 -1.7556 -0.7982  0.2946
 5944SOL    HW229292   2.819   3.185   4.065 -1.1687  0.9911 -0.9785
 5945SOL     OW29293   3.342   2.116   2.278 -0.1974 -0.2822 -0.1352
 5945SOL    HW129294   3.376   2.128   2.367 -2.7939 -0.4172  0.8617
 5945SOL    HW229295   3.295   2.198   2.264  2.9909  1.4536 -0.8865
 5946SOL     OW29296   0.885   2.047  14.380 -0.3795  0.7271  0.6107
 5946SOL    HW129297   0.947   2.068  14.450  1.8738 -0.2026 -1.1061
 5946SOL    HW229298   0.895   1.952  14.374  1.1260  0.9751 -0.7640
 5947SOL     OW29299   1.897   0.661   4.050  0.0969 -0.4589 -0.0013
 5947SOL    HW129300   1.971   0.621   4.096  0.0670 -3.0478 -2.2598
 5947SOL    HW229301   1.827   0.598   4.068  0.9535 -1.5960 -0.7025
 5948SOL     OW29302   3.691   1.493   7.407 -0.3975 -0.1318  0.0792
 5948SOL    HW129303   3.783   1.506   7.382 -0.9498  1.5062 -1.1210
 5948SOL    HW229304   3.660   1.452   7.327  3.5392 -2.5029 -0.2569
 5949SOL     OW29305   1.868   4.226   2.685  0.0838  0.2690 -0.0805
 5949SOL    HW129306   1.789   4.214   2.632  0.7276 -0.7156 -0.8069
 5949SOL    HW229307   1.832   4.203   2.771  0.4713  2.3264  0.6536
 5950SOL     OW29308   3.326   1.003  14.901 -0.2898  0.0847  0.3745
 5950SOL    HW129309   3.407   1.007  14.849  0.0396 -1.2500  0.7927
 5950SOL    HW229310   3.344   1.065  14.971  0.8971  0.7837 -0.5398
 5951SOL     OW29311   1.405   1.558   8.512 -0.1744 -0.0200 -0.6412
 5951SOL    HW129312   1.444   1.645   8.503 -0.4267  0.1715  0.1191
 5951SOL    HW229313   1.347   1.579   8.586 -0.4863  0.8696 -1.1378
 5952SOL     OW29314   3.818   4.585   3.410 -0.7030  0.0334  0.5341
 5952SOL    HW129315   3.869   4.658   3.377 -0.4973  0.0484  0.8855
 5952SOL    HW229316   3.876   4.509   3.407  0.1966  0.6234  3.2294
 5953SOL     OW29317   2.996   0.929   5.751  0.3741  0.5528 -0.0318
 5953SOL    HW129318   2.962   0.927   5.841 -0.8455 -0.6346 -0.5186
 5953SOL    HW229319   2.936   0.876   5.698  0.7942  0.8223 -0.7761
 5954SOL     OW29320   2.360   0.124   7.988 -0.3889 -0.0458  0.3356
 5954SOL    HW129321   2.385   0.033   8.002  1.8599  0.2628 -1.7046
 5954SOL    HW229322   2.323   0.151   8.072  1.2302  1.8569  0.4319
 5955SOL     OW29323   0.992   4.320  10.791 -0.5290  0.0213 -0.0681
 5955SOL    HW129324   0.905   4.289  10.815 -0.0909  0.1753  1.7529
 5955SOL    HW229325   1.039   4.236  10.792 -0.9328 -0.1928  1.9607
 5956SOL     OW29326   1.537   3.070   6.509 -0.3885 -0.0423  0.0041
 5956SOL    HW129327   1.482   2.996   6.533 -0.3011 -0.6634 -1.7621
 5956SOL    HW229328   1.542   3.109   6.596 -2.0057 -1.4395  0.7221
 5957SOL     OW29329   2.652   0.965   6.947  0.2715  0.4186  0.4628
 5957SOL    HW129330   2.699   0.971   6.865  0.2887 -2.0470  0.2911
 5957SOL    HW229331   2.728   0.978   7.003  0.7762 -3.1405  0.5521
 5958SOL     OW29332   1.973   0.058  16.478  0.7494  0.4430  0.3002
 5958SOL    HW129333   2.029   4.708  16.461  0.0717 -0.2220  1.0828
 5958SOL    HW229334   1.885   0.027  16.460  0.9395  0.1561 -0.1267
 5959SOL     OW29335   3.347   2.680  14.524  0.6596 -0.4286 -0.6987
 5959SOL    HW129336   3.293   2.639  14.591 -1.0116 -0.7565 -2.2603
 5959SOL    HW229337   3.400   2.740  14.577  0.0392 -1.1343  0.7256
 5960SOL     OW29338   1.466   0.039  14.955  0.8803  0.2058 -0.3486
 5960SOL    HW129339   1.534   0.070  15.014 -1.0342 -1.3790  2.6602
 5960SOL    HW229340   1.407   0.010  15.025  0.2846  1.0396 -0.5108
 5961SOL     OW29341   0.526   4.615  14.390  0.0773  0.3169 -0.0651
 5961SOL    HW129342   0.455   4.556  14.364  0.3052 -0.3320  0.7702
 5961SOL    HW229343   0.501   4.620  14.483 -0.0874  0.9344 -0.1443
 5962SOL     OW29344   1.715   4.537   7.080  0.4281 -0.2178  0.0253
 5962SOL    HW129345   1.722   4.592   7.002  2.4093  0.6147  0.7836
 5962SOL    HW229346   1.670   4.457   7.054 -1.6508  1.3105 -1.0531
 5963SOL     OW29347   0.107   0.882   4.833 -0.4250 -0.2705  0.2736
 5963SOL    HW129348   0.156   0.820   4.780 -2.5071 -0.3296 -1.5510
 5963SOL    HW229349   0.078   0.830   4.908 -1.3463 -0.0154  0.0948
 5964SOL     OW29350   4.556   4.309   2.708 -0.8654 -0.2899 -0.2758
 5964SOL    HW129351   4.619   4.240   2.731 -0.5801 -0.0376 -0.3030
 5964SOL    HW229352   4.579   4.369   2.780 -2.0786 -0.0178 -0.1226
 5965SOL     OW29353   4.625   4.381   1.010  0.0536 -0.3534  0.8179
 5965SOL    HW129354   4.618   4.446   0.940 -0.4313  0.5448  1.6870
 5965SOL    HW229355   4.546   4.329   0.996  0.5241 -0.6624 -0.6082
 5966SOL     OW29356   3.223   3.710   3.952  0.4024 -0.0640  0.4066
 5966SOL    HW129357   3.151   3.757   3.995 -0.1639  0.8206 -1.4927
 5966SOL    HW229358   3.237   3.641   4.017  1.9480 -0.1390 -0.0045
 5967SOL     OW29359   3.358   0.420  16.930  0.4834 -0.2293 -0.8927
 5967SOL    HW129360   3.383   0.427  17.022 -1.0308 -1.4855 -0.3834
 5967SOL    HW229361   3.298   0.492  16.911 -1.1016 -1.1599  0.5707
 5968SOL     OW29362   1.004   1.955   9.691  0.6872  0.3810  0.4232
 5968SOL    HW129363   0.923   1.916   9.724  1.9824 -2.2982  0.4415
 5968SOL    HW229364   1.073   1.889   9.704  0.4668 -0.0727 -0.6843
 5969SOL     OW29365   0.190   1.055   9.103 -0.0072 -0.6965 -0.6476
 5969SOL    HW129366   0.151   1.037   9.017 -1.4683 -0.6899  0.0019
 5969SOL    HW229367   0.145   0.985   9.150 -4.3950  0.8607 -2.5447
 5970SOL     OW29368   3.884   4.625   2.238 -0.5675 -0.1154  1.1061
 5970SOL    HW129369   3.901   4.589   2.325 -0.5523  0.0838  1.1844
 5970SOL    HW229370   3.973   4.655   2.219 -0.8539 -0.5473 -0.9480
 5971SOL     OW29371   3.273   0.802   8.116  0.7985 -0.4450 -0.1431
 5971SOL    HW129372   3.354   0.799   8.167 -0.2729 -3.4181  1.3507
 5971SOL    HW229373   3.215   0.734   8.149 -1.4348  0.9791 -1.1319
 5972SOL     OW29374   1.093   4.093   9.267 -0.3607  0.5102 -0.1823
 5972SOL    HW129375   1.162   4.129   9.211 -0.1480  1.7158  0.8686
 5972SOL    HW229376   1.059   4.018   9.219 -0.3748  0.5027 -0.1605
 5973SOL     OW29377   3.150   2.096   6.592 -0.2872  0.3835 -0.4839
 5973SOL    HW129378   3.149   2.162   6.523 -1.4442  0.2028 -0.6414
 5973SOL    HW229379   3.066   2.107   6.638  0.5410  0.5621  0.9902
 5974SOL     OW29380   1.110   0.139  13.844  0.2129 -0.5400 -0.1257
 5974SOL    HW129381   1.102   0.197  13.769  0.8736  0.8967  0.9055
 5974SOL    HW229382   1.195   0.098  13.829  0.4755 -0.3294  0.7692
 5975SOL     OW29383   2.517   1.758   0.138 -0.1360  0.2163 -0.1459
 5975SOL    HW129384   2.462   1.827   0.176 -1.5044 -0.5291 -0.7793
 5975SOL    HW229385   2.591   1.758   0.199 -1.5125  0.6201  1.5371
 5976SOL     OW29386   0.379   4.242  13.668  0.7120  0.6762 -0.4828
 5976SOL    HW129387   0.451   4.265  13.610  1.1924 -0.6342 -0.4033
 5976SOL    HW229388   0.378   4.146  13.667  0.5241  0.6569  1.4640
 5977SOL     OW29389   1.179   3.399  14.334 -0.0339  0.2013 -0.7800
 5977SOL    HW129390   1.274   3.408  14.333 -0.0740  0.5370 -2.2925
 5977SOL    HW229391   1.162   3.310  14.365  0.8837  0.8136  1.4655
 5978SOL     OW29392   0.943   1.258   8.941  0.2137 -0.4061  0.6089
 5978SOL    HW129393   0.877   1.290   8.879  0.1168  0.7193  1.2988
 5978SOL    HW229394   0.912   1.168   8.951  1.0276 -0.7994 -0.4659
 5979SOL     OW29395   3.696   3.756   2.673 -0.2969  0.7631 -0.0085
 5979SOL    HW129396   3.728   3.766   2.763 -2.3770 -0.4106  0.8593
 5979SOL    HW229397   3.775   3.725   2.629 -0.2991 -1.2278  1.4190
 5980SOL     OW29398   4.252   0.282   0.753 -0.3060  0.1304  0.2862
 5980SOL    HW129399   4.340   0.263   0.720 -1.4636 -1.2980 -2.0040
 5980SOL    HW229400   4.203   0.261   0.673 -0.3688  0.3783  0.2587
 5981SOL     OW29401   2.154   1.385   7.985  0.5142 -0.1442 -0.3365
 5981SOL    HW129402   2.079   1.369   8.043  0.9304  0.3464  0.3399
 5981SOL    HW229403   2.213   1.400   8.059 -0.8672 -1.3868  1.0327
 5982SOL     OW29404   2.364   2.301   5.768  0.4481 -0.3905 -0.5602
 5982SOL    HW129405   2.276   2.276   5.740  0.9580  0.5436 -2.9517
 5982SOL    HW229406   2.394   2.344   5.688  0.0030 -1.2797 -1.2003
 5983SOL     OW29407   3.347   3.568   7.090  0.1579  0.1533  0.8481
 5983SOL    HW129408   3.254   3.572   7.066  0.4586 -0.5821 -0.4627
 5983SOL    HW229409   3.349   3.653   7.133  2.9099 -0.2390  1.4847
 5984SOL     OW29410   1.436   2.497   2.921  0.5892  0.3330  0.2395
 5984SOL    HW129411   1.449   2.461   3.009 -0.3150  1.0167  0.6516
 5984SOL    HW229412   1.380   2.430   2.881 -0.5545  1.6487 -0.3687
 5985SOL     OW29413   0.048   0.240   1.349  0.2605 -0.1795 -0.3723
 5985SOL    HW129414   4.705   0.236   1.414  0.6155  3.0205  0.1886
 5985SOL    HW229415   0.077   0.149   1.351  2.9399  0.5999 -3.0755
 5986SOL     OW29416   3.159   1.796   2.474 -0.6452 -0.4378  0.5167
 5986SOL    HW129417   3.212   1.719   2.495 -0.4420 -0.4969 -0.2013
 5986SOL    HW229418   3.220   1.858   2.514  0.3853 -0.5400 -0.8660
 5987SOL     OW29419   3.047   2.523   4.288 -0.4202  0.4980  0.2686
 5987SOL    HW129420   3.039   2.611   4.249  0.1663 -0.1422 -1.3093
 5987SOL    HW229421   3.093   2.472   4.221  2.2872  1.6799  1.2102
 5988SOL     OW29422   0.240   1.656   3.266 -0.2232  0.0523  0.0481
 5988SOL    HW129423   0.273   1.629   3.181 -1.6058  1.4155 -0.9083
 5988SOL    HW229424   0.230   1.749   3.247  0.6970  0.4312  1.3749
 5989SOL     OW29425   2.860   0.265   2.509  0.1808  1.1031 -0.3731
 5989SOL    HW129426   2.953   0.252   2.490  0.1899 -0.9316  1.1134
 5989SOL    HW229427   2.838   0.335   2.447  0.3981  0.4919 -1.1413
 5990SOL     OW29428   4.062   0.010   5.306  0.2562  0.0440 -0.6732
 5990SOL    HW129429   4.121   4.684   5.252 -1.7790 -2.3689 -0.5628
 5990SOL    HW229430   4.059   4.678   5.382  2.2896  1.5794  0.5971
 5991SOL     OW29431   0.576   2.633   0.023 -0.0586 -0.4743 -0.1572
 5991SOL    HW129432   0.661   2.663   0.055 -1.3908  2.3375  0.8421
 5991SOL    HW229433   0.523   2.651   0.101 -2.2807  0.1293 -1.8181
 5992SOL     OW29434   1.840   2.305   8.455 -0.0575  0.8297  0.2512
 5992SOL    HW129435   1.777   2.274   8.390  0.3058  0.2861  0.1570
 5992SOL    HW229436   1.918   2.307   8.400 -0.3835 -0.3872 -0.2551
 5993SOL     OW29437   2.711   0.601  17.450 -0.9527 -0.1448 -0.2417
 5993SOL    HW129438   2.703   0.509  17.478  2.9199 -0.2340  0.6005
 5993SOL    HW229439   2.690   0.644  17.533  0.1969 -0.4998  0.2490
 5994SOL     OW29440   0.562   3.188   9.922 -0.2477  0.0138  0.1725
 5994SOL    HW129441   0.475   3.152   9.938  0.1027 -0.2643  1.4687
 5994SOL    HW229442   0.552   3.277   9.956 -3.0593  0.3342 -1.5030
 5995SOL     OW29443   1.868   4.126   5.888  0.3331 -0.1721  0.4958
 5995SOL    HW129444   1.930   4.197   5.904 -2.3137  2.4046 -0.7985
 5995SOL    HW229445   1.919   4.062   5.838 -0.2510 -0.6755  0.5419
 5996SOL     OW29446   0.574   3.213   4.152 -0.2803  0.2585  0.3853
 5996SOL    HW129447   0.556   3.188   4.061 -1.3754  1.2641  0.3133
 5996SOL    HW229448   0.608   3.133   4.190 -1.2307  0.0719  0.8472
 5997SOL     OW29449   0.664   4.028   8.783  0.0786 -0.3392  0.2495
 5997SOL    HW129450   0.611   4.074   8.848  0.4964 -1.1923  1.1908
 5997SOL    HW229451   0.739   4.087   8.779 -0.4839  0.3410 -0.0603
 5998SOL     OW29452   3.987   1.382  15.855  0.4279  0.2918  0.0178
 5998SOL    HW129453   3.965   1.315  15.920 -0.7140  0.9189  0.2741
 5998SOL    HW229454   4.067   1.412  15.897  0.6953 -0.8084  0.2937
 5999SOL     OW29455   3.135   1.628   7.255  0.1448 -0.1604 -0.3925
 5999SOL    HW129456   3.218   1.583   7.268 -0.3877 -1.0949 -0.2409
 5999SOL    HW229457   3.075   1.563   7.292 -1.1922  1.2768 -0.0363
 6000SOL     OW29458   2.902   1.837  13.881 -0.7269  0.0065  0.5567
 6000SOL    HW129459   2.934   1.891  13.808 -0.9449  0.4214  0.7722
 6000SOL    HW229460   2.949   1.754  13.867 -0.0269  0.1943  1.7800
 6001SOL     OW29461   2.063   4.205  10.312  0.2850  0.2531 -0.0671
 6001SOL    HW129462   2.031   4.262  10.382  0.2260 -0.1599  0.2433
 6001SOL    HW229463   2.077   4.284  10.259  0.4914  0.0250 -0.3496
 6002SOL     OW29464   0.772   3.161   4.595  0.2853  0.1927  0.0561
 6002SOL    HW129465   0.832   3.163   4.669  1.4925 -1.7857 -0.8954
 6002SOL    HW229466   0.716   3.235   4.622 -0.6067  0.8820 -3.6517
 6003SOL     OW29467   2.201   1.060   4.204 -0.1106 -0.2184  0.2674
 6003SOL    HW129468   2.223   1.036   4.114 -1.4986  1.3718 -0.5050
 6003SOL    HW229469   2.271   1.115   4.240 -1.6703  0.3870  2.3823
 6004SOL     OW29470   0.153   0.490   4.324  0.4512 -0.7826 -0.1808
 6004SOL    HW129471   0.242   0.458   4.338  0.5630 -0.5436 -0.3437
 6004SOL    HW229472   0.090   0.428   4.362  3.2177 -0.8363  4.2815
 6005SOL     OW29473   3.809   1.450   2.146  0.0707 -0.2714  0.0538
 6005SOL    HW129474   3.855   1.527   2.178  1.6870 -1.0681 -0.4017
 6005SOL    HW229475   3.873   1.399   2.097  0.1552 -1.3530  1.2753
 6006SOL     OW29476   0.815   0.738   8.254 -0.6306  0.0445  0.4927
 6006SOL    HW129477   0.800   0.832   8.250 -1.6827 -0.1847 -0.6905
 6006SOL    HW229478   0.758   0.715   8.327  0.3115  0.0836  1.2490
 6007SOL     OW29479   1.674   0.289  13.166  0.1298  0.5108 -0.1951
 6007SOL    HW129480   1.669   0.358  13.232 -4.6410 -3.3282  3.4544
 6007SOL    HW229481   1.695   0.341  13.089  1.5599  0.1775 -0.0302
 6008SOL     OW29482   0.162   3.659  17.294  0.0009 -0.0419 -0.5248
 6008SOL    HW129483   0.241   3.711  17.307  0.3223  0.0498 -2.9224
 6008SOL    HW229484   0.103   3.722  17.336 -1.1623 -1.2242 -0.3672
 6009SOL     OW29485   4.251   2.857  11.602  0.4048  0.4583  0.1407
 6009SOL    HW129486   4.320   2.792  11.585  0.6443  0.7061  0.1569
 6009SOL    HW229487   4.299   2.930  11.643  0.2623 -0.6350  2.2403
 6010SOL     OW29488   0.254   4.538  16.166 -0.4932 -0.3407  0.0206
 6010SOL    HW129489   0.242   4.632  16.152 -0.1828 -0.6548 -2.3011
 6010SOL    HW229490   0.342   4.543  16.203  0.7470  0.0881 -2.9900
 6011SOL     OW29491   0.518   0.578   3.353  0.0089  0.0509  0.1413
 6011SOL    HW129492   0.535   0.490   3.386 -0.2693  0.7406  2.1502
 6011SOL    HW229493   0.523   0.563   3.259  1.3085  3.7856 -0.4123
 6012SOL     OW29494   1.816   2.735   1.355 -0.1332 -0.4016  0.4659
 6012SOL    HW129495   1.832   2.829   1.356  2.4227 -0.8241 -2.1569
 6012SOL    HW229496   1.751   2.714   1.287  1.0641 -2.5335 -0.0134
 6013SOL     OW29497   2.710   4.309   6.800  0.5357 -0.7252  0.4582
 6013SOL    HW129498   2.789   4.327   6.851  0.1170 -2.8552  1.8849
 6013SOL    HW229499   2.740   4.315   6.710  1.6739 -0.8206  0.8387
 6014SOL     OW29500   2.638   4.028   7.578 -0.0897 -0.2245  0.4351
 6014SOL    HW129501   2.573   3.971   7.618  1.0050 -3.7122 -2.7646
 6014SOL    HW229502   2.591   4.060   7.501  0.6590  0.2722  0.1853
 6015SOL     OW29503   1.212   4.557  11.124  0.2472 -0.0205 -0.4000
 6015SOL    HW129504   1.232   4.507  11.044 -1.3284  0.0398 -0.8369
 6015SOL    HW229505   1.208   4.484  11.186  0.6402  0.8041  0.5977
 6016SOL     OW29506   4.684   1.679   8.787 -0.5143 -0.0705  0.6071
 6016SOL    HW129507   4.674   1.773   8.803 -0.5265  0.1475 -0.7586
 6016SOL    HW229508   0.005   1.649   8.865  0.4660  1.5692  0.6368
 6017SOL     OW29509   4.504   3.532   8.315 -0.1633  1.1504 -0.0888
 6017SOL    HW129510   4.422   3.483   8.321  0.8050 -0.5193 -0.5794
 6017SOL    HW229511   4.496   3.593   8.241 -2.2046  1.2106  0.1811
 6018SOL     OW29512   2.178   1.913   6.457 -0.9063 -0.6498 -0.4569
 6018SOL    HW129513   2.191   1.902   6.363 -0.5807  0.8411 -0.5875
 6018SOL    HW229514   2.259   1.933   6.504 -0.4275 -0.2288 -1.4772
 6019SOL     OW29515   0.483   1.394  13.928 -0.0650  0.1091  0.1445
 6019SOL    HW129516   0.532   1.469  13.964  0.7469 -1.4229  2.2357
 6019SOL    HW229517   0.430   1.372  14.004 -0.2674 -0.1296 -0.0686
 6020SOL     OW29518   3.518   1.735  11.488 -0.4389 -0.1597  0.3698
 6020SOL    HW129519   3.599   1.783  11.471  0.6079 -2.4171 -0.9839
 6020SOL    HW229520   3.501   1.697  11.402  0.8115  1.6352 -0.6732
 6021SOL     OW29521   1.794   3.209   2.137 -0.1353  0.7131 -0.4499
 6021SOL    HW129522   1.802   3.245   2.225 -2.3506  1.7775 -0.6742
 6021SOL    HW229523   1.884   3.182   2.122 -0.5166 -0.7703 -0.1072
 6022SOL     OW29524   1.531   1.660   2.649 -0.2698 -0.0141 -0.3151
 6022SOL    HW129525   1.588   1.704   2.585 -0.5321 -2.1112 -1.9750
 6022SOL    HW229526   1.487   1.601   2.588 -0.6975  0.4126 -0.4198
 6023SOL     OW29527   0.920   3.445   5.253  0.3701 -0.3250 -0.0606
 6023SOL    HW129528   1.001   3.428   5.205 -0.2065 -0.1685 -1.0993
 6023SOL    HW229529   0.935   3.401   5.336  0.5821  1.5884  0.8972
 6024SOL     OW29530   3.858   1.205  17.101  0.2184 -0.3244  0.0160
 6024SOL    HW129531   3.871   1.226  17.008  0.5496  1.9482  0.5610
 6024SOL    HW229532   3.771   1.167  17.105 -0.1530  0.5666  0.4876
 6025SOL     OW29533   1.544   4.467   4.125  0.3443  0.1167  0.8718
 6025SOL    HW129534   1.603   4.526   4.077  0.6520  0.0636  1.1822
 6025SOL    HW229535   1.465   4.520   4.135 -0.4458 -0.5522 -2.1341
 6026SOL     OW29536   3.662   3.997  12.761  0.1248 -0.0898  0.7194
 6026SOL    HW129537   3.570   4.015  12.781  0.0971 -0.7298  1.2016
 6026SOL    HW229538   3.690   4.087  12.751 -1.3876  0.2073 -0.8693
 6027SOL     OW29539   2.407   1.544   2.752 -0.3538 -0.2551 -0.3648
 6027SOL    HW129540   2.325   1.503   2.776 -0.2199  0.1241  0.7269
 6027SOL    HW229541   2.451   1.483   2.692  0.8843 -0.6744  0.9569
 6028SOL     OW29542   4.129   2.485  11.000  0.0525  0.3714 -0.3369
 6028SOL    HW129543   4.212   2.444  11.023 -0.0732  1.1864  1.6209
 6028SOL    HW229544   4.063   2.426  11.036  0.8668 -0.7404 -0.6588
 6029SOL     OW29545   3.133   3.960   1.929  0.0572  0.1347 -0.0723
 6029SOL    HW129546   3.116   3.984   2.020  1.0417 -0.4303  0.2543
 6029SOL    HW229547   3.180   4.040   1.907 -1.7910  1.1008 -0.4888
 6030SOL     OW29548   2.481   2.559   1.780 -0.2904 -0.1906  0.6282
 6030SOL    HW129549   2.495   2.630   1.718  0.1591  0.2128  1.1900
 6030SOL    HW229550   2.399   2.523   1.748 -1.3456  0.9447  2.0677
 6031SOL     OW29551   3.961   2.777   4.588  0.4723  0.4750 -0.2513
 6031SOL    HW129552   3.972   2.773   4.493  2.2302 -1.3684  0.0079
 6031SOL    HW229553   3.911   2.696   4.604  0.9740  0.0737 -0.6942
 6032SOL     OW29554   1.470   1.292  10.845  0.0990  0.5100 -0.0018
 6032SOL    HW129555   1.378   1.310  10.865 -0.3445  1.6043 -3.0695
 6032SOL    HW229556   1.463   1.256  10.756  0.3424  3.0404 -1.0373
 6033SOL     OW29557   1.868   2.568   3.198  0.1799  0.4924  0.0702
 6033SOL    HW129558   1.856   2.591   3.106 -0.6635 -1.5145 -0.3320
 6033SOL    HW229559   1.891   2.656   3.227  0.7853  1.4961 -3.4278
 6034SOL     OW29560   2.655   2.022  11.748 -0.3622  0.6183 -0.7143
 6034SOL    HW129561   2.662   1.939  11.701  0.8763  0.7225 -0.7351
 6034SOL    HW229562   2.671   2.085  11.678 -0.1155 -0.5398 -1.7014
 6035SOL     OW29563   0.249   4.513   6.462  0.1966  0.6259 -0.7526
 6035SOL    HW129564   0.308   4.522   6.537 -0.1044  1.0005 -0.5622
 6035SOL    HW229565   0.161   4.519   6.500  0.1368  1.5938 -1.0390
 6036SOL     OW29566   1.571   1.945   0.340  0.0080 -0.0359 -0.6140
 6036SOL    HW129567   1.572   1.980   0.251 -1.7393  1.0472 -0.2101
 6036SOL    HW229568   1.518   1.866   0.327 -0.3880  0.2510 -0.7308
 6037SOL     OW29569   2.889   4.344  15.724  0.3202  0.0842 -0.0153
 6037SOL    HW129570   2.973   4.356  15.768  1.2873 -2.7917 -1.0964
 6037SOL    HW229571   2.910   4.268  15.670  2.4643  0.8244 -0.2427
 6038SOL     OW29572   1.326   1.675   0.015  0.1684  0.3926 -0.3202
 6038SOL    HW129573   1.363   1.762   0.026 -0.6344  0.4421  1.8954
 6038SOL    HW229574   1.374   1.653  17.641  1.2925 -1.5702  0.9168
 6039SOL     OW29575   3.528   3.124  16.255 -0.3906  0.1608 -0.1100
 6039SOL    HW129576   3.500   3.169  16.334 -0.3255 -1.1759  0.6746
 6039SOL    HW229577   3.455   3.142  16.195  0.2547  0.9230 -0.6657
 6040SOL     OW29578   3.170   3.028  17.179 -0.4070 -0.2060 -0.7026
 6040SOL    HW129579   3.188   2.946  17.132 -0.4190  0.0973 -1.2394
 6040SOL    HW229580   3.253   3.068  17.153  0.3838 -1.0150  0.6004
 6041SOL     OW29581   0.974   4.382   5.857 -0.1748 -0.3561  0.1621
 6041SOL    HW129582   1.008   4.356   5.942  1.3577 -0.4932 -0.4822
 6041SOL    HW229583   0.893   4.333   5.851 -0.3253  0.2040 -2.5645
 6042SOL     OW29584   3.842   2.540   8.014  0.1716 -0.2808  0.4467
 6042SOL    HW129585   3.854   2.608   8.080 -1.0900 -1.1705  1.5978
 6042SOL    HW229586   3.781   2.481   8.058 -1.4686  1.5356  0.6125
 6043SOL     OW29587   3.225   1.651   9.886 -0.4586 -0.1418 -0.5026
 6043SOL    HW129588   3.168   1.693   9.822 -0.7694  0.7212  0.3414
 6043SOL    HW229589   3.311   1.675   9.851 -0.9310  3.4574  0.8298
 6044SOL     OW29590   2.024   2.723  17.313 -0.3412  0.3080 -0.0121
 6044SOL    HW129591   2.001   2.775  17.237  3.5275  1.6032 -0.3153
 6044SOL    HW229592   2.080   2.780  17.366  1.8025  1.7741 -3.8073
 6045SOL     OW29593   1.675   3.304   4.464  0.1510 -0.3408  0.3677
 6045SOL    HW129594   1.732   3.323   4.389 -0.6952  2.1575  0.3684
 6045SOL    HW229595   1.656   3.393   4.494 -1.8696 -0.1144 -1.5776
 6046SOL     OW29596   2.097   4.269  16.141  0.4717 -0.5842  0.4627
 6046SOL    HW129597   2.067   4.218  16.216  2.1426 -1.9460  0.1891
 6046SOL    HW229598   2.049   4.229  16.069  0.9760  0.2342 -0.3280
 6047SOL     OW29599   1.384   1.944   2.833 -0.2041 -0.4810  0.0958
 6047SOL    HW129600   1.442   2.013   2.802  0.0664 -0.6200  0.2943
 6047SOL    HW229601   1.390   1.876   2.765  0.4177  0.8901 -1.2232
 6048SOL     OW29602   3.169   1.121   7.033 -0.0184 -0.3163  0.7671
 6048SOL    HW129603   3.114   1.140   6.956  2.2651 -1.1789 -1.0653
 6048SOL    HW229604   3.112   1.169   7.093 -0.9578 -0.5992  0.1028
 6049SOL     OW29605   0.533   0.277  14.865 -0.1970 -0.3361 -0.1052
 6049SOL    HW129606   0.556   0.185  14.874 -1.0644 -0.5291  0.1310
 6049SOL    HW229607   0.488   0.276  14.781 -0.4762 -1.7462  0.0749
 6050SOL     OW29608   3.624   2.567  11.725  0.2660 -0.3393  0.0725
 6050SOL    HW129609   3.680   2.608  11.791  0.0867 -0.7337  0.4722
 6050SOL    HW229610   3.687   2.562  11.653  1.2117 -1.1620  0.9565
 6051SOL     OW29611   4.717   3.692   3.746 -0.0645 -0.1236  0.2695
 6051SOL    HW129612   4.707   3.605   3.786 -1.8023  0.1193  0.3508
 6051SOL    HW229613   0.083   3.692   3.722  0.3907  0.4009  2.0260
 6052SOL     OW29614   3.838   1.893  10.001  0.2898  0.0559 -0.2135
 6052SOL    HW129615   3.820   1.811  10.047  1.2372 -0.1709 -0.2433
 6052SOL    HW229616   3.749   1.922   9.984  0.3801  1.8826  2.3830
 6053SOL     OW29617   3.270   2.080   3.257 -0.1604  0.3025  0.6299
 6053SOL    HW129618   3.338   2.013   3.262 -2.9141 -2.5794 -0.2947
 6053SOL    HW229619   3.317   2.132   3.192  0.9256 -0.0809  1.1132
 6054SOL     OW29620   1.449   1.779   6.575 -0.4476  0.8246 -0.0497
 6054SOL    HW129621   1.494   1.823   6.503 -0.0888 -2.6269 -1.9209
 6054SOL    HW229622   1.521   1.773   6.637  1.0080 -1.6728 -2.0184
 6055SOL     OW29623   1.043   3.473   3.375  0.2513 -0.3816  0.2184
 6055SOL    HW129624   1.068   3.386   3.343  0.4337 -0.9238  1.8387
 6055SOL    HW229625   1.130   3.510   3.390  0.1397 -0.2848  0.6217
 6056SOL     OW29626   0.798   1.397   8.220  0.3456  0.1544 -0.4131
 6056SOL    HW129627   0.843   1.354   8.293  2.0567  0.6416 -1.1747
 6056SOL    HW229628   0.836   1.354   8.144 -2.3647  1.5601 -2.5655
 6057SOL     OW29629   0.246   4.125   1.877 -0.4611 -0.2326 -0.2944
 6057SOL    HW129630   0.155   4.120   1.849  0.2990  2.0238 -3.1613
 6057SOL    HW229631   0.285   4.053   1.828  2.4162  0.1934  1.3735
 6058SOL     OW29632   0.079   1.055   6.363  0.0064  0.4392 -0.0424
 6058SOL    HW129633   0.119   1.106   6.292 -0.4595  1.9618  0.7859
 6058SOL    HW229634   0.084   1.120   6.434  1.8278  0.8718 -0.5636
 6059SOL     OW29635   0.359   2.708   7.564  0.9232 -0.6574  0.0609
 6059SOL    HW129636   0.367   2.638   7.499  3.0281  0.2076 -0.5946
 6059SOL    HW229637   0.267   2.734   7.553  0.5535 -1.6787  0.6345
 6060SOL     OW29638   3.941   1.990   6.805  0.3864  0.7195 -0.2199
 6060SOL    HW129639   4.013   1.980   6.867 -0.2289  1.4980  0.6221
 6060SOL    HW229640   3.915   2.082   6.805 -0.6388  0.4350 -0.4774
 6061SOL     OW29641   1.855   4.311  12.895 -0.0522  0.8019  0.1322
 6061SOL    HW129642   1.903   4.299  12.813  0.4079  2.1611  0.1988
 6061SOL    HW229643   1.843   4.406  12.905 -1.8442  0.5534  0.2743
 6062SOL     OW29644   1.698   4.257   3.124 -0.3515 -0.3762  0.1123
 6062SOL    HW129645   1.746   4.248   3.206 -3.2888 -1.2571  1.7317
 6062SOL    HW229646   1.711   4.350   3.105  1.1287 -0.7530 -0.7610
 6063SOL     OW29647   2.093   3.441   4.018  0.2413  0.0866 -0.6999
 6063SOL    HW129648   2.090   3.467   4.111 -2.5247  1.4806 -1.1795
 6063SOL    HW229649   2.173   3.491   4.005 -0.0394  1.6620  3.5406
 6064SOL     OW29650   0.493   4.644   7.893  0.0697  0.0741 -0.8920
 6064SOL    HW129651   0.541   4.573   7.849  1.8448  1.0916 -0.6245
 6064SOL    HW229652   0.424   4.597   7.939 -0.2889 -0.2482 -1.7556
 6065SOL     OW29653   0.674   2.315   6.276 -0.1317  0.2142  0.0704
 6065SOL    HW129654   0.741   2.339   6.339 -0.3686  1.3667 -0.1147
 6065SOL    HW229655   0.585   2.331   6.307  0.5436 -2.7047  3.5244
 6066SOL     OW29656   1.174   0.160   1.570 -0.5288  0.1296  0.2255
 6066SOL    HW129657   1.117   0.085   1.586  0.2941 -0.5707 -0.2052
 6066SOL    HW229658   1.213   0.148   1.484 -2.3175 -2.8893 -0.1523
 6067SOL     OW29659   1.692   0.051   7.646 -0.2169  0.0385 -0.2955
 6067SOL    HW129660   1.754   0.035   7.575  1.5079  0.8562  1.0297
 6067SOL    HW229661   1.755   0.048   7.718  2.9058  0.3752 -3.0157
 6068SOL     OW29662   1.965   1.827   5.672  0.0217  0.6298 -0.6393
 6068SOL    HW129663   2.011   1.745   5.655  1.1004  1.2404 -0.6783
 6068SOL    HW229664   1.949   1.829   5.766  1.8000 -1.6690 -0.2988
 6069SOL     OW29665   2.501   1.835   4.382  0.5366 -0.2280  0.4966
 6069SOL    HW129666   2.410   1.814   4.402  0.5396 -0.0852  0.6654
 6069SOL    HW229667   2.541   1.751   4.359 -1.6650 -0.8083 -1.1775
 6070SOL     OW29668   2.884   2.457   2.957 -0.4842  0.2307  0.2243
 6070SOL    HW129669   2.959   2.454   3.016 -1.3376 -1.3501  1.2096
 6070SOL    HW229670   2.810   2.438   3.015 -1.5803 -1.6950 -1.8525
 6071SOL     OW29671   2.058   2.139  15.258  0.1344  0.1702  0.8763
 6071SOL    HW129672   2.050   2.121  15.165 -1.3004  5.1140  0.0594
 6071SOL    HW229673   2.142   2.184  15.259 -0.5421  1.4303 -0.8712
 6072SOL     OW29674   4.264   3.826   1.008 -0.2498  0.5000  0.2904
 6072SOL    HW129675   4.275   3.918   1.032 -0.0025  0.3331  0.8204
 6072SOL    HW229676   4.278   3.785   1.094 -0.1221 -1.5299 -0.6943
 6073SOL     OW29677   4.156   0.042   2.165  0.0004 -0.1664 -0.0166
 6073SOL    HW129678   4.224   0.104   2.191 -0.1727  0.1650 -0.3537
 6073SOL    HW229679   4.199   4.701   2.112  2.3151  1.3130 -0.0439
 6074SOL     OW29680   4.541   2.994   3.618 -0.7505  0.1406  0.6105
 6074SOL    HW129681   4.611   3.010   3.554 -0.7724 -2.2919 -0.0315
 6074SOL    HW229682   4.465   3.043   3.588 -0.8297  0.5800  1.5622
 6075SOL     OW29683   0.222   4.039  12.793  0.3952 -0.7334 -0.3383
 6075SOL    HW129684   0.287   4.103  12.762 -0.0891  0.0278  0.2460
 6075SOL    HW229685   0.142   4.090  12.783  1.3290  0.5342 -1.2939
 6076SOL     OW29686   3.708   4.671   5.766  0.3639 -0.8262  0.3000
 6076SOL    HW129687   3.715   4.653   5.860  1.8415  0.5173  0.4549
 6076SOL    HW229688   3.700   4.582   5.733  1.9556 -0.1445 -1.8893
 6077SOL     OW29689   0.887   1.996   1.829  0.0595  0.3135  0.0699
 6077SOL    HW129690   0.954   1.962   1.769 -0.7551  0.0107 -0.6637
 6077SOL    HW229691   0.889   2.087   1.798  0.0369  0.1622 -0.3797
 6078SOL     OW29692   0.393   2.569   3.516  0.0198  0.2494 -0.2178
 6078SOL    HW129693   0.470   2.626   3.518  1.1249 -1.1589 -3.1224
 6078SOL    HW229694   0.361   2.578   3.426 -0.8041  0.5452  0.1025
 6079SOL     OW29695   4.576   3.588   8.650 -0.2416 -0.5922  0.2315
 6079SOL    HW129696   4.651   3.540   8.614  0.5762 -0.6195  1.9705
 6079SOL    HW229697   4.515   3.518   8.673 -1.6250 -0.1453 -2.1118
 6080SOL     OW29698   3.430   1.048   3.507 -0.4172 -0.3465  0.2250
 6080SOL    HW129699   3.339   1.063   3.480  0.3727  1.9069 -1.1634
 6080SOL    HW229700   3.454   0.965   3.465 -0.2808 -0.4377  0.4827
 6081SOL     OW29701   0.814   4.365   3.486  0.1114 -0.0644 -0.5931
 6081SOL    HW129702   0.790   4.455   3.463 -2.1970 -0.9127 -1.5243
 6081SOL    HW229703   0.898   4.366   3.440  0.5422  0.7323  0.2115
 6082SOL     OW29704   4.155   3.074   9.721 -0.1626  0.5610 -0.2923
 6082SOL    HW129705   4.068   3.043   9.697 -0.2328  1.2108 -0.8686
 6082SOL    HW229706   4.152   3.169   9.711  0.4950  0.7531  1.3515
 6083SOL     OW29707   1.067   3.871   4.196  0.0535 -0.3824 -0.1199
 6083SOL    HW129708   1.054   3.897   4.105  0.9339  0.3133 -0.0463
 6083SOL    HW229709   1.013   3.792   4.198 -0.5083  0.0170  1.1030
 6084SOL     OW29710   4.332   1.260   5.909 -0.6042  0.4942  0.7585
 6084SOL    HW129711   4.305   1.295   5.994 -0.6476  1.6308  0.2721
 6084SOL    HW229712   4.387   1.190   5.944 -0.3337  0.3427  0.0374
 6085SOL     OW29713   0.791   2.812   4.735  0.3986  0.0929 -0.1815
 6085SOL    HW129714   0.847   2.740   4.705 -0.8276 -1.1576  0.5222
 6085SOL    HW229715   0.858   2.877   4.758 -0.0229  0.5754 -0.3289
 6086SOL     OW29716   3.633   0.080   8.178 -0.4224 -0.0427  0.0886
 6086SOL    HW129717   3.611   0.165   8.215 -0.4654  0.4095 -0.9779
 6086SOL    HW229718   3.591   0.084   8.092 -1.4266 -1.0217  0.5318
 6087SOL     OW29719   2.825   1.548  11.645 -0.5268  0.2072  0.0360
 6087SOL    HW129720   2.909   1.538  11.600 -1.0168 -1.1708 -0.5968
 6087SOL    HW229721   2.788   1.463  11.619 -0.4873  0.2581 -0.1821
 6088SOL     OW29722   1.763   4.017  13.002  0.6638 -0.3057  0.5238
 6088SOL    HW129723   1.696   4.077  13.035 -1.1410 -1.5911 -0.7873
 6088SOL    HW229724   1.836   4.074  12.979  0.3889 -0.0155  0.3651
 6089SOL     OW29725   3.405   4.384   1.166 -0.1651 -0.1090  0.3034
 6089SOL    HW129726   3.477   4.435   1.130  0.9917 -1.1614  1.1409
 6089SOL    HW229727   3.440   4.389   1.255 -3.1037 -0.4025  1.5006
 6090SOL     OW29728   3.748   2.999  15.430  0.0567  0.4778 -0.1151
 6090SOL    HW129729   3.735   3.094  15.436 -0.7354  0.2254  2.3187
 6090SOL    HW229730   3.825   2.987  15.485  0.3674 -1.8902 -1.0493
 6091SOL     OW29731   1.032   1.837   6.396 -0.1858  0.1719  0.1612
 6091SOL    HW129732   1.042   1.904   6.464  2.1206 -1.2382  1.2047
 6091SOL    HW229733   1.083   1.764   6.430 -1.2586 -0.0855  1.2212
 6092SOL     OW29734   0.622   4.514   8.603 -0.1040  0.2009 -0.3675
 6092SOL    HW129735   0.641   4.464   8.524 -3.4173 -0.2524 -0.8798
 6092SOL    HW229736   0.673   4.464   8.667  1.3017  2.2013  0.0629
 6093SOL     OW29737   2.587   1.404   8.309 -0.0584  0.2343  0.0589
 6093SOL    HW129738   2.612   1.408   8.402  0.0869 -0.3298  0.0450
 6093SOL    HW229739   2.670   1.401   8.262 -1.7968 -0.1411 -2.9521
 6094SOL     OW29740   2.487   2.240  14.773 -0.2175  0.1014  0.0717
 6094SOL    HW129741   2.392   2.242  14.783 -0.1622 -0.2528  0.7127
 6094SOL    HW229742   2.490   2.145  14.786 -2.2493 -0.0766 -0.7350
 6095SOL     OW29743   3.580   2.187  12.871  0.0978 -0.5551 -0.0123
 6095SOL    HW129744   3.584   2.258  12.807  1.4246 -0.7542 -0.1508
 6095SOL    HW229745   3.499   2.142  12.847 -0.3365  1.2220 -1.8043
 6096SOL     OW29746   2.356   1.440  11.885  0.1251 -0.3266  0.5729
 6096SOL    HW129747   2.378   1.507  11.820  1.7420 -0.5160  0.9304
 6096SOL    HW229748   2.329   1.497  11.957 -1.1423 -0.8697  0.5402
 6097SOL     OW29749   1.594   4.092   2.727 -0.2830  0.0203  0.1563
 6097SOL    HW129750   1.567   4.048   2.808 -2.0055  1.1298  0.1871
 6097SOL    HW229751   1.508   4.108   2.687  0.6185 -0.7343 -2.0701
 6098SOL     OW29752   0.972   0.142   6.645 -0.1352  0.3899 -0.4250
 6098SOL    HW129753   0.916   0.198   6.698 -0.9081 -1.1863  0.4154
 6098SOL    HW229754   1.011   0.208   6.587 -3.1240  1.0205 -1.7229
 6099SOL     OW29755   4.687   0.984   6.127  0.4392  0.3503 -0.3243
 6099SOL    HW129756   4.710   0.891   6.125 -0.6760  0.1032 -2.2856
 6099SOL    HW229757   4.716   1.007   6.215 -1.2331  2.6573 -0.3705
 6100SOL     OW29758   4.185   1.212   7.387  0.1744  0.3667 -0.1598
 6100SOL    HW129759   4.233   1.286   7.349  0.0418 -0.1627 -1.3476
 6100SOL    HW229760   4.259   1.160   7.418  1.6823  1.6947 -1.5028
 6101SOL     OW29761   0.742   3.276   5.893 -0.2791  0.5939 -0.6823
 6101SOL    HW129762   0.654   3.238   5.891  0.5716 -1.3134 -1.6979
 6101SOL    HW229763   0.724   3.359   5.851  0.7475  0.6119 -1.0890
 6102SOL     OW29764   3.951   4.253   1.555  0.1010  0.4282 -0.2756
 6102SOL    HW129765   3.946   4.338   1.512 -0.3267  0.4130 -0.2576
 6102SOL    HW229766   3.861   4.222   1.544  1.6550 -4.5262  0.9504
 6103SOL     OW29767   4.050   0.627   2.293 -0.1281  0.2619  0.0178
 6103SOL    HW129768   4.088   0.583   2.216 -0.3534  1.2450 -0.6524
 6103SOL    HW229769   4.025   0.548   2.340  2.0087 -1.6629 -2.0592
 6104SOL     OW29770   2.306   3.123   2.350 -0.6158  0.2154 -0.4533
 6104SOL    HW129771   2.375   3.062   2.324 -0.4642 -0.0205  0.5167
 6104SOL    HW229772   2.301   3.178   2.272  0.0172  1.0767  0.1171
 6105SOL     OW29773   0.651   1.338  15.625 -0.1194  0.0922 -0.3983
 6105SOL    HW129774   0.596   1.306  15.552 -1.5287 -0.3620  0.8570
 6105SOL    HW229775   0.645   1.259  15.679 -1.0409 -0.0191 -0.6507
 6106SOL     OW29776   0.494   4.101  10.995 -0.1394 -0.0189  0.3068
 6106SOL    HW129777   0.566   4.044  11.020  0.9778  1.7947  1.1581
 6106SOL    HW229778   0.420   4.058  11.040 -0.7687 -0.2605 -0.9437
 6107SOL     OW29779   3.653   2.622   3.292 -0.1233 -0.3533  0.0837
 6107SOL    HW129780   3.670   2.532   3.264  0.6615 -0.5299  1.1016
 6107SOL    HW229781   3.697   2.669   3.222  0.7476 -0.4809  0.5379
 6108SOL     OW29782   2.189   2.256   7.984  0.0153  0.0942 -0.0179
 6108SOL    HW129783   2.230   2.174   8.011 -0.3777  0.6683  2.3177
 6108SOL    HW229784   2.211   2.314   8.057  0.2274 -1.3459  1.0587
 6109SOL     OW29785   1.795   3.962   6.117  0.2073 -0.2320 -0.0368
 6109SOL    HW129786   1.789   3.887   6.058  1.7321 -0.8848  0.6339
 6109SOL    HW229787   1.834   4.027   6.059 -0.3447 -0.6692 -0.9060
 6110SOL     OW29788   3.657   0.795   7.658  0.5011  0.0514  0.7523
 6110SOL    HW129789   3.703   0.748   7.728 -0.6347 -1.0705  0.7398
 6110SOL    HW229790   3.701   0.880   7.664 -0.0961  0.4652 -0.6766
 6111SOL     OW29791   2.254   3.220   5.024 -0.4198 -0.4107  0.0483
 6111SOL    HW129792   2.315   3.186   4.958 -0.3871 -1.7437  0.7637
 6111SOL    HW229793   2.188   3.255   4.965 -0.7822  0.2138  0.8245
 6112SOL     OW29794   0.369   0.201   3.346  0.4578  0.1963 -0.5016
 6112SOL    HW129795   0.462   0.178   3.341 -0.0191 -1.7383 -0.5253
 6112SOL    HW229796   0.358   0.224   3.438  2.3414  0.8943 -0.4571
 6113SOL     OW29797   0.288   3.354   4.081  0.0416 -0.7830  0.4281
 6113SOL    HW129798   0.248   3.268   4.068  1.7926 -1.5257 -0.0884
 6113SOL    HW229799   0.288   3.383   3.990  1.3764  0.5709  0.8671
 6114SOL     OW29800   2.860   1.311   7.060  0.6025  0.1193  0.2514
 6114SOL    HW129801   2.843   1.402   7.081 -0.8761  0.2187 -1.3422
 6114SOL    HW229802   2.919   1.328   6.987  0.8130  0.2320  0.4514
 6115SOL     OW29803   2.902   2.703   8.558 -0.0717 -0.1968 -0.1044
 6115SOL    HW129804   2.918   2.719   8.651  2.0803  0.4587 -0.5800
 6115SOL    HW229805   2.815   2.742   8.560 -0.3932 -1.0323  1.8748
 6116SOL     OW29806   0.774   0.733   3.271  0.6727 -0.1542  0.2213
 6116SOL    HW129807   0.717   0.664   3.237  2.0452 -0.9475 -0.4384
 6116SOL    HW229808   0.806   0.765   3.187  0.3029 -2.2900 -0.7273
 6117SOL     OW29809   1.990   4.413   0.515 -0.2702  0.7985 -0.0504
 6117SOL    HW129810   1.912   4.359   0.505  0.7489 -0.8431  1.0622
 6117SOL    HW229811   1.978   4.465   0.435 -1.6934 -1.4218 -1.2736
 6118SOL     OW29812   1.259   2.811  11.440 -0.1811 -0.1904  0.3483
 6118SOL    HW129813   1.181   2.772  11.479  0.2207 -2.3183 -0.9375
 6118SOL    HW229814   1.283   2.743  11.377 -3.2739 -1.0748  0.1537
 6119SOL     OW29815   1.913   2.344   3.592  0.5507 -0.1256  0.8779
 6119SOL    HW129816   1.834   2.375   3.547 -0.8639 -4.7041  0.2290
 6119SOL    HW229817   1.961   2.301   3.521 -1.9804  1.4773 -1.8552
 6120SOL     OW29818   1.142   0.591   4.337  0.5081 -0.2100  0.7597
 6120SOL    HW129819   1.199   0.557   4.268  0.2013  1.5943 -0.3768
 6120SOL    HW229820   1.109   0.511   4.377 -0.9717 -0.1551 -0.3535
 6121SOL     OW29821   2.816   2.448  14.392  0.4073  0.3023  0.6788
 6121SOL    HW129822   2.765   2.421  14.315 -0.1070  2.1331  0.3692
 6121SOL    HW229823   2.758   2.416  14.461  1.5109 -0.1910  1.3701
 6122SOL     OW29824   2.294   3.750   0.188  0.9162 -0.0667 -0.8567
 6122SOL    HW129825   2.242   3.721   0.113 -1.5987 -1.5680  1.4753
 6122SOL    HW229826   2.240   3.716   0.260  1.3801  3.3744  1.1301
 6123SOL     OW29827   1.124   3.358  12.357  0.0904 -0.6686  0.1659
 6123SOL    HW129828   1.184   3.362  12.432 -1.5600 -1.3786  1.5352
 6123SOL    HW229829   1.177   3.305  12.298 -2.0869 -2.0183 -0.5937
 6124SOL     OW29830   3.722   2.975   4.894  0.4353  0.2180  0.7181
 6124SOL    HW129831   3.655   2.936   4.839  1.2976 -0.1025 -0.0951
 6124SOL    HW229832   3.725   3.061   4.852 -0.6639  0.2690  0.7303
 6125SOL     OW29833   1.046   2.596  16.729 -0.4304  0.2423 -0.0554
 6125SOL    HW129834   1.026   2.571  16.638 -0.2438  0.9714 -0.2979
 6125SOL    HW229835   1.010   2.685  16.729  1.5099  1.0243  1.8688
 6126SOL     OW29836   4.079   2.535   0.753  0.5076  1.0604  0.1904
 6126SOL    HW129837   4.116   2.455   0.717 -0.1940  0.9520 -0.3020
 6126SOL    HW229838   4.117   2.597   0.692 -0.1930 -0.9942 -2.3430
 6127SOL     OW29839   1.564   1.503   5.230  0.1372  0.2063 -0.0203
 6127SOL    HW129840   1.501   1.437   5.199  0.2862  0.4245 -0.7817
 6127SOL    HW229841   1.533   1.583   5.189 -3.6432 -2.2365 -1.9755
 6128SOL     OW29842   2.448   1.412   2.303 -0.0354 -0.1125  0.5161
 6128SOL    HW129843   2.399   1.343   2.258  0.7898 -0.0420 -0.4904
 6128SOL    HW229844   2.470   1.469   2.229  0.2396  0.1499  0.7969
 6129SOL     OW29845   0.193   2.458   9.825  0.0790 -0.1749 -0.1805
 6129SOL    HW129846   0.279   2.450   9.865  0.0480 -1.2537 -0.3204
 6129SOL    HW229847   0.226   2.466   9.736 -0.0889 -1.3975 -0.3549
 6130SOL     OW29848   3.868   3.490   7.952  0.0150 -0.3066  0.0137
 6130SOL    HW129849   3.864   3.584   7.931 -0.6974 -0.3336  0.0478
 6130SOL    HW229850   3.854   3.460   7.862  0.3912 -0.1267 -0.1068
 6131SOL     OW29851   1.290   3.689   8.993 -0.0858 -0.1021  0.1761
 6131SOL    HW129852   1.255   3.724   8.911 -1.4975 -1.2198  0.2953
 6131SOL    HW229853   1.295   3.766   9.051  1.4234  1.4492 -2.0392
 6132SOL     OW29854   0.849   2.387   7.351 -0.2545  0.0560 -0.1819
 6132SOL    HW129855   0.919   2.321   7.358 -0.7032 -0.4582 -0.5147
 6132SOL    HW229856   0.841   2.412   7.259 -1.4039 -1.9798 -0.6329
 6133SOL     OW29857   1.144   2.706   4.507 -0.4787  0.5861 -0.2064
 6133SOL    HW129858   1.052   2.725   4.485 -1.2108 -0.5109  1.9296
 6133SOL    HW229859   1.200   2.775   4.471 -2.1967  1.5554 -1.0270
 6134SOL     OW29860   2.615   3.168   2.173 -0.4901  0.6327  0.0884
 6134SOL    HW129861   2.618   3.187   2.267  1.7036 -0.4221  0.2145
 6134SOL    HW229862   2.546   3.101   2.172  1.6550 -1.5654  0.6739
 6135SOL     OW29863   0.074   2.320   8.202  0.3853  0.3091 -0.2788
 6135SOL    HW129864   0.074   2.337   8.296  1.2080 -0.1559 -0.1979
 6135SOL    HW229865   0.056   2.226   8.195 -1.0126  0.3392  2.6864
 6136SOL     OW29866   3.319   3.908   3.779 -0.4006  0.0752 -0.5812
 6136SOL    HW129867   3.314   3.988   3.830  0.6362  0.4918 -1.1301
 6136SOL    HW229868   3.279   3.849   3.843  1.9426 -1.2651 -0.3361
 6137SOL     OW29869   3.597   2.508  14.676 -0.3582  0.4573 -0.1541
 6137SOL    HW129870   3.577   2.422  14.713 -1.8761  0.0407 -2.0050
 6137SOL    HW229871   3.660   2.533  14.744  1.2104  2.7612 -2.4635
 6138SOL     OW29872   1.738   2.058   7.231  0.5271  0.4265  0.6613
 6138SOL    HW129873   1.756   1.965   7.246  0.2121  0.4098  0.9575
 6138SOL    HW229874   1.786   2.082   7.153 -1.6018  1.7207 -0.2518
 6139SOL     OW29875   2.695   1.148   0.758 -0.1018 -0.0636 -0.0113
 6139SOL    HW129876   2.716   1.090   0.686 -1.0002  0.0087 -0.3270
 6139SOL    HW229877   2.754   1.103   0.818  0.2755  2.7719  1.7918
 6140SOL     OW29878   1.494   2.111   4.015  0.0324  0.0271 -0.1384
 6140SOL    HW129879   1.568   2.167   3.991  0.9095  0.0240  2.5197
 6140SOL    HW229880   1.427   2.175   4.037 -0.1385 -0.6236  1.2305
 6141SOL     OW29881   0.486   4.509   7.184 -0.1476 -0.3695  0.1066
 6141SOL    HW129882   0.471   4.502   7.090  2.2638  1.3001 -0.3865
 6141SOL    HW229883   0.401   4.477   7.217 -0.4963 -1.1371 -1.5262
 6142SOL     OW29884   3.931   2.574   3.831 -0.4288  0.0792 -0.1273
 6142SOL    HW129885   3.958   2.591   3.921 -1.7437 -1.5853  0.5790
 6142SOL    HW229886   3.856   2.517   3.847  0.6515 -1.0753  0.8154
 6143SOL     OW29887   0.052   0.402   0.536 -0.7366  0.6616 -0.4830
 6143SOL    HW129888   0.124   0.441   0.586 -1.0069 -0.2055  0.5926
 6143SOL    HW229889   0.053   0.459   0.459  0.3657  0.3002 -0.7319
 6144SOL     OW29890   3.378   3.180   2.369 -0.1082 -0.6705 -0.7059
 6144SOL    HW129891   3.334   3.104   2.407  1.7394 -1.7498 -0.7454
 6144SOL    HW229892   3.339   3.182   2.282 -1.5563  4.2166  0.0375
 6145SOL     OW29893   1.349   4.637   4.100 -0.4222  0.4167 -0.8375
 6145SOL    HW129894   1.263   4.651   4.139 -1.5939 -1.9714 -2.5346
 6145SOL    HW229895   1.332   4.610   4.009 -1.3518  1.6816 -1.0381
 6146SOL     OW29896   0.828   2.482   4.417  0.9912 -0.2495 -0.3904
 6146SOL    HW129897   0.832   2.485   4.512  0.8445  1.1402 -0.4337
 6146SOL    HW229898   0.837   2.575   4.396  3.5025 -0.0320  1.7973
 6147SOL     OW29899   4.144   1.892   0.427 -0.5829  0.5723 -0.4791
 6147SOL    HW129900   4.234   1.860   0.422 -0.9863 -0.9368  1.9210
 6147SOL    HW229901   4.112   1.839   0.499  1.3539 -0.7320 -0.5879
 6148SOL     OW29902   1.742   2.551   0.607 -0.2461  0.1276  0.3735
 6148SOL    HW129903   1.733   2.610   0.681  1.1311  1.2897 -0.3972
 6148SOL    HW229904   1.756   2.469   0.655 -0.1682 -0.0941 -0.0259
 6149SOL     OW29905   3.613   2.383   5.946  0.1112  0.2095 -0.1024
 6149SOL    HW129906   3.628   2.477   5.957  0.3939  0.2527 -0.8950
 6149SOL    HW229907   3.706   2.368   5.928  0.6856  3.1864  0.2959
 6150SOL     OW29908   1.550   3.246   7.053  0.0461  0.2819 -0.6065
 6150SOL    HW129909   1.465   3.268   7.091 -0.2620 -1.3162 -0.3881
 6150SOL    HW229910   1.596   3.219   7.132 -2.8449  0.8928  1.2713
 6151SOL     OW29911   3.635   1.235   7.510 -0.9557 -0.4702 -0.0587
 6151SOL    HW129912   3.648   1.328   7.490  0.4266  0.1624  3.6342
 6151SOL    HW229913   3.547   1.241   7.548 -1.2316  0.2280 -0.8129
 6152SOL     OW29914   1.006   0.999   3.138  0.7188  0.5931  0.1851
 6152SOL    HW129915   0.985   0.941   3.065  1.2528  0.1725  0.3635
 6152SOL    HW229916   1.098   0.975   3.151  0.8551  1.2040  0.3905
 6153SOL     OW29917   1.594   3.319   3.907 -0.5610 -0.1973 -0.1151
 6153SOL    HW129918   1.570   3.370   3.984 -2.0113 -2.0810  0.6749
 6153SOL    HW229919   1.530   3.248   3.906  2.2217 -2.6582 -2.3794
 6154SOL     OW29920   2.499   2.341   5.990 -0.5463  0.4987 -0.0283
 6154SOL    HW129921   2.445   2.316   5.915  0.8385 -1.3741 -0.4098
 6154SOL    HW229922   2.573   2.379   5.944  0.1482 -2.5604 -1.4603
 6155SOL     OW29923   3.854   1.318   2.652 -0.1946 -0.1204  0.6146
 6155SOL    HW129924   3.794   1.249   2.624  0.0036  0.3040 -0.8553
 6155SOL    HW229925   3.892   1.276   2.730  0.9155 -2.4344 -1.1718
 6156SOL     OW29926   2.589   0.926  17.468  0.0356  0.4222  0.0945
 6156SOL    HW129927   2.506   0.968  17.491 -0.0919 -0.1420  0.6445
 6156SOL    HW229928   2.648   0.972  17.527 -0.7043  2.6581 -0.9104
 6157SOL     OW29929   3.209   2.046  14.241 -0.1837  0.4754 -0.5500
 6157SOL    HW129930   3.251   2.056  14.326  0.0426  0.1219 -0.6170
 6157SOL    HW229931   3.251   2.113  14.186 -2.3281  0.6667 -1.9729
 6158SOL     OW29932   2.694   2.928   6.261 -0.2023 -0.2697 -0.1771
 6158SOL    HW129933   2.635   2.985   6.210  0.1397  1.2713  1.1433
 6158SOL    HW229934   2.636   2.885   6.324 -1.0255 -0.8277 -1.3018
 6159SOL     OW29935   2.790   1.834   0.724 -0.0205  0.1963  0.1896
 6159SOL    HW129936   2.835   1.769   0.670  0.4832  0.4251  0.3268
 6159SOL    HW229937   2.809   1.799   0.811 -1.0669 -0.1070  0.2927
 6160SOL     OW29938   1.624   3.299   3.309  0.1370 -0.5028  0.0682
 6160SOL    HW129939   1.698   3.321   3.365 -1.3943  0.4253  1.7063
 6160SOL    HW229940   1.675   3.259   3.238  2.1609  0.8424  0.7748
 6161SOL     OW29941   3.320   3.273  14.011 -0.2944 -0.2820 -0.0791
 6161SOL    HW129942   3.330   3.237  13.924  0.0852 -1.0727  0.2914
 6161SOL    HW229943   3.254   3.341  13.996  1.0252  0.8497 -0.7059
 6162SOL     OW29944   4.662   3.693  11.098  0.2322 -0.0363 -0.6102
 6162SOL    HW129945   4.669   3.733  11.184 -0.9539  2.2152 -1.5497
 6162SOL    HW229946   4.630   3.605  11.118 -1.5273  0.9155  0.7445
 6163SOL     OW29947   1.314   3.643  15.295  0.2116 -0.2375  0.2401
 6163SOL    HW129948   1.377   3.636  15.223 -0.3132  0.7924 -0.3217
 6163SOL    HW229949   1.364   3.670  15.372  0.1284  1.5983 -0.3338
 6164SOL     OW29950   2.788   0.082  17.639  0.3914  0.2552  0.4560
 6164SOL    HW129951   2.812   4.719  17.614 -0.5025 -0.0934  0.8324
 6164SOL    HW229952   2.746   0.068   0.018 -1.9290  0.9172 -0.5787
 6165SOL     OW29953   2.361   2.659   7.627 -0.4600 -0.1981  0.5256
 6165SOL    HW129954   2.372   2.606   7.706  2.1798 -0.6945 -0.1600
 6165SOL    HW229955   2.311   2.732   7.663 -0.2570  0.3790 -0.3581
 6166SOL     OW29956   3.732   4.596  12.125  0.0756  0.7211 -0.2176
 6166SOL    HW129957   3.680   4.584  12.045 -0.3773 -0.0210  0.1883
 6166SOL    HW229958   3.716   4.513  12.171  2.3770  0.9338  0.9800
 6167SOL     OW29959   4.463   3.588   1.193 -0.0689  0.6815  0.3945
 6167SOL    HW129960   4.494   3.676   1.214 -0.3525  1.1277 -1.1142
 6167SOL    HW229961   4.546   3.542   1.186 -0.5800 -0.2933  0.7181
 6168SOL     OW29962   3.200   1.363   7.347 -0.1685 -0.0219 -0.2377
 6168SOL    HW129963   3.182   1.270   7.333  0.5220 -0.0263 -1.1419
 6168SOL    HW229964   3.109   1.380   7.369 -1.0157 -3.0250 -1.3626
 6169SOL     OW29965   0.385   2.764  17.412 -0.4565  0.0710  0.0867
 6169SOL    HW129966   0.429   2.700  17.469 -0.8648 -0.2892 -0.0024
 6169SOL    HW229967   0.390   2.837  17.472  0.3329  1.8148 -2.0884
 6170SOL     OW29968   1.902   2.305   0.269 -0.0420 -0.0130 -0.1717
 6170SOL    HW129969   1.871   2.391   0.300  0.4399  0.3617 -0.7284
 6170SOL    HW229970   1.864   2.304   0.182 -1.3642  1.9854  0.3713
 6171SOL     OW29971   2.492   0.707  13.202  0.4509  0.3877 -0.6593
 6171SOL    HW129972   2.535   0.622  13.189 -0.3913 -0.1278 -0.0295
 6171SOL    HW229973   2.416   0.713  13.144 -0.6655 -2.0498  0.5902
 6172SOL     OW29974   3.367   1.502   5.977 -0.0976  0.4176  0.2127
 6172SOL    HW129975   3.387   1.428   5.919 -0.6252  0.0179  0.5469
 6172SOL    HW229976   3.285   1.475   6.018  0.1032  1.9591  1.6628
 6173SOL     OW29977   0.101   1.140   4.938 -0.4352  0.2701 -0.1507
 6173SOL    HW129978   0.128   1.070   4.879 -0.1782 -0.7221  1.1454
 6173SOL    HW229979   0.008   1.139   4.917 -0.5596  1.4330  0.3525
 6174SOL     OW29980   1.663   0.071  15.116  0.2404 -0.2769  0.4262
 6174SOL    HW129981   1.686   4.706  15.133  0.5592 -0.2301  0.2408
 6174SOL    HW229982   1.672   0.109  15.203 -1.2372 -0.8598  0.8497
 6175SOL     OW29983   4.429   2.133  13.252 -0.3834 -0.1924  0.7547
 6175SOL    HW129984   4.466   2.176  13.329  1.3717 -2.3394  1.0863
 6175SOL    HW229985   4.387   2.060  13.298 -1.9329  0.2271  0.0350
 6176SOL     OW29986   1.179   1.953   7.671  0.1638 -0.2331 -0.2174
 6176SOL    HW129987   1.102   1.900   7.649 -0.4648  0.0197  1.3910
 6176SOL    HW229988   1.132   2.028   7.709 -1.7367 -1.8563  0.6226
 6177SOL     OW29989   3.333   0.019   9.701 -0.5709  0.4200 -0.2179
 6177SOL    HW129990   3.387   0.087   9.660  0.2900 -0.1036  0.0486
 6177SOL    HW229991   3.274   0.073   9.753  0.2014  0.3546  0.7299
 6178SOL     OW29992   3.768   3.902   2.112 -0.7426  0.5353  0.0271
 6178SOL    HW129993   3.814   3.913   2.029 -0.2665  0.4586  0.2806
 6178SOL    HW229994   3.800   3.814   2.135 -0.5233  0.3397 -0.9833
 6179SOL     OW29995   0.531   2.812   5.009  0.1513 -0.2619  0.3233
 6179SOL    HW129996   0.572   2.725   5.009 -0.4591 -0.5538  1.3008
 6179SOL    HW229997   0.531   2.842   5.100  0.0859  0.8751 -0.0623
 6180SOL     OW29998   0.564   2.014   1.063  0.0249 -0.4702 -0.0676
 6180SOL    HW129999   0.575   2.098   1.108 -1.3134  1.1134 -2.6776
 6180SOL    HW230000   0.504   2.028   0.989  0.5459 -1.3940 -0.6688
 6181SOL     OW30001   1.130   1.997   5.132 -0.0032 -0.0566 -0.4351
 6181SOL    HW130002   1.198   1.948   5.085  0.7340  1.6308 -1.1244
 6181SOL    HW230003   1.162   1.978   5.220 -1.9844 -0.7663  0.1425
 6182SOL     OW30004   0.726   2.263   8.775 -0.0657  0.3375  0.1376
 6182SOL    HW130005   0.671   2.303   8.707  1.2166  1.9373  0.0595
 6182SOL    HW230006   0.769   2.193   8.726  3.2086  0.6844  2.5254
 6183SOL     OW30007   2.987   4.272   0.319 -0.9594 -0.0639  0.4968
 6183SOL    HW130008   2.916   4.239   0.264 -1.4727 -0.0763  1.1700
 6183SOL    HW230009   3.037   4.330   0.262 -0.7574 -0.0369  0.6982
 6184SOL     OW30010   2.670   2.802  11.158  0.1358 -0.1695  0.1943
 6184SOL    HW130011   2.710   2.798  11.071 -1.4446 -0.4010 -0.5275
 6184SOL    HW230012   2.580   2.776  11.137  0.1292  1.1271 -1.4609
 6185SOL     OW30013   0.552   3.359  15.154  0.4073 -0.8321  0.7826
 6185SOL    HW130014   0.623   3.420  15.133 -0.8358  0.5807  0.7161
 6185SOL    HW230015   0.515   3.398  15.233  1.6773  0.6851  0.6460
 6186SOL     OW30016   2.177   2.450   3.636  0.1134 -0.9484  0.1408
 6186SOL    HW130017   2.098   2.414   3.596  0.1541 -0.4654 -0.3801
 6186SOL    HW230018   2.195   2.377   3.695  0.4854 -1.0169 -0.0545
 6187SOL     OW30019   2.665   1.975   8.016 -0.6906 -0.2145 -0.0999
 6187SOL    HW130020   2.749   2.010   8.045 -1.0853 -0.3795  1.2524
 6187SOL    HW230021   2.649   1.918   8.092  0.7324 -0.5633 -0.0608
 6188SOL     OW30022   4.655   2.208   2.009  0.2498  0.4281 -0.2688
 6188SOL    HW130023   4.656   2.180   1.917 -1.0287  0.5662 -0.3251
 6188SOL    HW230024   4.650   2.302   1.989 -3.5761 -0.0383 -1.5051
 6189SOL     OW30025   1.680   2.348  16.929 -0.1834 -0.0098  0.4045
 6189SOL    HW130026   1.638   2.267  16.958 -0.8061 -0.3189 -1.4058
 6189SOL    HW230027   1.601   2.394  16.903 -0.1330  0.4592  1.0813
 6190SOL     OW30028   2.575   1.849   5.003 -0.2777  0.4420 -1.1101
 6190SOL    HW130029   2.564   1.764   5.045 -0.4463  0.5159 -1.0068
 6190SOL    HW230030   2.489   1.862   4.963 -0.5756 -1.3142 -1.0282
 6191SOL     OW30031   1.927   2.445  13.976 -0.6125 -0.7816 -0.6878
 6191SOL    HW130032   1.871   2.483  14.043  0.0085  0.0228 -0.6309
 6191SOL    HW230033   2.017   2.459  14.005 -0.8674 -1.3299  0.3688
 6192SOL     OW30034   2.475   4.594   4.689  0.2668  0.1631 -0.3293
 6192SOL    HW130035   2.567   4.618   4.677  0.4457  0.2810  1.2163
 6192SOL    HW230036   2.425   4.670   4.660  0.9306  0.1356 -1.5584
 6193SOL     OW30037   0.006   0.985   0.786 -0.0488  0.4352  0.4128
 6193SOL    HW130038   4.676   0.926   0.836 -1.6291  2.3458  0.9294
 6193SOL    HW230039   4.668   1.055   0.769 -2.0701 -1.0961  1.7186
 6194SOL     OW30040   2.483   2.138   2.581 -0.3775 -0.5470 -0.3129
 6194SOL    HW130041   2.558   2.162   2.636 -1.6896  0.4232  1.0692
 6194SOL    HW230042   2.522   2.097   2.504 -0.5363 -3.1203  0.9700
 6195SOL     OW30043   4.675   3.468   3.891  0.3893  0.1417  0.0752
 6195SOL    HW130044   0.028   3.421   3.865 -1.0226 -2.1438 -0.0310
 6195SOL    HW230045   4.676   3.456   3.986 -1.4986  2.7483  0.4287
 6196SOL     OW30046   2.820   4.014  10.410  0.0225  0.5595 -0.6231
 6196SOL    HW130047   2.910   4.044  10.400  0.3197  0.0389  0.4803
 6196SOL    HW230048   2.811   4.032  10.504 -1.3301 -2.7514 -0.1255
 6197SOL     OW30049   1.201   1.884   6.861  0.4455  0.3975 -0.0769
 6197SOL    HW130050   1.153   1.967   6.862 -1.0918 -0.5102 -0.1124
 6197SOL    HW230051   1.286   1.910   6.898  0.5860  0.1854 -0.2533
 6198SOL     OW30052   4.288   0.943  11.332 -0.8420  0.3209 -0.2404
 6198SOL    HW130053   4.357   0.885  11.300 -0.5233 -0.0332  1.0694
 6198SOL    HW230054   4.338   0.988  11.400  1.8613 -1.8588 -0.7945
 6199SOL     OW30055   2.173   2.449  16.825  0.2303 -0.3759  0.1525
 6199SOL    HW130056   2.161   2.412  16.738 -0.3385  0.4482 -0.1180
 6199SOL    HW230057   2.081   2.448  16.852  0.3454 -0.8678  0.5180
 6200SOL     OW30058   0.545   3.733   4.553 -0.2046 -0.0472  0.3856
 6200SOL    HW130059   0.467   3.789   4.556 -1.4995 -1.7998 -0.1394
 6200SOL    HW230060   0.581   3.757   4.468 -1.9074  0.5121 -0.1799
 6201SOL     OW30061   2.891   1.229   9.464 -0.1500 -0.2884  0.5209
 6201SOL    HW130062   2.840   1.285   9.523 -0.0770  0.3176  0.0019
 6201SOL    HW230063   2.874   1.146   9.509  1.7097 -1.3687 -0.7906
 6202SOL     OW30064   1.039   3.733   7.985  0.9437  0.3658 -0.0152
 6202SOL    HW130065   1.134   3.725   7.997  1.1466  2.1761 -0.4504
 6202SOL    HW230066   1.030   3.822   8.020 -1.6977  0.1711 -0.2252
 6203SOL     OW30067   0.280   3.539   3.482 -0.1142  0.2353  0.1033
 6203SOL    HW130068   0.366   3.528   3.442  0.1313 -2.4020  1.3167
 6203SOL    HW230069   0.274   3.627   3.518 -0.8217  0.3530 -0.2952
 6204SOL     OW30070   0.187   0.928  11.404 -0.1756 -0.5428 -0.3615
 6204SOL    HW130071   0.118   0.869  11.373  0.0273 -0.3647 -1.1363
 6204SOL    HW230072   0.264   0.872  11.411  1.9104  2.5741  1.7396
 6205SOL     OW30073   0.201   1.554   5.679  0.0603 -0.2422  0.3291
 6205SOL    HW130074   0.187   1.645   5.653 -2.4354 -0.2804  1.5925
 6205SOL    HW230075   0.110   1.530   5.694 -0.3924  0.5466 -1.1775
 6206SOL     OW30076   3.800   1.530   1.442 -1.0004  0.1986  0.2168
 6206SOL    HW130077   3.754   1.478   1.509  0.6943  0.3088  1.4803
 6206SOL    HW230078   3.727   1.590   1.430 -1.2622 -0.2528 -0.4322
 6207SOL     OW30079   2.170   3.893   1.729 -0.1472 -0.0068 -0.1194
 6207SOL    HW130080   2.248   3.943   1.706 -1.5577  1.1766 -2.3511
 6207SOL    HW230081   2.105   3.907   1.660  0.6512 -1.2796 -1.1377
 6208SOL     OW30082   4.696   0.686   6.144  0.4265 -0.4211  1.0144
 6208SOL    HW130083   0.060   0.654   6.146  0.9096  1.0172  2.1637
 6208SOL    HW230084   4.652   0.602   6.133 -0.0408  0.1707 -1.6293
 6209SOL     OW30085   4.048   4.408   4.627 -0.3908 -0.0949 -0.2631
 6209SOL    HW130086   4.068   4.457   4.707 -1.7142 -0.8308  0.5073
 6209SOL    HW230087   3.985   4.347   4.664  1.4959 -1.0206  1.4420
 6210SOL     OW30088   0.591   2.600   2.521  0.1396 -0.5203 -0.0523
 6210SOL    HW130089   0.659   2.657   2.486  0.2591 -0.3283  0.4963
 6210SOL    HW230090   0.512   2.633   2.477  1.4659  2.1723 -0.4030
 6211SOL     OW30091   2.942   3.921  12.685  0.2221  0.6254 -0.1714
 6211SOL    HW130092   2.944   3.825  12.695 -0.1068  0.4864 -1.4390
 6211SOL    HW230093   3.035   3.931  12.667 -0.1577  3.1114 -0.6228
 6212SOL     OW30094   2.074   3.493   2.711 -0.4308 -0.1874 -0.0573
 6212SOL    HW130095   2.070   3.435   2.787  1.0496 -0.1434  0.0513
 6212SOL    HW230096   2.067   3.430   2.640  0.7475 -0.8415  0.4062
 6213SOL     OW30097   0.685   2.041   3.552 -0.1803 -0.4527 -0.4928
 6213SOL    HW130098   0.659   1.985   3.480 -3.2159  1.1019 -0.6037
 6213SOL    HW230099   0.677   1.974   3.620 -1.3882  1.5763  1.3953
 6214SOL     OW30100   3.684   0.064  11.349  0.3346 -0.0239 -0.1739
 6214SOL    HW130101   3.687   0.006  11.273  1.3347 -0.6877  0.3895
 6214SOL    HW230102   3.654   0.142  11.301  2.5434  1.8258  1.4467
 6215SOL     OW30103   4.328   0.258   2.205 -0.1500 -0.0761  0.5909
 6215SOL    HW130104   4.303   0.314   2.278 -0.0863 -0.7012  1.0902
 6215SOL    HW230105   4.401   0.310   2.171 -0.8419 -0.1764 -1.0684
 6216SOL     OW30106   2.965   3.549  16.710  0.1605  0.4758  0.1596
 6216SOL    HW130107   2.943   3.515  16.623  1.5067 -4.4904  1.7530
 6216SOL    HW230108   2.882   3.525  16.751  2.0233 -2.4326  2.2366
 6217SOL     OW30109   2.207   2.636   4.379 -0.2830  0.1094 -0.8407
 6217SOL    HW130110   2.255   2.646   4.297  2.7714 -0.3898  0.8878
 6217SOL    HW230111   2.267   2.678   4.440  1.4589 -1.3626 -1.5305
 6218SOL     OW30112   0.804   0.917   6.937  0.1248 -0.0350  0.4591
 6218SOL    HW130113   0.751   0.964   6.872 -0.9034 -1.6753  0.1006
 6218SOL    HW230114   0.882   0.898   6.885 -1.2586  2.3531 -2.4949
 6219SOL     OW30115   3.054   3.118   0.359  0.3024 -0.0419 -0.2792
 6219SOL    HW130116   2.983   3.075   0.406  0.5234  2.2266  2.1255
 6219SOL    HW230117   3.081   3.174   0.432 -0.7303 -2.2493  1.7799
 6220SOL     OW30118   3.939   3.723   5.834  0.3340 -0.6918 -0.2926
 6220SOL    HW130119   3.868   3.706   5.772 -1.0901 -0.3921  1.2460
 6220SOL    HW230120   3.920   3.653   5.896 -0.6919  1.2725  1.5993
 6221SOL     OW30121   4.079   3.561   4.359 -0.0254 -0.2358 -0.2507
 6221SOL    HW130122   4.019   3.632   4.381  0.7270  1.0913 -2.4552
 6221SOL    HW230123   4.080   3.573   4.264  1.8315  0.9451 -0.0793
 6222SOL     OW30124   3.002   0.921   3.267 -0.0145  0.0743  0.4961
 6222SOL    HW130125   3.066   0.977   3.311  2.8660 -1.5280 -1.6652
 6222SOL    HW230126   2.972   0.990   3.208  1.9250  0.4481 -0.0451
 6223SOL     OW30127   2.134   1.636   6.649 -0.6115 -0.0093 -0.2836
 6223SOL    HW130128   2.117   1.718   6.694  1.2945  0.4754 -0.4641
 6223SOL    HW230129   2.104   1.568   6.709  3.2824 -0.7886  0.7956
 6224SOL     OW30130   2.371   1.011  17.588  0.1942  0.3505 -0.8145
 6224SOL    HW130131   2.368   1.095  17.633  1.4286  0.4668 -0.9646
 6224SOL    HW230132   2.396   0.948  17.655  1.3802  3.2991  1.4958
 6225SOL     OW30133   0.233   3.712  10.993  0.0184  0.2281  0.3206
 6225SOL    HW130134   0.259   3.791  11.040  1.5789  0.4816 -0.9522
 6225SOL    HW230135   0.293   3.652  11.038 -1.5191 -1.6619 -0.1416
 6226SOL     OW30136   2.611   2.096  13.629 -0.1418 -0.1948  0.5480
 6226SOL    HW130137   2.599   2.002  13.637 -2.2281 -0.1042 -1.5425
 6226SOL    HW230138   2.697   2.099  13.587 -0.3037 -1.3459  0.1558
 6227SOL     OW30139   3.852   2.956   4.139 -0.6739 -0.1276 -1.0556
 6227SOL    HW130140   3.870   2.948   4.045  0.7650 -2.1498 -0.6073
 6227SOL    HW230141   3.900   3.038   4.155  1.1845 -1.5609  0.7564
 6228SOL     OW30142   3.699   1.675  10.127  0.6667 -0.2445  0.0554
 6228SOL    HW130143   3.696   1.662  10.221 -2.0814  0.1069  0.0180
 6228SOL    HW230144   3.640   1.603  10.103 -0.5007  0.6001  0.3961
 6229SOL     OW30145   0.687   4.285   8.456 -0.3863 -0.3265  0.1137
 6229SOL    HW130146   0.619   4.261   8.518 -0.7331 -2.2122 -1.0041
 6229SOL    HW230147   0.648   4.246   8.377  0.8730  2.3425 -1.8628
 6230SOL     OW30148   0.734   2.663   5.788  0.1255  0.0037 -0.2140
 6230SOL    HW130149   0.646   2.695   5.772  0.8478  2.8814  1.6440
 6230SOL    HW230150   0.723   2.568   5.783  1.3699 -0.2483  1.8006
 6231SOL     OW30151   3.959   0.586  10.648  0.4187 -0.6127 -0.0360
 6231SOL    HW130152   3.966   0.513  10.709  1.0484  0.1504  0.8056
 6231SOL    HW230153   4.049   0.578  10.615  0.7178  1.8002  0.2146
 6232SOL     OW30154   1.564   4.372   6.902  0.0461 -0.4230 -0.0538
 6232SOL    HW130155   1.489   4.416   6.941  1.1467  1.9607 -0.6312
 6232SOL    HW230156   1.620   4.444   6.872 -0.1612  0.7165  2.2543
 6233SOL     OW30157   4.645   3.826   5.188  0.4362 -0.2931  0.0396
 6233SOL    HW130158   4.696   3.807   5.110  0.2188  0.3784 -0.2631
 6233SOL    HW230159   4.696   3.893   5.234  0.0875  0.1784 -0.2613
 6234SOL     OW30160   3.328   1.977   3.630 -0.1139  0.3867 -0.1003
 6234SOL    HW130161   3.283   1.926   3.698  1.7335 -0.0723  0.7908
 6234SOL    HW230162   3.260   2.022   3.581  0.2299  0.9145 -0.0905
 6235SOL     OW30163   3.180   3.666   4.963 -0.3596 -0.3279 -0.1606
 6235SOL    HW130164   3.197   3.744   4.910  1.0497 -0.5256  0.0066
 6235SOL    HW230165   3.167   3.596   4.900  0.7725  0.3257 -1.1155
 6236SOL     OW30166   0.350   4.722   6.005  0.5957  0.2756  0.2717
 6236SOL    HW130167   0.433   0.032   6.034  0.1713  3.1153 -2.0153
 6236SOL    HW230168   0.339   4.656   6.074 -0.1698  0.0252 -0.0836
 6237SOL     OW30169   3.146   2.797   2.686 -0.4459  0.0842 -0.5133
 6237SOL    HW130170   3.104   2.769   2.604 -2.0921  0.2954  0.2611
 6237SOL    HW230171   3.085   2.758   2.749 -0.4131  0.3398 -0.3244
 6238SOL     OW30172   2.797   0.508  16.579 -0.6941  0.0007 -0.8367
 6238SOL    HW130173   2.753   0.593  16.577 -0.1635  0.2602 -1.3845
 6238SOL    HW230174   2.867   0.535  16.638 -0.8921 -1.8733  0.2724
 6239SOL     OW30175   0.190   2.115   8.753 -0.6036  0.1638  0.1351
 6239SOL    HW130176   0.220   2.205   8.740 -0.3372 -0.0136 -0.4819
 6239SOL    HW230177   0.169   2.098   8.661 -0.7071  1.2921 -0.0505
 6240SOL     OW30178   1.285   3.412   6.147  0.4248 -1.0132 -0.3786
 6240SOL    HW130179   1.290   3.503   6.177  1.0790 -0.5375 -1.9139
 6240SOL    HW230180   1.192   3.416   6.128  0.6612  2.4290 -0.8359
 6241SOL     OW30181   4.487   0.528  13.874  0.4170  0.7664  0.1663
 6241SOL    HW130182   4.455   0.469  13.806  1.4017  0.4901 -0.0588
 6241SOL    HW230183   4.578   0.544  13.849  0.2396  1.5578  0.0297
 6242SOL     OW30184   4.560   4.514   3.802 -0.1252  0.8328 -0.3981
 6242SOL    HW130185   4.498   4.459   3.849 -1.0057  1.6792 -0.5836
 6242SOL    HW230186   4.607   4.547   3.879 -1.7884  2.8125 -0.2486
 6243SOL     OW30187   4.212   0.202   1.065 -0.0187  0.8014 -0.3849
 6243SOL    HW130188   4.238   0.190   0.973 -1.7022 -0.6551 -0.6643
 6243SOL    HW230189   4.296   0.200   1.111  0.1061  0.5282 -0.6181
 6244SOL     OW30190   1.498   2.795   2.242 -0.2051 -0.5787  0.1493
 6244SOL    HW130191   1.521   2.768   2.331 -0.8091  1.3689  0.8884
 6244SOL    HW230192   1.588   2.788   2.210  0.0604 -0.0068  0.7593
 6245SOL     OW30193   1.388   4.250  14.677  0.3865  0.2520 -0.3727
 6245SOL    HW130194   1.447   4.228  14.605  1.8307 -2.8673  1.7603
 6245SOL    HW230195   1.302   4.236  14.637  0.5299 -0.3734 -0.4594
 6246SOL     OW30196   3.406   2.988   6.948  0.4054  0.4088 -0.0451
 6246SOL    HW130197   3.445   3.064   6.991 -0.0680  0.7102 -0.1458
 6246SOL    HW230198   3.358   2.951   7.021 -0.7737  1.4838 -0.2880
 6247SOL     OW30199   3.061   2.863   3.994 -0.2007 -0.2156 -0.7911
 6247SOL    HW130200   3.097   2.899   3.913  2.1237  0.9675  0.7970
 6247SOL    HW230201   3.045   2.770   3.974 -0.5548 -0.4054  0.3869
 6248SOL     OW30202   4.541   3.968  11.066  0.2502 -0.9744 -0.3988
 6248SOL    HW130203   4.567   3.880  11.039  1.9661 -0.7487  0.4574
 6248SOL    HW230204   4.542   4.018  10.985 -0.2658  1.0217  0.8353
 6249SOL     OW30205   3.189   4.362  16.062  0.1784 -0.0274 -0.2153
 6249SOL    HW130206   3.235   4.278  16.067 -2.1604 -1.3287 -0.4964
 6249SOL    HW230207   3.163   4.356  15.970 -1.8336  2.1718  0.2214
 6250SOL     OW30208   1.870   0.040   1.499  0.0072 -0.2201 -0.0803
 6250SOL    HW130209   1.788   0.033   1.449 -0.3663  0.9536  0.3584
 6250SOL    HW230210   1.925   4.702   1.455 -1.6055 -2.9836  1.9269
 6251SOL     OW30211   1.854   2.233   2.745  0.3613  0.2765  1.2302
 6251SOL    HW130212   1.805   2.298   2.693 -2.2859 -2.3063  0.4640
 6251SOL    HW230213   1.926   2.278   2.789 -0.5599  2.9717  0.0158
 6252SOL     OW30214   4.455   3.908  11.428  0.0324 -0.3317  0.8588
 6252SOL    HW130215   4.496   3.828  11.395 -1.1006 -0.6608  0.2564
 6252SOL    HW230216   4.513   3.922  11.504  0.5747  1.8329  0.0629
 6253SOL     OW30217   2.360   4.636   7.756 -0.4168 -0.3015  0.0331
 6253SOL    HW130218   2.391   4.725   7.772 -0.4357 -0.3051  0.0872
 6253SOL    HW230219   2.426   4.597   7.698 -1.0383  1.8854 -2.1525
 6254SOL     OW30220   3.493   3.430   5.705  0.8760 -0.8806 -0.0084
 6254SOL    HW130221   3.585   3.408   5.692  0.7464 -0.5672 -1.4192
 6254SOL    HW230222   3.454   3.384   5.631 -0.0516 -1.4827  0.8459
 6255SOL     OW30223   4.305   0.013   5.025 -0.1900  0.1267  0.3494
 6255SOL    HW130224   4.277   0.094   5.068 -0.5674  1.4007 -2.3379
 6255SOL    HW230225   4.393   4.721   5.059  0.3884 -1.0230 -1.7828
 6256SOL     OW30226   3.857   2.052   5.414 -0.5086  0.0579 -0.6334
 6256SOL    HW130227   3.775   2.009   5.437 -0.1250  0.1558  0.8784
 6256SOL    HW230228   3.908   1.982   5.373  0.6005  0.6662 -0.2957
 6257SOL     OW30229   2.242   4.021  10.250 -0.7957 -0.1678 -0.0914
 6257SOL    HW130230   2.167   4.068  10.285 -2.4089 -1.6303 -1.6125
 6257SOL    HW230231   2.225   3.935  10.288  0.5536  0.5402  2.1504
 6258SOL     OW30232   3.838   0.795   7.929  0.0900  0.4939 -0.2716
 6258SOL    HW130233   3.928   0.765   7.943  0.9105  1.7427 -2.7375
 6258SOL    HW230234   3.843   0.890   7.916 -1.0526  0.7191  1.0128
 6259SOL     OW30235   0.725   3.523   7.950 -0.2638  0.2491  0.4968
 6259SOL    HW130236   0.814   3.490   7.934  0.2984  2.3581 -0.7818
 6259SOL    HW230237   0.678   3.440   7.954 -0.4384  0.4317  2.4108
 6260SOL     OW30238   1.323   2.941   1.623  0.9705  0.1257  0.0163
 6260SOL    HW130239   1.348   2.982   1.705  2.2947 -0.3289 -0.1612
 6260SOL    HW230240   1.394   2.877   1.620 -1.4529 -2.5223 -0.4350
 6261SOL     OW30241   2.412   0.801   5.489 -0.3899 -0.2081 -0.2357
 6261SOL    HW130242   2.466   0.879   5.479 -2.0884  1.0091  0.1202
 6261SOL    HW230243   2.443   0.746   5.560 -0.7444 -0.9157 -0.6287
 6262SOL     OW30244   3.391   0.332   4.076 -0.1249  0.7142 -0.0163
 6262SOL    HW130245   3.446   0.304   4.002 -1.9878 -0.2620 -1.0511
 6262SOL    HW230246   3.310   0.286   4.054  1.2827 -2.0850  0.7807
 6263SOL     OW30247   3.217   0.939  10.405 -0.7387  0.3856 -0.9580
 6263SOL    HW130248   3.249   0.959  10.493  0.2675  0.7754 -1.4053
 6263SOL    HW230249   3.123   0.936  10.422 -0.3731 -0.4835  0.9278
 6264SOL     OW30250   4.520   1.855  11.865  0.3039 -0.1639  0.0231
 6264SOL    HW130251   4.488   1.797  11.795  0.3711 -0.0068 -0.1365
 6264SOL    HW230252   4.479   1.935  11.831  1.1477  1.4434  2.8739
 6265SOL     OW30253   1.896   1.307   7.082 -0.1795  0.1774  1.1582
 6265SOL    HW130254   1.800   1.301   7.074 -0.0465 -1.2117  0.6496
 6265SOL    HW230255   1.918   1.217   7.103  0.8179  0.3280  0.7293
 6266SOL     OW30256   2.450   3.525   6.812 -0.2513  0.4162 -0.5834
 6266SOL    HW130257   2.362   3.541   6.845 -0.0160  0.4336  0.0332
 6266SOL    HW230258   2.504   3.581   6.867  0.9218 -1.6073  0.3444
 6267SOL     OW30259   1.529   3.143   7.658 -0.1175  0.4504 -0.4526
 6267SOL    HW130260   1.459   3.086   7.626 -0.2686  0.0164  0.6768
 6267SOL    HW230261   1.492   3.178   7.739 -1.0890 -1.9920  0.1560
 6268SOL     OW30262   3.105   1.450  10.673  0.4701 -0.4425  0.1085
 6268SOL    HW130263   3.092   1.494  10.757 -0.5747 -0.5935  0.0263
 6268SOL    HW230264   3.199   1.452  10.654  0.2751  0.0245 -0.7798
 6269SOL     OW30265   0.967   0.258   3.021 -0.5629 -0.7452 -0.4727
 6269SOL    HW130266   0.872   0.264   3.028 -0.2038  2.9330  0.8032
 6269SOL    HW230267   0.978   0.304   2.938  1.4903 -3.0474 -1.4865
 6270SOL     OW30268   2.752   0.717   8.253 -0.2519  0.2860 -0.2565
 6270SOL    HW130269   2.736   0.812   8.254 -0.3845  0.2654 -1.2934
 6270SOL    HW230270   2.833   0.717   8.203 -0.1014  0.4931 -0.0183
 6271SOL     OW30271   1.871   1.562   6.064  0.1577 -0.0882  0.0829
 6271SOL    HW130272   1.915   1.477   6.060 -1.4676 -0.9849  1.0272
 6271SOL    HW230273   1.931   1.596   6.129 -0.8265  1.9152 -0.0620
 6272SOL     OW30274   1.680   4.166   7.235  0.3863  0.2461 -0.6857
 6272SOL    HW130275   1.656   4.098   7.298  2.2233 -0.8141 -1.1207
 6272SOL    HW230276   1.605   4.223   7.251 -0.0055 -0.8944  1.4874
 6273SOL     OW30277   2.157   1.059   3.305  0.0713 -0.5888 -0.1140
 6273SOL    HW130278   2.200   1.132   3.349  0.6467 -0.8624 -0.2223
 6273SOL    HW230279   2.227   1.021   3.253  1.6468  0.9300  0.8857
 6274SOL     OW30280   0.746   4.465  16.415 -0.7399  0.1113 -0.2177
 6274SOL    HW130281   0.668   4.510  16.448 -1.7479 -0.6668 -1.5323
 6274SOL    HW230282   0.712   4.376  16.405 -0.1717 -0.0655 -0.5982
 6275SOL     OW30283   3.938   4.686   7.397  0.1564 -0.6032 -0.0160
 6275SOL    HW130284   3.868   0.015   7.362 -1.8214 -1.9861  1.7834
 6275SOL    HW230285   3.986   4.723   7.470 -2.2428 -0.8296  1.6895
 6276SOL     OW30286   3.967   2.934   1.795 -1.0472 -0.0069  0.0797
 6276SOL    HW130287   3.982   2.990   1.719  0.9785  0.2228  0.6435
 6276SOL    HW230288   4.052   2.938   1.839 -1.1423 -0.3144  0.2889
 6277SOL     OW30289   3.902   2.932   6.775  0.0708  0.0138  0.0042
 6277SOL    HW130290   3.937   2.945   6.863 -0.9652  0.7862  0.2981
 6277SOL    HW230291   3.824   2.882   6.799 -0.5185  1.1744  0.5380
 6278SOL     OW30292   1.173   2.702   5.927 -0.7222  0.3875 -0.4308
 6278SOL    HW130293   1.250   2.711   5.983  0.8048 -1.4909 -2.1897
 6278SOL    HW230294   1.158   2.792   5.897  0.9034  0.9458  0.4194
 6279SOL     OW30295   3.974   2.077   3.858  0.6857  0.3053  0.1826
 6279SOL    HW130296   3.899   2.114   3.904  0.4318  0.9285 -0.7451
 6279SOL    HW230297   4.042   2.066   3.926  0.4356 -0.0586  0.3744
 6280SOL     OW30298   0.678   1.193   9.351 -0.3994 -0.1881  0.4998
 6280SOL    HW130299   0.666   1.273   9.402  0.0409  0.2774 -0.1246
 6280SOL    HW230300   0.609   1.204   9.286  0.7414 -1.5648 -0.9278
 6281SOL     OW30301   3.124   1.767  11.450  0.6203 -0.4711 -0.0579
 6281SOL    HW130302   3.098   1.677  11.431  1.3213 -1.1993  2.4244
 6281SOL    HW230303   3.051   1.806  11.403  0.9556  1.3824  0.9572
 6282SOL     OW30304   3.580   0.084  13.938  0.3321 -0.2381 -0.4151
 6282SOL    HW130305   3.563   0.033  14.017 -1.5259 -0.0864 -0.7181
 6282SOL    HW230306   3.661   0.126  13.969 -0.8889  2.1141 -0.3557
 6283SOL     OW30307   1.777   1.405   9.705  0.3116 -0.0489  0.1987
 6283SOL    HW130308   1.789   1.349   9.782  0.5133 -1.5386 -0.9027
 6283SOL    HW230309   1.686   1.433   9.714  0.8224  1.5344  0.3056
 6284SOL     OW30310   1.582   2.448   9.737 -0.5199  0.4307 -0.3792
 6284SOL    HW130311   1.488   2.431   9.726 -0.5958  1.3169 -1.0730
 6284SOL    HW230312   1.596   2.445   9.832 -0.1839 -1.4286 -0.4897
 6285SOL     OW30313   3.130   1.161  14.525  0.0258 -0.1639 -0.3685
 6285SOL    HW130314   3.062   1.224  14.552 -0.1262 -0.5943  0.2521
 6285SOL    HW230315   3.184   1.228  14.483  0.4986  0.4618  1.2473
 6286SOL     OW30316   3.585   1.449  10.101  0.4244  0.1158 -0.1496
 6286SOL    HW130317   3.587   1.396  10.021 -0.6994 -0.8629  0.4719
 6286SOL    HW230318   3.489   1.450  10.110  0.4288  0.5982 -0.1412
 6287SOL     OW30319   1.097   0.310  13.085  0.0519 -0.4773  0.4095
 6287SOL    HW130320   1.187   0.287  13.106  0.9017  1.7535 -0.7834
 6287SOL    HW230321   1.116   0.403  13.071  0.6982 -0.6820 -0.0672
 6288SOL     OW30322   0.585   1.203   3.050  0.2743  0.1942 -0.1621
 6288SOL    HW130323   0.507   1.257   3.068 -0.1189 -0.7741  0.9907
 6288SOL    HW230324   0.651   1.245   3.105 -0.4029  0.1585  0.6847
 6289SOL     OW30325   1.566   4.272   0.564  0.0388  0.2225  0.2623
 6289SOL    HW130326   1.529   4.236   0.645 -0.2284 -0.9460 -0.3801
 6289SOL    HW230327   1.485   4.274   0.513  0.0264 -0.6428  0.2443
 6290SOL     OW30328   2.701   4.000  11.995 -0.4244 -0.6747 -0.4351
 6290SOL    HW130329   2.743   3.928  12.042 -0.2781 -0.2274  0.1144
 6290SOL    HW230330   2.657   3.948  11.928  0.6056 -0.1673 -1.5083
 6291SOL     OW30331   2.440   3.469   4.969 -0.2054 -0.3883 -0.3635
 6291SOL    HW130332   2.465   3.549   5.015 -0.5595 -2.1611  2.9000
 6291SOL    HW230333   2.444   3.405   5.040  0.4792  0.1835  0.1123
 6292SOL     OW30334   0.899   1.161   1.149  0.4546  0.2110 -0.1190
 6292SOL    HW130335   0.927   1.121   1.231 -0.9114  0.5973  0.5227
 6292SOL    HW230336   0.898   1.084   1.092 -0.4740 -0.4632  0.8075
 6293SOL     OW30337   0.109   2.138   9.140 -1.0004 -0.5328 -0.4762
 6293SOL    HW130338   0.202   2.117   9.134 -0.5304  1.7526 -1.3232
 6293SOL    HW230339   0.105   2.211   9.203 -2.2178  0.1186 -1.3005
 6294SOL     OW30340   1.800   0.528  14.623 -0.0370 -0.1831  0.1706
 6294SOL    HW130341   1.746   0.468  14.674  1.3931 -0.6549  1.1293
 6294SOL    HW230342   1.794   0.609  14.674  1.7985 -0.9087  1.5281
 6295SOL     OW30343   4.516   3.237   5.517  0.5681  0.1838  0.0347
 6295SOL    HW130344   4.449   3.265   5.454 -0.7230 -2.9326  0.0131
 6295SOL    HW230345   4.493   3.147   5.539 -1.9273  1.0874  1.0846
 6296SOL     OW30346   0.074   3.945  16.947  0.5154 -0.0836  0.2457
 6296SOL    HW130347   0.042   4.002  16.878  0.6766 -1.5512 -1.0300
 6296SOL    HW230348   0.050   3.861  16.909  1.3759  0.1030 -0.6975
 6297SOL     OW30349   1.279   3.331   8.874 -0.1117 -0.0497  0.3989
 6297SOL    HW130350   1.231   3.410   8.901 -0.4397 -0.0153 -0.2610
 6297SOL    HW230351   1.370   3.351   8.894  0.1175  0.0581 -0.7463
 6298SOL     OW30352   3.688   3.401   7.366 -0.3977 -0.0756  0.2647
 6298SOL    HW130353   3.685   3.317   7.413  2.8778 -1.3048 -1.6852
 6298SOL    HW230354   3.607   3.438   7.399  0.0973  0.7622  0.5360
 6299SOL     OW30355   2.338   2.431   7.015 -0.1101  0.1503  0.1903
 6299SOL    HW130356   2.332   2.474   6.930 -1.4910 -0.9214 -0.2541
 6299SOL    HW230357   2.302   2.345   6.995 -1.8214  0.8302  0.2687
 6300SOL     OW30358   1.143   4.271   0.530 -0.3810 -0.1936 -0.5402
 6300SOL    HW130359   1.075   4.203   0.528  0.4126 -1.0301  1.0845
 6300SOL    HW230360   1.184   4.246   0.613 -0.4204 -0.3009 -0.5523
 6301SOL     OW30361   2.933   3.659  12.692 -0.0973  0.0333 -0.7005
 6301SOL    HW130362   3.002   3.599  12.664 -0.8740 -1.3682  0.3971
 6301SOL    HW230363   2.924   3.634  12.784 -0.4281 -1.9061 -1.2496
 6302SOL     OW30364   4.327   4.092   3.453  0.6463 -0.0780  0.0389
 6302SOL    HW130365   4.332   4.050   3.367  0.1384  2.8430 -1.3986
 6302SOL    HW230366   4.261   4.035   3.494 -1.3038  1.0686 -1.4812
 6303SOL     OW30367   3.934   4.650  10.058  0.1879 -0.1174  0.1026
 6303SOL    HW130368   3.932   4.621   9.966  1.5011  0.1476 -0.0067
 6303SOL    HW230369   3.842   4.675  10.069  0.1568 -0.8947  1.5082
 6304SOL     OW30370   0.435   3.953  13.674  0.7331  0.0514  0.4538
 6304SOL    HW130371   0.452   3.870  13.719  1.2618  0.4354  0.9588
 6304SOL    HW230372   0.511   4.004  13.702  2.0697 -0.7173 -1.7765
 6305SOL     OW30373   4.563   1.158   2.251 -0.1010  0.6113 -0.2858
 6305SOL    HW130374   4.644   1.124   2.214 -0.8964  0.0002 -1.4829
 6305SOL    HW230375   4.499   1.143   2.181 -0.4256  0.7203 -0.0167
 6306SOL     OW30376   4.313   0.569  17.048  0.2194 -0.0498  0.4028
 6306SOL    HW130377   4.298   0.660  17.020  0.5240 -0.4048 -0.9419
 6306SOL    HW230378   4.262   0.573  17.128  1.4873 -2.3430  1.3203
 6307SOL     OW30379   1.839   2.540   2.921 -0.6267 -0.7807 -0.0046
 6307SOL    HW130380   1.800   2.573   2.840  0.0132 -1.5886 -0.6361
 6307SOL    HW230381   1.934   2.550   2.911 -0.4094 -1.2443  1.4477
 6308SOL     OW30382   3.995   2.077   7.305  0.0669  0.5159 -0.0423
 6308SOL    HW130383   4.046   2.025   7.244 -1.7225 -1.5841  0.2640
 6308SOL    HW230384   4.041   2.159   7.285 -1.7784  1.4583 -0.4216
 6309SOL     OW30385   0.502   2.953  14.992 -0.4896 -0.1445  0.2467
 6309SOL    HW130386   0.422   2.904  15.014  0.2067 -1.2085  0.4053
 6309SOL    HW230387   0.571   2.907  15.040 -0.2016  0.2973  0.2561
 6310SOL     OW30388   3.063   1.085   2.618  0.2363  0.3943  0.4057
 6310SOL    HW130389   3.101   1.027   2.553 -1.1184  0.7406 -0.7075
 6310SOL    HW230390   3.138   1.103   2.674  0.2386  1.1144  0.1694
 6311SOL     OW30391   3.669   1.383  11.412 -0.2709  0.3219 -0.2888
 6311SOL    HW130392   3.586   1.389  11.366 -0.5987 -0.0428  0.2642
 6311SOL    HW230393   3.723   1.453  11.374  0.8932  0.0778  0.9312
 6312SOL     OW30394   2.836   3.607   0.331  0.0825  0.1765 -0.0953
 6312SOL    HW130395   2.836   3.522   0.374 -1.6411 -1.6309 -3.6864
 6312SOL    HW230396   2.761   3.583   0.276  0.0955  0.6601 -0.3245
 6313SOL     OW30397   1.841   1.696   5.455 -0.4961  0.8141 -0.2811
 6313SOL    HW130398   1.849   1.788   5.479  0.1208  0.4054  1.0577
 6313SOL    HW230399   1.933   1.669   5.455 -0.3221  1.3851  1.7645
 6314SOL     OW30400   4.112   2.201   8.417  0.2278 -0.6552  0.0397
 6314SOL    HW130401   4.103   2.195   8.321  0.1272 -0.0268  0.0070
 6314SOL    HW230402   4.105   2.296   8.432  2.4278 -0.9042  2.5690
 6315SOL     OW30403   0.044   3.854   0.558 -0.1630 -0.2551  1.1928
 6315SOL    HW130404   0.097   3.811   0.625  0.5938  0.5122  1.0779
 6315SOL    HW230405   0.037   3.946   0.586  2.4341  0.8399 -1.7947
 6316SOL     OW30406   4.703   2.240   4.333 -0.2636  0.2093  0.2000
 6316SOL    HW130407   4.685   2.331   4.312  1.0631  0.5237  0.4299
 6316SOL    HW230408   4.624   2.216   4.381 -0.2384  0.0767  0.1754
 6317SOL     OW30409   1.821   3.418  16.116  0.6536 -0.2133 -0.1883
 6317SOL    HW130410   1.867   3.499  16.139 -1.5992  1.4540 -1.5689
 6317SOL    HW230411   1.741   3.462  16.087 -0.2975 -1.0644  1.1433
 6318SOL     OW30412   2.143   2.619   8.783  0.0553 -0.5090  0.0039
 6318SOL    HW130413   2.123   2.570   8.703 -1.6640  0.6859 -0.3247
 6318SOL    HW230414   2.236   2.630   8.765  0.1775  0.8995  1.5078
 6319SOL     OW30415   3.458   2.636   5.230  0.4470 -0.1132 -0.6690
 6319SOL    HW130416   3.440   2.544   5.212 -0.2614 -0.4541  1.7092
 6319SOL    HW230417   3.366   2.661   5.231 -0.8525 -4.8917  1.0735
 6320SOL     OW30418   2.744   2.559   2.526 -0.1828 -0.7504 -0.6328
 6320SOL    HW130419   2.732   2.497   2.598 -0.5906 -2.4238 -2.1577
 6320SOL    HW230420   2.666   2.536   2.475 -0.3051 -0.6607 -0.4864
 6321SOL     OW30421   3.360   1.157  10.345 -1.2178  0.1043 -0.5175
 6321SOL    HW130422   3.340   1.173  10.253 -0.8925  0.8369 -0.4636
 6321SOL    HW230423   3.306   1.081  10.367 -0.0228 -0.2890  1.0886
 6322SOL     OW30424   3.933   3.729   2.290 -0.0965 -0.1331 -0.0792
 6322SOL    HW130425   3.850   3.681   2.287  1.0902 -2.1229 -1.1189
 6322SOL    HW230426   3.993   3.657   2.309  0.5414  0.2213 -0.7553
 6323SOL     OW30427   3.301   2.134  12.973 -0.4360 -0.3985 -0.7916
 6323SOL    HW130428   3.216   2.178  12.976  0.0903  0.5303  0.8696
 6323SOL    HW230429   3.293   2.077  12.897 -0.8987 -1.4609  0.0373
 6324SOL     OW30430   0.831   0.285   6.829 -0.1025 -0.2824 -0.5472
 6324SOL    HW130431   0.862   0.224   6.896  0.5876  0.2397 -0.3934
 6324SOL    HW230432   0.854   0.375   6.852  1.5558 -0.9773  0.4858
 6325SOL     OW30433   2.758   0.089  15.201 -0.0359  0.4597 -0.1422
 6325SOL    HW130434   2.824   0.154  15.175 -0.3941 -0.1151 -2.4868
 6325SOL    HW230435   2.742   0.106  15.294  0.9370 -0.1739  0.1381
 6326SOL     OW30436   0.241   2.960  16.155 -0.9054 -0.2516 -0.0155
 6326SOL    HW130437   0.234   2.877  16.109  1.3128 -0.3039 -0.2718
 6326SOL    HW230438   0.170   3.014  16.121 -1.6840 -0.5967  1.0848
 6327SOL     OW30439   1.465   3.444   8.075 -0.0294 -0.1191  0.3573
 6327SOL    HW130440   1.426   3.404   7.997  1.0033 -0.7058  0.1279
 6327SOL    HW230441   1.557   3.418   8.068 -0.4805 -1.7118  0.3642
 6328SOL     OW30442   4.414   1.370   3.595 -0.1426 -0.0496  0.2515
 6328SOL    HW130443   4.453   1.381   3.508  0.4280 -0.4327  0.4606
 6328SOL    HW230444   4.378   1.459   3.603  1.1519  0.6271 -1.3970
 6329SOL     OW30445   2.993   0.242   2.253  0.0893 -0.1539 -0.1736
 6329SOL    HW130446   2.905   0.252   2.290  0.4467  0.5893  0.4584
 6329SOL    HW230447   3.008   0.328   2.213  1.9138 -0.3880  0.0119
 6330SOL     OW30448   3.841   0.876  17.191 -0.2786 -0.1287  0.6028
 6330SOL    HW130449   3.794   0.854  17.272  1.4323 -0.0573  1.6150
 6330SOL    HW230450   3.772   0.931  17.153  0.0611 -0.0533  0.0983
 6331SOL     OW30451   4.262   1.514   4.220 -0.1657 -0.3088 -0.4256
 6331SOL    HW130452   4.302   1.533   4.305 -1.3956 -0.6328  0.2315
 6331SOL    HW230453   4.264   1.597   4.172 -1.7379  2.7941  4.9139
 6332SOL     OW30454   0.412   3.849   9.893  0.3977  0.3372 -0.2244
 6332SOL    HW130455   0.360   3.889   9.824  0.1918 -1.5175 -1.1614
 6332SOL    HW230456   0.374   3.761   9.900  1.6096 -0.2844 -1.2236
 6333SOL     OW30457   3.494   4.609   7.348  0.3666  0.4294  0.1427
 6333SOL    HW130458   3.422   4.588   7.288  1.8971 -1.0473 -1.1914
 6333SOL    HW230459   3.468   4.553   7.421 -3.4215  1.1419 -0.6666
 6334SOL     OW30460   1.345   2.811   1.366  1.0011  0.4442 -0.1851
 6334SOL    HW130461   1.307   2.830   1.452  1.5096  1.4516 -0.1930
 6334SOL    HW230462   1.301   2.734   1.329  0.2247  0.2905  1.0530
 6335SOL     OW30463   4.588   4.034   7.664  0.1318 -0.3766  0.1238
 6335SOL    HW130464   4.672   3.993   7.685  0.3303  1.9645  3.9687
 6335SOL    HW230465   4.606   4.082   7.583 -1.7423  1.3066  0.7048
 6336SOL     OW30466   3.817   0.407   3.836 -0.0662 -0.4673 -0.2133
 6336SOL    HW130467   3.817   0.501   3.820  0.0926 -0.0775  2.0680
 6336SOL    HW230468   3.729   0.385   3.805 -0.6529 -1.1280  1.9001
 6337SOL     OW30469   1.112   1.879   4.513 -0.5108 -0.4820  0.1118
 6337SOL    HW130470   1.132   1.823   4.438  0.1302 -0.3910  0.2116
 6337SOL    HW230471   1.193   1.894   4.563 -1.7564  0.9991  1.7123
 6338SOL     OW30472   0.351   3.187   2.085 -0.5384 -0.2816 -0.0909
 6338SOL    HW130473   0.394   3.250   2.142 -1.0704 -1.2595  1.4162
 6338SOL    HW230474   0.419   3.119   2.079 -0.8328 -0.7066  1.4560
 6339SOL     OW30475   1.632   4.108  12.444 -0.3329 -0.0035  0.0318
 6339SOL    HW130476   1.568   4.173  12.415  1.0702  0.6583 -1.6298
 6339SOL    HW230477   1.608   4.098  12.536  0.7747  0.5211  0.3799
 6340SOL     OW30478   2.908   3.962  12.198  0.3880 -0.5621  0.2268
 6340SOL    HW130479   2.980   3.940  12.256  0.0069  1.3093  1.4168
 6340SOL    HW230480   2.837   3.913  12.240 -0.0775 -1.0300 -1.0926
 6341SOL     OW30481   2.645   3.200  15.393  0.3447 -0.0331 -0.0746
 6341SOL    HW130482   2.557   3.161  15.399  0.5030 -0.4253 -0.2935
 6341SOL    HW230483   2.628   3.241  15.308  0.9076 -0.9485 -0.6300
 6342SOL     OW30484   2.285   1.358   2.087  0.3381 -0.5072  0.1989
 6342SOL    HW130485   2.332   1.415   2.025 -0.8146  0.7292  0.4535
 6342SOL    HW230486   2.218   1.420   2.115 -3.1306 -4.2002  0.0389
 6343SOL     OW30487   2.761   1.943   4.786  0.1977  0.2396  0.6797
 6343SOL    HW130488   2.718   1.905   4.863  0.8097 -0.3927  0.7027
 6343SOL    HW230489   2.751   1.862   4.737  0.5014  1.8908 -2.1042
 6344SOL     OW30490   4.057   4.503   1.500 -0.2218  0.2529  0.3973
 6344SOL    HW130491   4.048   4.598   1.508  2.4696  0.5911 -0.5725
 6344SOL    HW230492   4.145   4.498   1.538  0.8839  0.8435 -2.0758
 6345SOL     OW30493   1.428   2.808   4.456  0.3014  0.6473  0.0225
 6345SOL    HW130494   1.413   2.836   4.547 -1.5107 -3.0797  0.8798
 6345SOL    HW230495   1.507   2.755   4.459  0.9170  1.5515 -0.3967
 6346SOL     OW30496   3.436   1.452   9.068  0.3625 -0.1699  0.1661
 6346SOL    HW130497   3.370   1.461   8.999  0.8227 -1.6288 -0.4613
 6346SOL    HW230498   3.478   1.373   9.035  0.2010 -0.6968  1.2298
 6347SOL     OW30499   2.399   0.749   2.987  0.4399 -0.0999  0.0310
 6347SOL    HW130500   2.393   0.823   3.048 -3.0688  0.5565 -1.0986
 6347SOL    HW230501   2.417   0.676   3.046  1.5023  0.3076  0.2292
 6348SOL     OW30502   2.792   3.293  12.699 -0.5277 -0.1366  0.0288
 6348SOL    HW130503   2.763   3.206  12.670 -0.7024  0.8211 -2.6170
 6348SOL    HW230504   2.843   3.267  12.776 -2.3163  0.9197  1.5899
 6349SOL     OW30505   3.077   4.664   3.921  0.1143  0.0818 -1.0583
 6349SOL    HW130506   3.120   4.641   3.838 -0.2988 -0.2349 -1.1805
 6349SOL    HW230507   3.032   4.579   3.923  0.2159  0.1829  4.3643
 6350SOL     OW30508   0.346   1.894   0.602 -0.7670  0.1728 -0.2944
 6350SOL    HW130509   0.326   1.872   0.693  1.4894 -0.8032 -0.0274
 6350SOL    HW230510   0.312   1.816   0.559  1.5114 -0.6184 -0.6767
 6351SOL     OW30511   4.621   2.562  14.797  0.0841  0.0134 -0.4958
 6351SOL    HW130512   4.564   2.635  14.776 -0.4563 -0.9716 -2.4186
 6351SOL    HW230513   4.551   2.507  14.832 -1.1594  1.8119 -0.1873
 6352SOL     OW30514   2.552   4.371   6.015 -0.1599  0.3271 -0.3200
 6352SOL    HW130515   2.573   4.337   6.102  0.9340  1.1027 -0.2757
 6352SOL    HW230516   2.636   4.376   5.968 -0.9413  0.5737 -1.7076
 6353SOL     OW30517   4.405   2.666   2.864  0.8230 -0.6179 -0.2018
 6353SOL    HW130518   4.324   2.619   2.881  1.7973 -2.2844 -0.2181
 6353SOL    HW230519   4.475   2.601   2.856  1.7137  0.4183 -0.8458
 6354SOL     OW30520   1.444   1.625   3.535  0.3893 -0.6004  0.3952
 6354SOL    HW130521   1.535   1.635   3.564 -0.8032  0.6191  3.6215
 6354SOL    HW230522   1.426   1.538   3.570  1.3723 -0.7625  0.5075
 6355SOL     OW30523   3.238   0.814   7.016  0.2499  0.5631 -0.2094
 6355SOL    HW130524   3.239   0.795   7.109  1.5060 -1.3623 -0.6276
 6355SOL    HW230525   3.186   0.895   7.014 -0.0201  0.3778 -0.9699
 6356SOL     OW30526   3.775   1.760   2.172 -0.0007 -0.4093  0.0156
 6356SOL    HW130527   3.739   1.815   2.102  0.4515 -1.3205 -0.9193
 6356SOL    HW230528   3.716   1.768   2.247 -2.7859  1.2684 -2.3564
 6357SOL     OW30529   0.768   2.064   8.062 -0.2490  0.6077  0.5046
 6357SOL    HW130530   0.684   2.021   8.082  1.4863 -3.3298 -0.7684
 6357SOL    HW230531   0.831   1.993   8.072 -2.8362 -1.8373 -0.6573
 6358SOL     OW30532   3.230   1.870   1.871  0.1418  0.1175 -0.1078
 6358SOL    HW130533   3.288   1.862   1.795 -0.6191  0.2141 -0.6946
 6358SOL    HW230534   3.288   1.870   1.947 -0.0323 -0.7817  0.0257
 6359SOL     OW30535   1.171   3.685   0.967  0.3292 -0.4264  0.0337
 6359SOL    HW130536   1.262   3.699   0.943  0.2137  0.8407  0.3250
 6359SOL    HW230537   1.138   3.617   0.909 -0.0681 -1.6602  1.6831
 6360SOL     OW30538   4.004   3.817   0.829 -0.1178  0.5775 -0.5929
 6360SOL    HW130539   4.038   3.896   0.786  0.1509  0.8859  0.1904
 6360SOL    HW230540   3.922   3.821   0.780 -1.4357  1.9270  1.7248
 6361SOL     OW30541   1.162   3.287   8.180 -0.5066 -0.6503  0.0011
 6361SOL    HW130542   1.211   3.288   8.262 -0.8310  0.0821  0.1887
 6361SOL    HW230543   1.238   3.284   8.122  1.3555  0.9764  2.3599
 6362SOL     OW30544   4.571   1.152   5.515  0.3284  0.5998 -0.1697
 6362SOL    HW130545   4.547   1.206   5.439  0.4106  0.3209 -0.3954
 6362SOL    HW230546   4.530   1.201   5.586 -0.9566  0.4354 -0.7990
 6363SOL     OW30547   1.586   3.892   3.423 -0.1460 -0.2673 -0.0825
 6363SOL    HW130548   1.549   3.971   3.384 -2.2731 -1.6860 -0.8989
 6363SOL    HW230549   1.610   3.843   3.344 -1.9946  0.2838 -0.9858
 6364SOL     OW30550   4.663   3.005  12.470  0.0491  0.1250  0.6742
 6364SOL    HW130551   4.592   3.056  12.509 -1.3367 -1.5048  0.2700
 6364SOL    HW230552   0.004   3.071  12.485 -0.0414  0.3920 -0.0910
 6365SOL     OW30553   1.060   4.659   5.862 -0.2290  0.4211 -0.4137
 6365SOL    HW130554   1.033   4.568   5.847  0.3606  0.3276 -0.8881
 6365SOL    HW230555   0.978   4.700   5.890 -1.3944 -1.0643 -1.5882
 6366SOL     OW30556   2.510   2.765   1.350 -0.0511  0.1299 -0.1683
 6366SOL    HW130557   2.594   2.797   1.319 -0.5919  1.4530 -0.2963
 6366SOL    HW230558   2.517   2.671   1.335 -0.9887 -0.3346  2.1942
 6367SOL     OW30559   0.484   1.229   3.398  0.5212  0.1650 -0.0457
 6367SOL    HW130560   0.429   1.307   3.396  2.0698  1.1891 -2.2122
 6367SOL    HW230561   0.466   1.207   3.489  1.6595  1.5101  0.4968
 6368SOL     OW30562   4.583   4.505   5.557  0.5135  0.2528  0.3046
 6368SOL    HW130563   4.502   4.497   5.609  0.6496  0.0880  0.4892
 6368SOL    HW230564   4.618   4.417   5.550 -1.9990 -0.8686  1.7217
 6369SOL     OW30565   3.766   3.581   6.304  0.3320  0.3035  0.3787
 6369SOL    HW130566   3.801   3.516   6.365 -0.6172  0.6799  1.3066
 6369SOL    HW230567   3.691   3.616   6.351 -0.2878  3.0830 -2.6884
 6370SOL     OW30568   1.711   2.997   1.578 -0.3737  0.3776  0.0674
 6370SOL    HW130569   1.661   2.921   1.546 -0.5878  0.4181  0.3043
 6370SOL    HW230570   1.757   3.035   1.503  2.2469 -0.8260  1.0950
 6371SOL     OW30571   0.116   3.704   3.168  0.1693  0.3097  0.3067
 6371SOL    HW130572   0.152   3.617   3.152 -0.0320  0.5726 -1.5791
 6371SOL    HW230573   0.140   3.754   3.091 -0.7192 -0.9934 -0.8110
 6372SOL     OW30574   0.478   3.429   5.289  0.0849  0.1953  0.4777
 6372SOL    HW130575   0.409   3.432   5.222  0.6022  0.1828 -0.0614
 6372SOL    HW230576   0.503   3.339   5.267 -1.4167 -0.0133 -0.3497
 6373SOL     OW30577   3.534   3.355   2.107 -0.1613  0.0998 -0.2639
 6373SOL    HW130578   3.515   3.335   2.015 -1.2123  0.3521 -0.0981
 6373SOL    HW230579   3.475   3.429   2.122 -0.8295 -0.6712  0.8936
 6374SOL     OW30580   4.715   2.757   6.093 -0.1863 -0.0964  0.0669
 6374SOL    HW130581   0.069   2.726   6.050 -1.5208 -1.8980 -1.1145
 6374SOL    HW230582   0.009   2.735   6.184  0.9649 -1.7245 -0.5755
 6375SOL     OW30583   1.976   0.328  14.116  0.3893 -0.1718 -0.6508
 6375SOL    HW130584   2.054   0.360  14.162  0.4164 -0.8952 -0.1827
 6375SOL    HW230585   1.969   0.393  14.047  0.3979 -1.8141 -2.2118
 6376SOL     OW30586   4.613   2.973   2.429 -0.3991  0.0601  0.4943
 6376SOL    HW130587   4.572   2.959   2.344  0.9064 -0.3261 -0.0554
 6376SOL    HW230588   4.557   2.928   2.492 -1.0849 -1.3922 -1.1605
 6377SOL     OW30589   0.873   0.546   6.104 -0.7527  0.3736  0.1824
 6377SOL    HW130590   0.907   0.600   6.175 -0.6111 -1.2032  1.3201
 6377SOL    HW230591   0.780   0.569   6.107 -0.7529  0.0249  2.6581
 6378SOL     OW30592   1.438   3.764   7.339 -0.3834  1.1554  0.2255
 6378SOL    HW130593   1.355   3.725   7.310  0.1182  0.1521  0.1296
 6378SOL    HW230594   1.430   3.752   7.433  1.2299 -1.4842  0.0518
 6379SOL     OW30595   2.866   3.488  11.499  0.0180  0.4021 -0.2639
 6379SOL    HW130596   2.898   3.404  11.465 -0.2359  0.7512 -1.3678
 6379SOL    HW230597   2.775   3.487  11.468 -0.4650  1.5031  1.1271
 6380SOL     OW30598   2.056   2.130   4.593  0.2135 -0.1815 -0.1442
 6380SOL    HW130599   2.090   2.215   4.622  0.3488 -0.6593  1.0667
 6380SOL    HW230600   2.026   2.109   4.681 -0.5358 -2.5922 -0.9912
 6381SOL     OW30601   1.403   3.995   2.931 -0.1687 -0.0494 -0.2142
 6381SOL    HW130602   1.331   4.018   2.873 -1.9215 -0.9290  1.6082
 6381SOL    HW230603   1.363   3.913   2.961  0.5826 -1.4895 -3.1831
 6382SOL     OW30604   1.023   2.186   3.875  0.0143 -0.0816  0.2209
 6382SOL    HW130605   1.105   2.180   3.825  0.3187  1.1969  0.5773
 6382SOL    HW230606   0.988   2.274   3.868  1.4512  0.5791  1.3838
 6383SOL     OW30607   4.477   3.780   1.591 -0.3218 -0.2625  0.2850
 6383SOL    HW130608   4.383   3.795   1.580 -0.6852 -1.5939  1.5884
 6383SOL    HW230609   4.495   3.841   1.663  1.9603 -0.9410  0.2940
 6384SOL     OW30610   3.612   0.236  14.310  0.2840 -0.4226  0.3975
 6384SOL    HW130611   3.642   0.320  14.344 -2.1932  0.2411  0.9062
 6384SOL    HW230612   3.691   0.196  14.272  0.4339 -0.1093  0.3782
 6385SOL     OW30613   2.315   2.181   6.392 -0.0949 -0.0601 -0.2165
 6385SOL    HW130614   2.309   2.140   6.306  1.7112  0.9414 -0.8376
 6385SOL    HW230615   2.228   2.220   6.393 -0.7421 -1.5598  0.2578
 6386SOL     OW30616   0.175   1.352  13.200 -0.0171 -0.0169 -0.1995
 6386SOL    HW130617   0.149   1.330  13.110 -1.9388  0.8048  0.1554
 6386SOL    HW230618   0.238   1.284  13.224 -0.7899 -0.8515 -0.5173
 6387SOL     OW30619   1.308   0.257   7.148  0.5347  0.0889 -0.3512
 6387SOL    HW130620   1.331   0.260   7.241 -1.8108  1.3848  0.1743
 6387SOL    HW230621   1.238   0.322   7.148  1.2061  0.8227  0.8071
 6388SOL     OW30622   2.161   1.584  10.475 -0.1877  0.2703  0.2581
 6388SOL    HW130623   2.113   1.666  10.463 -1.4199 -0.4785  0.0892
 6388SOL    HW230624   2.243   1.624  10.504  1.0162 -1.1406 -1.2313
 6389SOL     OW30625   4.706   4.404   5.156 -0.5409  0.0315 -0.6895
 6389SOL    HW130626   0.060   4.410   5.207 -3.2609 -0.8429  3.7126
 6389SOL    HW230627   0.012   4.344   5.089 -1.1876 -0.0638 -0.9148
 6390SOL     OW30628   2.162   0.046   9.978  0.0153  0.8476  0.4058
 6390SOL    HW130629   2.196   0.011  10.061  1.8369  1.1770 -0.2146
 6390SOL    HW230630   2.228   0.114   9.962  0.8539 -0.2646 -0.8601
 6391SOL     OW30631   1.180   3.585  16.479  0.2728 -0.2983 -0.0047
 6391SOL    HW130632   1.190   3.659  16.539 -2.1225 -0.9094  1.1398
 6391SOL    HW230633   1.223   3.623  16.402  0.9956  1.8756  1.4539
 6392SOL     OW30634   2.088   0.633   7.046  0.2412 -0.2082  0.8286
 6392SOL    HW130635   2.093   0.715   6.998  0.2782  0.8987  2.7378
 6392SOL    HW230636   2.034   0.657   7.122 -1.2945 -2.4370  0.4694
 6393SOL     OW30637   4.679   3.288   4.797  0.0831  0.0729 -0.4271
 6393SOL    HW130638   4.605   3.227   4.794 -2.7172  3.4212  0.4782
 6393SOL    HW230639   4.643   3.366   4.841  1.3636  0.5656 -0.2362
 6394SOL     OW30640   0.187   2.259   3.470 -0.1730 -0.3408 -0.0194
 6394SOL    HW130641   0.234   2.260   3.554 -0.1165  1.5012 -0.0584
 6394SOL    HW230642   0.125   2.329   3.493  0.1573  0.7371 -2.3665
 6395SOL     OW30643   3.845   0.174   2.446  0.1247 -0.2294 -0.3598
 6395SOL    HW130644   3.788   0.152   2.521  2.2182  2.7542  2.1032
 6395SOL    HW230645   3.902   0.242   2.480 -1.5899  0.9393  0.1675
 6396SOL     OW30646   1.263   2.930  17.422 -0.4043 -0.4545  0.3144
 6396SOL    HW130647   1.217   2.858  17.378 -0.4990  0.2258 -0.6934
 6396SOL    HW230648   1.343   2.943  17.372 -3.2029 -0.9134 -4.3022
 6397SOL     OW30649   4.131   4.351   2.932  0.1616  0.1110 -0.7114
 6397SOL    HW130650   4.122   4.262   2.966  0.7295  0.6777  0.9146
 6397SOL    HW230651   4.196   4.343   2.862  0.1767  1.1297 -0.8099
 6398SOL     OW30652   0.435   2.033  15.808 -0.2287  0.1469  0.1378
 6398SOL    HW130653   0.374   2.107  15.803  1.3771  1.5763  1.2947
 6398SOL    HW230654   0.508   2.059  15.752 -1.8548  4.3898  0.0021
 6399SOL     OW30655   3.926   0.742  10.994 -0.0226 -0.4036 -0.1944
 6399SOL    HW130656   3.944   0.709  11.082  0.4747  1.0385  0.2461
 6399SOL    HW230657   3.873   0.820  11.010  0.6252 -0.1388  0.6532
 6400SOL     OW30658   3.400   0.344  15.626 -0.1853  0.0891 -0.0634
 6400SOL    HW130659   3.484   0.389  15.615 -0.6760  0.0634 -3.8480
 6400SOL    HW230660   3.368   0.378  15.710 -3.1797 -0.5819 -0.9257
 6401SOL     OW30661   4.442   0.836   6.961 -0.0400  0.4120 -0.3791
 6401SOL    HW130662   4.526   0.808   6.925  0.7842  1.6099  0.6066
 6401SOL    HW230663   4.409   0.758   7.006  0.4818 -1.2172 -2.7888
 6402SOL     OW30664   3.096   0.310   0.634 -0.1488 -0.0666 -0.1723
 6402SOL    HW130665   3.134   0.261   0.561 -0.4207  1.2222 -1.1890
 6402SOL    HW230666   3.159   0.324   0.705  1.1816 -0.3122 -1.2873
 6403SOL     OW30667   4.255   0.371   2.431  0.1218 -0.1839  0.2989
 6403SOL    HW130668   4.286   0.340   2.516  1.2303 -2.2881 -0.8928
 6403SOL    HW230669   4.161   0.355   2.436  0.0641  0.3961  1.0428
 6404SOL     OW30670   1.118   3.704   5.004 -0.2061 -0.9770 -0.4323
 6404SOL    HW130671   1.133   3.716   5.098  0.8067 -1.1338 -0.5765
 6404SOL    HW230672   1.203   3.671   4.974  0.7921  1.9507 -0.7881
 6405SOL     OW30673   0.371   1.025  15.940 -0.5840 -0.3522 -0.0944
 6405SOL    HW130674   0.308   1.091  15.969 -0.7560 -0.9513  0.9113
 6405SOL    HW230675   0.368   0.980  16.025  0.9395 -1.5511 -0.6838
 6406SOL     OW30676   3.458   3.667   8.346 -0.2951 -0.1820 -0.6949
 6406SOL    HW130677   3.490   3.680   8.435 -1.3922  0.7430 -0.4480
 6406SOL    HW230678   3.364   3.647   8.343 -0.1458 -0.9213 -0.5106
 6407SOL     OW30679   3.935   1.797   4.567  0.6294 -0.2343  0.6393
 6407SOL    HW130680   3.911   1.864   4.632 -1.1963 -0.9195  0.6889
 6407SOL    HW230681   3.965   1.847   4.492 -1.5177  1.9550  1.2175
 6408SOL     OW30682   1.446   2.730   0.541  0.0547 -0.2126 -0.3537
 6408SOL    HW130683   1.510   2.758   0.476 -0.0962 -1.7947 -1.1950
 6408SOL    HW230684   1.367   2.737   0.487 -0.0137 -0.1860 -0.2493
 6409SOL     OW30685   3.660   0.805   2.516  1.1225  0.0837 -0.0710
 6409SOL    HW130686   3.608   0.725   2.516  0.0928  0.7370  2.0979
 6409SOL    HW230687   3.720   0.786   2.445  1.0395  0.6679 -0.2999
 6410SOL     OW30688   2.394   0.503  17.486  0.4974  0.4345  0.0471
 6410SOL    HW130689   2.345   0.438  17.537 -0.1935  0.1744 -0.9532
 6410SOL    HW230690   2.479   0.460  17.474  2.0131  3.2447  0.4962
 6411SOL     OW30691   3.717   0.357   2.881 -0.1516  0.1428  0.3199
 6411SOL    HW130692   3.710   0.268   2.914 -0.1353  1.4679  3.9013
 6411SOL    HW230693   3.719   0.413   2.958  0.3210  0.9004 -0.2422
 6412SOL     OW30694   4.085   1.124   2.241 -0.7762  0.4391  0.2083
 6412SOL    HW130695   4.098   1.049   2.299 -0.8128 -1.7189 -2.5516
 6412SOL    HW230696   4.021   1.093   2.178 -1.5436  1.4605  0.4794
 6413SOL     OW30697   0.306   3.347   9.438 -0.3056  0.1439  0.4204
 6413SOL    HW130698   0.247   3.304   9.500 -1.4200 -0.7953 -1.2475
 6413SOL    HW230699   0.348   3.268   9.404  0.3196  1.2362 -1.3068
 6414SOL     OW30700   2.985   4.050   3.000 -0.1842 -0.3183 -0.2352
 6414SOL    HW130701   3.030   3.971   2.970  1.0052 -0.0778  0.9260
 6414SOL    HW230702   3.033   4.110   2.943 -0.0774 -2.3586 -2.2453
 6415SOL     OW30703   3.836   3.914   1.274 -0.2275  0.4072  0.3342
 6415SOL    HW130704   3.881   3.878   1.198 -2.4310  0.5699 -1.0387
 6415SOL    HW230705   3.744   3.895   1.259  0.1838 -2.2653  1.2423
 6416SOL     OW30706   3.233   1.081   8.227  0.1147 -0.0062 -0.0630
 6416SOL    HW130707   3.302   1.131   8.184  0.4348  0.9668  1.5933
 6416SOL    HW230708   3.226   1.007   8.168 -2.9042  0.9190 -0.8786
 6417SOL     OW30709   1.208   3.636   0.314  0.2842 -0.0413  0.1393
 6417SOL    HW130710   1.206   3.726   0.345  1.6394 -0.2386  0.8135
 6417SOL    HW230711   1.224   3.656   0.221  1.3389 -0.2723  0.2612
 6418SOL     OW30712   2.208   1.404  15.923  0.0437  0.2174  0.0303
 6418SOL    HW130713   2.154   1.465  15.872  2.5678  1.4953 -1.0924
 6418SOL    HW230714   2.152   1.326  15.917  1.0710 -0.4017 -1.4801
 6419SOL     OW30715   1.388   4.210   3.985  0.3193  0.2254 -0.2663
 6419SOL    HW130716   1.436   4.278   4.032  0.5679 -0.0414 -0.1369
 6419SOL    HW230717   1.344   4.166   4.058 -1.0669  0.5845 -0.8883
 6420SOL     OW30718   3.882   3.608   6.699 -0.2023  0.1971 -0.5305
 6420SOL    HW130719   3.880   3.513   6.711  0.4136  0.3391  0.6465
 6420SOL    HW230720   3.970   3.627   6.664 -0.5173  0.0341 -1.4044
 6421SOL     OW30721   1.756   3.842   3.636  0.0055 -0.0471 -0.5162
 6421SOL    HW130722   1.797   3.760   3.610  0.4210  0.9090 -2.8648
 6421SOL    HW230723   1.693   3.864   3.568 -0.6919  1.1072  0.4905
 6422SOL     OW30724   4.164   4.481   7.633  0.3449 -0.5244  0.1449
 6422SOL    HW130725   4.168   4.573   7.662  0.3551  0.0247 -1.5932
 6422SOL    HW230726   4.159   4.426   7.711 -2.6013 -1.6842 -0.8763
 6423SOL     OW30727   0.686   0.274   7.673  0.2551  0.5635 -0.1142
 6423SOL    HW130728   0.606   0.244   7.717  0.8189 -1.3680 -0.4106
 6423SOL    HW230729   0.741   0.308   7.744  0.2041 -1.2169  0.7851
 6424SOL     OW30730   1.786   4.558   7.329  0.5247  0.1968  0.3261
 6424SOL    HW130731   1.875   4.571   7.296  1.1301 -1.0283  1.4612
 6424SOL    HW230732   1.743   4.567   7.244 -0.4164 -1.8715  0.5871
 6425SOL     OW30733   4.529   4.685   8.756  0.0690  0.2392  0.0238
 6425SOL    HW130734   4.445   4.645   8.733  0.3193 -0.3375  0.1273
 6425SOL    HW230735   4.571   4.657   8.675 -0.6166  1.8469 -0.8973
 6426SOL     OW30736   1.934   4.057   2.350  0.0775  0.6926 -0.1775
 6426SOL    HW130737   1.845   4.058   2.385 -0.5595 -0.5286 -1.7508
 6426SOL    HW230738   1.975   4.028   2.431 -1.8784 -0.0895  0.5177
 6427SOL     OW30739   2.667   1.871  14.023 -0.5365 -0.0571  0.9796
 6427SOL    HW130740   2.747   1.857  13.972 -0.9894 -0.4396  0.3592
 6427SOL    HW230741   2.667   1.966  14.024 -0.9779 -0.0395 -0.8014
 6428SOL     OW30742   2.874   4.026  16.062 -0.2189  0.1555 -0.5688
 6428SOL    HW130743   2.808   4.089  16.030 -0.7405 -0.5147 -0.8019
 6428SOL    HW230744   2.929   4.012  15.984 -0.5384 -3.5909 -0.1165
 6429SOL     OW30745   1.795   3.187   6.127 -0.2190 -0.2778  0.3119
 6429SOL    HW130746   1.863   3.171   6.192  0.3563  1.5810  0.1638
 6429SOL    HW230747   1.710   3.189   6.170 -0.7059 -0.1936 -0.6430
 6430SOL     OW30748   2.700   1.985   7.080 -0.1521  0.1802  0.3692
 6430SOL    HW130749   2.754   1.942   7.014  3.9259  2.2168  2.3928
 6430SOL    HW230750   2.685   2.074   7.048  2.3699  0.3066 -0.4120
 6431SOL     OW30751   3.618   0.260   3.555  0.4144  0.0683 -0.1824
 6431SOL    HW130752   3.696   0.241   3.502  1.6169 -0.9905  1.9678
 6431SOL    HW230753   3.547   0.240   3.494 -0.3531 -1.0649  1.0786
 6432SOL     OW30754   0.364   0.085   1.956 -0.3289 -0.1435 -0.1324
 6432SOL    HW130755   0.275   0.051   1.961 -0.1402 -0.6131  0.0081
 6432SOL    HW230756   0.399   0.028   1.888  1.0873 -0.0995  0.5724
 6433SOL     OW30757   4.492   2.600  12.834 -0.5419  0.1360 -0.1618
 6433SOL    HW130758   4.452   2.610  12.748 -0.1401  1.1060 -0.2390
 6433SOL    HW230759   4.489   2.506  12.852  0.8732 -0.2055 -1.7225
 6434SOL     OW30760   1.292   4.312   4.988 -0.0987  0.1535  0.2800
 6434SOL    HW130761   1.203   4.331   4.957 -0.1210  1.4103  1.0943
 6434SOL    HW230762   1.340   4.280   4.912  0.1648  1.0184  0.0779
 6435SOL     OW30763   4.208   3.790   5.083 -0.2000  0.0296 -0.6172
 6435SOL    HW130764   4.274   3.846   5.042  0.5863 -0.6929 -0.3327
 6435SOL    HW230765   4.260   3.745   5.149 -1.6753  1.1873  1.3424
 6436SOL     OW30766   3.172   4.076   0.438 -0.4071  0.2555  0.1903
 6436SOL    HW130767   3.107   4.011   0.465  0.4238 -2.4153 -4.2128
 6436SOL    HW230768   3.114   4.143   0.403  1.2290  2.2685  1.3573
 6437SOL     OW30769   2.421   0.996   7.394  0.2187  0.3037 -0.4009
 6437SOL    HW130770   2.503   0.952   7.413  0.5725  0.1323 -2.3578
 6437SOL    HW230771   2.368   0.918   7.402  2.0938 -0.8989  0.2453
 6438SOL     OW30772   4.045   1.210  13.581 -0.3335 -0.3148  0.0685
 6438SOL    HW130773   3.950   1.222  13.569 -0.3457 -0.5185 -0.0439
 6438SOL    HW230774   4.053   1.204  13.676  0.2613  0.2951  0.0525
 6439SOL     OW30775   1.887   2.147   4.287 -0.0873 -0.2677 -0.0362
 6439SOL    HW130776   1.972   2.163   4.247  0.2172 -0.9852  0.3362
 6439SOL    HW230777   1.875   2.231   4.331  1.2482  1.6370 -3.2793
 6440SOL     OW30778   2.083   0.883   7.323  0.3293  0.1580 -0.1907
 6440SOL    HW130779   2.015   0.821   7.298  3.2189 -2.3127 -1.7937
 6440SOL    HW230780   2.049   0.925   7.402  0.7985  1.0934 -0.4778
 6441SOL     OW30781   1.681   3.332   7.953  0.4052 -0.0942  0.2786
 6441SOL    HW130782   1.708   3.241   7.969  0.9654 -0.1230 -0.8270
 6441SOL    HW230783   1.754   3.370   8.001  0.4104 -0.3266  0.4567
 6442SOL     OW30784   0.683   0.322   5.480  0.0111 -0.1306 -0.2717
 6442SOL    HW130785   0.591   0.335   5.457 -0.3584 -0.7592  0.8378
 6442SOL    HW230786   0.699   0.228   5.470 -0.7604 -0.3295  0.3605
 6443SOL     OW30787   1.160   4.078   0.247 -0.2127 -0.6042  0.1627
 6443SOL    HW130788   1.234   4.046   0.195 -0.1836 -0.5268  0.1556
 6443SOL    HW230789   1.194   4.074   0.337 -0.2747  0.7567  0.2413
 6444SOL     OW30790   1.975   4.107   4.976 -0.0258 -0.2056 -0.5143
 6444SOL    HW130791   1.980   4.148   5.062  1.2267 -0.4610 -0.4707
 6444SOL    HW230792   1.988   4.186   4.923  1.6682 -1.7310 -2.3685
 6445SOL     OW30793   4.485   1.847   5.584 -0.2582 -0.3611  0.2493
 6445SOL    HW130794   4.564   1.862   5.533 -2.1515  2.8594 -1.7593
 6445SOL    HW230795   4.521   1.821   5.668  0.7389 -1.5774 -0.5474
 6446SOL     OW30796   2.824   1.182   8.660 -0.2658 -0.1117  0.1818
 6446SOL    HW130797   2.873   1.212   8.736  0.4414 -1.4233  0.2573
 6446SOL    HW230798   2.782   1.104   8.697  0.1425 -0.4718 -0.1065
 6447SOL     OW30799   0.250   2.738   5.184 -0.0891 -0.1462  0.2601
 6447SOL    HW130800   0.180   2.677   5.163  0.2448 -0.1892 -0.7174
 6447SOL    HW230801   0.216   2.818   5.144  1.7625  0.7920  0.5735
 6448SOL     OW30802   3.944   3.388   0.885  0.6607  0.3505  0.1005
 6448SOL    HW130803   3.909   3.408   0.798 -0.6285 -1.7248  0.1502
 6448SOL    HW230804   3.898   3.305   0.897 -1.5424  1.4635 -0.6259
 6449SOL     OW30805   0.680   2.176  15.896  0.2720 -0.8062  0.9692
 6449SOL    HW130806   0.644   2.195  15.809  2.9987  0.8097  0.2076
 6449SOL    HW230807   0.613   2.196  15.961 -0.4174 -2.2009  0.6997
 6450SOL     OW30808   1.587   4.567   9.141  0.1652  0.5693 -0.2737
 6450SOL    HW130809   1.570   4.510   9.215  1.8689 -1.3314 -1.3179
 6450SOL    HW230810   1.682   4.557   9.142 -0.1839 -2.4299  2.4826
 6451SOL     OW30811   1.272   2.206   3.770  0.5705  0.2431  0.1377
 6451SOL    HW130812   1.279   2.206   3.674  1.7321 -0.8591  0.2198
 6451SOL    HW230813   1.274   2.112   3.788  0.2917  0.5888  1.9524
 6452SOL     OW30814   3.401   1.028   6.431 -0.3193 -0.1229 -1.0348
 6452SOL    HW130815   3.490   1.005   6.457 -0.7350 -0.3803  0.1862
 6452SOL    HW230816   3.406   0.999   6.340  3.5128 -0.1117 -0.8009
 6453SOL     OW30817   4.543   1.491   2.995  0.4122 -0.4016  0.0394
 6453SOL    HW130818   4.564   1.409   2.952  1.6054  1.2736 -2.5445
 6453SOL    HW230819   4.622   1.542   2.978  0.7781 -1.8064 -2.3135
 6454SOL     OW30820   0.565   3.416   3.800 -0.3600  0.1221 -0.5951
 6454SOL    HW130821   0.582   3.477   3.729  1.6506  1.5054  1.0420
 6454SOL    HW230822   0.641   3.362   3.779  1.0068  1.0372  1.9628
 6455SOL     OW30823   0.493   3.567   2.009 -0.7396  0.6924 -0.2650
 6455SOL    HW130824   0.518   3.502   2.075 -1.1539 -0.9960 -1.8086
 6455SOL    HW230825   0.543   3.555   1.929 -0.2259  1.5387 -0.0811
 6456SOL     OW30826   3.241   4.446  14.106 -0.0431 -0.6410  0.1333
 6456SOL    HW130827   3.331   4.477  14.121  0.0468 -0.2784 -1.1596
 6456SOL    HW230828   3.268   4.371  14.052  0.4522  0.3956 -1.0630
 6457SOL     OW30829   2.436   0.504   9.267 -0.7005  0.0944  0.3404
 6457SOL    HW130830   2.425   0.592   9.302  0.3419  0.5634 -0.5019
 6457SOL    HW230831   2.387   0.504   9.185  1.5505 -0.6798 -1.0199
 6458SOL     OW30832   0.540   0.962   2.223  0.0510 -0.6804 -0.0378
 6458SOL    HW130833   0.625   0.934   2.188  0.7673  0.2276  0.9772
 6458SOL    HW230834   0.546   1.056   2.203 -0.9518 -0.9826 -1.7449
 6459SOL     OW30835   4.689   2.587   2.367  0.4375  0.4671 -0.1217
 6459SOL    HW130836   4.677   2.493   2.376 -0.1662  0.7474  1.8523
 6459SOL    HW230837   0.024   2.608   2.437 -1.4899  0.0667  1.6547
 6460SOL     OW30838   1.176   1.724   6.636  0.3784  0.5994 -0.2698
 6460SOL    HW130839   1.177   1.780   6.714  2.4619 -0.5099  0.5158
 6460SOL    HW230840   1.254   1.756   6.591  0.2392 -1.1158 -1.7004
 6461SOL     OW30841   2.072   2.374  16.589  0.6071  0.4370  0.2296
 6461SOL    HW130842   2.010   2.405  16.523 -0.4567 -2.4754 -0.1349
 6461SOL    HW230843   2.141   2.333  16.535 -1.1881 -0.3860 -1.4320
 6462SOL     OW30844   3.406   1.552   3.076 -0.3495  0.1578 -0.3694
 6462SOL    HW130845   3.472   1.549   3.145 -1.4314  0.1279  0.6789
 6462SOL    HW230846   3.443   1.493   3.011  2.2623  0.2728  1.0388
 6463SOL     OW30847   1.614   1.106   5.101 -0.0810  0.0007 -0.2959
 6463SOL    HW130848   1.600   1.029   5.045  1.4145  0.1136 -0.8265
 6463SOL    HW230849   1.593   1.175   5.038  0.5201  0.2226 -0.2458
 6464SOL     OW30850   1.014   0.828   2.651  0.3089 -0.5622 -0.2868
 6464SOL    HW130851   1.016   0.888   2.726 -0.1315 -1.0840  0.1433
 6464SOL    HW230852   1.020   0.880   2.571  0.4894  2.1345  1.4646
 6465SOL     OW30853   0.391   1.033  10.098  0.0202  0.0716  0.7894
 6465SOL    HW130854   0.355   0.946  10.081 -0.5416  0.7184 -1.3066
 6465SOL    HW230855   0.356   1.057  10.184  1.4864  0.8394  1.1848
 6466SOL     OW30856   2.980   1.826   7.141 -0.6029 -0.2603  0.2306
 6466SOL    HW130857   3.050   1.873   7.096  1.6681 -3.3136  0.5759
 6466SOL    HW230858   3.032   1.767   7.194 -0.6525  0.0098  0.5818
 6467SOL     OW30859   0.465   1.112   8.869 -0.2282  0.1251 -0.1524
 6467SOL    HW130860   0.466   1.206   8.851 -1.1895  0.5469  1.9195
 6467SOL    HW230861   0.414   1.086   8.793 -0.4182 -0.5454  0.2089
 6468SOL     OW30862   0.765   0.470   5.703 -0.0726 -0.0295  0.2314
 6468SOL    HW130863   0.692   0.528   5.726  0.9235  1.1547  0.4051
 6468SOL    HW230864   0.722   0.414   5.639  0.8476 -1.9564  1.2884
 6469SOL     OW30865   4.201   0.327   9.797 -0.1126  0.4687  0.0394
 6469SOL    HW130866   4.199   0.415   9.835  1.3827  0.7569 -0.5474
 6469SOL    HW230867   4.108   0.303   9.795  0.4081 -1.5203 -0.5030
 6470SOL     OW30868   2.443   2.088   8.298 -0.1200  0.2720 -0.0948
 6470SOL    HW130869   2.466   2.054   8.384  1.6972 -3.0127 -1.8855
 6470SOL    HW230870   2.521   2.140   8.282 -0.1753 -0.3801 -2.4301
 6471SOL     OW30871   0.746   1.540   7.430  0.4900  0.2658  1.3414
 6471SOL    HW130872   0.813   1.476   7.404  0.2692  0.5767  0.0420
 6471SOL    HW230873   0.734   1.527   7.524 -3.1480  0.0466  0.8261
 6472SOL     OW30874   2.199   0.134  11.733  0.1297  0.7631  0.4278
 6472SOL    HW130875   2.242   0.211  11.769  2.1964  0.9863 -2.5533
 6472SOL    HW230876   2.257   0.065  11.764 -0.0416  0.4272 -0.0036
 6473SOL     OW30877   1.903   1.219   5.243 -0.4741  0.3209 -0.2607
 6473SOL    HW130878   1.845   1.233   5.167  1.1855  1.6655 -1.2930
 6473SOL    HW230879   1.866   1.291   5.294  1.0133  1.3631 -0.6484
 6474SOL     OW30880   4.013   3.070   2.140 -0.8052  0.1981  0.1532
 6474SOL    HW130881   4.062   3.145   2.108  3.0224 -2.0879  0.7265
 6474SOL    HW230882   4.080   3.017   2.184 -2.1145 -0.5938  1.2226
 6475SOL     OW30883   1.688   3.901   8.572 -0.6223 -0.5642 -0.4416
 6475SOL    HW130884   1.686   3.991   8.539  0.1202 -0.5837 -0.5453
 6475SOL    HW230885   1.754   3.895   8.641 -0.8559 -0.2027 -0.1860
 6476SOL     OW30886   1.234   2.543  16.934  0.0307  0.2047 -0.1410
 6476SOL    HW130887   1.159   2.582  16.978  0.4356  0.3857  0.3802
 6476SOL    HW230888   1.203   2.543  16.843  0.1906  0.6904 -0.1942
 6477SOL     OW30889   0.342   0.229   8.526  0.3593 -0.2276 -0.1857
 6477SOL    HW130890   0.313   0.142   8.500  0.1607 -0.0763 -0.4707
 6477SOL    HW230891   0.267   0.287   8.511  0.2656  0.0598  1.4228
 6478SOL     OW30892   3.283   4.500   0.333 -0.1285 -0.2954  0.3936
 6478SOL    HW130893   3.217   4.516   0.399 -0.1148  0.9139  0.1201
 6478SOL    HW230894   3.230   4.480   0.255  0.0807 -1.8073  0.6378
 6479SOL     OW30895   0.175   3.450   1.903 -0.4509 -0.1800 -0.3666
 6479SOL    HW130896   0.202   3.466   1.994  1.9384  1.0909 -1.2844
 6479SOL    HW230897   0.161   3.537   1.865 -0.5356 -1.9506 -4.4469
 6480SOL     OW30898   2.866   4.686   7.461 -0.1458 -0.2593  0.2016
 6480SOL    HW130899   2.961   4.704   7.459 -0.2876  0.6725  2.1683
 6480SOL    HW230900   2.831   0.040   7.422 -0.4424 -0.9174 -0.8734
 6481SOL     OW30901   0.336   4.371   0.056 -0.0042  0.5972 -0.1317
 6481SOL    HW130902   0.250   4.339   0.084  1.1939 -1.7340  0.8707
 6481SOL    HW230903   0.399   4.345   0.124 -0.7626  1.6516  0.9755
 6482SOL     OW30904   4.243   1.857   2.808 -0.9368 -0.1005 -0.1288
 6482SOL    HW130905   4.170   1.840   2.749 -0.8807  1.8842 -0.7832
 6482SOL    HW230906   4.311   1.890   2.749  0.4646 -2.1283  0.3840
 6483SOL     OW30907   3.967   0.512   4.201 -0.1873  0.0473 -0.3437
 6483SOL    HW130908   4.007   0.429   4.177 -0.5181 -0.1122 -0.3536
 6483SOL    HW230909   4.029   0.561   4.147 -0.6839  1.0644  0.0113
 6484SOL     OW30910   1.455   3.747   1.025 -0.2159  0.3203 -0.0596
 6484SOL    HW130911   1.425   3.708   1.107  3.0703 -1.1845  0.4444
 6484SOL    HW230912   1.419   3.834   1.035  0.5385  0.5799  0.4069
 6485SOL     OW30913   1.789   3.124   1.353 -0.3339  0.2748 -0.6959
 6485SOL    HW130914   1.718   3.065   1.330  0.4303 -1.5549  1.5374
 6485SOL    HW230915   1.795   3.176   1.274 -2.9423 -1.9771 -2.3692
 6486SOL     OW30916   3.304   1.967   6.798  0.1219  0.0419 -0.0769
 6486SOL    HW130917   3.342   1.925   6.721  2.9948  1.3213  0.6672
 6486SOL    HW230918   3.235   2.015   6.751  0.9524  0.3318 -0.9925
 6487SOL     OW30919   1.491   4.601   7.743  0.1848 -0.6767 -0.2352
 6487SOL    HW130920   1.428   4.608   7.672 -1.4114 -0.6519  1.1838
 6487SOL    HW230921   1.565   4.660   7.725 -0.4279 -0.1338 -0.9506
 6488SOL     OW30922   2.657   3.130  14.993  0.2093  0.1094  0.2386
 6488SOL    HW130923   2.698   3.073  15.057 -0.0973  1.0722  1.3077
 6488SOL    HW230924   2.630   3.204  15.048 -2.8943  0.0665 -1.2051
 6489SOL     OW30925   3.318   0.226   8.839  0.2110 -0.4790  0.3714
 6489SOL    HW130926   3.230   0.256   8.816 -0.1651 -1.9295 -0.0691
 6489SOL    HW230927   3.363   0.245   8.757  1.1554  1.6106  1.3646
 6490SOL     OW30928   0.260   4.224   3.422 -0.1229  0.3513 -0.2098
 6490SOL    HW130929   0.335   4.282   3.436  1.6588 -2.1769  0.7748
 6490SOL    HW230930   0.300   4.161   3.362 -0.6317 -1.9650  1.8526
 6491SOL     OW30931   0.057   4.381   3.543 -0.0302  0.0082 -0.4701
 6491SOL    HW130932   0.049   4.325   3.465  0.1004 -0.7467  0.0568
 6491SOL    HW230933   0.000   4.453   3.515 -0.6114 -0.7907 -1.3776
 6492SOL     OW30934   0.729   1.649   8.900  0.0103 -0.4761 -0.0786
 6492SOL    HW130935   0.761   1.639   8.990  0.5269 -2.4543 -0.4859
 6492SOL    HW230936   0.646   1.693   8.920  0.2109 -0.0279 -0.2443
 6493SOL     OW30937   2.686   3.833   1.541 -0.7323  0.2023 -0.2183
 6493SOL    HW130938   2.763   3.782   1.516 -0.4042 -0.0346  1.3114
 6493SOL    HW230939   2.730   3.887   1.606 -1.6714  1.4371 -0.6061
 6494SOL     OW30940   2.271   0.363   3.896 -0.4516  0.1077  0.3763
 6494SOL    HW130941   2.190   0.374   3.945  1.1226  2.1194  2.4538
 6494SOL    HW230942   2.244   0.403   3.813  1.8930 -1.3008 -1.0891
 6495SOL     OW30943   0.307   1.071   6.139 -0.1757 -0.3154  0.2100
 6495SOL    HW130944   0.362   1.043   6.213  1.6582 -0.2253 -1.1362
 6495SOL    HW230945   0.341   1.160   6.134 -1.5649  0.1821 -0.3522
 6496SOL     OW30946   0.208   3.471   3.767  0.4732 -0.6591  0.7645
 6496SOL    HW130947   0.238   3.406   3.703 -0.4532 -0.6921  0.3714
 6496SOL    HW230948   0.278   3.533   3.747 -0.4850  0.2364  0.1824
 6497SOL     OW30949   2.323   1.926   2.701 -0.3344 -0.1992 -0.0995
 6497SOL    HW130950   2.382   1.864   2.657 -0.2532 -0.5186  0.4603
 6497SOL    HW230951   2.343   2.012   2.663  1.5815 -0.4650  0.2997
 6498SOL     OW30952   3.984   0.470   0.657  0.1276 -0.4651  0.2865
 6498SOL    HW130953   3.996   0.537   0.590  1.3493 -0.9336  0.0360
 6498SOL    HW230954   4.015   0.395   0.606 -1.0915 -0.4723 -0.4172
 6499SOL     OW30955   4.434   2.560   6.839  0.2632 -0.4591 -0.6491
 6499SOL    HW130956   4.448   2.465   6.833 -2.9223 -1.0289  1.0211
 6499SOL    HW230957   4.341   2.568   6.858  0.1713  0.5939 -1.5429
 6500SOL     OW30958   0.329   1.308   3.129  0.2054  0.3010  0.9885
 6500SOL    HW130959   0.241   1.294   3.096  0.7080  1.6078 -0.9199
 6500SOL    HW230960   0.327   1.256   3.209  1.6550 -1.2024  0.0499
 6501SOL     OW30961   4.604   2.409   1.710  0.1292 -0.1527  0.5254
 6501SOL    HW130962   4.601   2.418   1.615 -2.4431 -2.5014  0.3864
 6501SOL    HW230963   4.634   2.318   1.714  0.6589  0.0318  0.7362
 6502SOL     OW30964   3.784   0.278  10.915  0.4569  0.2811  0.1875
 6502SOL    HW130965   3.735   0.322  10.846  1.1723 -0.7670 -0.9835
 6502SOL    HW230966   3.713   0.253  10.974  0.1186  0.4898 -0.1288
 6503SOL     OW30967   3.986   0.188  12.047  0.2546  0.2286 -0.0543
 6503SOL    HW130968   4.047   0.249  12.005  0.4334 -1.5051 -2.2828
 6503SOL    HW230969   3.982   0.116  11.984  0.0783 -0.6292  0.9343
 6504SOL     OW30970   4.176   1.726   3.488 -0.0067 -0.4751  0.3576
 6504SOL    HW130971   4.082   1.715   3.469 -0.1361  1.0317  0.0956
 6504SOL    HW230972   4.184   1.820   3.470 -0.9115 -0.6499 -1.0143
 6505SOL     OW30973   1.634   1.918  16.458 -0.4890  0.0701  0.4171
 6505SOL    HW130974   1.695   1.848  16.433 -1.6706 -0.7352 -0.2059
 6505SOL    HW230975   1.668   2.003  16.430  3.1241 -1.4093  0.3243
 6506SOL     OW30976   3.398   3.169   4.201 -0.1422  0.5984  0.1675
 6506SOL    HW130977   3.467   3.127   4.253 -1.4089  0.0796  1.4358
 6506SOL    HW230978   3.327   3.105   4.201  1.1350 -0.8285 -3.0738
 6507SOL     OW30979   0.753   4.184   0.647 -0.2019  0.0426  0.0164
 6507SOL    HW130980   0.674   4.131   0.645  0.2665 -0.6929  0.7278
 6507SOL    HW230981   0.814   4.126   0.692  0.9557  0.6625 -0.7505
 6508SOL     OW30982   1.980   2.050   4.826 -0.0234 -0.0465  0.0299
 6508SOL    HW130983   1.937   2.051   4.912 -0.8723 -1.5455 -0.3894
 6508SOL    HW230984   2.010   1.960   4.816 -0.1853 -0.0905 -0.0542
 6509SOL     OW30985   0.026   2.725   5.519 -0.1268  0.0519 -0.3324
 6509SOL    HW130986   0.024   2.631   5.500 -0.6835  0.2224 -1.1028
 6509SOL    HW230987   4.673   2.762   5.480 -1.5357 -0.4703  2.0693
 6510SOL     OW30988   1.367   2.674   8.451  0.0997 -0.6297  0.5162
 6510SOL    HW130989   1.423   2.691   8.376  1.2705 -0.3672  1.4593
 6510SOL    HW230990   1.314   2.753   8.465  1.1925 -0.0448  1.3269
 6511SOL     OW30991   0.215   0.804   1.787  0.5026  0.1194 -0.2723
 6511SOL    HW130992   0.223   0.750   1.708  0.7179 -1.7901  1.0399
 6511SOL    HW230993   0.309   0.812   1.807  0.4678 -0.7846  0.2823
 6512SOL     OW30994   4.606   3.439   6.845 -0.3127  0.4883 -0.8780
 6512SOL    HW130995   4.672   3.494   6.886 -0.7762 -2.4227  3.7643
 6512SOL    HW230996   4.534   3.467   6.901 -0.7489 -1.7376 -0.3341
 6513SOL     OW30997   3.623   1.211   6.324 -0.0207 -0.2665  0.0986
 6513SOL    HW130998   3.580   1.206   6.238  1.9291  1.8919 -1.0033
 6513SOL    HW230999   3.714   1.216   6.297 -0.5495 -0.8876 -1.7876
 6514SOL     OW31000   4.695   0.666  11.590  0.0214  0.3818  0.1181
 6514SOL    HW131001   0.017   0.734  11.637 -0.6921  0.8798  0.1215
 6514SOL    HW231002   4.655   0.721  11.523  0.5567 -0.7488 -1.1288
 6515SOL     OW31003   3.607   0.099  14.755  0.2781 -0.2345  0.1136
 6515SOL    HW131004   3.692   0.078  14.794  0.5580 -0.0368 -0.3915
 6515SOL    HW231005   3.607   0.194  14.770  0.8493 -0.0388 -1.1229
 6516SOL     OW31006   2.294   4.328  15.609 -0.5361 -0.2786 -0.0315
 6516SOL    HW131007   2.376   4.327  15.658  0.5793 -0.2806 -1.8812
 6516SOL    HW231008   2.241   4.384  15.665 -0.0700 -2.5453  2.6877
 6517SOL     OW31009   1.203   3.046   5.864  0.2091  0.3032  0.5213
 6517SOL    HW131010   1.272   3.068   5.927 -0.1961 -1.7983  1.6977
 6517SOL    HW231011   1.257   3.019   5.790  1.8246  2.5218  0.8820
 6518SOL     OW31012   1.591   4.547  16.453 -0.2580  0.1602  0.8436
 6518SOL    HW131013   1.596   4.530  16.359 -0.9651  0.3708  0.7676
 6518SOL    HW231014   1.500   4.519  16.452  0.4070 -1.8632 -2.6337
 6519SOL     OW31015   2.949   0.171   8.607 -0.0495  0.4698  0.3346
 6519SOL    HW131016   2.854   0.165   8.598  0.1699 -2.6755  0.3407
 6519SOL    HW231017   2.979   0.111   8.539  0.7240 -1.9442  2.8335
 6520SOL     OW31018   4.366   3.131  11.003 -0.8388 -0.2821  0.3273
 6520SOL    HW131019   4.277   3.097  10.988 -0.4808 -1.5003  0.9799
 6520SOL    HW231020   4.355   3.210  10.950  2.0085 -1.2695 -1.7503
 6521SOL     OW31021   1.232   2.363   7.546  0.2027  0.5985  0.1785
 6521SOL    HW131022   1.270   2.354   7.458 -1.0685 -1.8022 -0.1289
 6521SOL    HW231023   1.172   2.289   7.553 -0.5699  1.3024  0.9851
 6522SOL     OW31024   4.491   3.915  12.038 -0.3457  0.2957 -0.2229
 6522SOL    HW131025   4.482   3.834  11.988 -0.0162  0.5443 -0.6820
 6522SOL    HW231026   4.513   3.879  12.124  0.7456 -2.8328 -1.8124
 6523SOL     OW31027   3.436   4.385   1.475  0.4894 -0.0644 -0.0999
 6523SOL    HW131028   3.363   4.323   1.467  0.0784  0.4560 -0.4082
 6523SOL    HW231029   3.387   4.466   1.464  0.8999  0.3916  1.5146
 6524SOL     OW31030   0.755   0.447   8.668  0.2516 -0.1277 -0.0235
 6524SOL    HW131031   0.812   0.432   8.743  1.3608  0.2802 -0.7916
 6524SOL    HW231032   0.674   0.409   8.703  0.8306 -0.7231  0.6565
 6525SOL     OW31033   1.093   0.265   6.427  0.0588  0.0217  0.4839
 6525SOL    HW131034   1.187   0.277   6.412  0.1649 -2.0029 -0.4527
 6525SOL    HW231035   1.057   0.274   6.338 -0.4543 -1.5894  0.5208
 6526SOL     OW31036   2.528   0.047   2.643 -0.0398  0.2860 -0.2942
 6526SOL    HW131037   2.480   0.057   2.726  0.5819  2.1883 -0.1718
 6526SOL    HW231038   2.594   0.115   2.651 -0.2094  0.1040  2.8176
 6527SOL     OW31039   2.950   0.750  13.109  0.0948  0.2715 -0.3625
 6527SOL    HW131040   3.024   0.809  13.093  1.6576 -1.4432  0.3908
 6527SOL    HW231041   2.870   0.797  13.086  1.1279  1.6840 -1.0791
 6528SOL     OW31042   4.623   2.807   7.933 -0.3590 -0.0340  0.1347
 6528SOL    HW131043   4.535   2.844   7.925 -0.8993 -1.5156 -1.0025
 6528SOL    HW231044   4.625   2.778   8.024  1.3814 -0.9213 -0.1733
 6529SOL     OW31045   2.715   3.297   2.425 -0.2659  0.4095 -0.3403
 6529SOL    HW131046   2.696   3.209   2.458 -0.5496  1.1201  1.3431
 6529SOL    HW231047   2.714   3.337   2.512  1.9799  0.1624 -0.2059
 6530SOL     OW31048   4.217   3.028   6.429 -0.1886 -0.7457 -0.0838
 6530SOL    HW131049   4.189   3.036   6.338 -0.3753  1.3625  0.1424
 6530SOL    HW231050   4.294   2.974   6.413  0.2769  0.0691 -0.5749
 6531SOL     OW31051   2.860   4.010   2.336 -0.0952  0.2240 -0.1031
 6531SOL    HW131052   2.776   4.031   2.295 -0.4942 -0.3535  0.4220
 6531SOL    HW231053   2.861   3.917   2.315  0.1924  0.3439 -0.6269
 6532SOL     OW31054   1.678   4.724   3.542 -0.0983 -1.3495 -0.0561
 6532SOL    HW131055   1.716   4.713   3.629 -1.8582  1.6366  1.0891
 6532SOL    HW231056   1.679   0.093   3.535 -2.4492 -1.4174 -1.1111
 6533SOL     OW31057   2.190   3.311   6.921  0.1554  0.2077 -0.2672
 6533SOL    HW131058   2.127   3.383   6.920  0.4922  0.4755 -2.7594
 6533SOL    HW231059   2.218   3.313   7.013 -0.1742 -1.0476 -0.1367
 6534SOL     OW31060   2.094   0.667   3.021  0.3439  0.7777 -0.5177
 6534SOL    HW131061   2.121   0.694   2.934  0.2496 -1.8924 -1.3501
 6534SOL    HW231062   2.013   0.715   3.037  0.1372  0.7139 -1.4347
 6535SOL     OW31063   4.374   3.377   8.949 -0.5210 -0.3064  0.0691
 6535SOL    HW131064   4.402   3.379   9.041 -0.1451 -0.3252 -0.0439
 6535SOL    HW231065   4.305   3.443   8.946  1.4509  1.7960  1.2705
 6536SOL     OW31066   1.656   2.557   2.733  0.9041  0.4306  0.2369
 6536SOL    HW131067   1.580   2.552   2.791  0.7087  1.5929  0.0859
 6536SOL    HW231068   1.636   2.482   2.677 -0.6046  1.5031 -0.6952
 6537SOL     OW31069   1.963   4.509  15.991  0.6167 -0.7860  0.0038
 6537SOL    HW131070   1.976   4.430  15.937 -0.6151 -0.9319 -0.0675
 6537SOL    HW231071   2.003   4.471  16.069 -1.1520  0.0760  1.3022
 6538SOL     OW31072   2.546   0.739   3.802  0.6850  0.1627 -0.5389
 6538SOL    HW131073   2.523   0.812   3.745 -0.6784  2.4233  2.8756
 6538SOL    HW231074   2.616   0.705   3.747  0.5533 -2.9144  1.2074
 6539SOL     OW31075   0.912   3.970   1.841  0.3024  0.1015 -0.1975
 6539SOL    HW131076   0.969   3.894   1.836  0.8016  0.5424 -1.1338
 6539SOL    HW231077   0.853   3.950   1.769 -0.3439 -1.2054  0.6894
 6540SOL     OW31078   3.392   0.422  13.984 -0.1576  0.4012 -0.0125
 6540SOL    HW131079   3.391   0.379  14.069  0.5137 -0.2900 -0.3562
 6540SOL    HW231080   3.400   0.346  13.926 -1.0998  2.7480 -3.2247
 6541SOL     OW31081   1.524   1.278   4.917  0.8405 -0.3344 -0.2021
 6541SOL    HW131082   1.563   1.278   4.829 -0.7840 -0.6230 -0.9235
 6541SOL    HW231083   1.434   1.287   4.888  0.0590  1.0921  2.6666
 6542SOL     OW31084   0.069   1.255   6.546 -0.5030 -0.3147  0.2749
 6542SOL    HW131085   0.153   1.227   6.582  0.3359  2.8543  0.7602
 6542SOL    HW231086   0.048   1.323   6.611 -1.7289 -1.7200  1.3612
 6543SOL     OW31087   3.071   1.510  11.432 -0.2062  0.1795 -0.1488
 6543SOL    HW131088   3.097   1.442  11.494  0.9519  0.7391 -0.0177
 6543SOL    HW231089   3.059   1.462  11.351  0.7369  0.5700 -0.5212
 6544SOL     OW31090   0.532   4.532   2.650 -0.2518  0.4510  0.6264
 6544SOL    HW131091   0.448   4.576   2.666 -0.5834  0.4973 -1.1818
 6544SOL    HW231092   0.576   4.583   2.582 -0.5485 -0.2553 -0.0947
 6545SOL     OW31093   4.215   3.168  13.259  0.0135 -0.2678 -0.0807
 6545SOL    HW131094   4.212   3.089  13.313 -0.7825 -0.4465 -0.3974
 6545SOL    HW231095   4.205   3.241  13.320  0.9074 -0.9693  0.9170
 6546SOL     OW31096   2.940   1.468   7.375 -0.2361 -0.3724 -0.0497
 6546SOL    HW131097   2.938   1.528   7.449 -1.7812  0.0330 -0.4306
 6546SOL    HW231098   2.869   1.409   7.401 -1.3116 -0.7882 -3.8380
 6547SOL     OW31099   3.166   0.460  15.189 -0.2145 -0.0476  0.0809
 6547SOL    HW131100   3.076   0.494  15.191 -1.4030 -3.1501 -0.1181
 6547SOL    HW231101   3.179   0.428  15.278 -2.5092  1.8007  1.0963
 6548SOL     OW31102   2.776   3.481   7.731  0.4042 -0.0362 -0.5476
 6548SOL    HW131103   2.777   3.571   7.698  1.4123 -0.1235 -0.7460
 6548SOL    HW231104   2.790   3.434   7.650 -0.6712 -0.5583 -0.4317
 6549SOL     OW31105   4.383   1.683   5.893 -0.0199 -0.2412  0.2458
 6549SOL    HW131106   4.364   1.770   5.929  1.0589  0.3374 -0.5665
 6549SOL    HW231107   4.477   1.698   5.880 -0.0249  0.8508  1.4119
 6550SOL     OW31108   0.657   1.528   0.161  0.3630  0.2376 -0.1225
 6550SOL    HW131109   0.705   1.527   0.244 -1.3349 -0.1858  0.8411
 6550SOL    HW231110   0.572   1.562   0.186  0.0838  0.8494 -1.9387
 6551SOL     OW31111   0.506   0.323   1.342 -0.6889 -0.5447 -0.0229
 6551SOL    HW131112   0.577   0.386   1.345 -2.1110  1.0584  0.3409
 6551SOL    HW231113   0.536   0.253   1.285  0.9769 -0.5510  0.8819
 6552SOL     OW31114   3.566   0.684   2.944 -0.1159 -0.6076  0.5734
 6552SOL    HW131115   3.515   0.764   2.954 -1.3537 -1.4188  0.6483
 6552SOL    HW231116   3.501   0.623   2.909  0.0795 -1.0023  0.8904
 6553SOL     OW31117   0.349   3.699   2.469 -0.0871  0.4472  0.2934
 6553SOL    HW131118   0.396   3.778   2.445 -0.5471  0.7734  0.4648
 6553SOL    HW231119   0.414   3.629   2.462 -0.2127  0.3139  0.4330
 6554SOL     OW31120   4.455   2.495  13.360  0.0376 -0.5235 -0.0243
 6554SOL    HW131121   4.479   2.531  13.274 -3.7237 -0.4826 -1.0718
 6554SOL    HW231122   4.512   2.418  13.365 -0.9029 -1.2453 -0.4118
 6555SOL     OW31123   4.242   2.075   3.216 -0.3167  1.2306  0.0032
 6555SOL    HW131124   4.336   2.057   3.223 -0.4533  1.2689  1.9867
 6555SOL    HW231125   4.234   2.089   3.122  1.9773  0.6451 -0.2799
 6556SOL     OW31126   0.575   2.388   5.154 -0.6866  0.4722  0.5481
 6556SOL    HW131127   0.554   2.470   5.197  2.4229  0.5084  2.0321
 6556SOL    HW231128   0.508   2.391   5.087  0.2920  1.1207 -0.3993
 6557SOL     OW31129   0.175   1.395   2.427 -0.4712  0.5665 -0.2992
 6557SOL    HW131130   0.149   1.383   2.336  1.4030 -0.1188 -0.7512
 6557SOL    HW231131   0.093   1.367   2.467 -1.0729 -0.1708 -2.0542
 6558SOL     OW31132   2.376   4.263  16.033  0.0371 -0.2603  0.5617
 6558SOL    HW131133   2.292   4.263  16.078 -0.6161 -3.3070 -0.6275
 6558SOL    HW231134   2.419   4.325  16.092 -1.8091 -1.1956  2.8963
 6559SOL     OW31135   3.379   3.574   4.747 -0.9302  0.1787  0.4008
 6559SOL    HW131136   3.369   3.601   4.655 -2.3729  0.3846  0.6168
 6559SOL    HW231137   3.390   3.658   4.792  0.2895 -0.1541  0.7197
 6560SOL     OW31138   1.273   3.423  10.417 -0.2686 -0.6115  0.1195
 6560SOL    HW131139   1.267   3.364  10.341 -0.1822 -2.0198  1.2077
 6560SOL    HW231140   1.314   3.496  10.371  2.6193 -0.1543  3.4450
 6561SOL     OW31141   0.870   3.795  12.123  0.1357  0.5462 -0.7208
 6561SOL    HW131142   0.832   3.845  12.194 -3.6010  0.3318 -2.5787
 6561SOL    HW231143   0.908   3.717  12.163  2.2882  0.6520 -2.5031
 6562SOL     OW31144   1.292   4.033   2.202  0.2460  0.2950 -0.0057
 6562SOL    HW131145   1.312   4.094   2.131  0.6876 -1.1530 -1.1128
 6562SOL    HW231146   1.346   3.957   2.179 -1.6029 -0.3633 -2.1598
 6563SOL     OW31147   1.767   2.469   0.975  0.1243  0.0484 -0.3286
 6563SOL    HW131148   1.731   2.529   0.910 -1.5445  0.3161  0.8500
 6563SOL    HW231149   1.750   2.520   1.054 -0.6267  0.6829 -0.9080
 6564SOL     OW31150   2.233   1.319   5.133 -0.2025 -0.4318 -0.3601
 6564SOL    HW131151   2.164   1.257   5.156 -0.0304  0.5230  2.6291
 6564SOL    HW231152   2.235   1.316   5.037  2.0779 -0.7391 -0.3130
 6565SOL     OW31153   2.096   2.475   7.764  0.2250  0.0576  0.0066
 6565SOL    HW131154   2.006   2.442   7.774 -0.1220  1.4156  1.3937
 6565SOL    HW231155   2.113   2.482   7.670 -1.9709  0.6398 -0.3511
 6566SOL     OW31156   0.167   0.310   6.018  0.6118 -0.1199  0.0714
 6566SOL    HW131157   0.234   0.297   5.952  0.0183 -2.8496 -0.0142
 6566SOL    HW231158   0.182   0.243   6.085 -4.0164 -0.9383  0.3129
 6567SOL     OW31159   1.237   2.427   3.211 -0.1840  0.9993 -0.2660
 6567SOL    HW131160   1.313   2.369   3.218 -1.0732 -0.2933 -1.2603
 6567SOL    HW231161   1.235   2.461   3.300 -0.5135  1.5049 -0.4702
 6568SOL     OW31162   1.073   1.045   2.817 -0.8251  0.1934  0.3359
 6568SOL    HW131163   1.111   1.119   2.865  1.6873  0.0061 -1.3621
 6568SOL    HW231164   0.990   1.081   2.787 -0.1426 -0.3148 -2.1871
 6569SOL     OW31165   3.753   1.593   4.636 -0.4477 -0.2819 -0.5543
 6569SOL    HW131166   3.800   1.666   4.597 -0.9001 -0.5063 -1.5156
 6569SOL    HW231167   3.698   1.635   4.703 -0.9590 -2.5998  0.4639
 6570SOL     OW31168   1.067   0.226   5.389  0.0834  0.1541  0.2321
 6570SOL    HW131169   1.045   0.136   5.414  1.0760  0.3392  1.7961
 6570SOL    HW231170   1.133   0.244   5.456  1.6831 -2.4374 -0.6151
 6571SOL     OW31171   1.362   4.284   0.381 -0.1259 -0.2369  0.4928
 6571SOL    HW131172   1.338   4.338   0.305  1.3753 -0.2321  0.0114
 6571SOL    HW231173   1.279   4.280   0.429  0.4887  0.6852  1.6347
 6572SOL     OW31174   3.029   4.416   0.554 -0.0084 -0.6160 -0.7030
 6572SOL    HW131175   3.039   4.509   0.534  0.4048 -0.7055 -0.9182
 6572SOL    HW231176   3.018   4.365   0.473 -0.4057 -0.2311 -0.8852
 6573SOL     OW31177   0.259   3.207  16.487  0.3749 -0.0262 -0.2989
 6573SOL    HW131178   0.300   3.160  16.560  0.0216  0.7790  0.4242
 6573SOL    HW231179   0.319   3.280  16.473  1.6841 -0.9764  0.3620
 6574SOL     OW31180   3.270   1.092   4.530 -0.3504 -0.2128 -0.0100
 6574SOL    HW131181   3.364   1.098   4.545 -0.4216 -0.0539  0.3752
 6574SOL    HW231182   3.270   1.046   4.446 -1.8600 -0.4615  0.1331
 6575SOL     OW31183   0.201   1.606  17.064  0.0206  0.5363 -0.2126
 6575SOL    HW131184   0.121   1.576  17.108  0.6166 -0.0155  0.4970
 6575SOL    HW231185   0.206   1.544  16.992 -1.9762 -1.6139  1.4712
 6576SOL     OW31186   2.074   0.375   8.513  0.0173 -0.5265 -0.1625
 6576SOL    HW131187   1.994   0.421   8.487 -0.8219  0.0257  3.3763
 6576SOL    HW231188   2.137   0.430   8.467 -1.2996  0.2945 -0.9955
 6577SOL     OW31189   0.407   1.252   4.609  0.0126  0.2797  0.1815
 6577SOL    HW131190   0.326   1.212   4.578  0.1387  1.2323 -1.4039
 6577SOL    HW231191   0.365   1.287   4.687 -2.3081 -1.8494 -0.1259
 6578SOL     OW31192   2.834   3.660   1.785  0.1865  0.5596  0.1269
 6578SOL    HW131193   2.907   3.600   1.772 -0.1608  0.7104 -2.4779
 6578SOL    HW231194   2.875   3.729   1.734  2.9198 -0.6791  0.6724
 6579SOL     OW31195   2.935   1.315  14.574 -0.2147 -0.1018  0.2683
 6579SOL    HW131196   2.909   1.277  14.658  0.2686  0.3986  0.6457
 6579SOL    HW231197   2.869   1.385  14.571 -0.4104 -0.2723  0.6250
 6580SOL     OW31198   2.802   3.996   5.725 -0.0364 -0.1570 -0.3413
 6580SOL    HW131199   2.883   3.946   5.731 -0.2410 -0.4134  0.2579
 6580SOL    HW231200   2.811   4.030   5.636  0.0984  0.7826  0.0226
 6581SOL     OW31201   2.022   1.492   9.557  0.2988 -0.7696 -0.0571
 6581SOL    HW131202   1.934   1.495   9.593 -0.8405 -0.6446 -2.8483
 6581SOL    HW231203   2.006   1.544   9.478 -1.0930 -2.2319 -0.7376
 6582SOL     OW31204   1.318   2.723  10.625 -0.1720  0.3074  0.1300
 6582SOL    HW131205   1.326   2.727  10.530  1.4640  1.3978  0.3167
 6582SOL    HW231206   1.235   2.680  10.646 -0.6071  0.1945 -1.8020
 6583SOL     OW31207   4.484   4.590   6.780  0.0664 -0.2123  0.6584
 6583SOL    HW131208   4.529   4.596   6.865  0.7354  2.9553  0.0926
 6583SOL    HW231209   4.394   4.573   6.808 -0.0385 -0.3599  0.2295
 6584SOL     OW31210   3.959   3.920  11.120 -0.2340 -0.3491 -0.2041
 6584SOL    HW131211   3.881   3.937  11.067 -1.8197 -0.3898  2.0918
 6584SOL    HW231212   3.915   3.884  11.197 -1.3781 -0.8691 -1.0904
 6585SOL     OW31213   3.308   3.323   8.054 -0.1221  0.3792 -0.1747
 6585SOL    HW131214   3.268   3.300   7.970 -0.9715  1.1337  0.0201
 6585SOL    HW231215   3.399   3.320   8.026 -0.3482  0.8888 -0.9989
 6586SOL     OW31216   3.703   2.037   3.318 -0.1064 -0.5553  0.2472
 6586SOL    HW131217   3.798   2.046   3.327 -0.4286  2.5592  0.3054
 6586SOL    HW231218   3.677   2.125   3.341 -0.5127 -0.6669  0.2032
 6587SOL     OW31219   1.179   1.382   3.982 -0.0927 -0.0628 -0.0888
 6587SOL    HW131220   1.209   1.460   4.029 -0.6868  1.6736 -2.5598
 6587SOL    HW231221   1.083   1.390   3.986 -0.0930 -0.2783  0.2925
 6588SOL     OW31222   2.204   2.358  13.387  0.0651  0.8650  0.4369
 6588SOL    HW131223   2.264   2.285  13.404  0.5981  0.8643 -1.3940
 6588SOL    HW231224   2.219   2.421  13.457  0.9749 -0.9189  1.8459
 6589SOL     OW31225   3.367   3.035  14.195  0.2918 -0.4154  0.2027
 6589SOL    HW131226   3.287   2.997  14.231 -0.6202 -1.2502 -2.7090
 6589SOL    HW231227   3.340   3.086  14.119  0.9343  0.7877  0.7820
 6590SOL     OW31228   4.590   3.263  13.269 -0.0859 -0.4270 -0.1419
 6590SOL    HW131229   4.559   3.173  13.275  2.9585 -1.5961 -1.9634
 6590SOL    HW231230   4.537   3.308  13.335 -2.2497  0.5433 -2.5671
 6591SOL     OW31231   0.668   0.454   1.807  0.1110  0.4333  0.2078
 6591SOL    HW131232   0.619   0.511   1.867 -1.8168  0.0776 -1.0278
 6591SOL    HW231233   0.736   0.411   1.858 -0.9168  0.1195  1.3192
 6592SOL     OW31234   4.421   0.240   6.619 -0.3576  0.1515 -0.6327
 6592SOL    HW131235   4.334   0.242   6.658 -0.2610 -0.5911 -0.3915
 6592SOL    HW231236   4.470   0.256   6.700  0.4798 -4.5156 -0.2387
 6593SOL     OW31237   1.468   1.685   8.795 -0.2783  0.4706  0.0507
 6593SOL    HW131238   1.479   1.760   8.852  2.3505 -0.4129  0.6915
 6593SOL    HW231239   1.392   1.638   8.829 -0.5720  0.9205  0.0183
 6594SOL     OW31240   0.464   1.358   2.402 -0.0647  0.2034 -0.0334
 6594SOL    HW131241   0.374   1.388   2.415 -0.4405 -1.4115  1.0533
 6594SOL    HW231242   0.516   1.437   2.414  1.2718 -0.7103  0.2339
 6595SOL     OW31243   4.453   0.053   1.159 -0.0507 -0.1477  0.9301
 6595SOL    HW131244   4.465   4.685   1.163  1.4746 -0.1253 -2.2804
 6595SOL    HW231245   4.411   0.082   1.239  0.1318  1.1710  0.5519
 6596SOL     OW31246   4.406   1.956   1.796 -0.5507 -0.2131 -0.0817
 6596SOL    HW131247   4.354   1.887   1.755  0.5877 -1.6826  0.9170
 6596SOL    HW231248   4.346   1.982   1.865 -0.9782 -2.0956  0.2525
 6597SOL     OW31249   0.505   1.755   2.707  0.2418  0.5045 -0.0151
 6597SOL    HW131250   0.547   1.790   2.786  1.7679 -0.5643 -0.3540
 6597SOL    HW231251   0.552   1.796   2.634  1.7182 -1.0062  0.0927
 6598SOL     OW31252   0.396   0.730   5.956  0.3748  0.3365  0.4094
 6598SOL    HW131253   0.323   0.674   5.984 -1.0258  1.2694 -1.3156
 6598SOL    HW231254   0.360   0.818   5.942  0.9785 -0.0633 -3.5530
 6599SOL     OW31255   4.615   3.583   4.875  0.2087 -0.2009  0.4747
 6599SOL    HW131256   4.616   3.594   4.780 -2.7687 -2.4234  0.1977
 6599SOL    HW231257   4.694   3.533   4.892  0.8493  0.6612  0.0562
 6600SOL     OW31258   4.636   2.462  17.346 -0.0315  0.6074  0.2944
 6600SOL    HW131259   4.601   2.548  17.322 -4.2686 -1.0761  0.5355
 6600SOL    HW231260   4.643   2.434  17.254 -0.0458 -0.3857  0.5999
 6601SOL     OW31261   4.503   2.333   6.639 -0.2744  0.2449 -0.6367
 6601SOL    HW131262   4.423   2.305   6.594  0.2421 -1.4050 -0.5194
 6601SOL    HW231263   4.526   2.422   6.612 -0.7851 -0.1711 -2.4644
 6602SOL     OW31264   0.347   1.958  12.574 -0.3893  0.0974 -0.3445
 6602SOL    HW131265   0.254   1.980  12.564 -0.5766 -0.4353  0.2679
 6602SOL    HW231266   0.346   1.972  12.668 -0.1051 -4.4740  0.3344
 6603SOL     OW31267   3.377   1.656  16.682  0.3248 -0.3899 -0.0051
 6603SOL    HW131268   3.419   1.590  16.737  1.9664  1.0370  0.4574
 6603SOL    HW231269   3.312   1.687  16.745 -1.2660  1.2343 -2.4438
 6604SOL     OW31270   4.235   0.078   7.981  0.2486 -0.4433  0.5479
 6604SOL    HW131271   4.193   0.090   8.066  0.3048  1.5408  0.3007
 6604SOL    HW231272   4.315   0.044   8.021  0.7709  0.4378  0.2478
 6605SOL     OW31273   1.072   0.422   3.857 -0.6292  0.0739 -0.0059
 6605SOL    HW131274   1.106   0.336   3.882  0.4032  1.2344  2.6251
 6605SOL    HW231275   1.052   0.455   3.945  3.3733 -2.1994  1.8153
 6606SOL     OW31276   3.253   2.381   2.239 -0.1372 -0.1736  0.2240
 6606SOL    HW131277   3.295   2.401   2.155  0.0640  0.5800  0.5044
 6606SOL    HW231278   3.175   2.436   2.246 -0.2171 -0.3102  0.4120
 6607SOL     OW31279   0.586   0.578   0.584  0.7558 -0.0261 -0.1464
 6607SOL    HW131280   0.563   0.485   0.572 -0.3479  0.1666  0.4486
 6607SOL    HW231281   0.532   0.605   0.659  0.1604 -0.4563 -0.4177
 6608SOL     OW31282   3.211   4.243  14.346  0.5934 -0.0842 -0.2518
 6608SOL    HW131283   3.185   4.310  14.409 -0.1374 -0.1883 -0.4351
 6608SOL    HW231284   3.217   4.304  14.272 -0.5621 -0.3715 -0.5972
 6609SOL     OW31285   0.466   4.439   2.304  0.0790  0.2969 -0.0240
 6609SOL    HW131286   0.393   4.501   2.302 -0.7559 -0.7243 -1.1581
 6609SOL    HW231287   0.468   4.426   2.399 -1.1004 -2.8135 -0.4134
 6610SOL     OW31288   4.464   0.309   4.059  0.3913  0.4914  0.3696
 6610SOL    HW131289   4.547   0.280   4.097 -0.1410  0.0526  1.1980
 6610SOL    HW231290   4.451   0.237   3.998 -0.3702 -0.7110  1.9576
 6611SOL     OW31291   1.763   3.147   8.667  0.3155  0.4094  0.0788
 6611SOL    HW131292   1.833   3.084   8.647  0.3170  0.4551 -0.0607
 6611SOL    HW231293   1.796   3.175   8.752 -0.0791  1.3877 -0.0914
 6612SOL     OW31294   1.168   1.529   6.403 -0.0168  0.0947 -0.1461
 6612SOL    HW131295   1.136   1.445   6.433 -0.8693  1.3315  2.4256
 6612SOL    HW231296   1.262   1.513   6.406 -0.1506 -0.9560 -1.8897
 6613SOL     OW31297   3.361   3.773   0.193  0.2127 -0.7690 -0.0066
 6613SOL    HW131298   3.266   3.763   0.195  0.1263 -0.4814 -2.0651
 6613SOL    HW231299   3.380   3.821   0.273 -0.9291  0.9723 -0.7837
 6614SOL     OW31300   2.585   1.483   0.140  0.5935  0.3495  0.2539
 6614SOL    HW131301   2.675   1.515   0.148  0.5883  0.8447 -1.7037
 6614SOL    HW231302   2.538   1.566   0.135  0.5210  0.3012  0.1280
 6615SOL     OW31303   0.056   0.793  17.236  0.5259 -0.3026 -0.5071
 6615SOL    HW131304   0.066   0.880  17.275  1.5029 -0.2247 -0.9330
 6615SOL    HW231305   4.700   0.811  17.189 -0.2837 -1.4310  0.4902
 6616SOL     OW31306   0.451   0.536   7.117 -0.0186  0.0797  0.0157
 6616SOL    HW131307   0.474   0.554   7.208  0.1190  2.2394 -0.4343
 6616SOL    HW231308   0.513   0.596   7.075  0.1435  0.1857  0.4093
 6617SOL     OW31309   2.380   1.319  15.217 -0.3777 -0.0758 -0.1575
 6617SOL    HW131310   2.376   1.363  15.302 -0.7347 -1.3398  0.4786
 6617SOL    HW231311   2.398   1.226  15.226  0.0980 -0.1064 -1.4420
 6618SOL     OW31312   2.206   1.634   6.968  0.2929 -0.6057  0.5069
 6618SOL    HW131313   2.210   1.631   7.063  0.7143  0.8979  0.5386
 6618SOL    HW231314   2.122   1.592   6.949  0.7410 -1.8014  1.1745
 6619SOL     OW31315   3.567   3.583   1.763 -0.7121 -0.1877 -0.0407
 6619SOL    HW131316   3.612   3.638   1.828 -0.2802  0.2824 -0.7418
 6619SOL    HW231317   3.580   3.636   1.685  3.2845 -1.8553 -0.5310
 6620SOL     OW31318   1.628   2.687   1.158 -0.3702  0.0923 -0.1295
 6620SOL    HW131319   1.588   2.627   1.221  0.6641 -1.6616 -1.1510
 6620SOL    HW231320   1.550   2.709   1.107  0.4212  2.7187 -0.1936
 6621SOL     OW31321   0.955   0.726   6.283  0.2619 -0.6178  0.7031
 6621SOL    HW131322   0.979   0.781   6.357 -1.7941  1.2500 -0.0136
 6621SOL    HW231323   0.867   0.763   6.270 -0.4221 -2.2078  0.7775
 6622SOL     OW31324   1.152   0.582   8.892  0.1673 -0.1228  0.7115
 6622SOL    HW131325   1.098   0.583   8.813  2.1426  1.1419 -0.6327
 6622SOL    HW231326   1.199   0.665   8.880  1.3540 -0.8884  0.0504
 6623SOL     OW31327   2.352   4.680   4.402  0.4826 -0.0820 -0.0536
 6623SOL    HW131328   2.263   4.653   4.423  0.4915  0.1714  0.3099
 6623SOL    HW231329   2.334   0.011   4.327 -3.0134 -2.2979 -0.8746
 6624SOL     OW31330   3.323   0.882   5.063 -0.1554 -0.5090 -0.2680
 6624SOL    HW131331   3.231   0.906   5.062  0.0997  0.3921 -1.7075
 6624SOL    HW231332   3.359   0.917   4.981  0.4425 -0.1207  0.1619
 6625SOL     OW31333   3.223   0.799  12.438  0.0688 -0.3334  0.1126
 6625SOL    HW131334   3.172   0.743  12.378 -0.9932 -0.5867  1.2518
 6625SOL    HW231335   3.282   0.728  12.464  0.6781 -0.8130 -2.6230
 6626SOL     OW31336   0.147   1.027   7.353 -0.2725 -0.2638 -0.1423
 6626SOL    HW131337   0.223   1.082   7.339  0.2018 -0.8225  0.2472
 6626SOL    HW231338   0.099   1.051   7.273 -1.6719  2.2273  1.4372
 6627SOL     OW31339   1.390   4.682  13.601 -0.0052  0.0166  0.2863
 6627SOL    HW131340   1.384   4.663  13.695 -0.7675 -1.5669 -0.0788
 6627SOL    HW231341   1.483   4.676  13.582 -0.2826  1.2768 -1.3597
 6628SOL     OW31342   0.370   2.515   6.894  0.2020  0.3647 -0.1667
 6628SOL    HW131343   0.363   2.432   6.940 -0.9824  0.7133  0.2889
 6628SOL    HW231344   0.452   2.505   6.846  0.8729  1.3204  0.7991
 6629SOL     OW31345   0.863   2.024   7.242 -0.1635 -0.2553 -0.2804
 6629SOL    HW131346   0.844   1.930   7.240 -0.4541 -0.1796 -0.8782
 6629SOL    HW231347   0.950   2.025   7.282  0.3694 -3.0919 -1.3148
 6630SOL     OW31348   2.308   4.618   8.483  0.5912 -0.1627  0.5582
 6630SOL    HW131349   2.309   4.712   8.466  0.0350 -0.6528 -2.1942
 6630SOL    HW231350   2.221   4.589   8.454  1.3373  0.7778 -2.6432
 6631SOL     OW31351   2.650   0.853   7.410  0.0431  0.3898 -0.1312
 6631SOL    HW131352   2.705   0.914   7.460  1.2731 -0.3431 -0.5870
 6631SOL    HW231353   2.684   0.770   7.442 -1.5270  0.5126  1.8277
 6632SOL     OW31354   0.486   3.704   0.218  0.0445 -0.0088 -0.5713
 6632SOL    HW131355   0.490   3.770   0.150 -1.8616  0.9222  0.2119
 6632SOL    HW231356   0.574   3.707   0.255 -0.0485  0.4413 -0.3872
 6633SOL     OW31357   2.766   1.223   5.677 -0.2389  0.2312  0.0588
 6633SOL    HW131358   2.698   1.230   5.610 -1.2641  0.6359  1.1418
 6633SOL    HW231359   2.722   1.272   5.747  1.3376  2.0334 -0.2016
 6634SOL     OW31360   2.111   2.178  16.268  0.4624  0.2273  0.0983
 6634SOL    HW131361   2.157   2.227  16.336 -0.7975  0.1487  1.0030
 6634SOL    HW231362   2.153   2.205  16.187  1.9408 -2.1494  0.0635
 6635SOL     OW31363   2.728   0.992   7.622  0.0822  0.0152 -0.5931
 6635SOL    HW131364   2.637   0.987   7.650  0.8005 -1.0052  1.5443
 6635SOL    HW231365   2.724   1.087   7.610 -1.2677  0.1276  0.8092
 6636SOL     OW31366   1.937   0.539   4.361 -0.2323  0.1057 -0.8038
 6636SOL    HW131367   1.918   0.626   4.326  2.3816  0.8633 -0.3979
 6636SOL    HW231368   1.876   0.543   4.435 -1.7669  0.1164 -2.0718
 6637SOL     OW31369   1.039   2.977   7.021  0.5351  0.3344 -0.3557
 6637SOL    HW131370   0.944   2.983   7.030  0.6326  1.4039 -0.0655
 6637SOL    HW231371   1.046   2.883   7.039  0.4552  0.3373 -0.3092
 6638SOL     OW31372   1.160   1.809   8.175 -0.1237 -1.1350 -0.5605
 6638SOL    HW131373   1.209   1.752   8.235  0.6724  0.5698  0.4160
 6638SOL    HW231374   1.200   1.892   8.201 -1.1220 -1.4163  1.8416
 6639SOL     OW31375   0.386   3.137   2.462  0.2414 -0.0072 -0.0914
 6639SOL    HW131376   0.444   3.119   2.387 -1.3449 -1.3182 -1.0062
 6639SOL    HW231377   0.321   3.068   2.449  0.7060 -0.7107  1.2952
 6640SOL     OW31378   3.173   0.530   5.337  0.3111 -0.5819 -0.1326
 6640SOL    HW131379   3.119   0.465   5.381 -1.8749  0.9840 -0.5295
 6640SOL    HW231380   3.207   0.472   5.268  0.2861 -0.1315 -0.5254
 6641SOL     OW31381   0.755   2.085   7.487  0.3528  0.4177 -0.3865
 6641SOL    HW131382   0.758   1.989   7.491 -0.2379  0.3898 -0.6850
 6641SOL    HW231383   0.769   2.090   7.393  0.8455 -5.6430 -0.6530
 6642SOL     OW31384   2.312   3.942   8.767 -0.0384 -0.1197  0.4613
 6642SOL    HW131385   2.228   3.959   8.809 -0.0984  3.3337 -1.0263
 6642SOL    HW231386   2.346   4.031   8.762 -1.8462  0.6798  2.1011
 6643SOL     OW31387   1.946   1.063   9.160  0.2829  0.2497  0.3638
 6643SOL    HW131388   1.864   1.109   9.143 -0.1359 -1.2600 -1.7625
 6643SOL    HW231389   1.974   1.096   9.245 -2.3958  1.5606  0.7442
 6644SOL     OW31390   4.003   1.362   1.382 -0.2764 -0.4617  0.1102
 6644SOL    HW131391   4.036   1.372   1.293  1.0488  0.3483  0.6886
 6644SOL    HW231392   3.938   1.432   1.391  1.1980  0.5443  2.7373
 6645SOL     OW31393   4.357   0.115   5.520 -0.8304 -0.4274  0.2906
 6645SOL    HW131394   4.262   0.109   5.519 -0.8705 -0.2189  3.6055
 6645SOL    HW231395   4.385   0.105   5.611  0.0221 -2.0251 -0.1279
 6646SOL     OW31396   3.358   1.443   7.122  0.4059  0.6079  0.0963
 6646SOL    HW131397   3.304   1.379   7.170 -2.7911  3.6493  0.5394
 6646SOL    HW231398   3.448   1.418   7.143 -0.9539 -3.1804  1.5320
 6647SOL     OW31399   3.366   3.482   5.951  0.1632  0.8127  0.0859
 6647SOL    HW131400   3.386   3.465   5.859 -0.0045 -0.3194  0.2597
 6647SOL    HW231401   3.447   3.447   5.990 -1.2290 -1.2034  1.1692
 6648SOL     OW31402   1.091   1.849  17.473 -0.3965  0.1753  0.5144
 6648SOL    HW131403   1.179   1.817  17.489 -0.3792 -0.5985 -1.1482
 6648SOL    HW231404   1.049   1.820  17.554 -0.8966 -2.8541 -0.8607
 6649SOL     OW31405   0.773   0.696   7.942 -0.3499 -0.1773 -0.4277
 6649SOL    HW131406   0.780   0.600   7.945  0.0394 -0.1348  0.0742
 6649SOL    HW231407   0.866   0.717   7.951 -0.1112 -1.7291  0.8781
 6650SOL     OW31408   2.861   3.009  10.937  0.4706  0.2216  0.0901
 6650SOL    HW131409   2.796   2.940  10.925 -0.7086  0.9857  2.0369
 6650SOL    HW231410   2.825   3.094  10.911  0.5284  1.0281  2.5866
 6651SOL     OW31411   1.446   1.128   7.727  0.0731 -0.2390  0.0003
 6651SOL    HW131412   1.368   1.163   7.685  0.6556  0.3822 -0.5643
 6651SOL    HW231413   1.405   1.104   7.810  1.1658 -0.7558  0.3978
 6652SOL     OW31414   4.026   1.303   8.703  0.4655 -0.1816 -0.0050
 6652SOL    HW131415   4.107   1.294   8.653  0.9857  0.0757  0.7983
 6652SOL    HW231416   3.992   1.380   8.656  1.5264  0.1234 -0.2837
 6653SOL     OW31417   3.108   0.681  10.007  0.2847 -0.3646  0.0382
 6653SOL    HW131418   3.124   0.709   9.917 -2.4264 -0.7041 -0.5575
 6653SOL    HW231419   3.168   0.743  10.048 -0.7702  1.0046 -0.5057
 6654SOL     OW31420   0.857   1.668  11.052 -0.6399 -0.7849  0.4952
 6654SOL    HW131421   0.953   1.675  11.061 -0.5830 -0.6909 -0.2224
 6654SOL    HW231422   0.830   1.657  11.143 -2.6821  4.3711  0.4860
 6655SOL     OW31423   0.244   3.243   6.073  0.0553  0.0299 -0.0673
 6655SOL    HW131424   0.282   3.295   6.003  1.3096 -0.6171  0.1385
 6655SOL    HW231425   0.311   3.258   6.139 -0.9900  1.3793  0.6827
 6656SOL     OW31426   0.071   3.304   5.342  0.1503  0.6448  0.3773
 6656SOL    HW131427   0.155   3.279   5.303 -1.0457  0.2513 -1.9169
 6656SOL    HW231428   0.008   3.281   5.275  2.0475  0.2340 -1.2644
 6657SOL     OW31429   2.844   3.952   5.243 -0.1709 -1.2897  0.4551
 6657SOL    HW131430   2.852   3.859   5.264 -1.0047 -0.9777  2.2044
 6657SOL    HW231431   2.913   3.957   5.177 -0.6830 -1.7700 -0.1215
 6658SOL     OW31432   4.656   2.987   1.097  0.3861  0.0794  0.0787
 6658SOL    HW131433   4.709   3.066   1.109 -1.6761  0.7522  4.8956
 6658SOL    HW231434   4.671   2.951   1.184  1.0763  0.6747  0.2131
 6659SOL     OW31435   1.873   4.403   6.026 -0.1328  0.3278 -0.4816
 6659SOL    HW131436   1.946   4.382   6.085 -1.9147  0.3769  1.7536
 6659SOL    HW231437   1.910   4.465   5.964  0.5434 -0.5551 -0.9656
 6660SOL     OW31438   0.225   1.148   8.472  0.1760  0.1980  0.1302
 6660SOL    HW131439   0.141   1.190   8.488  1.1826  2.0914  0.3928
 6660SOL    HW231440   0.282   1.224   8.486  0.1209  0.2006  0.3373
 6661SOL     OW31441   2.309   4.129   0.711 -0.1152 -0.5933 -0.3401
 6661SOL    HW131442   2.270   4.197   0.765  1.1171 -1.0748  1.1630
 6661SOL    HW231443   2.276   4.170   0.631 -0.1598 -2.0245 -1.0733
 6662SOL     OW31444   3.420   0.237   0.485  0.9228  0.0945 -0.4067
 6662SOL    HW131445   3.411   0.267   0.394  1.5008  1.1111 -0.1288
 6662SOL    HW231446   3.416   0.321   0.532  0.6187 -0.2205  0.1252
 6663SOL     OW31447   2.177   3.888   5.272 -0.2791 -0.3142  0.5429
 6663SOL    HW131448   2.259   3.924   5.239 -0.0925 -1.7009 -0.4917
 6663SOL    HW231449   2.164   3.822   5.203 -0.3122  0.5292 -0.2618
 6664SOL     OW31450   2.916   3.735   4.065  0.1215 -0.2494  0.5590
 6664SOL    HW131451   2.829   3.703   4.090  0.9303 -2.8912 -0.0012
 6664SOL    HW231452   2.901   3.812   4.010  0.9501  1.1984  2.3854
 6665SOL     OW31453   3.095   2.435   3.152  0.2035 -0.4303  0.4638
 6665SOL    HW131454   3.187   2.418   3.171  0.8471  0.4709 -1.8853
 6665SOL    HW231455   3.065   2.437   3.243 -1.3479  1.7501 -0.0776
 6666SOL     OW31456   2.280   3.852   3.471 -0.2628 -0.7510 -0.0820
 6666SOL    HW131457   2.273   3.946   3.487 -0.9760 -0.6421 -1.0228
 6666SOL    HW231458   2.217   3.818   3.535 -0.7993 -0.6006 -0.5305
 6667SOL     OW31459   3.069   4.186  10.858  0.2005  0.1315  0.1361
 6667SOL    HW131460   3.137   4.252  10.848 -0.3137  0.4243 -1.4834
 6667SOL    HW231461   3.080   4.137  10.777  1.3620 -0.7709  0.8394
 6668SOL     OW31462   2.764   0.882   9.977  0.3130 -0.4684  0.0078
 6668SOL    HW131463   2.847   0.927   9.965 -0.9470  1.7977 -0.1623
 6668SOL    HW231464   2.713   0.920   9.906  1.5233 -0.6496 -0.9456
 6669SOL     OW31465   0.559   3.687   5.577  0.3523 -0.1494 -0.0184
 6669SOL    HW131466   0.464   3.677   5.589  0.3366 -0.2362 -0.2111
 6669SOL    HW231467   0.563   3.682   5.482  2.0812 -0.7627  0.0970
 6670SOL     OW31468   3.004   4.134   8.955  0.2731  0.3891  0.1422
 6670SOL    HW131469   3.089   4.175   8.971  1.1472 -1.5750  0.5970
 6670SOL    HW231470   2.947   4.203   8.921 -0.8104  0.0879  1.3158
 6671SOL     OW31471   1.651   4.554  13.585 -0.0976 -0.1875 -0.4168
 6671SOL    HW131472   1.637   4.506  13.667  0.5992 -0.5699 -0.5198
 6671SOL    HW231473   1.745   4.574  13.590  0.3114 -2.1719 -0.1352
 6672SOL     OW31474   0.209   2.409   8.725 -0.2711 -0.3696  0.8927
 6672SOL    HW131475   0.195   2.396   8.631  0.8048  0.5079  0.6148
 6672SOL    HW231476   0.215   2.505   8.725 -0.2710 -0.3637 -0.1335
 6673SOL     OW31477   4.641   0.998  11.565  0.1052 -0.0193 -0.0912
 6673SOL    HW131478   4.639   0.927  11.501 -0.4355 -0.1087  0.0321
 6673SOL    HW231479   4.697   0.953  11.628 -0.6261 -1.2342 -0.3175
 6674SOL     OW31480   2.686   4.203  17.309 -0.0666 -0.6371  0.2368
 6674SOL    HW131481   2.663   4.211  17.216 -1.1423  1.3352  0.6628
 6674SOL    HW231482   2.602   4.230  17.348  0.1128  1.1723 -0.6411
 6675SOL     OW31483   0.744   3.475   6.214 -0.3149  0.4441 -0.1347
 6675SOL    HW131484   0.666   3.517   6.179 -0.7566 -0.3922 -0.1716
 6675SOL    HW231485   0.727   3.500   6.305 -0.9579 -0.2282 -0.0680
 6676SOL     OW31486   1.165   3.278  10.736  0.4142 -0.1200  0.0902
 6676SOL    HW131487   1.151   3.303  10.828  0.6892  0.6228 -0.0689
 6676SOL    HW231488   1.080   3.249  10.703 -0.2053  1.7279  0.0353
 6677SOL     OW31489   2.220   0.413  12.586  0.1745 -0.3618 -0.4399
 6677SOL    HW131490   2.254   0.379  12.669 -1.5024 -0.6650  0.1283
 6677SOL    HW231491   2.139   0.361  12.582 -0.9276  1.0723  2.9595
 6678SOL     OW31492   1.252   2.154   8.007  0.0607  0.3092 -0.0663
 6678SOL    HW131493   1.224   2.130   8.095 -1.0091  0.2429 -0.4277
 6678SOL    HW231494   1.336   2.108   7.999 -0.4781 -0.9331  1.6195
 6679SOL     OW31495   1.256   2.009   8.317 -1.1200  0.2485  0.4194
 6679SOL    HW131496   1.190   1.992   8.384  0.0276 -1.3109  1.1467
 6679SOL    HW231497   1.340   2.024   8.362 -1.0790 -2.1824  1.1156
 6680SOL     OW31498   2.087   2.295   5.694 -0.6307 -0.1371  0.0493
 6680SOL    HW131499   2.010   2.243   5.671 -0.1519 -0.4525 -0.8158
 6680SOL    HW231500   2.087   2.338   5.608  1.1427 -1.7694 -0.7407
 6681SOL     OW31501   1.273   0.762   6.292 -0.1089  0.1158  0.2440
 6681SOL    HW131502   1.355   0.757   6.340 -0.4273 -0.5091  0.7174
 6681SOL    HW231503   1.221   0.777   6.371 -1.8619 -2.7821 -0.3478
 6682SOL     OW31504   1.595   2.841   8.992  0.5119 -0.2732  0.4025
 6682SOL    HW131505   1.650   2.816   8.917 -0.1348  1.0902 -0.5344
 6682SOL    HW231506   1.662   2.890   9.040  0.1910  2.2100 -1.6863
 6683SOL     OW31507   1.671   1.981   4.440  0.0408 -0.5453  0.4562
 6683SOL    HW131508   1.580   2.005   4.425  0.5743 -0.2311 -2.2733
 6683SOL    HW231509   1.722   2.051   4.399 -2.3088  1.9045  1.6947
 6684SOL     OW31510   2.637   2.558   6.859 -0.0766  0.1518 -0.1506
 6684SOL    HW131511   2.706   2.558   6.926  0.7676  2.0142 -1.0473
 6684SOL    HW231512   2.661   2.632   6.804  1.1771  0.4032  0.7413
 6685SOL     OW31513   1.336   3.610   4.154  0.3862  0.0035 -0.0799
 6685SOL    HW131514   1.391   3.679   4.118  2.1336 -1.3658 -0.0269
 6685SOL    HW231515   1.350   3.620   4.248 -0.8278  1.3364 -0.0307
 6686SOL     OW31516   3.254   2.189   5.101 -0.1672  0.3458  0.7702
 6686SOL    HW131517   3.208   2.180   5.185 -0.0735  2.3645  1.0429
 6686SOL    HW231518   3.254   2.100   5.068 -1.5393  0.4430  0.4793
 6687SOL     OW31519   1.195   4.399   3.011  0.0547 -0.3140 -0.6541
 6687SOL    HW131520   1.283   4.360   3.011 -0.5545 -1.6772  0.4014
 6687SOL    HW231521   1.191   4.420   2.918  1.1111 -1.8291 -1.0354
 6688SOL     OW31522   0.784   0.318  12.671 -0.7359 -0.1866 -0.3332
 6688SOL    HW131523   0.725   0.244  12.683 -2.4011  1.0328 -1.0189
 6688SOL    HW231524   0.723   0.391  12.662  0.1556  0.7398  1.1195
 6689SOL     OW31525   4.696   4.481   5.973  0.4207  0.0449 -0.1383
 6689SOL    HW131526   4.613   4.467   6.019 -0.7571 -1.7887 -2.8547
 6689SOL    HW231527   0.028   4.405   5.974  2.4011  1.5962  1.2072
 6690SOL     OW31528   3.050   0.627   3.958 -0.1942 -0.1585  0.1342
 6690SOL    HW131529   3.107   0.674   3.898  1.1248 -1.8423  0.0819
 6690SOL    HW231530   2.993   0.584   3.893 -3.7448  1.5552  2.1013
 6691SOL     OW31531   0.320   1.157   6.613  0.0902  0.2885  0.0795
 6691SOL    HW131532   0.372   1.081   6.587 -0.1419 -0.4088  1.6666
 6691SOL    HW231533   0.389   1.221   6.630  0.4657 -0.5234  1.5595
 6692SOL     OW31534   4.595   0.019   6.592 -0.2788  0.4560  1.1967
 6692SOL    HW131535   4.561   4.697   6.667  1.7373 -2.8985 -0.0639
 6692SOL    HW231536   4.526   0.084   6.575  1.3732  1.8190 -0.2617
 6693SOL     OW31537   0.542   4.056   8.205  0.2069  0.0748  0.2314
 6693SOL    HW131538   0.488   4.134   8.190  0.6125  0.3857  0.3891
 6693SOL    HW231539   0.473   4.007   8.248  0.1535 -1.2423 -1.3403
 6694SOL     OW31540   4.098   2.276   0.677 -0.0990 -0.0709 -0.3087
 6694SOL    HW131541   4.141   2.308   0.598  1.5478 -2.8480 -0.5393
 6694SOL    HW231542   4.035   2.213   0.642 -0.3799 -0.6632  1.2548
 6695SOL     OW31543   3.936   0.711   1.692  0.2392 -0.3480  0.4562
 6695SOL    HW131544   4.031   0.712   1.689  0.3004 -0.6921  2.1988
 6695SOL    HW231545   3.910   0.641   1.753  1.5034 -1.0677  0.1573
 6696SOL     OW31546   4.626   1.665   5.181 -0.3381  0.2635  0.0518
 6696SOL    HW131547   4.705   1.613   5.195 -0.7872 -0.2410  0.7198
 6696SOL    HW231548   4.561   1.610   5.226 -1.1029  0.2784 -1.0242
 6697SOL     OW31549   3.411   3.839   7.156 -0.3157 -0.0877 -0.2006
 6697SOL    HW131550   3.367   3.900   7.096 -1.3635 -1.2942 -0.6461
 6697SOL    HW231551   3.486   3.892   7.183 -0.5251 -0.1353  0.4728
 6698SOL     OW31552   4.251   3.661   8.146 -0.3048 -0.0490 -0.4081
 6698SOL    HW131553   4.280   3.749   8.170  1.1135 -0.1464 -1.7677
 6698SOL    HW231554   4.156   3.672   8.140 -0.4347 -1.9037 -1.6902
 6699SOL     OW31555   0.927   1.504   4.021  0.7163 -0.2462 -0.2054
 6699SOL    HW131556   0.927   1.545   4.108  3.8484  0.4128 -0.5109
 6699SOL    HW231557   0.867   1.430   4.018  1.0066 -0.6506  3.6610
 6700SOL     OW31558   2.170   2.462  15.238 -0.2728 -0.0246 -0.8207
 6700SOL    HW131559   2.178   2.405  15.162  1.2721  1.0072 -1.4392
 6700SOL    HW231560   2.127   2.540  15.206 -0.6030 -0.2572 -0.9446
 6701SOL     OW31561   0.217   0.973   2.839 -0.0697 -0.0683 -0.0066
 6701SOL    HW131562   0.210   1.064   2.868  1.7832 -0.7600  2.5654
 6701SOL    HW231563   0.245   0.923   2.915  0.4348 -0.5281 -0.4896
 6702SOL     OW31564   2.573   1.593   4.296  0.1834  0.1667 -0.6246
 6702SOL    HW131565   2.563   1.525   4.229  3.3423 -0.2976 -0.6374
 6702SOL    HW231566   2.557   1.540   4.374 -1.7509  0.1416 -1.0376
 6703SOL     OW31567   1.583   1.830   5.913  0.3205  0.4451  0.2146
 6703SOL    HW131568   1.584   1.821   6.008  1.2347 -0.2265  0.1382
 6703SOL    HW231569   1.489   1.837   5.896  0.1844  0.7870  1.0879
 6704SOL     OW31570   1.515   0.842   0.237  0.5871  0.0874 -0.4759
 6704SOL    HW131571   1.530   0.929   0.198 -1.0207  0.8656  0.6160
 6704SOL    HW231572   1.419   0.837   0.246  0.6889 -0.9912  0.0066
 6705SOL     OW31573   3.441   2.905   3.563  0.3960  0.4331 -0.2540
 6705SOL    HW131574   3.399   2.881   3.481  0.0206  0.2391 -0.0057
 6705SOL    HW231575   3.510   2.967   3.540  0.1105  1.0208  0.4329
 6706SOL     OW31576   4.033   0.923   6.544  0.3735 -0.5963  0.8874
 6706SOL    HW131577   3.961   0.868   6.513 -1.5150  1.6738  1.2127
 6706SOL    HW231578   4.102   0.872   6.501  1.8536  0.3719  2.1250
 6707SOL     OW31579   1.490   0.968   6.488  0.3101 -0.2584 -0.0330
 6707SOL    HW131580   1.491   1.062   6.467 -0.0066  0.1188  1.6690
 6707SOL    HW231581   1.521   0.931   6.405  1.1932  0.2191  0.0757
 6708SOL     OW31582   0.836   1.576   2.245 -0.0394  0.2425  0.2277
 6708SOL    HW131583   0.811   1.511   2.179  0.8510 -0.7745  0.8949
 6708SOL    HW231584   0.818   1.661   2.205 -1.4239  0.1592  0.6597
 6709SOL     OW31585   1.240   3.995  10.218 -0.3600  0.1289  0.2034
 6709SOL    HW131586   1.162   3.957  10.258 -0.2922 -3.8569 -3.4910
 6709SOL    HW231587   1.297   3.920  10.201 -0.4221  0.3491 -0.9854
 6710SOL     OW31588   0.617   2.548   4.821  0.0963 -0.0193  0.2217
 6710SOL    HW131589   0.634   2.642   4.822 -1.4278  0.2777 -0.9508
 6710SOL    HW231590   0.680   2.514   4.885  0.7871  0.7315 -0.0633
 6711SOL     OW31591   2.434   1.514   7.808 -0.1456 -0.3464  0.2904
 6711SOL    HW131592   2.403   1.560   7.887 -0.5662 -0.2186  0.0492
 6711SOL    HW231593   2.450   1.426   7.843 -0.1174 -0.9925 -1.3720
 6712SOL     OW31594   1.262   3.283  10.181 -0.0827  0.2045 -0.4272
 6712SOL    HW131595   1.317   3.305  10.106 -3.0388 -0.6280 -2.8151
 6712SOL    HW231596   1.213   3.207  10.150  0.8691 -0.4788 -0.2582
 6713SOL     OW31597   0.106   0.728   7.987  0.0876 -0.0852 -0.2638
 6713SOL    HW131598   0.141   0.718   7.899  0.0388 -1.5220 -0.1209
 6713SOL    HW231599   0.103   0.636   8.011  2.4922 -0.0200  0.2715
 6714SOL     OW31600   3.927   0.361   5.298 -0.0197  0.1741 -0.3902
 6714SOL    HW131601   4.005   0.375   5.244 -0.8651 -0.8218 -1.8471
 6714SOL    HW231602   3.959   0.395   5.382 -0.3853 -0.2646 -0.0737
 6715SOL     OW31603   2.500   4.293   6.286 -0.3753  0.3074  0.5460
 6715SOL    HW131604   2.429   4.350   6.315 -1.0252  1.1682 -2.7556
 6715SOL    HW231605   2.463   4.208   6.309 -1.7055  0.7399  0.0113
 6716SOL     OW31606   4.258   1.962  13.381 -0.8393  0.5959  0.3179
 6716SOL    HW131607   4.188   1.956  13.315 -0.6099 -0.4861  0.1685
 6716SOL    HW231608   4.250   1.872  13.413  1.0908 -0.2369 -1.4896
 6717SOL     OW31609   0.250   1.125  12.051  0.2376  0.2791  0.2771
 6717SOL    HW131610   0.235   1.052  11.990 -2.8399 -0.1435  1.5537
 6717SOL    HW231611   0.316   1.084  12.108  1.7767  0.5173 -1.3325
 6718SOL     OW31612   1.856   0.864   0.550  0.1183  0.5502 -0.5034
 6718SOL    HW131613   1.850   0.918   0.629  1.0699  1.2881 -0.9319
 6718SOL    HW231614   1.927   0.811   0.587 -1.1811 -1.8620 -1.4591
 6719SOL     OW31615   0.117   0.335   1.111  0.3807  0.6593 -0.7722
 6719SOL    HW131616   0.072   0.309   1.192  0.8831  2.9102  0.2408
 6719SOL    HW231617   0.155   0.419   1.137  1.8552 -0.1019 -0.4889
 6720SOL     OW31618   3.924   3.728   6.964  0.1173 -0.5294  0.0913
 6720SOL    HW131619   3.881   3.656   7.011  0.0730  0.4544  1.5595
 6720SOL    HW231620   3.914   3.714   6.870 -0.9707 -3.0150  0.5711
 6721SOL     OW31621   0.048   0.021   3.430 -0.9302 -0.4355  0.4121
 6721SOL    HW131622   4.721   0.034   3.351  0.8775 -0.2471 -0.7656
 6721SOL    HW231623   4.714   4.699   3.487 -0.9768 -0.4429  0.3570
 6722SOL     OW31624   0.649   3.923   5.759 -0.4159 -0.3127 -0.2325
 6722SOL    HW131625   0.612   3.841   5.727 -0.1782 -1.3512  2.1136
 6722SOL    HW231626   0.573   3.975   5.733  0.0221  1.1975  1.5822
 6723SOL     OW31627   3.220   2.527   8.178 -0.3450 -0.0399 -0.7858
 6723SOL    HW131628   3.235   2.454   8.239 -1.8379  0.1972 -0.1268
 6723SOL    HW231629   3.156   2.484   8.120 -0.6942  0.1074 -0.5101
 6724SOL     OW31630   2.764   2.748   2.835 -0.1678  0.1446 -0.2111
 6724SOL    HW131631   2.781   2.656   2.817  0.0392 -0.0742  1.1262
 6724SOL    HW231632   2.671   2.748   2.857 -0.7358 -1.7234 -2.5543
 6725SOL     OW31633   1.364   0.307   1.725 -0.0774 -0.5603 -0.5410
 6725SOL    HW131634   1.298   0.255   1.679  0.4983 -0.5377 -1.3943
 6725SOL    HW231635   1.360   0.377   1.661  1.8570  0.9078  0.9388
 6726SOL     OW31636   2.528   4.125   8.013 -0.5589 -0.2171 -0.4301
 6726SOL    HW131637   2.443   4.127   8.057 -0.8097  2.1429 -0.9996
 6726SOL    HW231638   2.548   4.218   8.025 -1.5462 -0.1911  0.9623
 6727SOL     OW31639   2.962   2.535   7.282 -0.4629  0.2353 -0.3606
 6727SOL    HW131640   3.001   2.458   7.323  2.0397  1.4192 -0.5206
 6727SOL    HW231641   3.040   2.588   7.268  0.4993 -1.9105 -3.1685
 6728SOL     OW31642   0.485   0.313  17.289  0.2547 -0.2867  0.5940
 6728SOL    HW131643   0.391   0.324  17.305  0.3104 -1.4233  1.6536
 6728SOL    HW231644   0.525   0.380  17.344  0.0180  0.6767 -0.4048
 6729SOL     OW31645   0.721   3.991  11.698 -0.5602  0.0453 -0.0488
 6729SOL    HW131646   0.660   4.014  11.768 -0.6737 -2.8362  0.8034
 6729SOL    HW231647   0.682   3.908  11.671 -0.5049 -0.3108  0.9381
 6730SOL     OW31648   0.446   0.834   3.766 -0.4205  0.5296  0.0625
 6730SOL    HW131649   0.474   0.918   3.731  0.0234 -0.0445 -0.9457
 6730SOL    HW231650   0.353   0.854   3.776 -0.5091  0.3630 -0.4366
 6731SOL     OW31651   1.830   2.104  12.152  0.0784  0.1192 -0.0245
 6731SOL    HW131652   1.750   2.092  12.101  0.0532  1.5529 -0.3198
 6731SOL    HW231653   1.886   2.067  12.084  0.0881  0.0909 -0.0010
 6732SOL     OW31654   2.149   2.859   8.088  0.1262 -0.1773  0.1459
 6732SOL    HW131655   2.071   2.887   8.040 -1.0331 -0.3410  1.9307
 6732SOL    HW231656   2.181   2.944   8.118 -1.2330  0.6257 -0.6702
 6733SOL     OW31657   1.123   4.252   6.057 -0.2392 -0.1569 -0.2745
 6733SOL    HW131658   1.070   4.174   6.071 -2.3765  1.3992  0.4208
 6733SOL    HW231659   1.207   4.224   6.023 -0.6507 -0.6965 -0.8513
 6734SOL     OW31660   3.366   1.950   5.575 -0.3730 -0.2362 -0.0660
 6734SOL    HW131661   3.341   1.872   5.526  2.1982 -0.2962 -1.2824
 6734SOL    HW231662   3.332   1.928   5.662  1.9449 -0.8394  0.7003
 6735SOL     OW31663   1.901   3.716   2.704 -0.3892 -0.1312  0.1794
 6735SOL    HW131664   1.905   3.720   2.608  1.4896  0.2527  0.2791
 6735SOL    HW231665   1.958   3.639   2.709 -0.6620 -0.3178  0.4335
 6736SOL     OW31666   3.275   3.602   1.745 -0.3026  0.3289  0.4277
 6736SOL    HW131667   3.269   3.647   1.829 -0.8815 -0.2720  0.7043
 6736SOL    HW231668   3.369   3.584   1.749 -0.1475  1.3255  1.1668
 6737SOL     OW31669   4.454   3.652   9.300 -0.2758  0.0024 -0.0957
 6737SOL    HW131670   4.382   3.705   9.334 -2.7079 -3.3011 -0.0516
 6737SOL    HW231671   4.500   3.623   9.378 -0.0996 -0.7589 -0.4761
 6738SOL     OW31672   1.796   2.954   9.159 -0.1275  0.6573 -0.5709
 6738SOL    HW131673   1.872   2.933   9.104 -0.9912 -0.5147 -1.3181
 6738SOL    HW231674   1.793   3.050   9.165  1.5746  0.7819 -1.8466
 6739SOL     OW31675   0.143   1.827   6.642  0.1312  0.0486  0.3615
 6739SOL    HW131676   0.119   1.898   6.701 -0.0917  0.3790 -0.1229
 6739SOL    HW231677   0.191   1.775   6.705  0.5623 -1.1374 -0.9357
 6740SOL     OW31678   3.837   0.112   4.269  0.5644 -1.0494 -0.3872
 6740SOL    HW131679   3.778   0.043   4.239 -1.7317  0.3767  0.8077
 6740SOL    HW231680   3.874   0.144   4.187 -0.6521  1.0137 -0.1249
 6741SOL     OW31681   2.054   0.673  14.191  0.0914  0.2351 -0.6308
 6741SOL    HW131682   2.078   0.581  14.198 -1.8640 -0.3036 -0.8426
 6741SOL    HW231683   2.100   0.712  14.117  0.5899  0.3083 -0.2774
 6742SOL     OW31684   0.320   0.501   1.191  0.0686  0.2954 -0.4877
 6742SOL    HW131685   0.368   0.514   1.273  0.6398 -3.5122 -0.2197
 6742SOL    HW231686   0.374   0.546   1.125 -0.5047 -1.0338 -1.8506
 6743SOL     OW31687   0.938   4.219   3.945  0.2644 -0.0932 -0.0465
 6743SOL    HW131688   0.871   4.254   3.886  2.2254  1.4936 -1.3505
 6743SOL    HW231689   0.895   4.229   4.029  2.3934  1.8627  0.8073
 6744SOL     OW31690   4.642   1.900   4.194 -0.0819 -0.0906 -0.2521
 6744SOL    HW131691   4.639   1.811   4.160  2.5326 -0.4559  0.4146
 6744SOL    HW231692   4.551   1.917   4.215 -0.8912 -3.3203 -1.2710
 6745SOL     OW31693   2.198   1.987   3.502 -0.4187  0.4497  0.4247
 6745SOL    HW131694   2.232   2.067   3.464 -0.0106  1.0635  2.0704
 6745SOL    HW231695   2.217   1.922   3.435  0.3917  0.5119  0.5967
 6746SOL     OW31696   2.217   4.673   6.292  0.1065  0.1371 -0.3955
 6746SOL    HW131697   2.199   4.586   6.330  0.8473 -1.3722 -3.4937
 6746SOL    HW231698   2.203   4.716   6.377 -0.2360 -0.8014  0.0297
 6747SOL     OW31699   1.969   2.721   4.479 -0.2568 -0.5257 -0.4961
 6747SOL    HW131700   1.960   2.655   4.547  0.8101 -0.5196 -0.3536
 6747SOL    HW231701   2.052   2.695   4.439  0.0590 -0.4222  0.0859
 6748SOL     OW31702   4.068   0.762  13.384  0.1114 -0.1659  0.2723
 6748SOL    HW131703   4.046   0.699  13.452  0.4115 -0.5574 -0.0018
 6748SOL    HW231704   4.132   0.721  13.327 -0.0969 -0.1484  0.0228
 6749SOL     OW31705   0.872   2.177   2.209 -0.0967  0.1763 -0.4138
 6749SOL    HW131706   0.806   2.240   2.238  2.2887  2.6193 -0.3026
 6749SOL    HW231707   0.872   2.193   2.114 -1.8305  1.9614 -0.0962
 6750SOL     OW31708   3.240   0.451  17.619 -0.1695  0.3028  0.2859
 6750SOL    HW131709   3.335   0.437  17.622 -0.2440 -0.1826  0.3489
 6750SOL    HW231710   3.222   0.497  17.702  0.0619  0.0127  0.4973
 6751SOL     OW31711   4.280   3.633   8.567 -0.3356  0.3936 -0.7977
 6751SOL    HW131712   4.319   3.564   8.513 -0.5315  1.1356 -1.8863
 6751SOL    HW231713   4.242   3.689   8.500 -2.0766  0.5476  0.3296
 6752SOL     OW31714   1.343   4.173   4.402 -0.0376  0.0155  0.1702
 6752SOL    HW131715   1.260   4.157   4.448  0.6788 -0.7381  1.1994
 6752SOL    HW231716   1.399   4.144   4.474 -0.9083 -0.4154  0.6711
 6753SOL     OW31717   1.787   0.047   4.075 -0.1847  0.3242 -0.3364
 6753SOL    HW131718   1.719   0.113   4.086 -1.2512 -0.3973 -2.6007
 6753SOL    HW231719   1.770   0.001   4.158  2.5103 -0.7619 -0.3564
 6754SOL     OW31720   4.295   3.835   4.374 -0.3477  0.8821 -0.6577
 6754SOL    HW131721   4.230   3.904   4.361 -1.8546 -0.1703  1.3217
 6754SOL    HW231722   4.364   3.851   4.308 -0.3825  3.0923 -0.1730
 6755SOL     OW31723   4.652   3.684   7.698  0.5752 -0.4287 -0.4868
 6755SOL    HW131724   4.662   3.779   7.701  1.5558 -0.4997 -1.3419
 6755SOL    HW231725   4.603   3.686   7.615 -0.8181  1.8665  0.3864
 6756SOL     OW31726   2.123   1.613   8.245  0.3706 -0.3111  0.1616
 6756SOL    HW131727   2.108   1.671   8.170  1.4004 -1.8376 -1.2278
 6756SOL    HW231728   2.043   1.629   8.295 -1.2002 -0.2712 -2.3689
 6757SOL     OW31729   2.771   2.466   3.473  0.3117  0.1031  0.2051
 6757SOL    HW131730   2.770   2.561   3.460 -1.6027 -0.2570 -2.2185
 6757SOL    HW231731   2.833   2.461   3.546 -0.0294  0.3179  0.5075
 6758SOL     OW31732   4.608   1.093  14.048 -0.0248 -0.5118 -0.1113
 6758SOL    HW131733   4.658   1.074  13.969 -0.3051  0.2543 -0.4767
 6758SOL    HW231734   4.588   1.006  14.082 -0.7894 -0.6060 -0.7978
 6759SOL     OW31735   2.915   1.907   3.656 -0.0114 -0.1848 -0.3622
 6759SOL    HW131736   2.841   1.857   3.691 -0.3101 -0.6119 -1.6068
 6759SOL    HW231737   2.877   1.994   3.660  2.1089  0.8586 -2.7563
 6760SOL     OW31738   1.850   3.321   3.467  0.1322 -0.1101 -0.5486
 6760SOL    HW131739   1.832   3.403   3.513 -0.1677 -0.3551 -0.2223
 6760SOL    HW231740   1.859   3.261   3.541 -3.8644  1.1670  0.9493
 6761SOL     OW31741   2.667   3.112  11.435 -0.2680 -0.0679 -0.7929
 6761SOL    HW131742   2.587   3.164  11.423 -0.1893  0.7580  2.3080
 6761SOL    HW231743   2.736   3.169  11.402  0.0819 -0.1567 -0.2098
 6762SOL     OW31744   4.058   4.206   0.219  0.2691 -0.2363  0.3699
 6762SOL    HW131745   4.051   4.149   0.142 -3.0008 -0.3208  0.7603
 6762SOL    HW231746   4.151   4.229   0.215  0.9388 -2.8752  0.4498
 6763SOL     OW31747   4.153   2.191   5.939 -0.4968  0.3324 -0.5930
 6763SOL    HW131748   4.127   2.168   5.850  3.6439 -1.0893 -1.4203
 6763SOL    HW231749   4.212   2.264   5.922 -1.8883  2.1762  2.5687
 6764SOL     OW31750   3.408   4.450  10.508 -0.0676 -0.4122  0.7567
 6764SOL    HW131751   3.480   4.405  10.462 -0.2721 -1.1459  1.1471
 6764SOL    HW231752   3.345   4.478  10.442  1.0740 -2.4157 -1.2084
 6765SOL     OW31753   1.976   1.737   5.139  0.2434 -0.0765 -0.2861
 6765SOL    HW131754   2.067   1.733   5.168 -0.3823  2.2575  1.9834
 6765SOL    HW231755   1.978   1.658   5.084 -2.2179  0.8520 -1.7012
 6766SOL     OW31756   3.962   0.602   8.568 -0.1986 -0.2027 -0.0983
 6766SOL    HW131757   3.955   0.524   8.513  0.7757 -0.0235 -0.4895
 6766SOL    HW231758   4.051   0.595   8.603  0.3796  0.6962 -1.3632
 6767SOL     OW31759   0.861   4.080  16.226  0.1931 -0.4581 -0.1208
 6767SOL    HW131760   0.786   4.132  16.194  1.7592  0.3916 -2.4149
 6767SOL    HW231761   0.808   4.004  16.248  0.9360 -0.6168  1.1007
 6768SOL     OW31762   2.489   4.453   4.316 -0.3685 -0.1585 -0.4085
 6768SOL    HW131763   2.460   4.520   4.379  0.3201  0.3489 -0.6220
 6768SOL    HW231764   2.433   4.476   4.242 -0.5148 -1.3114 -0.6499
 6769SOL     OW31765   0.557   3.697   8.356  0.2585  0.8068  0.1272
 6769SOL    HW131766   0.637   3.746   8.378 -0.4009  2.3085 -0.8244
 6769SOL    HW231767   0.492   3.765   8.340 -0.9667 -0.1762  0.9864
 6770SOL     OW31768   0.338   4.019  14.346 -0.1087 -0.1469 -0.1521
 6770SOL    HW131769   0.357   3.998  14.255  0.9487  0.0898  0.0226
 6770SOL    HW231770   0.398   4.090  14.365 -1.1459 -0.2603  3.5967
 6771SOL     OW31771   0.075   4.600   0.164 -0.4509  0.0614 -0.2179
 6771SOL    HW131772   0.089   4.626   0.255 -1.3057  0.0509 -0.0898
 6771SOL    HW231773   0.113   4.671   0.112  2.0198 -0.1688  1.2389
 6772SOL     OW31774   0.668   1.112   1.299 -0.3926  0.2667 -0.2946
 6772SOL    HW131775   0.599   1.152   1.246 -0.0577  1.1767 -0.0363
 6772SOL    HW231776   0.739   1.176   1.299 -0.0387 -0.1262 -0.8188
 6773SOL     OW31777   3.277   4.120   7.190  0.0254 -0.4562  0.3947
 6773SOL    HW131778   3.189   4.157   7.191  1.1372  2.1356  0.2875
 6773SOL    HW231779   3.279   4.106   7.284 -0.1357 -0.3335  0.4162
 6774SOL     OW31780   1.626   1.044  10.925  0.1961  0.3275  0.1082
 6774SOL    HW131781   1.603   1.137  10.920  2.6209  0.7876 -2.6724
 6774SOL    HW231782   1.590   0.999  10.848  1.0864  0.2969 -0.2814
 6775SOL     OW31783   0.293   4.066   7.907 -0.2498 -0.4993  0.1866
 6775SOL    HW131784   0.387   4.051   7.907  0.1181  1.7488 -1.0026
 6775SOL    HW231785   0.263   4.022   7.987 -3.2068  0.8635 -0.1863
 6776SOL     OW31786   1.537   2.322   8.677  0.0994  0.3752  0.2955
 6776SOL    HW131787   1.536   2.410   8.716  0.3877  0.7514 -0.5433
 6776SOL    HW231788   1.608   2.289   8.732 -0.8384 -2.0673  0.0114
 6777SOL     OW31789   3.396   2.035  12.721 -0.1939  0.7323 -0.5712
 6777SOL    HW131790   3.476   2.066  12.678 -0.4873  1.5847 -0.5028
 6777SOL    HW231791   3.351   1.998  12.646  0.3812 -0.9339 -0.0817
 6778SOL     OW31792   1.395   3.650   4.415  0.4458 -0.5545 -0.3427
 6778SOL    HW131793   1.401   3.744   4.427 -0.8164 -0.7049  1.3947
 6778SOL    HW231794   1.340   3.637   4.492  1.3612  0.5713  0.5077
 6779SOL     OW31795   2.299   4.033   9.427 -0.1834  0.0851 -0.2810
 6779SOL    HW131796   2.243   4.011   9.353  1.8888 -2.0956 -1.2101
 6779SOL    HW231797   2.235   4.034   9.498  0.9366  0.9733  0.7382
 6780SOL     OW31798   0.104   3.714  15.641 -0.1650 -0.1862 -0.3479
 6780SOL    HW131799   0.059   3.778  15.696  0.2125 -0.8310  0.7201
 6780SOL    HW231800   0.110   3.765  15.561 -1.7756  0.8856  0.2216
 6781SOL     OW31801   3.687   0.047   2.084 -0.0549 -0.0956  0.8017
 6781SOL    HW131802   3.642   4.720   2.019  1.4978  1.7160 -1.7939
 6781SOL    HW231803   3.749   4.706   2.112 -0.4462 -1.2049 -1.0097
 6782SOL     OW31804   3.806   4.181   5.839  0.3389 -0.4324  0.2305
 6782SOL    HW131805   3.791   4.275   5.836 -1.1448 -0.6446  1.2099
 6782SOL    HW231806   3.728   4.154   5.791  0.7232 -1.7204  0.3368
 6783SOL     OW31807   1.839   0.716   6.590 -0.5672 -0.4741 -0.1113
 6783SOL    HW131808   1.875   0.793   6.545 -1.9918 -1.1122 -2.3628
 6783SOL    HW231809   1.767   0.752   6.641 -1.0261 -0.4008 -0.8169
 6784SOL     OW31810   2.668   2.816   8.647 -0.1665  0.1280  0.3616
 6784SOL    HW131811   2.672   2.774   8.733  3.1373  1.2953  0.7701
 6784SOL    HW231812   2.644   2.904   8.676  1.0686  0.8892 -0.9457
 6785SOL     OW31813   4.360   1.044  11.575  0.3522  0.0483 -0.2203
 6785SOL    HW131814   4.346   0.983  11.647 -1.4097  0.8290  0.0964
 6785SOL    HW231815   4.455   1.050  11.581  0.2054  0.4893  1.5410
 6786SOL     OW31816   3.610   2.798   6.886 -0.0879 -1.1099 -0.1821
 6786SOL    HW131817   3.549   2.867   6.911  0.0938 -1.4606  1.2451
 6786SOL    HW231818   3.649   2.769   6.969  1.2461 -0.7272 -0.6661
 6787SOL     OW31819   1.428   3.421   9.927  0.2850  0.2330  0.3361
 6787SOL    HW131820   1.365   3.464   9.869  1.0592  1.8576  0.7074
 6787SOL    HW231821   1.442   3.492   9.989  0.4405 -0.1699  0.7613
 6788SOL     OW31822   1.439   4.348   3.261 -0.8481 -0.9892  0.1280
 6788SOL    HW131823   1.513   4.404   3.284 -1.3936  0.5017 -1.6889
 6788SOL    HW231824   1.380   4.374   3.332  0.4727 -0.2996  0.9603
 6789SOL     OW31825   3.985   3.048   7.388  0.2063  0.0439  0.5290
 6789SOL    HW131826   4.068   3.021   7.428 -0.0348 -3.0027 -1.0243
 6789SOL    HW231827   3.934   3.091   7.456  0.1760 -1.5508  1.5030
 6790SOL     OW31828   3.883   3.229  10.654  0.3968 -0.1800  0.1840
 6790SOL    HW131829   3.865   3.174  10.578  0.1204 -0.1863  0.2560
 6790SOL    HW231830   3.872   3.316  10.615  1.3681  0.7048  1.8854
 6791SOL     OW31831   3.241   0.761   4.516 -0.3927  0.0109 -0.1812
 6791SOL    HW131832   3.243   0.834   4.454 -1.2395 -1.0134 -1.4229
 6791SOL    HW231833   3.284   0.693   4.463 -0.7422 -1.2057  1.0929
 6792SOL     OW31834   0.856   3.381   9.053 -0.4154 -0.4356 -0.1158
 6792SOL    HW131835   0.827   3.441   9.122 -1.3405 -2.2626  1.1135
 6792SOL    HW231836   0.937   3.342   9.085  0.4606  0.1915 -1.5932
 6793SOL     OW31837   0.910   2.788  12.197  0.4799 -0.0649  0.3250
 6793SOL    HW131838   0.879   2.862  12.145 -0.9393 -2.0210 -1.6474
 6793SOL    HW231839   0.831   2.734  12.210  0.5497 -0.3944 -0.6544
 6794SOL     OW31840   1.494   2.629   3.167  0.1949 -0.4225  0.1625
 6794SOL    HW131841   1.470   2.561   3.230  0.3118 -0.2188  0.4248
 6794SOL    HW231842   1.454   2.704   3.209  0.9179 -0.1335  0.3283
 6795SOL     OW31843   4.489   4.312   3.465 -0.2550  0.5107  0.2525
 6795SOL    HW131844   4.529   4.309   3.378  4.1861 -0.5143  2.3583
 6795SOL    HW231845   4.419   4.249   3.449  0.7383 -1.0579  2.1211
 6796SOL     OW31846   1.520   4.582   8.170  0.2066 -0.0412  0.7832
 6796SOL    HW131847   1.603   4.628   8.179  1.0339 -1.4747  0.4771
 6796SOL    HW231848   1.466   4.602   8.246 -0.2325  1.4409  0.0899
 6797SOL     OW31849   0.589   3.053   6.718  0.4921  0.0670  0.0295
 6797SOL    HW131850   0.617   3.073   6.628 -0.7779  0.4380 -0.2893
 6797SOL    HW231851   0.664   3.082   6.771  1.4272  0.9636 -1.7565
 6798SOL     OW31852   4.150   4.091   0.735  0.5380 -0.4990  0.0831
 6798SOL    HW131853   4.089   4.074   0.663  0.9654 -1.4362 -0.0648
 6798SOL    HW231854   4.235   4.074   0.694  0.0311 -2.1542 -0.2866
 6799SOL     OW31855   0.310   1.667   7.099 -0.2276 -0.4359  0.4899
 6799SOL    HW131856   0.278   1.667   7.189 -0.0894  0.7855  0.5330
 6799SOL    HW231857   0.354   1.751   7.097 -1.5624  0.2644  0.7170
 6800SOL     OW31858   4.530   1.673   7.326 -0.1879  0.4628  0.1174
 6800SOL    HW131859   4.589   1.743   7.297 -0.5690 -0.2032 -2.2351
 6800SOL    HW231860   4.529   1.616   7.250 -1.5541  1.8393 -0.8937
 6801SOL     OW31861   0.406   1.731   6.104 -0.0657 -0.0118  0.1499
 6801SOL    HW131862   0.466   1.700   6.037  0.0804  1.3048 -0.3287
 6801SOL    HW231863   0.337   1.665   6.106  0.3669 -0.4653 -0.0214
 6802SOL     OW31864   0.388   4.625  17.682 -0.2735 -0.4898 -0.2091
 6802SOL    HW131865   0.394   4.618  17.587 -1.7011  1.0650 -0.3982
 6802SOL    HW231866   0.380   4.531  17.702 -0.8522 -0.6414 -1.1618
 6803SOL     OW31867   1.510   0.823  10.204  0.6061 -0.2206 -0.1483
 6803SOL    HW131868   1.439   0.846  10.263  0.4593  2.0987 -1.2291
 6803SOL    HW231869   1.554   0.908  10.206  0.2431  0.0548 -3.5992
 6804SOL     OW31870   2.372   2.821   2.603  0.3225 -0.4956 -0.2760
 6804SOL    HW131871   2.463   2.817   2.573 -0.0204  0.3427 -1.4149
 6804SOL    HW231872   2.328   2.771   2.535 -0.3326 -0.4351  0.1067
 6805SOL     OW31873   3.451   2.332   5.712  0.0410 -0.0422 -0.3693
 6805SOL    HW131874   3.482   2.334   5.802  0.9100  0.3845 -0.6858
 6805SOL    HW231875   3.415   2.420   5.720 -1.0732 -0.2966 -2.6385
 6806SOL     OW31876   3.431   1.590  16.359 -0.3602 -0.2982  0.0394
 6806SOL    HW131877   3.484   1.512  16.342 -1.2391 -0.7227 -0.7290
 6806SOL    HW231878   3.392   1.604  16.272 -2.4336  1.3088  1.2228
 6807SOL     OW31879   2.057   0.747   2.146  0.5498 -0.0214  0.3609
 6807SOL    HW131880   2.143   0.753   2.105  0.8321  0.0737  0.9563
 6807SOL    HW231881   2.025   0.701   2.069  1.9643  0.5775 -0.5993
 6808SOL     OW31882   2.056   2.936   9.787 -0.1742  0.6006  0.2058
 6808SOL    HW131883   2.123   2.999   9.762 -0.7966  0.1820 -2.5165
 6808SOL    HW231884   2.062   2.934   9.882 -0.1569 -0.0065  0.1960
 6809SOL     OW31885   0.290   0.820   0.956  0.0788  0.2110  0.0458
 6809SOL    HW131886   0.208   0.788   0.919  1.3508 -0.2018 -2.3984
 6809SOL    HW231887   0.283   0.911   0.928  1.1179  0.5997  1.0391
 6810SOL     OW31888   2.870   2.625   7.672 -0.6548 -0.0656 -0.3006
 6810SOL    HW131889   2.819   2.572   7.733 -1.1113 -2.2515 -2.5629
 6810SOL    HW231890   2.814   2.618   7.595 -0.8205  0.6230 -0.2411
 6811SOL     OW31891   3.236   1.937   5.017 -0.1582  0.0933  0.0323
 6811SOL    HW131892   3.181   1.940   4.938 -0.7647 -0.6989  0.4224
 6811SOL    HW231893   3.242   1.842   5.024 -0.3833  0.1953  1.6155
 6812SOL     OW31894   2.920   0.285  17.504 -0.4027 -0.2964 -0.6192
 6812SOL    HW131895   2.874   0.221  17.557  0.5093 -1.2035 -0.9175
 6812SOL    HW231896   2.886   0.246  17.423 -0.4038  0.7520 -1.1306
 6813SOL     OW31897   1.781   0.057   8.688 -0.1214 -0.3612  0.0978
 6813SOL    HW131898   1.811   0.130   8.741 -0.6371 -1.4880  1.9460
 6813SOL    HW231899   1.705   0.037   8.743  0.4476  0.3286  1.1212
 6814SOL     OW31900   2.091   0.645  12.599  0.4055  0.2814 -0.3539
 6814SOL    HW131901   2.134   0.560  12.590  0.6360  0.4464 -0.8250
 6814SOL    HW231902   2.158   0.712  12.586  1.8456 -0.4033  3.6556
 6815SOL     OW31903   4.613   0.581   4.500  0.3917 -0.7663 -0.4407
 6815SOL    HW131904   4.525   0.592   4.535 -0.5116  0.2635 -2.9921
 6815SOL    HW231905   4.605   0.604   4.407  2.0727  4.3868  0.6738
 6816SOL     OW31906   3.393   4.653   1.438  0.2023  0.2233 -0.2698
 6816SOL    HW131907   3.365   4.697   1.518  1.1931  2.2383 -1.0404
 6816SOL    HW231908   3.329   4.686   1.375 -1.7550 -1.0401  1.0858
 6817SOL     OW31909   2.865   0.800   2.917  0.3666  0.0431 -0.7579
 6817SOL    HW131910   2.823   0.762   2.840 -1.9204 -1.4304  1.2019
 6817SOL    HW231911   2.833   0.751   2.993  2.9568  0.7181  0.7727
 6818SOL     OW31912   4.565   4.555   7.756  0.0354  0.1005 -0.2639
 6818SOL    HW131913   4.545   4.526   7.845  0.4526  0.2771 -0.1122
 6818SOL    HW231914   4.481   4.600   7.745  0.2331  0.7834  0.9300
 6819SOL     OW31915   4.420   0.707   2.795  0.5023  0.7191  0.4406
 6819SOL    HW131916   4.445   0.617   2.815 -0.4219  0.2063 -0.6953
 6819SOL    HW231917   4.479   0.762   2.847 -0.4980  2.6370 -0.4324
 6820SOL     OW31918   4.259   3.474   2.111 -0.2909 -0.5352  0.1877
 6820SOL    HW131919   4.329   3.457   2.175  0.5398 -0.7715 -0.7871
 6820SOL    HW231920   4.302   3.473   2.026 -1.4438 -0.4736 -0.3952
 6821SOL     OW31921   3.257   0.775  11.961  0.1460 -0.0631 -0.1255
 6821SOL    HW131922   3.175   0.787  12.009  0.3342  1.1034 -0.0903
 6821SOL    HW231923   3.311   0.801  12.036 -0.7328 -0.2416  0.5719
 6822SOL     OW31924   3.433   2.237   5.449  0.4242 -0.7487 -0.0570
 6822SOL    HW131925   3.438   2.271   5.539  1.5085 -0.0932 -0.3658
 6822SOL    HW231926   3.381   2.159   5.464  0.2743 -0.9199 -1.5458
 6823SOL     OW31927   3.338   4.139   1.873  0.2163 -0.6061 -0.0765
 6823SOL    HW131928   3.362   4.230   1.891 -0.4857 -0.5995  0.8077
 6823SOL    HW231929   3.414   4.092   1.908  0.0202 -0.8350  0.0409
 6824SOL     OW31930   2.104   3.856   8.931  0.4368  0.3606  0.3827
 6824SOL    HW131931   2.056   3.805   8.997  1.5528  0.5177  1.3273
 6824SOL    HW231932   2.195   3.832   8.950  0.1691 -2.4552 -1.7847
 6825SOL     OW31933   4.259   3.288   6.906 -0.3375 -0.2569 -0.1715
 6825SOL    HW131934   4.260   3.324   6.817 -0.9398 -0.0988 -0.1138
 6825SOL    HW231935   4.241   3.197   6.884  1.0899 -0.6099  0.1612
 6826SOL     OW31936   0.423   1.950   7.096 -0.6116 -0.4059 -0.3806
 6826SOL    HW131937   0.474   1.907   7.163 -1.6297  2.3192  2.1484
 6826SOL    HW231938   0.487   2.021   7.089  0.0897 -0.9939  0.1170
 6827SOL     OW31939   1.687   0.233   6.515 -0.7700  0.5108 -0.0305
 6827SOL    HW131940   1.596   0.233   6.486 -0.7703 -0.5092 -0.0304
 6827SOL    HW231941   1.725   0.320   6.506 -0.6317  0.3761 -0.7815
 6828SOL     OW31942   4.564   2.166   3.226 -0.0856 -0.0321 -0.9625
 6828SOL    HW131943   4.554   2.150   3.320 -2.0050  0.3692 -1.1189
 6828SOL    HW231944   4.649   2.122   3.220  0.2917  0.8755 -2.2688
 6829SOL     OW31945   4.635   2.960   2.144  0.2688  0.6886  0.1798
 6829SOL    HW131946   4.692   3.020   2.095 -1.9704  2.2344 -0.5409
 6829SOL    HW231947   4.655   2.876   2.104 -0.0321  1.2033 -1.0598
 6830SOL     OW31948   2.627   2.217   6.197  0.0711 -0.6232  0.0921
 6830SOL    HW131949   2.664   2.302   6.222 -0.2496 -0.3015 -0.5200
 6830SOL    HW231950   2.582   2.256   6.122  1.0120  1.2355  0.4805
 6831SOL     OW31951   1.861   0.615   2.000 -0.4188  0.2508  0.1093
 6831SOL    HW131952   1.858   0.532   2.048 -1.1498  0.6635  0.7832
 6831SOL    HW231953   1.773   0.610   1.962 -0.6459 -0.1435  0.6885
 6832SOL     OW31954   4.595   0.727  14.391 -0.4202 -0.3712 -0.4714
 6832SOL    HW131955   4.536   0.656  14.416 -0.2636 -0.2955  0.1047
 6832SOL    HW231956   4.621   0.759  14.477  0.5174 -1.5514 -0.3164
 6833SOL     OW31957   2.629   3.389   1.217 -0.1490 -0.1503  0.1603
 6833SOL    HW131958   2.673   3.306   1.235 -1.5588 -0.6932  1.0608
 6833SOL    HW231959   2.598   3.361   1.131  0.1496  0.0559 -0.0147
 6834SOL     OW31960   0.428   3.972   1.721 -0.1789  0.3778  0.9728
 6834SOL    HW131961   0.506   3.973   1.667 -0.7890 -0.5713  0.0664
 6834SOL    HW231962   0.358   3.968   1.656 -1.1991 -0.1848  2.0993
 6835SOL     OW31963   4.714   1.919   2.725 -0.3696  0.4350  0.5209
 6835SOL    HW131964   0.082   1.924   2.740 -0.1948 -0.5292 -0.2066
 6835SOL    HW231965   4.703   2.013   2.710 -1.7572  0.1331 -0.4161
 6836SOL     OW31966   0.649   4.665   7.326 -0.3313  0.3667  0.3612
 6836SOL    HW131967   0.571   4.612   7.310  0.4516 -0.6037 -0.1744
 6836SOL    HW231968   0.692   4.604   7.386 -1.9628 -2.1309 -1.0386
 6837SOL     OW31969   0.840   0.792   1.085 -0.5054  0.3357 -0.2194
 6837SOL    HW131970   0.847   0.749   1.000 -0.1891 -0.2621  0.1102
 6837SOL    HW231971   0.910   0.856   1.067  0.3349 -0.0087  1.8826
 6838SOL     OW31972   2.925   2.307   2.459 -0.0548 -0.1263 -0.0366
 6838SOL    HW131973   2.915   2.362   2.381 -0.3922  0.7849  0.6484
 6838SOL    HW231974   2.872   2.230   2.438 -0.7337  0.2666  0.2549
 6839SOL     OW31975   2.894   3.278   5.088 -0.7701  0.0894  0.4126
 6839SOL    HW131976   2.903   3.365   5.050 -1.3298 -0.0152  0.0448
 6839SOL    HW231977   2.900   3.301   5.181  1.7047  0.6242  0.1121
 6840SOL     OW31978   4.135   3.965  14.412 -0.5421  0.3019  0.8567
 6840SOL    HW131979   4.106   3.890  14.464 -0.3579  0.1936  0.8020
 6840SOL    HW231980   4.093   4.043  14.448  0.0787  1.3203 -0.6297
 6841SOL     OW31981   4.202   4.166   4.779  0.4927  0.1495 -0.0143
 6841SOL    HW131982   4.247   4.086   4.805 -0.8108 -0.5127  0.1925
 6841SOL    HW231983   4.128   4.183   4.837  1.4323  1.7265  0.7281
 6842SOL     OW31984   3.312   3.395   6.722 -0.2648  0.5344  0.2253
 6842SOL    HW131985   3.272   3.355   6.799 -0.8671  0.2848 -0.2185
 6842SOL    HW231986   3.233   3.381   6.671 -0.6891 -1.7824  1.5202
 6843SOL     OW31987   1.728   1.169   1.752 -0.0002 -0.0568 -0.2041
 6843SOL    HW131988   1.777   1.162   1.833  1.1839  0.2919 -0.8923
 6843SOL    HW231989   1.756   1.255   1.721  0.8806  0.4091  1.9375
 6844SOL     OW31990   3.496   0.369  17.701  0.9335 -0.6302 -0.0845
 6844SOL    HW131991   3.580   0.323  17.689  1.3075 -0.1453  0.6290
 6844SOL    HW231992   3.470   0.322   0.074 -0.1381  2.5314  1.4272
 6845SOL     OW31993   0.645   0.033  11.533  0.0323  0.5256  0.1035
 6845SOL    HW131994   0.553   0.053  11.516 -0.6532 -1.1515  1.7598
 6845SOL    HW231995   0.662   4.716  11.449  1.1564  0.6277  0.2844
 6846SOL     OW31996   3.210   0.784   6.211  0.0530 -0.1818  0.2713
 6846SOL    HW131997   3.254   0.782   6.297  2.0912 -0.7753 -0.7880
 6846SOL    HW231998   3.287   0.810   6.160 -0.3487 -0.1057 -0.2910
 6847SOL     OW31999   2.695   2.286  11.918 -0.3644 -0.2135 -0.0854
 6847SOL    HW132000   2.637   2.286  11.842 -2.5056 -0.6019  1.5477
 6847SOL    HW232001   2.735   2.200  11.907  0.2406  0.0239  0.3132
 6848SOL     OW32002   2.077   3.883   8.426  0.2130 -0.2237  0.4313
 6848SOL    HW132003   2.084   3.978   8.438  0.4390 -0.1859 -0.0065
 6848SOL    HW232004   2.049   3.843   8.509  1.8494 -1.0751  0.5760
 6849SOL     OW32005   1.241   2.102   8.816 -0.3428 -0.2959  0.1094
 6849SOL    HW132006   1.329   2.065   8.826  0.1149  0.0928 -2.3323
 6849SOL    HW232007   1.261   2.192   8.791  0.9570 -0.2346  1.4391
 6850SOL     OW32008   1.215   1.892  17.162  0.3427  0.1683 -0.3507
 6850SOL    HW132009   1.154   1.909  17.234 -1.0353 -0.6279 -1.3369
 6850SOL    HW232010   1.302   1.894  17.203  1.5159 -0.4208 -2.8030
 6851SOL     OW32011   2.009   2.132   0.914 -0.1144 -0.3923 -0.3783
 6851SOL    HW132012   1.956   2.173   0.983  2.2514  0.3409  1.0171
 6851SOL    HW232013   2.085   2.190   0.914  0.0142 -0.5735 -1.6319
 6852SOL     OW32014   4.681   0.059   2.946  0.4914 -0.6428 -0.5540
 6852SOL    HW132015   4.687   0.013   2.862  2.9867  0.0164 -0.7506
 6852SOL    HW232016   4.708   0.150   2.930  0.2846 -0.3419  0.7726
 6853SOL     OW32017   4.533   3.836   0.667  0.0105  0.0619  0.4022
 6853SOL    HW132018   4.537   3.743   0.690 -0.0804 -0.1997 -0.6210
 6853SOL    HW232019   4.611   3.841   0.611  1.2255  1.2454  2.2315
 6854SOL     OW32020   4.181   2.991   8.211  0.2272 -0.4440 -0.1449
 6854SOL    HW132021   4.103   2.997   8.265  1.5462 -1.7859  1.9315
 6854SOL    HW232022   4.255   3.002   8.270  0.6234  1.9883 -1.1010
 6855SOL     OW32023   4.197   4.573  17.136 -0.2778  0.8118 -0.3064
 6855SOL    HW132024   4.130   4.550  17.072 -0.3389 -0.0699  0.0692
 6855SOL    HW232025   4.143   4.537  17.206  2.7652 -1.2868  0.9311
 6856SOL     OW32026   0.294   2.568  16.380  0.2082  0.0384  0.1131
 6856SOL    HW132027   0.271   2.597  16.469 -0.1161 -1.5260  0.5363
 6856SOL    HW232028   0.346   2.646  16.360 -1.4024  1.0791  0.0341
 6857SOL     OW32029   3.249   4.056   6.293 -0.1450 -0.4206  0.3967
 6857SOL    HW132030   3.178   4.070   6.356  1.4246  0.5191  1.9726
 6857SOL    HW232031   3.313   4.004   6.341 -0.2061 -0.0911  0.8401
 6858SOL     OW32032   3.230   3.917   3.188 -0.4546 -0.0385 -0.0881
 6858SOL    HW132033   3.195   3.902   3.100  0.2858 -0.3329 -0.3308
 6858SOL    HW232034   3.150   3.943   3.235 -1.3825  0.9275 -2.1960
 6859SOL     OW32035   3.014   1.786  16.273 -0.6312  0.0750 -0.4585
 6859SOL    HW132036   3.007   1.776  16.368 -0.3248 -0.8760 -0.5404
 6859SOL    HW232037   3.066   1.866  16.275  0.9019 -1.0005  2.1933
 6860SOL     OW32038   2.499   3.821  13.305 -0.7663  0.1723 -0.2455
 6860SOL    HW132039   2.454   3.905  13.292 -2.4655 -0.7786 -0.5478
 6860SOL    HW232040   2.509   3.796  13.214 -1.3034  0.6975 -0.4495
 6861SOL     OW32041   3.929   3.327  11.435 -0.1106  0.2732  0.0023
 6861SOL    HW132042   3.946   3.296  11.524  0.1769 -2.2481 -0.9322
 6861SOL    HW232043   4.018   3.308  11.406 -0.5993 -2.6807  0.4984
 6862SOL     OW32044   4.019   0.407   7.497 -0.4588 -0.6147  0.7301
 6862SOL    HW132045   4.019   0.485   7.554  4.1401  0.4394 -0.7323
 6862SOL    HW232046   3.946   0.349   7.520 -0.1366 -1.7796 -1.2002
 6863SOL     OW32047   2.588   0.857  11.025 -0.0645  0.5775  0.7186
 6863SOL    HW132048   2.683   0.842  11.029 -0.3173 -1.3464 -0.5472
 6863SOL    HW232049   2.587   0.943  10.984  0.8675  0.7775  1.0965
 6864SOL     OW32050   0.401   3.734   2.767  0.2897 -0.0551  0.0897
 6864SOL    HW132051   0.492   3.715   2.742  0.6692 -0.2254  1.6065
 6864SOL    HW232052   0.359   3.735   2.681 -0.4172 -3.2497  0.3882
 6865SOL     OW32053   0.102   4.709   1.978 -0.3472  0.0392  0.2770
 6865SOL    HW132054   0.012   4.711   2.011 -1.2687 -0.5791 -2.2173
 6865SOL    HW232055   0.092   4.691   1.884  0.3175 -1.0050  0.3999
 6866SOL     OW32056   4.348   2.074   7.032  0.0446  0.4970 -0.3998
 6866SOL    HW132057   4.409   2.123   7.086 -1.4266  1.0880  0.7106
 6866SOL    HW232058   4.404   1.998   7.016 -1.7874 -1.0928  0.7657
 6867SOL     OW32059   0.550   4.340   0.960 -0.4057  0.0777 -0.2397
 6867SOL    HW132060   0.569   4.249   0.938 -1.8040 -0.3011  0.0846
 6867SOL    HW232061   0.629   4.376   0.920  1.2502 -2.2469  0.9114
 6868SOL     OW32062   4.207   0.493   3.733  0.1623  0.0782 -0.2339
 6868SOL    HW132063   4.276   0.529   3.789 -1.2527  4.2691 -1.1518
 6868SOL    HW232064   4.262   0.453   3.665 -0.2128 -0.2259 -0.3575
 6869SOL     OW32065   0.576   1.033   2.559 -0.4594  0.5549  0.3464
 6869SOL    HW132066   0.558   1.106   2.617  0.7372 -0.9170  2.5791
 6869SOL    HW232067   0.493   0.986   2.570  0.0058  0.1010  1.9211
 6870SOL     OW32068   0.709   1.975  12.737 -0.4539  0.2504  0.9015
 6870SOL    HW132069   0.619   2.003  12.755 -0.5678  1.3380 -1.3373
 6870SOL    HW232070   0.683   1.892  12.699  0.6570  0.3491 -0.0519
 6871SOL     OW32071   3.759   4.632   6.049 -0.0281  0.4289 -0.0287
 6871SOL    HW132072   3.814   4.573   6.099 -1.8739 -3.2090 -2.2523
 6871SOL    HW232073   3.691   4.664   6.109  1.7304  1.8945  1.1558
 6872SOL     OW32074   1.200   2.385  13.257  0.0271 -0.6821 -0.3530
 6872SOL    HW132075   1.120   2.397  13.205  1.0156 -1.3735 -1.9997
 6872SOL    HW232076   1.270   2.368  13.195 -0.2861 -1.3179 -0.5283
 6873SOL     OW32077   1.343   2.369   6.616 -0.0176  0.1344 -0.3336
 6873SOL    HW132078   1.353   2.275   6.625  1.4379  0.4149  0.9565
 6873SOL    HW232079   1.395   2.374   6.536  1.9692 -1.0653  0.8927
 6874SOL     OW32080   3.586   2.438   9.367  0.3059  0.0489  0.7784
 6874SOL    HW132081   3.563   2.483   9.448  0.4679  0.6032  0.5128
 6874SOL    HW232082   3.678   2.461   9.356  0.1841 -0.4513 -1.3753
 6875SOL     OW32083   0.386   1.508   7.579  0.3835  0.2455  0.8511
 6875SOL    HW132084   0.311   1.455   7.606 -0.8461  2.3985  1.6839
 6875SOL    HW232085   0.410   1.464   7.498  1.9836 -1.3605  2.1998
 6876SOL     OW32086   3.415   4.582  17.174 -0.4456 -0.4369  0.4576
 6876SOL    HW132087   3.507   4.606  17.164 -0.6105 -0.4286 -0.9606
 6876SOL    HW232088   3.384   4.649  17.236  0.1667  0.0886  0.2066
 6877SOL     OW32089   0.482   0.368   0.473 -0.0464  0.2672  0.0462
 6877SOL    HW132090   0.469   0.389   0.381  0.7254  0.2920 -0.0578
 6877SOL    HW232091   0.449   0.278   0.469  0.0309  0.3054 -1.3115
 6878SOL     OW32092   0.828   1.614   9.557 -0.3644  0.4350  0.0806
 6878SOL    HW132093   0.874   1.694   9.530 -0.4870  0.7367  0.7701
 6878SOL    HW232094   0.882   1.590   9.632  1.8238 -0.1004 -1.6483
 6879SOL     OW32095   3.632   2.369   2.330 -0.3423 -0.8449  0.3201
 6879SOL    HW132096   3.624   2.351   2.237  1.6107  0.7771 -0.1510
 6879SOL    HW232097   3.657   2.462   2.326 -3.4568 -0.1185 -2.3003
 6880SOL     OW32098   4.425   0.427   8.086  0.5166 -0.7781 -0.3493
 6880SOL    HW132099   4.434   0.403   8.178 -1.4957 -0.4954 -0.0737
 6880SOL    HW232100   4.517   0.436   8.060  1.0479 -1.9020  1.1788
 6881SOL     OW32101   3.271   3.156   8.556  0.3017  0.3151  0.4277
 6881SOL    HW132102   3.181   3.150   8.525  1.4927  1.3007 -3.2042
 6881SOL    HW232103   3.317   3.189   8.479  0.6284 -5.0463 -1.6766
 6882SOL     OW32104   4.043   4.007  12.809  1.0918  0.3082 -0.2422
 6882SOL    HW132105   4.100   4.005  12.886 -2.1027  0.2826  2.1121
 6882SOL    HW232106   3.962   3.990  12.856 -0.5260  1.7886 -2.5168
 6883SOL     OW32107   0.713   3.160   9.421 -0.1145  0.1472  0.2641
 6883SOL    HW132108   0.754   3.117   9.346  0.0587 -1.3631  1.2318
 6883SOL    HW232109   0.788   3.220   9.428  0.9406 -1.1759  0.2955
 6884SOL     OW32110   2.236   3.335   1.532 -0.2842 -0.3888 -0.9378
 6884SOL    HW132111   2.204   3.372   1.450 -1.7541  0.7771  0.1394
 6884SOL    HW232112   2.323   3.307   1.504  0.8002  0.8575  1.1659
 6885SOL     OW32113   4.188   4.575  10.111 -0.5099 -0.0639  0.2017
 6885SOL    HW132114   4.232   4.647  10.066  0.3237  0.1343  1.3433
 6885SOL    HW232115   4.103   4.607  10.083 -0.0642 -0.2085 -1.3441
 6886SOL     OW32116   2.110   3.385  13.965 -0.0148  0.7580 -0.1419
 6886SOL    HW132117   2.190   3.436  13.974 -1.1608  2.3435  1.2938
 6886SOL    HW232118   2.145   3.319  13.906  1.2657  0.4735  0.9467
 6887SOL     OW32119   2.977   1.954  16.610 -0.1011  0.1665 -0.4145
 6887SOL    HW132120   3.026   1.995  16.539 -0.1689  0.7007 -0.1503
 6887SOL    HW232121   3.030   1.874  16.616 -1.8027 -0.7903  2.1162
 6888SOL     OW32122   2.908   3.715   7.411  0.4115  0.0737  0.1240
 6888SOL    HW132123   2.894   3.718   7.316 -0.9735  1.4443  0.3658
 6888SOL    HW232124   2.919   3.810   7.423 -1.9261  0.2803  0.6437
 6889SOL     OW32125   4.197   3.053  16.119  0.0664 -0.4902  0.1666
 6889SOL    HW132126   4.143   3.109  16.064 -0.5655  0.6967  2.0016
 6889SOL    HW232127   4.221   3.108  16.193  0.6514 -1.1787  0.4961
 6890SOL     OW32128   0.789   2.142  10.922  0.4062 -0.1329  0.0761
 6890SOL    HW132129   0.872   2.144  10.874 -0.6852 -0.8146 -1.8451
 6890SOL    HW232130   0.761   2.052  10.906  0.6027 -0.1481 -0.1753
 6891SOL     OW32131   4.287   2.320   1.569  0.0967  0.2947 -0.0273
 6891SOL    HW132132   4.371   2.355   1.541  0.1899 -0.3808 -0.5768
 6891SOL    HW232133   4.239   2.391   1.612  1.8496  1.3406  0.1843
 6892SOL     OW32134   1.957   2.282   2.354 -0.3198 -0.2505  0.2802
 6892SOL    HW132135   1.870   2.265   2.317 -0.3331 -0.6630  0.4964
 6892SOL    HW232136   2.014   2.326   2.292  0.9937  1.1244  2.4389
 6893SOL     OW32137   2.146   1.156   8.970  0.2231 -0.2548 -0.2455
 6893SOL    HW132138   2.209   1.164   9.041  0.7223 -0.7204 -0.6382
 6893SOL    HW232139   2.087   1.094   9.013 -0.7510  0.7572 -0.1265
 6894SOL     OW32140   3.877   4.471  10.258 -0.0402  0.1736 -0.5173
 6894SOL    HW132141   3.896   4.519  10.338  0.8644  0.9517 -1.1904
 6894SOL    HW232142   3.918   4.532  10.196  2.1051 -0.9477 -0.2055
 6895SOL     OW32143   2.083   4.633   1.375 -0.1568 -0.1585  0.5949
 6895SOL    HW132144   2.032   4.622   1.295  0.0539  2.3066  0.1151
 6895SOL    HW232145   2.142   4.560   1.355  0.5032  0.1568  1.3856
 6896SOL     OW32146   2.460   1.314   8.764  0.5290 -0.1722 -0.4354
 6896SOL    HW132147   2.451   1.315   8.859 -0.6942 -1.9479 -0.5349
 6896SOL    HW232148   2.391   1.254   8.737  1.1040 -1.4419  0.9564
 6897SOL     OW32149   3.813   3.897  12.097 -0.2759  0.1462 -0.2894
 6897SOL    HW132150   3.827   3.989  12.073  0.5739 -0.1813 -1.0486
 6897SOL    HW232151   3.859   3.888  12.181  2.4327 -0.7765 -1.8904
 6898SOL     OW32152   0.790   2.281   8.285 -0.2368  0.4049  0.1366
 6898SOL    HW132153   0.866   2.339   8.295 -0.0124 -0.2005  1.9889
 6898SOL    HW232154   0.797   2.251   8.195  0.0554  3.4307 -0.8324
 6899SOL     OW32155   1.282   4.473   1.485  0.2154  0.1401  0.5278
 6899SOL    HW132156   1.200   4.437   1.518  0.0143 -0.0676 -0.1985
 6899SOL    HW232157   1.259   4.505   1.398 -0.3804  1.6930  1.2632
 6900SOL     OW32158   0.443   4.505   3.375 -0.1979 -0.3965  0.2860
 6900SOL    HW132159   0.458   4.454   3.296 -0.2529 -0.0807  0.0743
 6900SOL    HW232160   0.385   4.578   3.353 -0.2725 -0.2281  1.0205
 6901SOL     OW32161   4.213   4.318   2.127  0.2717 -0.5151  0.0011
 6901SOL    HW132162   4.182   4.305   2.217 -2.5355 -0.0869 -0.8800
 6901SOL    HW232163   4.148   4.264   2.082  0.4860 -1.2125  0.5235
 6902SOL     OW32164   2.654   2.590   6.288  0.1976  0.2988 -0.0784
 6902SOL    HW132165   2.604   2.595   6.207  0.8709  1.4858 -0.4252
 6902SOL    HW232166   2.599   2.531   6.340  0.7958 -2.4131 -2.5667
 6903SOL     OW32167   1.826   0.793   4.339  0.2192 -0.0171  0.0747
 6903SOL    HW132168   1.801   0.879   4.373 -0.4308  0.0547 -0.5869
 6903SOL    HW232169   1.920   0.806   4.335  0.3864 -1.3783 -0.4146
 6904SOL     OW32170   4.099   4.717   5.647 -0.0376  0.3692 -0.4548
 6904SOL    HW132171   4.034   0.014   5.713 -0.4730  2.4469 -1.6228
 6904SOL    HW232172   4.164   4.672   5.702 -0.7228  1.1856  1.0244
 6905SOL     OW32173   1.367   0.257  11.615  0.5408 -0.2172 -0.0042
 6905SOL    HW132174   1.410   0.227  11.695  1.2259 -1.4102 -0.8249
 6905SOL    HW232175   1.429   0.230  11.548 -0.1564 -0.4972 -0.5403
 6906SOL     OW32176   0.938   0.901   4.565  0.0326 -0.5548 -0.7552
 6906SOL    HW132177   0.977   0.883   4.650 -0.5473 -1.3836 -0.6619
 6906SOL    HW232178   1.015   0.890   4.509  0.8496  1.6408 -0.0641
 6907SOL     OW32179   1.169   3.392   5.154 -0.4977  0.1557  0.1189
 6907SOL    HW132180   1.250   3.351   5.123  1.0564  1.0590  3.0210
 6907SOL    HW232181   1.208   3.473   5.186  0.1110 -0.4453  0.9180
 6908SOL     OW32182   3.078   1.129  11.285  0.4858  0.4678 -0.0446
 6908SOL    HW132183   3.038   1.212  11.259  1.3084  1.2648  1.2060
 6908SOL    HW232184   3.151   1.162  11.338 -0.7252  1.5787  0.9315
 6909SOL     OW32185   2.916   3.284   8.723  0.0712 -0.7742  0.4910
 6909SOL    HW132186   2.843   3.321   8.674  2.3119  1.0512 -1.4562
 6909SOL    HW232187   2.963   3.241   8.652 -0.7956 -1.8269  0.5557
 6910SOL     OW32188   0.714   0.337  13.182 -0.2464  0.1378  0.1527
 6910SOL    HW132189   0.686   0.273  13.116  0.0740 -0.5223  0.6528
 6910SOL    HW232190   0.729   0.413  13.126 -1.1427  1.3688  1.5746
 6911SOL     OW32191   1.985   1.345   2.189 -0.1683  0.0082 -0.2311
 6911SOL    HW132192   2.007   1.289   2.264 -0.3297  0.7468  0.3723
 6911SOL    HW232193   1.907   1.391   2.218  0.3477  1.1017 -0.5664
 6912SOL     OW32194   4.413   2.426  11.345 -0.5742 -0.1220 -0.3596
 6912SOL    HW132195   4.321   2.404  11.329 -0.4935 -1.0305  0.4261
 6912SOL    HW232196   4.447   2.422  11.256 -0.5811 -1.5075 -0.3059
 6913SOL     OW32197   2.499   0.467   1.817  0.4662 -0.3093  0.1841
 6913SOL    HW132198   2.409   0.498   1.808  1.2103  1.3661 -1.4090
 6913SOL    HW232199   2.543   0.551   1.832 -1.5830  0.3316  2.5847
 6914SOL     OW32200   0.255   2.547   7.322 -0.3955  0.4871 -0.0596
 6914SOL    HW132201   0.213   2.461   7.329  0.1055  0.3254  1.0737
 6914SOL    HW232202   0.199   2.589   7.257  1.8518  1.5304 -1.3225
 6915SOL     OW32203   1.336   0.995   0.066  0.1512  0.5106  0.0420
 6915SOL    HW132204   1.316   1.009  17.679  1.7760 -1.7787 -0.6570
 6915SOL    HW232205   1.273   0.931   0.097  1.4612 -0.7706  0.0590
 6916SOL     OW32206   1.733   2.458   3.408  0.0626  0.3307 -0.4988
 6916SOL    HW132207   1.727   2.493   3.319  1.3179  2.5153  0.2710
 6916SOL    HW232208   1.756   2.539   3.454  2.8202  1.2077 -3.4570
 6917SOL     OW32209   3.574   1.175   8.119  0.2122  0.0408  0.0716
 6917SOL    HW132210   3.628   1.222   8.056  0.4218 -1.9010 -1.2009
 6917SOL    HW232211   3.544   1.246   8.176 -1.9056 -1.0799  0.3228
 6918SOL     OW32212   2.657   0.326   8.802 -0.4666 -0.5962  0.0124
 6918SOL    HW132213   2.701   0.344   8.885 -0.7017 -2.2656  0.4975
 6918SOL    HW232214   2.566   0.311   8.827 -0.5673 -2.6164 -1.5443
 6919SOL     OW32215   3.774   1.385   5.633  0.3187 -0.0294 -0.3455
 6919SOL    HW132216   3.863   1.416   5.650  0.5824 -0.1266 -1.5481
 6919SOL    HW232217   3.796   1.292   5.630 -0.1765 -0.1371 -0.5688
 6920SOL     OW32218   1.859   0.939   3.967  0.4427  0.4791 -0.5980
 6920SOL    HW132219   1.863   0.843   3.971 -2.1642  0.4593  1.9202
 6920SOL    HW232220   1.792   0.954   3.900 -0.9297  0.4973  0.7479
 6921SOL     OW32221   3.412   3.939   6.716  0.1314 -0.4218 -0.0284
 6921SOL    HW132222   3.486   3.905   6.767  0.7745 -1.3384 -1.5763
 6921SOL    HW232223   3.344   3.931   6.783 -1.0744  0.8634 -1.1039
 6922SOL     OW32224   3.380   1.721   6.369  0.0422 -0.3796 -0.7842
 6922SOL    HW132225   3.361   1.730   6.276 -3.3069  3.8841  0.3303
 6922SOL    HW232226   3.428   1.638   6.373 -0.6833 -0.7322  0.8604
 6923SOL     OW32227   1.496   3.935   5.688  0.1706  0.0073 -0.9309
 6923SOL    HW132228   1.459   3.853   5.721  1.6337 -0.0030  0.6758
 6923SOL    HW232229   1.564   3.906   5.628 -0.3117 -0.3640 -1.2972
 6924SOL     OW32230   4.597   2.094   5.595  0.3539  0.2356 -0.1136
 6924SOL    HW132231   4.593   2.155   5.521 -0.5195  1.4928  0.9542
 6924SOL    HW232232   4.639   2.018   5.555  1.5063  0.3309  0.9409
 6925SOL     OW32233   3.195   4.224   8.092 -0.0181  0.1653  0.1093
 6925SOL    HW132234   3.141   4.214   8.171 -0.7731  0.8536 -0.3224
 6925SOL    HW232235   3.231   4.139   8.071 -0.2940  0.3010 -0.8971
 6926SOL     OW32236   3.867   0.671   5.348  0.4112  0.2997 -0.0799
 6926SOL    HW132237   3.892   0.607   5.415 -3.1398  0.2724  1.2012
 6926SOL    HW232238   3.803   0.622   5.296  0.3516  0.4411 -0.1377
 6927SOL     OW32239   0.458   4.124   9.931  0.6011  0.3374  0.1385
 6927SOL    HW132240   0.503   4.042   9.912  0.5168  0.0608  1.1121
 6927SOL    HW232241   0.390   4.122   9.864 -0.3617 -2.8744  1.1925
 6928SOL     OW32242   1.289   0.675  13.284 -0.1578 -0.3696 -0.1224
 6928SOL    HW132243   1.266   0.589  13.249  1.0398 -0.1360 -1.4630
 6928SOL    HW232244   1.309   0.661  13.377  0.2976 -0.8152 -0.2898
 6929SOL     OW32245   3.110   4.182  12.776 -0.5684 -0.7527  0.0382
 6929SOL    HW132246   3.167   4.110  12.748  1.8548  0.7626  1.0593
 6929SOL    HW232247   3.038   4.137  12.819 -0.8916 -0.8910 -0.6578
 6930SOL     OW32248   1.337   0.619   9.886  0.6824 -0.0103 -0.5952
 6930SOL    HW132249   1.370   0.586   9.803  0.4341 -1.5087 -0.0938
 6930SOL    HW232250   1.295   0.702   9.863 -0.2632 -0.0247  1.0524
 6931SOL     OW32251   4.532   1.823   6.184 -0.5153 -0.4157 -0.1935
 6931SOL    HW132252   4.618   1.859   6.159  0.1032 -2.4419 -1.0289
 6931SOL    HW232253   4.467   1.856   6.123 -0.8563 -1.8377 -0.5948
 6932SOL     OW32254   3.174   4.480  10.351 -0.0577 -0.1175  0.1837
 6932SOL    HW132255   3.201   4.458  10.262  0.9639  2.3689 -0.1165
 6932SOL    HW232256   3.165   4.576  10.355  0.8753 -0.1278  2.7030
 6933SOL     OW32257   4.557   3.730   7.437  0.2482 -0.0740  0.1204
 6933SOL    HW132258   4.572   3.808   7.385 -1.0421  0.8963  1.2081
 6933SOL    HW232259   4.462   3.737   7.451 -0.1107 -0.2902 -2.1711
 6934SOL     OW32260   2.156   4.656   2.667 -0.0812 -0.8373  0.7698
 6934SOL    HW132261   2.232   4.677   2.721 -0.3570  0.0952  0.7939
 6934SOL    HW232262   2.132   0.012   2.624  1.2310 -0.6363  0.4340
 6935SOL     OW32263   4.599   1.506   4.367 -0.0023 -0.2346 -0.3628
 6935SOL    HW132264   4.588   1.537   4.277 -0.5596  1.6682  0.3672
 6935SOL    HW232265   4.524   1.539   4.417  0.7001  1.5458 -0.4749
 6936SOL     OW32266   3.708   1.605   6.948 -0.7788  0.3029  0.3830
 6936SOL    HW132267   3.795   1.593   6.909 -0.3502  1.3245  1.0415
 6936SOL    HW232268   3.651   1.593   6.872 -0.0752  0.0598 -0.1134
 6937SOL     OW32269   1.810   0.947   9.955 -0.0618  0.1566  0.0018
 6937SOL    HW132270   1.872   1.016   9.936  0.1714  0.5078  2.0944
 6937SOL    HW232271   1.801   0.952  10.050  1.2954 -1.8607  0.2528
 6938SOL     OW32272   1.327   3.631   9.571 -0.5265 -0.0507  0.0524
 6938SOL    HW132273   1.379   3.588   9.504 -0.7976 -2.4607  1.4000
 6938SOL    HW232274   1.287   3.554   9.610  0.1927 -0.1065  0.6833
 6939SOL     OW32275   4.702   2.395  10.699  0.2416  0.1792  0.2574
 6939SOL    HW132276   4.606   2.389  10.696  0.2781  0.2181 -1.2491
 6939SOL    HW232277   4.714   2.478  10.744 -1.2097  0.6480 -0.1836
 6940SOL     OW32278   1.457   2.505   0.690 -0.7305  0.9400  0.0893
 6940SOL    HW132279   1.454   2.578   0.628  1.5740  1.4441  0.5643
 6940SOL    HW232280   1.533   2.529   0.743  0.1898  1.3506 -1.4239
 6941SOL     OW32281   4.650   0.118   3.840 -0.0235 -0.2187  0.4446
 6941SOL    HW132282   4.555   0.116   3.853 -0.5612  1.2293 -3.3186
 6941SOL    HW232283   4.685   0.118   3.929 -0.9759  0.5186  0.8214
 6942SOL     OW32284   0.096   1.889   6.159 -0.5348  0.9208  0.7617
 6942SOL    HW132285   0.146   1.922   6.084  0.9204 -4.8714 -0.8408
 6942SOL    HW232286   0.097   1.796   6.136 -3.4951  0.8453  0.9970
 6943SOL     OW32287   4.570   2.449   2.835  0.9639 -0.5588 -0.0097
 6943SOL    HW132288   4.551   2.446   2.929  0.1477 -1.3043 -0.2035
 6943SOL    HW232289   4.511   2.381   2.803  0.2443  0.6444 -1.2426
 6944SOL     OW32290   0.043   2.814  13.914  0.4532 -0.1547  0.3657
 6944SOL    HW132291   0.035   2.741  13.976  0.2538  0.3459  0.9256
 6944SOL    HW232292   4.702   2.780  13.854 -0.9391  0.5368  1.5212
 6945SOL     OW32293   2.177   3.561   3.516  0.1794 -0.4913  0.0560
 6945SOL    HW132294   2.232   3.487   3.542 -0.8566 -0.7455  1.5066
 6945SOL    HW232295   2.235   3.636   3.531 -1.9080  0.7994  1.5645
 6946SOL     OW32296   2.088   2.719  15.158  0.5061 -0.1357  0.2476
 6946SOL    HW132297   2.036   2.745  15.082  1.8389 -0.6422 -0.8343
 6946SOL    HW232298   2.146   2.793  15.177 -0.5327  0.6184  0.4751
 6947SOL     OW32299   3.834   2.520   8.625 -0.1983 -0.8614 -0.1680
 6947SOL    HW132300   3.793   2.502   8.541 -0.9531 -3.0230  0.6729
 6947SOL    HW232301   3.903   2.586   8.620 -0.4208 -0.7138 -1.3813
 6948SOL     OW32302   3.758   4.356   2.536 -0.1543  0.1649 -0.1216
 6948SOL    HW132303   3.759   4.296   2.461  1.9656 -1.1665  0.9571
 6948SOL    HW232304   3.668   4.347   2.567 -0.2725 -1.7276 -0.9833
 6949SOL     OW32305   4.546   0.543   5.107  0.3395 -0.2309 -0.2189
 6949SOL    HW132306   4.571   0.452   5.094 -2.0884 -0.6987 -1.5950
 6949SOL    HW232307   4.465   0.547   5.056  0.4591  0.2447 -0.3698
 6950SOL     OW32308   4.458   3.040   6.783  0.4212 -0.2486 -0.0891
 6950SOL    HW132309   4.378   3.027   6.834 -0.0255 -0.5696 -0.8805
 6950SOL    HW232310   4.482   2.949   6.763  2.1961 -0.0640  1.1445
 6951SOL     OW32311   1.606   4.677   8.899 -0.3677 -0.0717  0.3943
 6951SOL    HW132312   1.573   4.647   8.984  0.3493  0.8902  1.0137
 6951SOL    HW232313   1.542   4.642   8.837 -2.2564  0.7139  1.9094
 6952SOL     OW32314   2.032   4.385  10.510  0.6312 -0.2338  0.0154
 6952SOL    HW132315   2.108   4.444  10.517  2.7278 -2.7634 -1.5935
 6952SOL    HW232316   1.968   4.430  10.567  0.1033 -1.3560  0.2994
 6953SOL     OW32317   2.219   0.295   7.852  0.3623  0.2538 -0.5540
 6953SOL    HW132318   2.277   0.236   7.900  0.6829  1.5533  0.6806
 6953SOL    HW232319   2.267   0.316   7.773  2.5143 -0.1593  0.6521
 6954SOL     OW32320   0.738   1.157   4.398  0.1191  0.0725  0.6394
 6954SOL    HW132321   0.816   1.210   4.381 -1.3973  1.6244 -1.3940
 6954SOL    HW232322   0.716   1.173   4.489  2.3584  0.9299  1.0184
 6955SOL     OW32323   0.919   1.996   4.938  0.4776  0.0243  0.1384
 6955SOL    HW132324   0.973   2.023   5.013 -1.4198 -0.4628  1.6865
 6955SOL    HW232325   0.933   1.901   4.939  0.7986  0.0730  1.4491
 6956SOL     OW32326   4.232   2.759   3.574 -0.2157  0.3866 -0.0341
 6956SOL    HW132327   4.167   2.694   3.548  0.8137 -0.9547  0.7516
 6956SOL    HW232328   4.176   2.793   3.644  0.2456 -1.0601  1.0459
 6957SOL     OW32329   2.314   0.847  10.786  0.3009  0.3155  0.1376
 6957SOL    HW132330   2.399   0.891  10.778  0.9570 -0.0410  5.1433
 6957SOL    HW232331   2.270   0.911  10.841 -1.1859 -2.3216  2.0118
 6958SOL     OW32332   1.725   2.424   6.069  0.4436 -0.1622  0.3816
 6958SOL    HW132333   1.756   2.486   6.003 -1.1342 -1.1160 -1.2570
 6958SOL    HW232334   1.804   2.407   6.120  0.8242 -0.3001 -0.2610
 6959SOL     OW32335   3.462   2.438   8.419 -0.7660  0.5844  0.5034
 6959SOL    HW132336   3.500   2.382   8.487  0.2531 -0.2830 -0.7609
 6959SOL    HW232337   3.371   2.421   8.444 -0.6312 -2.6301 -1.1272
 6960SOL     OW32338   0.059   3.758   2.225  0.0882 -0.3119 -0.1113
 6960SOL    HW132339   0.004   3.745   2.148  1.7637  1.4931 -1.5985
 6960SOL    HW232340   0.134   3.699   2.210 -0.7063 -1.1671 -0.7472
 6961SOL     OW32341   3.352   2.671   8.657  0.6467  0.2381  0.7101
 6961SOL    HW132342   3.446   2.670   8.675  0.9930 -0.0241 -1.1641
 6961SOL    HW232343   3.308   2.601   8.707 -0.6744  0.1057 -0.6269
 6962SOL     OW32344   3.011   2.555   1.955  0.0333  0.7110  0.4877
 6962SOL    HW132345   2.919   2.566   1.930  0.4076  2.1881 -0.2713
 6962SOL    HW232346   3.030   2.462   1.947  0.7643  0.7449  1.8624
 6963SOL     OW32347   1.901   3.639   3.831 -0.7419 -0.4297  0.1806
 6963SOL    HW132348   1.953   3.579   3.883 -1.2553  0.6576  1.9374
 6963SOL    HW232349   1.839   3.585   3.782 -0.6640  0.5045 -0.9670
 6964SOL     OW32350   2.994   4.120   6.683 -0.2567  0.3353 -0.4029
 6964SOL    HW132351   3.063   4.179   6.714 -0.5653  1.1029 -1.1931
 6964SOL    HW232352   3.036   4.035   6.699 -1.5279 -0.1612  0.2813
 6965SOL     OW32353   4.078   3.476  13.630 -0.5336  0.0029 -0.3168
 6965SOL    HW132354   3.987   3.448  13.636 -0.3344 -0.9849 -1.9005
 6965SOL    HW232355   4.133   3.406  13.665  0.2776  0.5740 -0.4307
 6966SOL     OW32356   2.765   1.129  11.046  0.3350  0.0880 -0.0160
 6966SOL    HW132357   2.832   1.128  10.978 -0.1993 -0.0421 -0.5513
 6966SOL    HW232358   2.708   1.203  11.023  0.7152  0.6851  0.9583
 6967SOL     OW32359   3.375   0.897   6.786 -0.0051 -0.0377 -0.1423
 6967SOL    HW132360   3.330   0.846   6.854 -0.4746 -0.4317 -0.7463
 6967SOL    HW232361   3.449   0.840   6.762  0.2595  0.0047  0.5800
 6968SOL     OW32362   2.426   1.882  14.171 -0.4670  0.4037  0.1183
 6968SOL    HW132363   2.517   1.901  14.148 -1.3005  0.7968 -2.8676
 6968SOL    HW232364   2.380   1.854  14.093  1.2401 -1.5675 -0.1861
 6969SOL     OW32365   4.200   3.926   6.179 -0.0501  0.1477  0.0982
 6969SOL    HW132366   4.132   3.859   6.172  0.1666 -0.1793  1.0854
 6969SOL    HW232367   4.260   3.878   6.236 -0.9388  0.6624  1.4771
 6970SOL     OW32368   2.737   4.441   6.275 -0.2258  0.2810 -0.1787
 6970SOL    HW132369   2.677   4.387   6.327  0.9742 -0.0855  0.8145
 6970SOL    HW232370   2.726   4.532   6.300 -2.0408 -0.0941  0.4490
 6971SOL     OW32371   3.564   1.665   8.400 -0.0793  0.3612  0.2169
 6971SOL    HW132372   3.633   1.625   8.452  0.9682 -0.0832 -1.4986
 6971SOL    HW232373   3.496   1.669   8.467 -0.2935 -1.2710  0.1035
 6972SOL     OW32374   1.522   2.882   7.935  0.5577  0.8130  0.1721
 6972SOL    HW132375   1.438   2.864   7.893  0.8080 -0.2445  0.1087
 6972SOL    HW232376   1.575   2.807   7.907  0.8351  1.2340 -0.4326
 6973SOL     OW32377   2.902   4.126  15.520 -0.4171 -0.0108 -0.5245
 6973SOL    HW132378   2.841   4.178  15.467  0.8462  3.6131  1.5901
 6973SOL    HW232379   2.931   4.054  15.464  2.1901  1.6665 -1.3077
 6974SOL     OW32380   0.830   3.300   5.535 -0.0160 -0.3701 -0.2166
 6974SOL    HW132381   0.873   3.259   5.611 -1.0703 -0.7299  0.1803
 6974SOL    HW232382   0.760   3.353   5.574  1.2620  1.5853 -0.6077
 6975SOL     OW32383   0.304   3.053   7.406  0.0826  0.1608 -0.0812
 6975SOL    HW132384   0.289   2.966   7.369  0.5214  1.3519 -3.0469
 6975SOL    HW232385   0.223   3.096   7.381 -0.8055 -0.6775  1.3512
 6976SOL     OW32386   0.503   3.381   2.210 -0.3857 -0.5312 -0.1037
 6976SOL    HW132387   0.556   3.304   2.230  1.7758  0.9819  0.1130
 6976SOL    HW232388   0.499   3.421   2.297 -1.0942  1.1852 -0.9285
 6977SOL     OW32389   0.816   0.699   0.261  0.0431 -0.1521  0.6106
 6977SOL    HW132390   0.886   0.653   0.308  0.3716 -1.2732 -0.9817
 6977SOL    HW232391   0.860   0.762   0.203  0.5179  0.0271  1.1597
 6978SOL     OW32392   0.033   2.503   2.626 -0.2195 -0.7806 -0.2173
 6978SOL    HW132393   4.692   2.484   2.691 -0.6751  1.6424  0.0286
 6978SOL    HW232394   0.045   2.598   2.635 -0.0692 -0.9992  2.0317
 6979SOL     OW32395   1.726   0.657  10.110 -0.3327  0.9633 -0.3775
 6979SOL    HW132396   1.647   0.695  10.150 -0.7882  1.3033 -1.5962
 6979SOL    HW232397   1.704   0.648  10.018 -2.2312  2.8491 -0.1305
 6980SOL     OW32398   4.442   0.563   7.115  0.1460 -0.1975 -0.1465
 6980SOL    HW132399   4.450   0.480   7.069 -1.0099  0.5095 -1.6232
 6980SOL    HW232400   4.388   0.549   7.193 -1.9558  0.9311 -1.3817
 6981SOL     OW32401   0.683   2.643   9.841 -0.0309 -0.1391 -0.0054
 6981SOL    HW132402   0.774   2.614   9.844  0.1771  0.6328  1.0323
 6981SOL    HW232403   0.701   2.737   9.833  2.4218 -0.3339  3.2974
 6982SOL     OW32404   0.413   4.239   1.164 -0.0882 -0.8448  0.0848
 6982SOL    HW132405   0.459   4.296   1.103 -1.4930 -1.7093 -1.7627
 6982SOL    HW232406   0.444   4.150   1.150  0.0227 -0.3890 -2.5230
 6983SOL     OW32407   4.700   2.910  11.258  0.0514 -0.5567  0.6624
 6983SOL    HW132408   4.677   3.001  11.238  1.5782 -0.4068 -0.4143
 6983SOL    HW232409   0.005   2.877  11.174  2.0509 -0.4629  1.3560
 6984SOL     OW32410   0.001   2.226   6.741  0.2665  0.6948  0.1083
 6984SOL    HW132411   4.643   2.266   6.718 -0.3810 -0.7395 -0.0060
 6984SOL    HW232412   0.068   2.259   6.681 -0.3399  1.0935 -0.3534
 6985SOL     OW32413   3.403   1.411   8.487  0.1529  0.0372  1.5809
 6985SOL    HW132414   3.377   1.499   8.513  0.7707 -0.4803  3.9539
 6985SOL    HW232415   3.378   1.362   8.566 -2.6042 -1.4802 -0.2404
 6986SOL     OW32416   4.497   1.474   1.759  0.1457  0.4327  0.1373
 6986SOL    HW132417   4.456   1.427   1.686  2.0252 -0.5693 -0.2611
 6986SOL    HW232418   4.523   1.403   1.818 -0.0335  1.1588  1.0966
 6987SOL     OW32419   0.104   0.934  16.048 -0.1188 -0.1939 -0.4842
 6987SOL    HW132420   0.017   0.896  16.048 -0.3816  0.3994 -0.4764
 6987SOL    HW232421   0.092   1.010  16.106 -0.6779  0.0754 -0.9499
 6988SOL     OW32422   0.494   1.853   5.310 -0.0522  0.0325 -0.2554
 6988SOL    HW132423   0.543   1.826   5.232  0.4679 -0.4197  0.2308
 6988SOL    HW232424   0.526   1.941   5.328  0.0005 -0.5393  2.4969
 6989SOL     OW32425   1.575   0.661   8.566 -0.3269  0.0106  0.7270
 6989SOL    HW132426   1.494   0.633   8.523 -0.3061  1.0264  0.0400
 6989SOL    HW232427   1.601   0.739   8.518 -0.0696  0.1045  1.0139
 6990SOL     OW32428   2.397   1.840  17.327  0.5177  0.3815 -0.0208
 6990SOL    HW132429   2.444   1.850  17.409 -1.9147 -1.6642  1.6015
 6990SOL    HW232430   2.396   1.934  17.307  1.4094  0.1009 -1.3822
 6991SOL     OW32431   1.584   3.151   9.333 -0.1577 -0.1566  0.3217
 6991SOL    HW132432   1.645   3.170   9.261 -0.2663  1.3151  0.6091
 6991SOL    HW232433   1.650   3.129   9.399 -0.2933  0.8528  0.7920
 6992SOL     OW32434   3.904   2.825   9.821 -0.5107  0.6932  0.2434
 6992SOL    HW132435   3.930   2.738   9.791  0.5256  0.6713  1.2219
 6992SOL    HW232436   3.912   2.881   9.744 -1.4588 -1.6356 -1.5459
 6993SOL     OW32437   0.667   0.047   6.381  0.0218  0.5174 -0.2415
 6993SOL    HW132438   0.619   4.696   6.351  0.2433 -1.2269  3.8348
 6993SOL    HW232439   0.605   0.117   6.363 -1.1480 -0.2386  0.8284
 6994SOL     OW32440   4.630   1.568   1.414 -0.1437  0.1446  0.8518
 6994SOL    HW132441   4.539   1.537   1.416 -0.5932  1.0742 -4.2207
 6994SOL    HW232442   4.684   1.492   1.392 -0.8109  0.1369 -0.7660
 6995SOL     OW32443   4.294   3.435  10.910  0.2742  0.4662 -0.1577
 6995SOL    HW132444   4.273   3.369  10.843  0.1344  1.7323 -1.3632
 6995SOL    HW232445   4.239   3.415  10.986 -0.8656 -3.1997 -1.9459
 6996SOL     OW32446   2.495   2.767   2.947  0.2552 -0.7880  0.0165
 6996SOL    HW132447   2.407   2.806   2.937  0.0798 -0.7517  1.6701
 6996SOL    HW232448   2.538   2.847   2.979 -1.4669 -0.0177  0.4436
 6997SOL     OW32449   3.111   4.328  11.739 -0.3640 -0.1167 -0.2961
 6997SOL    HW132450   3.063   4.325  11.656 -2.5457  0.0515  0.9692
 6997SOL    HW232451   3.084   4.417  11.762 -0.2716 -0.0912 -0.2886
 6998SOL     OW32452   3.514   2.390   8.923 -0.0101 -0.5168 -0.1927
 6998SOL    HW132453   3.512   2.317   8.985  2.4415  2.2501  3.1717
 6998SOL    HW232454   3.610   2.396   8.919 -0.0218 -0.3191 -0.1453
 6999SOL     OW32455   4.668   1.584   0.112 -0.2074  0.0663 -0.2128
 6999SOL    HW132456   4.644   1.592   0.020  0.8510 -2.5930 -0.7244
 6999SOL    HW232457   0.013   1.528   0.082  0.1842  0.6927 -0.4566
 7000SOL     OW32458   2.408   3.904   1.548 -0.0668 -0.4252 -0.2168
 7000SOL    HW132459   2.494   3.871   1.574  0.4295  1.0787  0.0768
 7000SOL    HW232460   2.359   3.822   1.540 -1.1479 -0.0147  2.2371
 7001SOL     OW32461   4.181   3.529   1.769  0.3976 -0.1444  0.4470
 7001SOL    HW132462   4.261   3.490   1.804  0.7445  0.4464  0.3108
 7001SOL    HW232463   4.206   3.585   1.696  2.5543 -1.6724  0.0145
 7002SOL     OW32464   3.763   3.475  14.040  0.6101  0.3017 -0.4630
 7002SOL    HW132465   3.680   3.522  14.039 -0.7146 -2.0558 -2.7109
 7002SOL    HW232466   3.813   3.525  13.976  0.8147 -0.1951 -0.6953
 7003SOL     OW32467   0.012   2.504  14.566 -0.1696  0.2880  0.3842
 7003SOL    HW132468   0.035   2.596  14.556  3.6841 -0.4242  2.6079
 7003SOL    HW232469   4.695   2.518  14.650  1.9347 -3.4663  2.0862
 7004SOL     OW32470   2.937   4.026   3.650 -0.9066 -0.4817 -0.3524
 7004SOL    HW132471   2.935   4.122   3.644 -0.2885 -0.3841  0.9631
 7004SOL    HW232472   2.864   3.993   3.598 -1.2797  0.5425 -0.4697
 7005SOL     OW32473   1.645   4.148   2.234  0.0201 -0.5562 -0.9293
 7005SOL    HW132474   1.592   4.180   2.161 -1.8584  0.7250  0.9805
 7005SOL    HW232475   1.730   4.140   2.192  0.5458  0.7322 -0.1284
 7006SOL     OW32476   0.161   3.104   5.740  0.2363 -0.5753 -0.7324
 7006SOL    HW132477   0.090   3.167   5.752  0.8131  0.0197 -0.4195
 7006SOL    HW232478   0.118   3.018   5.741 -0.3017 -0.3081 -1.0120
 7007SOL     OW32479   1.676   1.185   2.825 -0.1655 -0.1172 -1.0895
 7007SOL    HW132480   1.637   1.208   2.740  0.7182  0.8773 -1.2203
 7007SOL    HW232481   1.658   1.092   2.838 -0.8267  0.1207 -0.2626
 7008SOL     OW32482   1.957   1.920   4.429 -0.1697  0.8148 -0.4982
 7008SOL    HW132483   1.876   1.959   4.398 -1.2338 -0.0494  1.2044
 7008SOL    HW232484   1.994   1.988   4.485 -1.2187 -0.5312  1.8260
 7009SOL     OW32485   2.904   2.658   5.197  0.6041  0.2009  0.4803
 7009SOL    HW132486   2.891   2.752   5.200  0.7285  0.2968 -2.1391
 7009SOL    HW232487   2.960   2.633   5.123  1.5030 -0.2012  1.2902
 7010SOL     OW32488   1.912   1.618  16.099 -0.6014  0.4536  0.1906
 7010SOL    HW132489   2.004   1.593  16.096 -0.5292  0.6296  0.9900
 7010SOL    HW232490   1.879   1.549  16.156 -0.6796  0.2531 -0.0924
 7011SOL     OW32491   4.035   2.062  10.278  0.4591  0.1920 -0.3931
 7011SOL    HW132492   3.981   2.136  10.251  0.1235 -0.0806 -0.4656
 7011SOL    HW232493   4.024   2.067  10.373  0.1714 -1.3159 -0.3347
 7012SOL     OW32494   1.343   3.193   8.442 -0.3574 -0.0883  0.5214
 7012SOL    HW132495   1.350   3.288   8.434 -2.1651  0.2580  3.2030
 7012SOL    HW232496   1.436   3.182   8.419 -1.1110 -2.7463 -1.1884
 7013SOL     OW32497   2.962   3.364  14.797 -0.1898  0.2347 -0.2459
 7013SOL    HW132498   2.997   3.405  14.877 -2.2211 -1.0449  1.2988
 7013SOL    HW232499   2.900   3.429  14.764 -1.0766 -0.0990  0.7402
 7014SOL     OW32500   4.103   1.901   8.683 -0.2875 -0.1191  0.1078
 7014SOL    HW132501   4.019   1.942   8.663  0.7046  1.2771 -1.1655
 7014SOL    HW232502   4.161   1.946   8.622  0.5080  0.7387  1.5036
 7015SOL     OW32503   4.431   0.877   4.915  0.2220 -0.0250  0.0802
 7015SOL    HW132504   4.408   0.857   5.006 -0.1379 -0.1655 -0.0406
 7015SOL    HW232505   4.366   0.830   4.863  0.6825 -2.0480  1.3138
 7016SOL     OW32506   3.664   3.645   2.254 -0.1943  0.0448  0.1404
 7016SOL    HW132507   3.636   3.629   2.164 -0.6814 -0.8518  0.4546
 7016SOL    HW232508   3.592   3.667   2.312 -1.0230 -2.0861 -0.0974
 7017SOL     OW32509   4.478   1.303   3.220  0.1559 -0.2092 -0.1427
 7017SOL    HW132510   4.467   1.388   3.263  0.7715  0.5151 -1.4220
 7017SOL    HW232511   4.429   1.326   3.142  1.4982 -0.1305 -0.9548
 7018SOL     OW32512   2.406   3.692   5.182  0.1431  0.1642  0.2823
 7018SOL    HW132513   2.318   3.660   5.167  0.4497 -0.0216 -1.1463
 7018SOL    HW232514   2.412   3.652   5.269  2.4211 -1.6175 -0.6826
 7019SOL     OW32515   4.539   3.425   8.018  0.1000 -0.1149 -0.2711
 7019SOL    HW132516   4.544   3.416   7.923  1.1253  0.6017 -0.3010
 7019SOL    HW232517   4.591   3.506   8.028 -0.4468  0.3824 -1.4982
 7020SOL     OW32518   3.829   2.268  15.460 -0.0310 -0.2213  0.6315
 7020SOL    HW132519   3.734   2.261  15.469 -0.0434 -0.3869  0.3829
 7020SOL    HW232520   3.830   2.354  15.418 -1.9206 -0.4801  0.0430
 7021SOL     OW32521   4.104   1.899  12.172  0.7130 -0.5216  0.1538
 7021SOL    HW132522   4.136   1.989  12.171 -0.8052 -0.0093 -0.9597
 7021SOL    HW232523   4.130   1.868  12.086 -1.2734 -0.8729 -0.2982
 7022SOL     OW32524   0.452   2.736  10.246  0.2148  0.4162  0.0368
 7022SOL    HW132525   0.477   2.795  10.174  1.8138  2.5427  2.3085
 7022SOL    HW232526   0.373   2.701  10.207 -0.6876  0.5192  1.7747
 7023SOL     OW32527   4.016   0.570   0.975 -0.7278  0.1435  0.4703
 7023SOL    HW132528   3.958   0.508   0.931  2.2466 -1.6102 -1.0134
 7023SOL    HW232529   3.959   0.647   0.982  0.1764  0.9169 -0.6616
 7024SOL     OW32530   1.848   3.291   1.129  0.2382  0.0584  0.1572
 7024SOL    HW132531   1.893   3.369   1.162 -1.0209  0.7999  0.1319
 7024SOL    HW232532   1.757   3.318   1.116  0.3408 -0.2926 -1.2895
 7025SOL     OW32533   2.291   0.751   7.423 -0.3834 -0.9655 -0.4050
 7025SOL    HW132534   2.352   0.697   7.373  0.0592  0.3517 -1.2993
 7025SOL    HW232535   2.228   0.775   7.355 -2.1702 -1.2525  1.1462
 7026SOL     OW32536   3.835   2.833   2.023  0.0943 -0.3978  0.2524
 7026SOL    HW132537   3.907   2.792   2.071  1.4258  1.8658  0.1629
 7026SOL    HW232538   3.887   2.857   1.946 -1.3700 -1.4660 -1.0578
 7027SOL     OW32539   4.391   2.212  11.057 -0.2197  0.5052 -0.2574
 7027SOL    HW132540   4.343   2.180  11.133 -0.0233 -0.2820 -0.4604
 7027SOL    HW232541   4.320   2.214  10.993 -0.8461  0.4235  0.4331
 7028SOL     OW32542   1.086   1.798  12.862  0.0741 -0.5429 -0.0357
 7028SOL    HW132543   1.165   1.749  12.886 -0.1021 -0.3578  0.9061
 7028SOL    HW232544   1.122   1.885  12.878  0.6836 -0.5798 -1.1484
 7029SOL     OW32545   0.249   1.956   6.415  0.2946 -0.0227  0.3081
 7029SOL    HW132546   0.191   1.936   6.488  0.7187  0.6710  0.8347
 7029SOL    HW232547   0.194   1.920   6.345 -0.8903  1.1598  0.6369
 7030SOL     OW32548   2.884   2.138   7.623 -0.2114 -0.2960 -0.3255
 7030SOL    HW132549   2.797   2.166   7.596 -0.0285  0.6324  0.0730
 7030SOL    HW232550   2.890   2.043   7.608  3.5427 -0.2386  0.7496
 7031SOL     OW32551   3.858   4.259   3.946  0.0191 -0.0880 -0.7002
 7031SOL    HW132552   3.843   4.243   4.039 -1.3820 -1.1534 -1.1030
 7031SOL    HW232553   3.952   4.274   3.940 -0.0127  0.2256 -0.3688
 7032SOL     OW32554   2.340   0.044   2.868 -0.2105  0.6653 -0.3957
 7032SOL    HW132555   2.350   0.112   2.934  0.7722  1.8677 -1.7760
 7032SOL    HW232556   2.349   4.701   2.934 -0.8236 -0.8619 -1.9004
 7033SOL     OW32557   1.665   2.021  15.869  0.2992 -0.2448 -0.1946
 7033SOL    HW132558   1.611   2.004  15.792 -2.0540 -1.4558  1.7228
 7033SOL    HW232559   1.704   1.937  15.892  0.9328  0.1776  0.2677
 7034SOL     OW32560   1.906   4.698   9.413  0.1720  0.5181  0.3878
 7034SOL    HW132561   1.871   0.048   9.367  0.3685  0.0960 -0.4640
 7034SOL    HW232562   1.831   4.671   9.465 -0.2819  2.6683  0.8437
 7035SOL     OW32563   1.729   4.499   0.653 -0.4882 -0.5811  0.1013
 7035SOL    HW132564   1.681   4.430   0.700 -1.9067  0.9271  0.8459
 7035SOL    HW232565   1.703   4.480   0.563  1.1820 -2.4268  0.0179
 7036SOL     OW32566   2.925   3.726   1.498  0.5796 -0.6484  0.2034
 7036SOL    HW132567   2.988   3.793   1.524 -1.8031  1.8083 -0.3648
 7036SOL    HW232568   2.971   3.646   1.525  1.0637 -0.3698  0.2002
 7037SOL     OW32569   0.035   3.885  17.410  0.2524 -0.8756  0.1665
 7037SOL    HW132570   4.677   3.930  17.414  0.0642 -0.9813 -2.5404
 7037SOL    HW232571   0.081   3.902  17.493 -2.8113 -0.2767  1.7485
 7038SOL     OW32572   1.659   0.135  15.382 -0.1725 -0.0239 -0.2934
 7038SOL    HW132573   1.619   0.215  15.417 -0.1006 -0.1364  0.0459
 7038SOL    HW232574   1.686   0.096  15.465  1.6042  0.1716 -0.7898
 7039SOL     OW32575   0.619   2.129   9.327 -0.1726 -0.1628 -0.1379
 7039SOL    HW132576   0.644   2.177   9.406 -0.8592  0.7916 -0.4982
 7039SOL    HW232577   0.702   2.090   9.300  0.1701  0.0022  0.6638
 7040SOL     OW32578   4.134   3.103  12.950  0.0980  0.2806  0.0591
 7040SOL    HW132579   4.050   3.062  12.969 -0.2391  1.3825  0.9310
 7040SOL    HW232580   4.158   3.134  13.037 -1.6210  1.8248 -0.0282
 7041SOL     OW32581   4.646   3.006   5.244  0.1667  0.4922 -0.3486
 7041SOL    HW132582   4.664   2.996   5.338 -1.5572 -3.4637 -0.4632
 7041SOL    HW232583   4.618   3.098   5.241  0.1773  0.6166  3.0431
 7042SOL     OW32584   2.507   0.320   4.017 -0.0538  0.1143 -0.3019
 7042SOL    HW132585   2.425   0.302   3.971  1.3709  1.1685 -3.2771
 7042SOL    HW232586   2.485   0.400   4.064 -1.6840 -0.9384  0.7102
 7043SOL     OW32587   3.398   3.843   5.865 -0.1181 -0.2692  0.1531
 7043SOL    HW132588   3.369   3.756   5.838 -2.7484  0.9911 -1.0458
 7043SOL    HW232589   3.331   3.898   5.825  0.0532 -0.7646 -0.8196
 7044SOL     OW32590   1.866   3.100   6.395 -0.4438 -0.4929 -0.0628
 7044SOL    HW132591   1.798   3.159   6.427 -0.8810 -0.4613 -1.0408
 7044SOL    HW232592   1.818   3.018   6.388 -0.6715 -0.1015 -3.3145
 7045SOL     OW32593   2.805   2.159  16.611  0.1536 -0.3347  0.4914
 7045SOL    HW132594   2.736   2.104  16.648 -0.8642  0.8389  0.3057
 7045SOL    HW232595   2.882   2.102  16.618  0.9378  0.7851  0.8221
 7046SOL     OW32596   0.666   0.057  14.976  0.1225  0.6377 -0.5904
 7046SOL    HW132597   0.611   0.074  15.052 -1.7996 -1.3518 -1.5285
 7046SOL    HW232598   0.747   0.101  15.001 -0.2347 -0.0864  1.8731
 7047SOL     OW32599   0.329   1.603   4.946 -0.3245 -0.9424 -0.2404
 7047SOL    HW132600   0.256   1.659   4.918 -0.7667 -1.7635 -0.7209
 7047SOL    HW232601   0.286   1.518   4.946 -1.6219 -0.3002 -1.6992
 7048SOL     OW32602   2.793   4.290   5.153 -0.2285  0.4953 -0.1216
 7048SOL    HW132603   2.748   4.328   5.228 -0.2751 -1.1027  0.6559
 7048SOL    HW232604   2.883   4.293   5.187 -1.3037  1.1388  2.6397
 7049SOL     OW32605   0.206   0.738   5.073  0.4292 -0.7577  0.1502
 7049SOL    HW132606   0.114   0.724   5.096  0.2976 -3.3859 -1.9039
 7049SOL    HW232607   0.242   0.751   5.161 -0.9835  2.1159  0.2836
 7050SOL     OW32608   3.505   1.002  10.051  0.0796 -0.2951 -0.4516
 7050SOL    HW132609   3.495   0.960   9.965  0.5045  2.0213 -1.6406
 7050SOL    HW232610   3.439   1.070  10.043  2.4604  1.9679 -0.7693
 7051SOL     OW32611   4.283   1.090   6.326  0.1604  0.6852 -0.3450
 7051SOL    HW132612   4.370   1.129   6.326 -0.0083  1.0607  2.7165
 7051SOL    HW232613   4.283   1.061   6.418 -0.7681  1.5060 -0.0892
 7052SOL     OW32614   1.666   2.146   6.649  0.7840 -0.3604  0.0421
 7052SOL    HW132615   1.571   2.146   6.640  0.8381 -2.2814 -0.5942
 7052SOL    HW232616   1.696   2.225   6.604  1.6151 -0.5823  0.2044
 7053SOL     OW32617   4.632   0.223   4.860 -1.1227 -0.1336 -0.0339
 7053SOL    HW132618   4.633   0.128   4.850  1.2690  0.0982 -1.9593
 7053SOL    HW232619   4.556   0.252   4.810 -1.5591 -0.6907  0.3142
 7054SOL     OW32620   0.359   2.554  17.579 -0.3591 -0.5560 -0.7221
 7054SOL    HW132621   0.357   2.459  17.587 -0.2028 -0.2167  3.1895
 7054SOL    HW232622   0.433   2.566  17.638 -1.5326  1.6376  0.2840
 7055SOL     OW32623   4.293   1.592   1.010 -0.0527 -0.3933  0.2623
 7055SOL    HW132624   4.294   1.619   1.101 -2.4634  1.8507 -0.3955
 7055SOL    HW232625   4.379   1.551   1.000  0.9531  1.6278  0.8147
 7056SOL     OW32626   4.497   0.485  16.689 -0.1510  0.0833  0.3916
 7056SOL    HW132627   4.530   0.540  16.618  2.7738  1.1209  2.6113
 7056SOL    HW232628   4.446   0.416  16.646  0.1904  1.3737 -2.1095
 7057SOL     OW32629   0.651   1.751  16.627  0.1042 -0.1866  0.0572
 7057SOL    HW132630   0.721   1.805  16.591 -0.7739 -1.1353 -3.0755
 7057SOL    HW232631   0.591   1.820  16.656 -0.7453 -1.0481  0.3581
 7058SOL     OW32632   2.262   4.120   5.526  0.0253 -0.0624 -0.0873
 7058SOL    HW132633   2.279   4.033   5.489  3.7116  0.3622  0.6456
 7058SOL    HW232634   2.347   4.144   5.562 -0.5171 -0.7800  1.7206
 7059SOL     OW32635   0.228   3.647  10.383  0.4252 -0.5278 -0.2732
 7059SOL    HW132636   0.207   3.738  10.400 -0.0263 -0.5661 -0.6374
 7059SOL    HW232637   0.255   3.617  10.470 -2.3565 -0.6720  0.5103
 7060SOL     OW32638   1.257   0.177  16.066 -0.0930 -0.3763 -0.3675
 7060SOL    HW132639   1.208   0.103  16.101  0.2535 -0.4204  0.0155
 7060SOL    HW232640   1.221   0.248  16.117 -0.2625  0.9890 -2.3772
 7061SOL     OW32641   0.223   2.333   0.322  0.4632 -0.0329  0.0686
 7061SOL    HW132642   0.261   2.282   0.394  0.0585 -0.4521 -0.0155
 7061SOL    HW232643   0.140   2.358   0.362  1.4183  1.4651  1.0983
 7062SOL     OW32644   2.522   3.804  12.492 -0.3746  0.1585 -0.0049
 7062SOL    HW132645   2.572   3.726  12.514 -1.7988 -1.2225 -1.6662
 7062SOL    HW232646   2.439   3.756  12.489  0.7642 -1.9641  2.8625
 7063SOL     OW32647   3.822   2.658  10.067  0.7334 -0.5329  0.2643
 7063SOL    HW132648   3.760   2.721  10.105  0.6932  0.0620 -0.8078
 7063SOL    HW232649   3.753   2.603  10.029  0.3907  0.7113 -0.8955
 7064SOL     OW32650   1.704   0.872   3.260 -0.2203 -0.2077 -0.1945
 7064SOL    HW132651   1.756   0.837   3.188  1.3861  0.5785  0.5705
 7064SOL    HW232652   1.762   0.927   3.313 -0.4541  0.3257 -0.4837
 7065SOL     OW32653   0.471   4.706   6.642 -0.0911 -0.1384  0.2879
 7065SOL    HW132654   0.430   0.052   6.594 -0.5248 -0.1721  0.6095
 7065SOL    HW232655   0.503   0.022   6.721  1.8333 -1.1629  0.0638
 7066SOL     OW32656   3.348   3.059   3.086  0.3403  0.3008  0.0655
 7066SOL    HW132657   3.294   3.031   3.013  1.5420 -4.6849  1.1063
 7066SOL    HW232658   3.289   3.100   3.149 -0.4468 -2.0484  0.8612
 7067SOL     OW32659   0.126   1.746   4.832 -0.1598 -0.3194  0.0462
 7067SOL    HW132660   0.033   1.728   4.821  0.2046 -0.9309 -2.1277
 7067SOL    HW232661   0.149   1.765   4.741  0.7791  1.3103  0.6115
 7068SOL     OW32662   1.015   4.460   1.818 -0.2273  0.1462 -0.2252
 7068SOL    HW132663   0.931   4.415   1.832  0.2175 -0.8511 -0.8200
 7068SOL    HW232664   1.029   4.437   1.726 -1.2483 -2.0249  0.1697
 7069SOL     OW32665   4.256   2.455  16.240 -0.6258 -0.2565  0.3434
 7069SOL    HW132666   4.210   2.539  16.238 -0.6164 -0.2912 -1.1610
 7069SOL    HW232667   4.344   2.485  16.262 -0.8373  0.0453  0.7815
 7070SOL     OW32668   4.582   3.398  11.135  0.3766 -0.0670 -0.4090
 7070SOL    HW132669   4.572   3.308  11.167  2.5987 -0.0309  0.3474
 7070SOL    HW232670   4.570   3.388  11.041  1.2713  1.7535 -0.7115
 7071SOL     OW32671   0.295   2.885   7.929 -0.3777 -0.3628  0.0909
 7071SOL    HW132672   0.278   2.829   8.005  2.5074  0.3632  1.2747
 7071SOL    HW232673   0.232   2.852   7.865  2.3545 -3.1822 -1.1169
 7072SOL     OW32674   3.509   3.153   8.716 -0.6121 -0.6737  0.5998
 7072SOL    HW132675   3.422   3.118   8.699 -0.1965  0.4237 -3.7721
 7072SOL    HW232676   3.545   3.157   8.628  0.6325 -0.7245  1.1117
 7073SOL     OW32677   3.315   4.163   2.398  0.3677  0.5869 -0.7067
 7073SOL    HW132678   3.396   4.114   2.404  0.4131  0.7419 -0.0063
 7073SOL    HW232679   3.338   4.229   2.333 -0.5792  0.0600 -1.5643
 7074SOL     OW32680   1.359   3.500  10.869 -0.1721  0.2111 -0.4490
 7074SOL    HW132681   1.419   3.565  10.906  0.3765  0.4539 -1.7666
 7074SOL    HW232682   1.381   3.434  10.935 -0.8067  0.2393 -0.2031
 7075SOL     OW32683   2.744   3.842   2.080  0.5721 -0.0773 -0.0279
 7075SOL    HW132684   2.669   3.888   2.042 -1.4073 -1.9654  1.5981
 7075SOL    HW232685   2.816   3.901   2.055  0.8639 -0.6330 -0.4990
 7076SOL     OW32686   0.608   0.291  15.747  0.2966  0.4965  0.8603
 7076SOL    HW132687   0.587   0.301  15.654 -1.6723 -2.9251  0.9602
 7076SOL    HW232688   0.633   0.376  15.782  1.7062  1.1170 -1.5947
 7077SOL     OW32689   1.689   0.877   5.493 -0.4506 -0.5211 -0.1944
 7077SOL    HW132690   1.629   0.951   5.487 -0.9112 -0.8397  0.4571
 7077SOL    HW232691   1.753   0.910   5.431 -0.7542  0.0468 -0.2081
 7078SOL     OW32692   4.522   0.694   1.995 -0.3367  0.2395 -0.0323
 7078SOL    HW132693   4.612   0.724   1.979 -0.0585 -0.0790  0.9369
 7078SOL    HW232694   4.498   0.718   1.905 -0.8722  0.1173  0.0832
 7079SOL     OW32695   1.886   0.708   7.200  0.2485  0.5144 -0.2957
 7079SOL    HW132696   1.793   0.730   7.196  0.2531  1.0992  2.9104
 7079SOL    HW232697   1.875   0.665   7.285 -0.1951 -0.9394 -1.0882
 7080SOL     OW32698   3.892   0.137   8.350  0.2724  0.3323  0.1667
 7080SOL    HW132699   3.832   0.133   8.276  1.5571 -0.3774 -0.8464
 7080SOL    HW232700   3.836   0.092   8.413  1.1907  1.8616  2.0796
 7081SOL     OW32701   1.310   1.037   7.369  0.2856 -0.1769 -0.5600
 7081SOL    HW132702   1.233   0.995   7.331  0.6183 -1.7492  0.4922
 7081SOL    HW232703   1.394   1.008   7.333  0.8621  0.0791  0.5694
 7082SOL     OW32704   3.182   3.253   6.036  0.0183  0.4595 -0.2351
 7082SOL    HW132705   3.209   3.330   5.986 -1.1001 -0.0420 -1.6373
 7082SOL    HW232706   3.201   3.188   5.967  2.5929 -0.3335  1.2013
 7083SOL     OW32707   3.752   3.166   2.508  0.6513 -0.0329  0.5021
 7083SOL    HW132708   3.711   3.223   2.443 -0.8139 -1.5227  0.1194
 7083SOL    HW232709   3.728   3.085   2.463  1.3125  2.0852 -3.6191
 7084SOL     OW32710   1.239   4.408   8.339 -0.6912  0.3920 -0.1810
 7084SOL    HW132711   1.183   4.386   8.264  1.0574 -0.7302 -1.1704
 7084SOL    HW232712   1.170   4.408   8.405  0.4035 -0.3821  0.9698
 7085SOL     OW32713   3.006   1.905   5.807 -0.5565 -0.1859  0.2431
 7085SOL    HW132714   3.100   1.886   5.808 -0.7654 -1.2193 -0.0679
 7085SOL    HW232715   2.976   1.872   5.722  1.1312  1.2917 -0.9377
 7086SOL     OW32716   2.397   3.585   2.026 -0.0634  0.2259 -0.2872
 7086SOL    HW132717   2.382   3.670   2.069 -1.0936  0.2530 -0.6916
 7086SOL    HW232718   2.358   3.592   1.939 -0.2275  0.1296 -0.2216
 7087SOL     OW32719   0.503   3.447  10.051 -0.6928 -0.1443 -0.6232
 7087SOL    HW132720   0.578   3.418  10.103 -1.4829 -0.0194  0.5793
 7087SOL    HW232721   0.434   3.450  10.118  0.2554 -1.2972  0.4193
 7088SOL     OW32722   0.723   1.645  12.318 -0.2844  0.0440  0.7318
 7088SOL    HW132723   0.677   1.686  12.391  0.3409  0.7023  0.7558
 7088SOL    HW232724   0.666   1.673  12.246  0.0479 -2.0928 -0.3418
 7089SOL     OW32725   2.732   4.292  11.936  0.5474 -0.1386  0.5218
 7089SOL    HW132726   2.686   4.209  11.925  2.0262 -0.9723  0.6074
 7089SOL    HW232727   2.816   4.254  11.964  0.9942 -0.0373 -0.6645
 7090SOL     OW32728   2.784   2.479   9.789  0.3456 -0.1930  0.0286
 7090SOL    HW132729   2.838   2.546   9.747  1.7502 -0.4202  1.4632
 7090SOL    HW232730   2.703   2.521   9.760 -0.0132 -0.8588  0.0734
 7091SOL     OW32731   3.725   4.188   9.819 -0.1290  0.0334  0.0633
 7091SOL    HW132732   3.715   4.236   9.737  1.1963 -1.5986 -1.0497
 7091SOL    HW232733   3.821   4.191   9.827 -0.1745  0.3869  0.5238
 7092SOL     OW32734   2.458   1.240  12.753  0.0079 -0.3735  0.1718
 7092SOL    HW132735   2.450   1.333  12.734 -3.0209 -0.4220  1.3020
 7092SOL    HW232736   2.368   1.224  12.781  0.5025  1.7074  2.9338
 7093SOL     OW32737   0.354   1.832   9.206 -0.2289 -0.2484  0.0241
 7093SOL    HW132738   0.359   1.925   9.184  1.0332 -0.4582 -0.5464
 7093SOL    HW232739   0.261   1.815   9.223 -0.0315 -0.3559  0.9977
 7094SOL     OW32740   2.941   1.931   1.477  0.8585  0.0194 -0.2864
 7094SOL    HW132741   2.860   1.959   1.521  0.2497 -1.5169 -0.4101
 7094SOL    HW232742   3.009   1.964   1.536  0.2196  1.1756 -0.1956
 7095SOL     OW32743   0.478   0.095   5.627  0.1398  0.4841 -0.4595
 7095SOL    HW132744   0.494   0.001   5.621 -0.8024  0.1157  2.8616
 7095SOL    HW232745   0.397   0.094   5.575  0.9595  0.1435 -1.7272
 7096SOL     OW32746   2.268   0.327   6.316  0.3704 -0.6456 -0.3755
 7096SOL    HW132747   2.230   0.290   6.236  3.8455 -0.9104 -1.8920
 7096SOL    HW232748   2.307   0.401   6.269  0.0550 -1.3357 -1.7433
 7097SOL     OW32749   2.597   0.681  17.686  0.2050  0.0851  0.2347
 7097SOL    HW132750   2.505   0.709  17.681 -0.3561 -2.1918 -2.1383
 7097SOL    HW232751   2.621   0.743   0.049 -2.2938 -0.5868  1.7051
 7098SOL     OW32752   1.643   2.861   6.007 -0.2508 -0.3247 -1.0923
 7098SOL    HW132753   1.730   2.820   6.010 -0.5179 -0.8954 -1.2034
 7098SOL    HW232754   1.665   2.924   5.938 -1.7583  0.9227 -0.4255
 7099SOL     OW32755   0.469   1.524  16.986  0.0950  0.7063  0.3242
 7099SOL    HW132756   0.392   1.474  17.012 -0.4334  1.7705  0.8010
 7099SOL    HW232757   0.436   1.590  16.925  3.5448  1.8551 -0.3163
 7100SOL     OW32758   2.403   4.263   3.301 -0.1640  0.3168  0.3532
 7100SOL    HW132759   2.441   4.351   3.296 -1.0805  0.5825 -1.9482
 7100SOL    HW232760   2.319   4.292   3.266 -0.5195 -2.4413 -1.0531
 7101SOL     OW32761   2.574   3.917  14.656  0.4341 -0.2963 -0.5216
 7101SOL    HW132762   2.580   4.006  14.690 -1.7016  0.2866 -1.6483
 7101SOL    HW232763   2.551   3.935  14.565 -0.2930 -0.3491 -0.3538
 7102SOL     OW32764   1.275   0.178   7.579 -0.0531  0.1549  0.3853
 7102SOL    HW132765   1.223   0.188   7.659  2.9543 -1.6636  2.5578
 7102SOL    HW232766   1.231   0.241   7.520 -0.8693 -0.2813  0.5249
 7103SOL     OW32767   0.548   4.260   5.300 -0.7040 -0.0941  0.6640
 7103SOL    HW132768   0.598   4.332   5.260  0.6628 -2.4078 -1.7959
 7103SOL    HW232769   0.494   4.235   5.225  0.0430 -1.1308  0.4663
 7104SOL     OW32770   3.959   0.156   7.093  0.1255 -0.2106 -0.2802
 7104SOL    HW132771   4.026   0.219   7.067 -0.1807  0.2162 -0.0305
 7104SOL    HW232772   3.954   0.173   7.187 -0.0465  0.2732 -0.3737
 7105SOL     OW32773   3.743   2.792   5.728  0.4864  0.0579 -0.6246
 7105SOL    HW132774   3.835   2.781   5.752 -0.3326 -1.1827  1.9260
 7105SOL    HW232775   3.724   2.711   5.679  3.6136 -1.4706  0.6857
 7106SOL     OW32776   3.613   4.095  12.119  0.4038 -0.1604 -0.4223
 7106SOL    HW132777   3.593   4.038  12.194  0.5311  0.8830  0.4088
 7106SOL    HW232778   3.626   4.027  12.054  2.0115  2.2824 -2.6388
 7107SOL     OW32779   0.922   2.711   5.183 -0.3081  0.0365  0.0967
 7107SOL    HW132780   0.847   2.767   5.203  1.3952  0.8438  4.2274
 7107SOL    HW232781   0.907   2.640   5.245 -1.7549  2.9224  3.0181
 7108SOL     OW32782   3.910   3.005  11.642  0.1116 -0.3277  0.0434
 7108SOL    HW132783   3.954   3.058  11.709 -0.5887  2.1657 -1.4675
 7108SOL    HW232784   3.817   3.000  11.660 -0.2098  1.0595 -1.2199
 7109SOL     OW32785   1.466   1.357   2.085  0.0613  0.4411  0.0972
 7109SOL    HW132786   1.372   1.343   2.071  0.2164 -0.8868  0.3732
 7109SOL    HW232787   1.456   1.385   2.176  0.1346 -0.0856  0.2695
 7110SOL     OW32788   0.523   2.487   7.181 -0.0996  0.2484  0.2754
 7110SOL    HW132789   0.516   2.409   7.126 -1.5770  0.2664  0.4335
 7110SOL    HW232790   0.437   2.489   7.222  0.3509 -0.5707  1.2634
 7111SOL     OW32791   1.186   0.590   6.906 -0.4335 -0.7161  0.0438
 7111SOL    HW132792   1.192   0.502   6.870  0.2708 -0.6275 -0.0592
 7111SOL    HW232793   1.278   0.615   6.899 -0.8503  0.4351 -1.2192
 7112SOL     OW32794   1.191   3.157   8.677 -0.5810 -0.3637  0.5933
 7112SOL    HW132795   1.269   3.185   8.629 -0.3442  0.9019  1.6871
 7112SOL    HW232796   1.187   3.220   8.750 -3.3377  2.8055 -2.2818
 7113SOL     OW32797   0.370   3.822  17.310  0.9504 -0.4878 -0.3580
 7113SOL    HW132798   0.436   3.860  17.251  1.3927 -1.7786 -0.7044
 7113SOL    HW232799   0.306   3.893  17.317  1.5736 -0.1346  1.6324
 7114SOL     OW32800   0.489   0.868   8.268 -0.0046  0.2334  0.0535
 7114SOL    HW132801   0.516   0.790   8.219  1.4069  1.1909 -0.7027
 7114SOL    HW232802   0.420   0.893   8.206 -1.3203  0.9386  1.7886
 7115SOL     OW32803   3.108   0.800   3.707 -0.0283  0.3311  0.3638
 7115SOL    HW132804   3.097   0.895   3.711  2.6234  0.6357  0.8754
 7115SOL    HW232805   3.159   0.788   3.627  0.6037  3.7464  0.2799
 7116SOL     OW32806   4.509   1.765  12.615  0.3607  0.0169  0.4215
 7116SOL    HW132807   4.525   1.818  12.693 -1.2815  1.4412 -0.2102
 7116SOL    HW232808   4.514   1.674  12.644 -1.2562 -1.4642 -3.9479
 7117SOL     OW32809   0.886   0.733   8.733 -0.0842 -0.1705  0.6708
 7117SOL    HW132810   0.811   0.677   8.713 -1.0579  1.2204  0.4201
 7117SOL    HW232811   0.879   0.768   8.821  0.9067 -1.1668  1.1436
 7118SOL     OW32812   3.057   3.935   4.286 -0.3257 -0.2456 -0.1765
 7118SOL    HW132813   2.993   4.006   4.280  1.2991  1.1300 -1.2797
 7118SOL    HW232814   3.008   3.868   4.240  0.8182 -0.5478 -0.9586
 7119SOL     OW32815   1.825   1.619   3.082 -0.2378  0.4312 -0.1513
 7119SOL    HW132816   1.908   1.665   3.099 -0.7686  2.9986 -4.5627
 7119SOL    HW232817   1.791   1.664   3.005 -0.1776 -0.8338 -0.9029
 7120SOL     OW32818   3.138   2.288   2.851 -0.4060 -0.0115 -0.7378
 7120SOL    HW132819   3.060   2.237   2.871 -0.3717  0.9288  1.8515
 7120SOL    HW232820   3.107   2.371   2.816  0.5576  1.0552  0.9312
 7121SOL     OW32821   2.059   1.311  12.310 -0.1612  0.5609 -0.3832
 7121SOL    HW132822   2.017   1.279  12.389  1.5138  0.2341  0.3733
 7121SOL    HW232823   2.014   1.267  12.238 -1.0571 -1.4259  1.3988
 7122SOL     OW32824   1.166   0.108   9.337  0.4538  0.5002 -0.4814
 7122SOL    HW132825   1.090   0.159   9.308  1.8508  1.7553 -1.9091
 7122SOL    HW232826   1.198   0.083   9.250  0.3749  0.3277 -0.4602
 7123SOL     OW32827   0.746   0.446  14.519 -0.3785 -0.0170 -0.2331
 7123SOL    HW132828   0.705   0.517  14.568  1.0799  0.0978  0.8218
 7123SOL    HW232829   0.693   0.368  14.532  0.2436 -0.2712  0.7585
 7124SOL     OW32830   0.075   3.748   2.497  0.4307 -0.2855 -0.1271
 7124SOL    HW132831   0.166   3.720   2.504  0.7307  0.2174 -2.1859
 7124SOL    HW232832   0.065   3.750   2.402  0.6064 -1.1743 -0.1584
 7125SOL     OW32833   4.587   3.541   2.163 -0.0919 -0.1630  0.0943
 7125SOL    HW132834   4.632   3.536   2.248 -0.0336 -0.7676  0.0262
 7125SOL    HW232835   4.598   3.449   2.140 -1.0653  0.4962 -3.0151
 7126SOL     OW32836   2.395   4.624  12.237  0.2639 -0.3190  0.5376
 7126SOL    HW132837   2.307   4.654  12.261  0.4312 -1.7363  2.9202
 7126SOL    HW232838   2.419   4.583  12.320 -0.6790 -1.0203  0.4681
 7127SOL     OW32839   3.265   0.214   4.567 -0.4274  0.1182  0.0550
 7127SOL    HW132840   3.216   0.155   4.625  0.2251 -1.6312 -1.1933
 7127SOL    HW232841   3.223   0.198   4.483  0.1456 -1.6769  0.1195
 7128SOL     OW32842   2.559   4.705  10.579  0.5628 -0.1245  0.1127
 7128SOL    HW132843   2.472   4.666  10.572  0.0042  1.2055 -0.3208
 7128SOL    HW232844   2.615   4.628  10.572 -0.9923 -1.4136  1.7840
 7129SOL     OW32845   3.658   3.094   2.758  0.0179 -0.1002 -0.1175
 7129SOL    HW132846   3.637   3.001   2.750 -1.0105  0.3021 -2.1352
 7129SOL    HW232847   3.690   3.121   2.672  0.6546  0.4836  0.3051
 7130SOL     OW32848   0.972   0.467   2.539 -0.6351  0.2523 -0.4372
 7130SOL    HW132849   0.950   0.541   2.482  1.9725 -0.2241 -2.0485
 7130SOL    HW232850   1.033   0.427   2.478 -0.5311  0.4454 -0.4621
 7131SOL     OW32851   0.952   0.346   2.780 -0.1575  0.8359 -0.1044
 7131SOL    HW132852   0.965   0.267   2.727  0.6210  0.1944  1.0627
 7131SOL    HW232853   0.940   0.407   2.707  0.8629  0.9801 -0.1570
 7132SOL     OW32854   0.696   3.130   6.476 -0.0684 -0.2052 -0.0257
 7132SOL    HW132855   0.743   3.065   6.424 -2.3918 -0.7530 -1.4517
 7132SOL    HW232856   0.760   3.195   6.505  0.8063 -0.1764 -2.0794
 7133SOL     OW32857   1.083   2.264   3.506  0.6327 -1.5201 -0.1792
 7133SOL    HW132858   1.029   2.189   3.532 -0.2409 -1.1873 -1.0828
 7133SOL    HW232859   1.099   2.245   3.414  0.8638 -1.9011 -0.0655
 7134SOL     OW32860   0.084   3.063   7.135  0.0653 -0.4041  0.4709
 7134SOL    HW132861   0.066   3.084   7.226 -2.1987  0.1831 -0.1141
 7134SOL    HW232862   0.035   3.135   7.095  2.6214  0.1276 -1.7374
 7135SOL     OW32863   1.320   3.202   9.233  0.4664  0.2019  0.7585
 7135SOL    HW132864   1.411   3.178   9.249  0.7164  0.8142  0.2695
 7135SOL    HW232865   1.342   3.291   9.207  0.4156 -0.6499 -2.2220
 7136SOL     OW32866   3.602   3.855   6.887 -0.2394  0.0251  0.6672
 7136SOL    HW132867   3.621   3.901   6.969 -0.1551  1.2715 -0.0683
 7136SOL    HW232868   3.575   3.767   6.915  0.7409 -0.3060  0.6109
 7137SOL     OW32869   0.696   1.898   2.841 -0.8231 -0.0973 -0.3404
 7137SOL    HW132870   0.769   1.893   2.779 -0.7065 -1.3120 -0.1051
 7137SOL    HW232871   0.677   1.991   2.847  0.3615  0.1652 -0.7809
 7138SOL     OW32872   2.093   2.079   9.394  0.2037  0.2164 -0.3045
 7138SOL    HW132873   2.135   2.157   9.359  0.1854 -0.6355 -2.2074
 7138SOL    HW232874   2.164   2.028   9.433  2.2190  3.2759  0.0768
 7139SOL     OW32875   4.593   4.569   6.372 -0.2581  0.1472  0.2294
 7139SOL    HW132876   4.508   4.525   6.363  0.6372 -1.6795  0.6877
 7139SOL    HW232877   4.583   4.630   6.445 -2.4873  2.2425 -1.8495
 7140SOL     OW32878   2.215   0.196   4.736 -0.4771  0.2078 -0.1342
 7140SOL    HW132879   2.205   0.254   4.811  1.2239  0.1306  0.1638
 7140SOL    HW232880   2.310   0.206   4.722 -0.4005  1.2845  1.1435
 7141SOL     OW32881   3.077   3.416  14.502  0.5044  0.8773  0.0217
 7141SOL    HW132882   3.131   3.338  14.513  0.3210  0.8290  0.5863
 7141SOL    HW232883   3.021   3.386  14.574 -0.4768 -0.1293 -1.1686
 7142SOL     OW32884   4.366   0.162  16.328  0.1091  0.2840 -0.7120
 7142SOL    HW132885   4.339   0.154  16.237 -1.0256 -0.4300 -0.2994
 7142SOL    HW232886   4.398   0.075  16.354 -0.8139  0.6267  1.5923
 7143SOL     OW32887   4.219   1.836   6.376  0.3729  0.0938  0.3335
 7143SOL    HW132888   4.148   1.859   6.436 -1.7857 -1.1089 -1.7903
 7143SOL    HW232889   4.233   1.742   6.381  1.9304  0.1797 -2.3641
 7144SOL     OW32890   3.400   1.408   1.890  0.1251  0.3993 -0.1292
 7144SOL    HW132891   3.312   1.421   1.925 -0.0556 -1.1618  0.0187
 7144SOL    HW232892   3.455   1.453   1.954  1.7440 -1.5886 -0.0909
 7145SOL     OW32893   1.521   4.187   3.611 -0.5244 -0.2851 -0.5577
 7145SOL    HW132894   1.452   4.237   3.568  1.2707  2.0391 -0.7512
 7145SOL    HW232895   1.478   4.103   3.625 -1.3961  0.2673  0.0054
 7146SOL     OW32896   1.697   0.024   1.296 -0.2146  0.2738  0.0093
 7146SOL    HW132897   1.701   4.661   1.261  0.0069 -0.0289  0.7953
 7146SOL    HW232898   1.729   0.067   1.217  0.8343  0.3007  0.4555
 7147SOL     OW32899   1.254   0.710   2.589  0.2610 -0.3114  0.0339
 7147SOL    HW132900   1.258   0.633   2.646  0.5663 -0.9091 -0.7770
 7147SOL    HW232901   1.182   0.767   2.615  0.4355 -0.3566  0.6090
 7148SOL     OW32902   2.031   3.776   8.687  0.1643  0.2083 -0.2612
 7148SOL    HW132903   2.011   3.813   8.773 -1.4016  0.1742 -0.6166
 7148SOL    HW232904   2.010   3.688   8.716 -1.4861  0.0474 -1.9725
 7149SOL     OW32905   3.817   0.692   3.845 -0.3263 -0.0536  0.5564
 7149SOL    HW132906   3.906   0.689   3.808  0.1271 -3.7211  1.9521
 7149SOL    HW232907   3.808   0.784   3.820  0.1321 -0.2068 -0.1877
 7150SOL     OW32908   1.654   2.647   4.083 -0.0150  0.2027  0.2480
 7150SOL    HW132909   1.721   2.639   4.151 -1.4294 -3.6631  1.1842
 7150SOL    HW232910   1.612   2.732   4.097  0.7216  0.4483  1.0099
 7151SOL     OW32911   3.723   0.596   4.088 -0.7184  0.4628 -0.1110
 7151SOL    HW132912   3.761   0.628   4.006  1.3030 -0.2818  0.5307
 7151SOL    HW232913   3.798   0.590   4.146  0.6865  0.6741 -1.8845
 7152SOL     OW32914   3.965   4.424   7.451 -0.5406 -0.3203  0.8125
 7152SOL    HW132915   3.947   4.513   7.420 -1.9151 -0.4468  1.2921
 7152SOL    HW232916   4.037   4.444   7.511 -1.1984 -1.5967  2.0071
 7153SOL     OW32917   3.564   4.236  16.084 -0.3730  0.2804  0.4827
 7153SOL    HW132918   3.470   4.243  16.069 -0.7906 -0.1608  2.9517
 7153SOL    HW232919   3.582   4.158  16.030 -1.0384  0.2804  0.2613
 7154SOL     OW32920   1.525   0.437   9.732  0.7965  0.5673  0.0481
 7154SOL    HW132921   1.607   0.468   9.770  1.3866 -1.0240  0.0490
 7154SOL    HW232922   1.503   0.510   9.673 -0.8081  1.0482  1.2332
 7155SOL     OW32923   1.728   3.457   3.679  0.0236  0.7121  0.0103
 7155SOL    HW132924   1.656   3.496   3.630 -0.4552 -0.6449 -0.3542
 7155SOL    HW232925   1.680   3.415   3.750  1.6052 -0.4634  0.3767
 7156SOL     OW32926   2.415   0.360   5.853 -0.0593  0.7011  0.2365
 7156SOL    HW132927   2.408   0.276   5.807 -0.8691  0.6751  0.4123
 7156SOL    HW232928   2.464   0.404   5.784 -0.8163  2.4364  0.7927
 7157SOL     OW32929   4.344   3.953   3.206 -0.0264  0.2064 -0.4337
 7157SOL    HW132930   4.303   3.875   3.170  1.7033 -0.9223  0.0409
 7157SOL    HW232931   4.369   4.004   3.129  2.4098  0.5210  0.5574
 7158SOL     OW32932   2.056   1.541  15.750  0.0363 -0.5174 -0.0368
 7158SOL    HW132933   2.095   1.597  15.683  3.5300 -1.6534  1.0403
 7158SOL    HW232934   2.027   1.466  15.699 -0.3376  1.1141 -2.1987
 7159SOL     OW32935   3.191   0.006  14.615 -0.0151 -0.1584  0.1233
 7159SOL    HW132936   3.264   4.707  14.672 -1.3315  0.7469  2.2088
 7159SOL    HW232937   3.131   0.037  14.683 -0.6067  0.1078 -0.5201
 7160SOL     OW32938   2.993   1.984  13.267 -0.5794  0.0677  0.2036
 7160SOL    HW132939   2.961   2.072  13.244 -1.3854  0.1769  1.7795
 7160SOL    HW232940   2.914   1.952  13.310 -1.8798  1.1634 -1.3763
 7161SOL     OW32941   3.225   2.062   7.434  0.2906 -0.6624 -0.0798
 7161SOL    HW132942   3.260   2.146   7.465  1.0066 -0.8913 -0.2606
 7161SOL    HW232943   3.253   2.001   7.502 -0.7406 -1.4332 -0.3477
 7162SOL     OW32944   1.460   4.719   3.202 -0.1049  0.6906  0.3126
 7162SOL    HW132945   1.459   0.020   3.111  2.3619 -0.0111  0.0769
 7162SOL    HW232946   1.398   4.647   3.200  0.3589  0.2907  0.2594
 7163SOL     OW32947   3.169   0.548   7.694 -0.0483 -0.1757  0.3746
 7163SOL    HW132948   3.252   0.575   7.655  0.7447  0.3838  2.4658
 7163SOL    HW232949   3.194   0.491   7.767 -1.6867 -0.5674  0.6273
 7164SOL     OW32950   3.996   1.588   4.200  0.2874  0.0953 -0.0809
 7164SOL    HW132951   3.975   1.539   4.120  0.9440  0.8297 -0.7098
 7164SOL    HW232952   4.089   1.571   4.212  0.4766  0.4022 -1.0688
 7165SOL     OW32953   0.948   1.326   7.302 -0.0040 -0.0651 -0.6362
 7165SOL    HW132954   0.958   1.252   7.242 -0.7286 -0.8928  0.2640
 7165SOL    HW232955   1.026   1.376   7.276  0.2171 -0.8440 -1.4923
 7166SOL     OW32956   1.422   1.481   6.510 -0.2139 -0.5688 -0.3257
 7166SOL    HW132957   1.498   1.479   6.568 -0.4499 -1.7932 -0.0591
 7166SOL    HW232958   1.394   1.570   6.532 -0.7839 -0.7546 -0.3039
 7167SOL     OW32959   2.258   1.680   9.410  0.4547 -0.2764  0.0901
 7167SOL    HW132960   2.268   1.743   9.481  1.4146 -0.5273  0.1731
 7167SOL    HW232961   2.349   1.653   9.400  0.4700  0.0454 -0.6818
 7168SOL     OW32962   4.318   4.082   7.671 -0.2905  0.1951 -0.3370
 7168SOL    HW132963   4.412   4.098   7.658 -0.5614  1.0704 -1.2515
 7168SOL    HW232964   4.320   3.989   7.695  0.1640  0.0622 -0.8947
 7169SOL     OW32965   1.332   1.824   7.350  0.1805 -0.9600 -0.1564
 7169SOL    HW132966   1.314   1.833   7.444  0.2545 -1.3633 -0.1011
 7169SOL    HW232967   1.400   1.757   7.361  0.0337 -0.7092  2.3835
 7170SOL     OW32968   1.074   2.307  12.400 -0.2070 -0.4862  0.1123
 7170SOL    HW132969   1.074   2.212  12.405  0.4439 -0.5886 -1.8518
 7170SOL    HW232970   1.124   2.333  12.322 -0.1256 -0.7954  0.0634
 7171SOL     OW32971   3.805   1.414  10.343 -0.0309 -0.1419 -0.5607
 7171SOL    HW132972   3.804   1.342  10.406  0.5701  0.5609  0.2579
 7171SOL    HW232973   3.776   1.378  10.260  0.1065  0.3395 -0.8171
 7172SOL     OW32974   0.227   4.514  12.804  0.0160  0.6086 -0.0830
 7172SOL    HW132975   0.291   4.490  12.737 -1.1547 -2.4767 -0.0629
 7172SOL    HW232976   0.164   4.567  12.755 -0.4194 -0.9262 -1.1668
 7173SOL     OW32977   4.355   3.331  13.922  0.0008  0.1849 -0.1851
 7173SOL    HW132978   4.447   3.309  13.906  0.5937  1.3322  1.6781
 7173SOL    HW232979   4.350   3.306  14.014  2.0369 -2.1827 -0.7029
 7174SOL     OW32980   4.142   3.612   4.084 -1.1597  0.6445  0.1779
 7174SOL    HW132981   4.096   3.627   4.001 -0.2757 -0.4764 -0.5156
 7174SOL    HW232982   4.211   3.678   4.075 -0.4011 -0.5280 -2.7811
 7175SOL     OW32983   1.741   0.788  11.851  0.2511  0.3455 -0.0588
 7175SOL    HW132984   1.691   0.869  11.839 -0.2539  0.0005 -0.3058
 7175SOL    HW232985   1.771   0.784  11.760  1.7072  1.4188  0.3812
 7176SOL     OW32986   2.074   1.784   2.754 -0.1181 -0.3113  0.1372
 7176SOL    HW132987   2.041   1.814   2.670  1.8720  1.8466  0.1208
 7176SOL    HW232988   2.155   1.835   2.765 -0.5506 -0.0242  2.1144
 7177SOL     OW32989   4.627   3.731   7.145 -0.1024 -0.5044 -0.3853
 7177SOL    HW132990   4.537   3.765   7.141 -0.5657 -1.5283  1.1796
 7177SOL    HW232991   4.683   3.808   7.139 -0.6565 -0.4558 -4.4215
 7178SOL     OW32992   0.631   3.133   2.332 -0.0780  0.4118  0.2050
 7178SOL    HW132993   0.673   3.141   2.418  2.5286  2.5040 -1.2634
 7178SOL    HW232994   0.676   3.062   2.287 -0.9445 -0.2401  0.3791
 7179SOL     OW32995   2.356   2.848   4.539 -0.3770  0.3358 -0.1494
 7179SOL    HW132996   2.402   2.913   4.487 -1.1726 -1.1999 -2.7601
 7179SOL    HW232997   2.273   2.895   4.547  0.7783  2.1286  1.1332
 7180SOL     OW32998   3.778   2.300  16.216  0.1293 -0.0096  0.0362
 7180SOL    HW132999   3.873   2.305  16.211 -0.0706  1.0896 -2.7875
 7180SOL    HW233000   3.761   2.379  16.164  2.8305 -0.4219 -1.4575
 7181SOL     OW33001   0.016   2.602   7.206 -0.8112  0.7160 -0.2735
 7181SOL    HW133002   0.067   2.624   7.128  1.1396 -0.6788  0.5830
 7181SOL    HW233003   4.688   2.680   7.212 -0.8022  0.7178 -0.2148
 7182SOL     OW33004   4.145   0.471  14.652 -0.1221  0.3785  0.6331
 7182SOL    HW133005   4.086   0.521  14.594  0.8376  1.5743  0.6944
 7182SOL    HW233006   4.157   0.401  14.588  1.8967  1.5654 -0.2643
 7183SOL     OW33007   4.034   3.897   8.724  0.2144  0.5679  0.3297
 7183SOL    HW133008   3.988   3.864   8.801 -0.0170 -0.4393 -0.2303
 7183SOL    HW233009   3.977   3.849   8.663  0.9933  0.5944 -0.4194
 7184SOL     OW33010   0.013   1.967   3.502 -0.3661 -0.5919 -0.2099
 7184SOL    HW133011   0.099   1.948   3.537 -1.1027  0.1483  1.9667
 7184SOL    HW233012   0.037   1.998   3.414  0.4144 -0.9350 -0.1100
 7185SOL     OW33013   0.387   4.058  11.546 -0.1367  0.1412  0.0537
 7185SOL    HW133014   0.442   4.006  11.487 -0.1234 -0.4925  0.6261
 7185SOL    HW233015   0.422   4.011  11.621 -1.3961  2.0268  1.8086
 7186SOL     OW33016   3.975   1.868  10.573  0.6497  0.0823  0.2248
 7186SOL    HW133017   3.918   1.834  10.504 -0.3561 -1.3307  1.7864
 7186SOL    HW233018   4.045   1.803  10.571  0.0494 -0.5676  0.4942
 7187SOL     OW33019   2.707   0.392   7.675 -0.2587  0.7538  0.5408
 7187SOL    HW133020   2.772   0.438   7.728  1.3248  0.2384 -0.9745
 7187SOL    HW233021   2.645   0.372   7.746 -1.1796  1.8428  0.0460
 7188SOL     OW33022   0.239   2.362   2.106 -0.4093 -0.0521  0.3254
 7188SOL    HW133023   0.169   2.389   2.047  0.3724  0.0837 -0.5329
 7188SOL    HW233024   0.294   2.440   2.107  0.0625 -0.3819  0.3656
 7189SOL     OW33025   1.231   3.680   4.618  0.5810 -0.4787 -0.1232
 7189SOL    HW133026   1.245   3.725   4.701  0.2744  0.1910 -0.4362
 7189SOL    HW233027   1.154   3.725   4.582  1.0193  0.5561  0.2137
 7190SOL     OW33028   3.436   3.367   1.860 -0.0486  0.1175  0.0413
 7190SOL    HW133029   3.351   3.379   1.819  2.1119 -1.9547 -5.0324
 7190SOL    HW233030   3.489   3.443   1.834 -0.0127  0.1145  0.1043
 7191SOL     OW33031   4.319   3.488   2.572 -0.1389  0.4063 -0.2019
 7191SOL    HW133032   4.254   3.429   2.611  0.2479 -0.4822 -0.8857
 7191SOL    HW233033   4.346   3.536   2.650 -1.7278  0.8431  0.0907
 7192SOL     OW33034   3.619   1.154   3.693 -0.4282  0.0284  0.1002
 7192SOL    HW133035   3.572   1.117   3.618  0.8172 -0.8499 -0.2538
 7192SOL    HW233036   3.705   1.168   3.652 -1.3144 -1.3814 -2.2266
 7193SOL     OW33037   2.482   1.004   7.793  0.2012 -0.0109  0.8576
 7193SOL    HW133038   2.496   0.945   7.867 -1.4078 -1.1772  0.2430
 7193SOL    HW233039   2.402   0.956   7.770  0.8262 -0.6515  0.0084
 7194SOL     OW33040   0.032   4.461   2.231  0.3838  0.1960 -0.2329
 7194SOL    HW133041   0.108   4.432   2.180  0.2235 -1.1720  0.2874
 7194SOL    HW233042   0.002   4.374   2.258  1.6968  0.0228  0.6683
 7195SOL     OW33043   2.230   2.686   5.518 -0.1571 -0.4176 -0.0344
 7195SOL    HW133044   2.194   2.743   5.451  0.7513 -0.1408 -0.2933
 7195SOL    HW233045   2.320   2.715   5.533  0.9492 -1.8437 -3.8421
 7196SOL     OW33046   0.092   3.139   1.504  0.1448  0.3841 -0.2169
 7196SOL    HW133047   0.075   3.073   1.436 -0.4795  0.8510 -0.5079
 7196SOL    HW233048   0.122   3.075   1.569  2.8247 -0.5698 -2.3701
 7197SOL     OW33049   4.292   3.472   6.556  0.2535 -0.2143 -0.3281
 7197SOL    HW133050   4.280   3.377   6.564 -2.1005  0.1466  0.2161
 7197SOL    HW233051   4.295   3.492   6.462  0.3292  1.5503  0.0441
 7198SOL     OW33052   4.710   0.963   7.563 -0.2560 -1.1126  0.0245
 7198SOL    HW133053   4.644   1.031   7.577  0.2115 -0.5733 -0.3616
 7198SOL    HW233054   0.030   1.007   7.491 -0.8072  0.3525  0.5672
 7199SOL     OW33055   0.969   3.233   0.544 -0.6507 -0.0940 -0.4654
 7199SOL    HW133056   1.051   3.276   0.569 -0.4203 -0.7281 -0.1055
 7199SOL    HW233057   0.980   3.222   0.450  1.6619 -1.0294 -0.0936
 7200SOL     OW33058   1.969   2.437  12.250  0.0011  0.1434 -0.3125
 7200SOL    HW133059   2.020   2.477  12.179  0.4528 -1.1218 -0.6966
 7200SOL    HW233060   1.892   2.493  12.241 -0.4995 -0.3251  1.0255
 7201SOL     OW33061   0.589   0.297   6.668 -0.0888 -0.0262  0.0333
 7201SOL    HW133062   0.607   0.375   6.616 -0.2797  0.5043  0.7563
 7201SOL    HW233063   0.656   0.299   6.737  0.3614 -2.9838 -0.3395
 7202SOL     OW33064   2.877   0.501  10.596 -1.3176  0.9518  0.2455
 7202SOL    HW133065   2.925   0.469  10.672 -1.2204  1.2618  0.3153
 7202SOL    HW233066   2.788   0.468  10.614 -1.2460 -0.7577 -2.5936
 7203SOL     OW33067   4.192   2.168  12.104  0.2221 -0.3454 -0.3507
 7203SOL    HW133068   4.287   2.182  12.097  0.4766 -0.8914  1.8983
 7203SOL    HW233069   4.164   2.186  12.015  0.6286 -0.6311 -0.5399
 7204SOL     OW33070   4.452   0.672   3.721 -0.7780  0.6008  0.4861
 7204SOL    HW133071   4.451   0.732   3.647 -0.3295 -1.8089 -1.4560
 7204SOL    HW233072   4.537   0.702   3.756  1.0273 -1.8614 -1.8020
 7205SOL     OW33073   3.450   1.413   8.221  0.0053 -0.0874 -0.3503
 7205SOL    HW133074   3.509   1.489   8.218 -0.1109 -0.0047 -0.5502
 7205SOL    HW233075   3.434   1.405   8.315 -1.1876  0.4403 -0.5080
 7206SOL     OW33076   1.008   1.425   5.176 -0.4392  0.2598  0.1905
 7206SOL    HW133077   0.938   1.424   5.110 -1.1937 -3.7381  1.0575
 7206SOL    HW233078   0.962   1.460   5.252 -0.8216  2.1507 -0.9120
 7207SOL     OW33079   1.969   0.203   0.817  0.1489  0.2604  0.3143
 7207SOL    HW133080   1.931   0.143   0.752 -0.4074  1.6830 -0.6783
 7207SOL    HW233081   1.896   0.251   0.854 -0.8567 -1.5587  0.6648
 7208SOL     OW33082   0.594   0.077  17.287  0.3501  0.0944 -0.2929
 7208SOL    HW133083   0.665   0.075  17.223 -0.4620 -1.2522 -1.1789
 7208SOL    HW233084   0.563   0.167  17.276 -0.1420 -0.1043 -0.5583
 7209SOL     OW33085   3.353   1.121   6.153 -0.1195  0.2440 -0.0139
 7209SOL    HW133086   3.354   1.176   6.075 -0.4091 -1.0389 -0.9148
 7209SOL    HW233087   3.400   1.041   6.129 -0.9209  0.3192 -1.8267
 7210SOL     OW33088   1.431   4.718   1.085 -0.3541 -0.2567  0.1890
 7210SOL    HW133089   1.389   0.039   1.013 -0.4960  0.0332  0.4643
 7210SOL    HW233090   1.524   0.014   1.081 -0.4427  0.0104 -0.4332
 7211SOL     OW33091   1.768   1.552  11.843 -0.3038  0.1330  0.3574
 7211SOL    HW133092   1.791   1.628  11.897  1.1293  0.3216 -0.5176
 7211SOL    HW233093   1.830   1.553  11.770  0.9092 -0.0175  1.3861
 7212SOL     OW33094   1.725   1.404   1.487  0.8206  0.1635  0.4696
 7212SOL    HW133095   1.741   1.427   1.579  0.5156  1.3857  0.2205
 7212SOL    HW233096   1.680   1.319   1.493 -0.0918  0.4284 -2.9169
 7213SOL     OW33097   3.792   0.513   6.566 -0.1177  0.4777 -0.1145
 7213SOL    HW133098   3.876   0.476   6.541 -1.6444 -2.5092 -0.7982
 7213SOL    HW233099   3.813   0.543   6.654  0.4074  0.5755 -0.2765
 7214SOL     OW33100   2.994   4.263   5.336  0.7776  0.3271 -0.4572
 7214SOL    HW133101   3.053   4.331   5.369 -0.9255  0.5532  2.0743
 7214SOL    HW233102   3.024   4.193   5.393 -0.7395  0.5587  0.6094
 7215SOL     OW33103   3.189   4.708   1.291  0.0322 -0.6018 -0.5297
 7215SOL    HW133104   3.204   4.616   1.271 -1.2946 -1.0483  0.5393
 7215SOL    HW233105   3.097   4.719   1.266 -1.4330 -0.7724  4.7489
 7216SOL     OW33106   2.790   4.628   2.337 -0.1889 -0.4445 -0.2049
 7216SOL    HW133107   2.701   4.593   2.350  0.0840 -1.0659  0.0025
 7216SOL    HW233108   2.829   4.636   2.424  3.1583 -0.3294 -1.7473
 7217SOL     OW33109   0.943   2.386   3.695  0.1126  0.2383  0.7447
 7217SOL    HW133110   0.865   2.359   3.648 -0.1910 -1.6080  2.3352
 7217SOL    HW233111   1.004   2.364   3.625  0.4063 -4.0929  2.3500
 7218SOL     OW33112   1.205   2.000   0.711  0.2255 -0.0450  0.7706
 7218SOL    HW133113   1.239   1.980   0.624  3.0957  1.8086  1.4549
 7218SOL    HW233114   1.118   2.029   0.685  0.3222 -1.4658 -1.1821
 7219SOL     OW33115   3.946   0.368  13.637 -0.0876  0.5884 -0.9601
 7219SOL    HW133116   3.864   0.385  13.591  0.2385 -0.0494 -1.7713
 7219SOL    HW233117   3.944   0.274  13.656 -1.2967  0.3811 -2.0856
 7220SOL     OW33118   3.540   1.552   5.630  0.0194  0.3351  0.4245
 7220SOL    HW133119   3.576   1.628   5.584 -1.2454  0.3295 -0.5813
 7220SOL    HW233120   3.625   1.515   5.657  0.2760  1.0401  0.5823
 7221SOL     OW33121   3.289   2.246   8.239  0.3157  0.1199  0.2894
 7221SOL    HW133122   3.352   2.181   8.270  1.0192 -0.1751 -1.7041
 7221SOL    HW233123   3.224   2.197   8.188 -0.5534  1.5379  0.0246
 7222SOL     OW33124   2.624   4.220   0.475 -0.4821  0.0029 -0.0503
 7222SOL    HW133125   2.670   4.183   0.550  0.1764  0.1042 -0.4100
 7222SOL    HW233126   2.595   4.138   0.435  0.5647  0.1902 -1.1885
 7223SOL     OW33127   2.611   3.337   6.541 -0.0367  0.3093  0.0553
 7223SOL    HW133128   2.568   3.260   6.504  2.9170 -2.5820  2.6653
 7223SOL    HW233129   2.563   3.410   6.502 -0.7412  0.2185  0.7522
 7224SOL     OW33130   2.614   4.172   9.118 -0.2381  0.1723 -0.2124
 7224SOL    HW133131   2.545   4.112   9.147 -0.5437  0.7640  0.2817
 7224SOL    HW233132   2.694   4.156   9.168 -1.3460  1.2873  1.9278
 7225SOL     OW33133   0.590   0.046  15.266  0.0849  0.5278  0.0393
 7225SOL    HW133134   0.503   0.067  15.300 -0.1149  1.7676 -1.2280
 7225SOL    HW233135   0.594   4.680  15.293  2.1444  0.3515 -0.8948
 7226SOL     OW33136   2.905   4.475   3.864  0.6513 -0.2858 -0.2567
 7226SOL    HW133137   2.857   4.405   3.907  0.6787  0.5433  1.1235
 7226SOL    HW233138   2.832   4.536   3.850 -0.1059 -1.2937 -0.7099
 7227SOL     OW33139   0.193   4.163   8.583 -0.2242  0.2298 -0.0703
 7227SOL    HW133140   0.103   4.157   8.550 -0.5128 -1.5289  1.0556
 7227SOL    HW233141   0.174   4.185   8.674 -0.6962 -2.3104  0.4453
 7228SOL     OW33142   2.958   1.893   7.466  0.1840  0.1929  0.2843
 7228SOL    HW133143   3.052   1.892   7.445  0.5204  0.4628  1.8041
 7228SOL    HW233144   2.943   1.825   7.532 -1.1626 -0.5253 -0.7799
 7229SOL     OW33145   2.933   1.873   3.932 -0.5295 -0.1866 -0.7724
 7229SOL    HW133146   2.879   1.949   3.909 -1.1555 -1.0746 -2.2924
 7229SOL    HW233147   2.937   1.832   3.845  0.1517  1.1516 -1.3837
 7230SOL     OW33148   2.737   2.605   7.440 -0.2256  0.0218  0.2349
 7230SOL    HW133149   2.822   2.591   7.398  0.0956 -1.5038  1.3895
 7230SOL    HW233150   2.689   2.531   7.402 -1.2593 -0.3333  2.2466
 7231SOL     OW33151   4.069   3.320   4.515  0.3518  0.5558 -0.1626
 7231SOL    HW133152   4.105   3.390   4.461  2.0657  0.8791  1.4186
 7231SOL    HW233153   3.990   3.359   4.550  0.7252  0.9928  0.1907
 7232SOL     OW33154   1.783   3.259   7.211  0.3406  0.3368 -0.0857
 7232SOL    HW133155   1.870   3.258   7.249  0.6877  0.6223 -0.8807
 7232SOL    HW233156   1.798   3.338   7.159  1.6748 -0.4063 -0.8359
 7233SOL     OW33157   0.267   3.578  11.499 -0.0974  0.2942  0.0625
 7233SOL    HW133158   0.318   3.498  11.482 -0.1284  0.3247 -0.1664
 7233SOL    HW233159   0.342   3.634  11.519 -0.7085 -0.4228  4.5308
 7234SOL     OW33160   2.790   3.021  13.671  0.1910  0.1721  0.1418
 7234SOL    HW133161   2.742   2.961  13.729  1.1113 -1.4479 -0.7611
 7234SOL    HW233162   2.860   3.047  13.731  0.3660  0.7810 -0.3270
 7235SOL     OW33163   1.276   1.451  13.631  0.0180 -0.0555 -1.0287
 7235SOL    HW133164   1.266   1.541  13.662  2.4389 -0.7783  1.9252
 7235SOL    HW233165   1.343   1.468  13.564 -1.4406  0.2620 -2.3946
 7236SOL     OW33166   3.897   4.182   4.200  0.4002 -0.2917  0.4573
 7236SOL    HW133167   3.868   4.153   4.287 -0.9169 -1.3801 -0.3431
 7236SOL    HW233168   3.924   4.098   4.162  2.9842  0.0947  1.4108
 7237SOL     OW33169   3.979   1.385  11.196  0.8491 -0.2276 -0.3032
 7237SOL    HW133170   4.052   1.364  11.254  1.0224 -0.1680 -0.5003
 7237SOL    HW233171   3.969   1.302  11.150  0.9897 -0.2270 -0.3341
 7238SOL     OW33172   1.299   1.242   4.720 -0.3728 -0.2292 -0.7785
 7238SOL    HW133173   1.247   1.218   4.643  0.5286 -0.6353 -1.2506
 7238SOL    HW233174   1.314   1.154   4.753 -1.0932  0.1681  0.6177
 7239SOL     OW33175   2.625   1.262   2.948 -0.1476  0.6780  0.2195
 7239SOL    HW133176   2.633   1.174   2.986  0.5893  0.2723 -0.8847
 7239SOL    HW233177   2.531   1.261   2.932 -0.4565 -0.4491  2.0530
 7240SOL     OW33178   3.456   3.798   9.844  0.1656 -0.3476  0.7875
 7240SOL    HW133179   3.477   3.705   9.834 -3.2064 -1.0050 -0.2661
 7240SOL    HW233180   3.422   3.785   9.933 -0.4405 -0.4610  0.5446
 7241SOL     OW33181   2.218   3.734  14.841 -0.2694  0.1095 -0.0062
 7241SOL    HW133182   2.302   3.782  14.838 -0.5013  0.4563 -0.8463
 7241SOL    HW233183   2.195   3.743  14.749 -0.3475 -1.2831 -0.1180
 7242SOL     OW33184   0.381   2.335   8.096 -0.2040  0.1273 -0.4138
 7242SOL    HW133185   0.408   2.347   8.187  0.7812  1.9233 -0.9506
 7242SOL    HW233186   0.285   2.334   8.100 -0.1691  2.5637  0.8542
 7243SOL     OW33187   4.441   3.786   8.796 -0.4338 -0.1469  0.2094
 7243SOL    HW133188   4.461   3.707   8.746 -3.7634 -1.0015  0.2154
 7243SOL    HW233189   4.487   3.749   8.872 -0.2891 -0.1041  0.1424
 7244SOL     OW33190   3.919   1.187   7.388  0.0966  0.4184  0.1518
 7244SOL    HW133191   4.009   1.156   7.394  0.6287  1.6321 -1.6253
 7244SOL    HW233192   3.946   1.271   7.352  1.4199 -0.7267 -1.5391
 7245SOL     OW33193   2.164   0.716   6.328  0.2709  0.4097 -0.0899
 7245SOL    HW133194   2.173   0.790   6.388  1.0759  0.4863 -0.3050
 7245SOL    HW233195   2.248   0.724   6.282  0.1585  0.7579 -0.2291
 7246SOL     OW33196   4.535   2.410   3.093 -0.1249  0.0881  0.1981
 7246SOL    HW133197   4.524   2.323   3.131  2.9147 -2.1038 -3.9154
 7246SOL    HW233198   4.477   2.469   3.140 -1.5999 -0.2279 -1.2188
 7247SOL     OW33199   1.648   2.249  16.498  0.2115  0.1700 -0.5263
 7247SOL    HW133200   1.683   2.336  16.518  1.2011 -0.6655  1.3739
 7247SOL    HW233201   1.711   2.220  16.432 -1.1605  1.7696 -2.5614
 7248SOL     OW33202   3.665   0.887  10.820  0.3649  0.1893 -0.2327
 7248SOL    HW133203   3.588   0.908  10.872  0.4657  2.2727 -0.9166
 7248SOL    HW233204   3.739   0.920  10.871 -1.0610  0.6992  1.4859
 7249SOL     OW33205   2.950   1.770   4.567  0.0681 -0.4643 -0.3088
 7249SOL    HW133206   3.011   1.696   4.562  1.0894  0.4610 -1.4108
 7249SOL    HW233207   2.867   1.729   4.592  0.9579 -1.6611  0.6795
 7250SOL     OW33208   2.164   0.438   3.656 -0.7671  0.0995 -0.4541
 7250SOL    HW133209   2.081   0.408   3.693  0.8403 -1.1640  2.1712
 7250SOL    HW233210   2.178   0.381   3.581  1.7009 -2.1671  1.7030
 7251SOL     OW33211   4.042   3.018  13.941  0.4205  0.1993 -0.0204
 7251SOL    HW133212   4.057   2.972  14.024  0.6396 -0.1933 -0.2753
 7251SOL    HW233213   3.961   2.977  13.909  1.4265 -1.1581 -0.8191
 7252SOL     OW33214   1.310   0.186   5.080 -0.4348 -0.2844  0.3726
 7252SOL    HW133215   1.331   0.213   5.169 -0.6152 -0.7208  0.5437
 7252SOL    HW233216   1.342   0.096   5.076 -0.2230 -0.2076  0.3400
 7253SOL     OW33217   2.472   4.397   5.295  0.3142 -0.3455  0.4839
 7253SOL    HW133218   2.552   4.429   5.336 -0.6081  1.2241  1.0319
 7253SOL    HW233219   2.416   4.385   5.371  0.8172  1.8884  1.1957
 7254SOL     OW33220   2.746   4.287   6.533  0.0550 -0.5437 -0.0286
 7254SOL    HW133221   2.675   4.352   6.534 -0.0105 -0.6163  0.0794
 7254SOL    HW233222   2.705   4.216   6.484  0.3800 -0.1125 -0.9120
 7255SOL     OW33223   3.139   1.602  12.703 -0.0148 -0.6159 -0.3902
 7255SOL    HW133224   3.048   1.618  12.679 -0.3748  3.0134  3.4303
 7255SOL    HW233225   3.178   1.547  12.635 -1.2122  1.1548 -2.4790
 7256SOL     OW33226   1.045   0.191  15.735 -0.2917 -0.1478 -0.3086
 7256SOL    HW133227   1.058   0.123  15.802  0.0938  0.3961  0.1650
 7256SOL    HW233228   1.134   0.228  15.733  0.0336 -0.9492 -0.7270
 7257SOL     OW33229   1.751   2.297   0.727  0.4554 -0.1806  0.6778
 7257SOL    HW133230   1.715   2.260   0.807 -1.7276  0.9466  0.2423
 7257SOL    HW233231   1.675   2.272   0.674  0.9625  0.9749 -0.6246
 7258SOL     OW33232   3.370   3.212  16.468 -0.0539 -0.0455  0.3444
 7258SOL    HW133233   3.277   3.232  16.476 -0.2660 -1.3098  1.0295
 7258SOL    HW233234   3.396   3.176  16.553 -3.5293  0.6140  1.6815
 7259SOL     OW33235   2.705   4.563   7.158 -0.1645  0.2887  0.1367
 7259SOL    HW133236   2.732   4.551   7.249  2.5472  1.3631 -0.5358
 7259SOL    HW233237   2.692   4.657   7.158  1.0768  0.4575 -1.1005
 7260SOL     OW33238   2.878   1.330  17.037 -0.6482 -0.1993  0.3600
 7260SOL    HW133239   2.889   1.416  17.078  0.8166 -0.3475  0.2846
 7260SOL    HW233240   2.784   1.317  17.041 -0.6242 -0.6402 -0.6522
 7261SOL     OW33241   4.165   2.487   2.900  0.0505 -0.2615  0.4225
 7261SOL    HW133242   4.201   2.398   2.903 -1.7224 -0.9610  0.7793
 7261SOL    HW233243   4.140   2.500   2.809 -0.3123 -0.1043  0.5450
 7262SOL     OW33244   0.255   1.865   2.802 -0.2584  0.5831 -0.6597
 7262SOL    HW133245   0.274   1.944   2.751 -1.1585 -0.1012 -2.0515
 7262SOL    HW233246   0.304   1.800   2.752 -0.6417 -0.2873  0.0916
 7263SOL     OW33247   1.091   4.166   2.303 -0.7819  0.1982 -0.3676
 7263SOL    HW133248   1.160   4.102   2.284  0.2363  1.1422  0.1146
 7263SOL    HW233249   1.025   4.120   2.252  0.1631 -0.0006 -1.3968
 7264SOL     OW33250   0.132   0.793  13.760  0.0565  0.6987 -0.0759
 7264SOL    HW133251   0.078   0.818  13.834 -0.0071 -0.2005  0.1767
 7264SOL    HW233252   0.168   0.880  13.742 -0.0622  0.9408  0.8712
 7265SOL     OW33253   1.967   3.718   2.428  0.4050  0.1027  1.1548
 7265SOL    HW133254   2.048   3.672   2.406  0.0806  0.0410  0.0703
 7265SOL    HW233255   1.974   3.784   2.358 -0.5241  0.0717  1.0356
 7266SOL     OW33256   0.253   3.082   6.338  0.1585 -0.3316 -0.2521
 7266SOL    HW133257   0.333   3.133   6.352  0.0288  0.0504 -0.8987
 7266SOL    HW233258   0.209   3.100   6.421 -2.3097  2.0889 -2.0909
 7267SOL     OW33259   0.005   2.213   5.943 -0.5321  0.4930  0.1155
 7267SOL    HW133260   0.097   2.198   5.964 -0.3143  2.2315  0.4204
 7267SOL    HW233261   4.691   2.187   6.026  0.1729 -0.3863  0.1871
 7268SOL     OW33262   2.989   4.560   3.265 -0.1072 -0.2796 -0.3803
 7268SOL    HW133263   3.069   4.582   3.314 -1.5808 -0.0987  1.9057
 7268SOL    HW233264   3.017   4.584   3.176  2.4315  2.4673  1.1529
 7269SOL     OW33265   4.030   4.278   2.326  0.5338 -0.1104  0.1832
 7269SOL    HW133266   3.935   4.275   2.311 -0.0350  1.9244  3.3740
 7269SOL    HW233267   4.048   4.188   2.350  0.9245  0.3009  1.4460
 7270SOL     OW33268   4.676   2.064   8.419  0.0025 -0.2404 -0.1067
 7270SOL    HW133269   4.666   2.139   8.478  0.3737 -2.3424  2.6041
 7270SOL    HW233270   0.039   2.038   8.440 -0.3673 -2.1471 -0.9638
 7271SOL     OW33271   1.296   1.782  13.466 -0.7622 -0.3736  0.2280
 7271SOL    HW133272   1.241   1.813  13.538  1.4355  0.2666  1.6498
 7271SOL    HW233273   1.238   1.775  13.390 -0.6931 -2.3791  0.3638
 7272SOL     OW33274   0.243   0.500  12.090  0.7769  0.0173  1.0201
 7272SOL    HW133275   0.267   0.514  12.181 -2.9642  0.3135  1.9311
 7272SOL    HW233276   0.219   0.585  12.054  0.1307 -2.0807 -3.5309
 7273SOL     OW33277   3.086   3.384   6.584  0.2303 -0.1146 -0.3042
 7273SOL    HW133278   3.000   3.344   6.592 -0.1295  0.4515 -1.3916
 7273SOL    HW233279   3.087   3.414   6.493  0.5120  0.3517 -0.1455
 7274SOL     OW33280   0.102   2.791   7.778  0.3500 -0.4494  0.0044
 7274SOL    HW133281   0.023   2.776   7.830  1.6390 -0.6728  1.8947
 7274SOL    HW233282   0.099   2.726   7.708  0.1229  1.7268 -2.0326
 7275SOL     OW33283   3.002   2.769   2.937  0.1148 -0.5749  0.1336
 7275SOL    HW133284   2.912   2.765   2.906  0.4867 -1.5590 -0.8361
 7275SOL    HW233285   2.991   2.693   2.994  0.7547 -2.1622 -1.8502
 7276SOL     OW33286   0.085   1.299  16.731  0.2855 -0.4882  0.5851
 7276SOL    HW133287   0.090   1.373  16.670 -0.4073 -0.2337  0.8428
 7276SOL    HW233288   0.117   1.224  16.681 -1.2750  0.4182 -1.7669
 7277SOL     OW33289   0.478   3.918   6.917 -0.3224 -0.0834 -0.2917
 7277SOL    HW133290   0.444   3.929   6.829 -1.4429 -0.1821  0.1284
 7277SOL    HW233291   0.514   4.004   6.940  1.2468 -0.9752  0.6340
 7278SOL     OW33292   2.135   2.661  11.515 -0.2458 -0.0317  0.0996
 7278SOL    HW133293   2.044   2.674  11.489 -0.2184 -1.0338 -0.4946
 7278SOL    HW233294   2.125   2.610  11.596 -3.1741  0.8726  0.2917
 7279SOL     OW33295   0.793   2.875   5.398  0.1394 -0.7245  0.3869
 7279SOL    HW133296   0.881   2.898   5.428  0.3234  0.6191 -1.1729
 7279SOL    HW233297   0.740   2.895   5.474  0.7043 -0.5547  0.7320
 7280SOL     OW33298   2.559   2.020   6.341 -0.2760  0.6754  0.6262
 7280SOL    HW133299   2.597   2.087   6.285  0.2425  0.0767  0.2643
 7280SOL    HW233300   2.467   2.044   6.356  0.0035  2.2894 -0.2308
 7281SOL     OW33301   3.214   4.012  12.180  0.3232 -0.0941  0.3261
 7281SOL    HW133302   3.304   3.980  12.191 -0.4522 -2.1347  0.5422
 7281SOL    HW233303   3.192   4.044  12.267  0.6945  1.1354 -0.0241
 7282SOL     OW33304   2.738   0.932   9.526 -0.4713  0.0030 -0.5980
 7282SOL    HW133305   2.794   0.872   9.477  1.8310  1.3241  0.4349
 7282SOL    HW233306   2.652   0.919   9.485 -1.0233  0.2832  0.4479
 7283SOL     OW33307   1.018   0.193   7.019 -0.2459  0.2982 -0.6415
 7283SOL    HW133308   0.944   0.154   7.066 -0.0042  1.5757  0.7749
 7283SOL    HW233309   1.039   0.275   7.064 -2.2138  0.7728 -0.5718
 7284SOL     OW33310   1.027   2.003  12.661  0.2671  0.4426 -0.6670
 7284SOL    HW133311   0.965   2.025  12.592 -1.8508 -0.2087  1.0391
 7284SOL    HW233312   1.016   1.908  12.652  0.3962  0.6256 -2.7783
 7285SOL     OW33313   4.516   1.932   7.603  0.2546 -0.0051 -0.4111
 7285SOL    HW133314   4.422   1.924   7.618  0.6352 -0.3378  1.8707
 7285SOL    HW233315   4.527   2.021   7.637 -0.3191  0.1950 -0.7477
 7286SOL     OW33316   4.129   2.464   2.643  0.2551  0.1660 -0.0927
 7286SOL    HW133317   4.162   2.386   2.598  2.4568  0.6379  0.6976
 7286SOL    HW233318   4.037   2.460   2.615  1.0167  0.6677 -2.6948
 7287SOL     OW33319   1.728   2.553   7.216  0.4277 -0.2668  0.2980
 7287SOL    HW133320   1.714   2.466   7.253 -0.2283 -0.9928 -1.7013
 7287SOL    HW233321   1.824   2.554   7.207  0.2581  1.8461 -1.1511
 7288SOL     OW33322   0.999   4.002   2.554  0.0388  0.1998  0.0547
 7288SOL    HW133323   0.998   4.077   2.495  1.4682  1.4614  1.6455
 7288SOL    HW233324   0.910   4.006   2.589 -0.0777  0.0748 -0.2246
 7289SOL     OW33325   3.907   1.141   4.520 -0.2631 -0.1535  0.5018
 7289SOL    HW133326   3.833   1.198   4.541  0.1658  0.8243 -0.6937
 7289SOL    HW233327   3.876   1.087   4.448 -2.2211  0.9880  0.4855
 7290SOL     OW33328   3.852   1.689   8.902  0.3314 -0.0825 -0.1815
 7290SOL    HW133329   3.928   1.661   8.851  1.1593  0.2963  0.8404
 7290SOL    HW233330   3.891   1.681   8.990  2.7093  1.3139 -1.0998
 7291SOL     OW33331   2.434   0.560   4.191  0.3278  0.0874  0.1012
 7291SOL    HW133332   2.426   0.640   4.140  0.3513 -0.0899 -0.1787
 7291SOL    HW233333   2.345   0.539   4.219 -0.4184  1.0772 -1.5597
 7292SOL     OW33334   2.322   0.157   0.119 -0.2377  0.0966 -0.2550
 7292SOL    HW133335   2.268   0.178   0.194  0.1343 -0.0993  0.0683
 7292SOL    HW233336   2.398   0.126   0.168 -1.1912 -0.2601  0.9993
 7293SOL     OW33337   2.308   1.288  12.212  0.2760 -0.3169  0.0950
 7293SOL    HW133338   2.270   1.261  12.129 -2.3898  0.4637  1.0567
 7293SOL    HW233339   2.238   1.339  12.253  1.7902  1.5306  0.3949
 7294SOL     OW33340   2.921   0.767   7.648  0.2502 -0.2885 -0.0315
 7294SOL    HW133341   2.901   0.716   7.569  1.2879  0.7409 -0.9544
 7294SOL    HW233342   2.844   0.823   7.658  2.2112  2.0424  1.9251
 7295SOL     OW33343   0.693   4.707  17.544  0.3769 -0.0496 -0.3144
 7295SOL    HW133344   0.724   0.007  17.457  2.7106 -0.0650  0.5079
 7295SOL    HW233345   0.600   4.692  17.524  0.2806  0.2632 -0.0970
 7296SOL     OW33346   3.888   1.976   7.562  0.4013  0.5276 -0.2520
 7296SOL    HW133347   3.922   2.008   7.478  1.7415 -1.3691 -0.4528
 7296SOL    HW233348   3.964   1.922   7.584  0.8614  2.4750  2.8908
 7297SOL     OW33349   0.091   0.905   8.363 -0.0179 -1.1146 -0.3158
 7297SOL    HW133350   0.000   0.891   8.336  0.1141  2.3685 -2.4450
 7297SOL    HW233351   0.093   0.996   8.391 -0.1708 -1.1491 -0.1927
 7298SOL     OW33352   4.478   3.212   0.364 -0.4426  0.0625 -0.5214
 7298SOL    HW133353   4.470   3.305   0.385 -4.1449 -0.8147  1.9370
 7298SOL    HW233354   4.437   3.213   0.277 -1.7983  1.8603  0.1237
 7299SOL     OW33355   4.530   0.323   0.612  0.5093  0.0174  0.1408
 7299SOL    HW133356   4.504   0.414   0.625 -2.6069 -0.5707 -2.0807
 7299SOL    HW233357   4.620   0.342   0.586  0.2703  0.0041 -0.6698
 7300SOL     OW33358   1.623   4.468  15.900 -0.5057  0.5042  0.1063
 7300SOL    HW133359   1.570   4.456  15.821  0.4328  1.1126 -0.6030
 7300SOL    HW233360   1.689   4.532  15.876  1.0246 -0.4864  1.7074
 7301SOL     OW33361   4.128   2.231  11.840 -0.5510 -0.0952 -0.1633
 7301SOL    HW133362   4.173   2.310  11.810  0.6897 -0.7610 -0.0773
 7301SOL    HW233363   4.110   2.190  11.755 -1.8483 -0.4318  0.2718
 7302SOL     OW33364   2.406   1.721  10.521 -0.1148  0.4191 -0.2921
 7302SOL    HW133365   2.408   1.728  10.425  3.6117  3.1753  0.0032
 7302SOL    HW233366   2.434   1.806  10.555  0.0288  0.5589 -0.7475
 7303SOL     OW33367   0.535   0.640   5.731  0.3363  0.3470  0.0481
 7303SOL    HW133368   0.493   0.675   5.810 -0.4788  2.3601 -1.2903
 7303SOL    HW233369   0.590   0.705   5.686  2.9802 -2.0660 -0.1927
 7304SOL     OW33370   1.118   3.002   5.234 -0.2614 -0.0086  0.0214
 7304SOL    HW133371   1.100   2.961   5.318  3.3712 -2.1821 -0.2574
 7304SOL    HW233372   1.201   3.043   5.259 -1.0967  2.6896 -1.5921
 7305SOL     OW33373   0.439   3.446   3.189 -0.1433  0.7636  0.1875
 7305SOL    HW133374   0.471   3.518   3.135  0.1287  0.2937 -0.2794
 7305SOL    HW233375   0.513   3.390   3.210 -0.6380 -0.1731 -0.5242
 7306SOL     OW33376   1.618   1.505   3.788  0.2950 -0.1053  0.1660
 7306SOL    HW133377   1.664   1.484   3.707  0.4211  0.4708  0.0861
 7306SOL    HW233378   1.597   1.597   3.772 -3.3560 -1.0155 -0.1388
 7307SOL     OW33379   4.271   0.217  15.140  0.6147 -0.2409  0.1515
 7307SOL    HW133380   4.316   0.166  15.207  1.1440 -0.1051 -0.1021
 7307SOL    HW233381   4.332   0.289  15.126  1.0913 -0.9176 -1.2037
 7308SOL     OW33382   3.470   1.786   3.937  0.7274  0.1699  0.2158
 7308SOL    HW133383   3.546   1.798   3.994  0.9770 -1.1394  0.1674
 7308SOL    HW233384   3.389   1.791   3.988  0.3111 -0.0273 -0.4235
 7309SOL     OW33385   3.626   2.504   4.758 -0.6552  0.3883 -0.1742
 7309SOL    HW133386   3.567   2.442   4.801  1.5364 -0.0311  2.2145
 7309SOL    HW233387   3.569   2.569   4.717 -0.3323  0.9265  0.2421
 7310SOL     OW33388   2.393   2.523   8.163 -0.3865  0.3009 -0.2841
 7310SOL    HW133389   2.445   2.496   8.088  0.7615  1.2736  0.1552
 7310SOL    HW233390   2.327   2.571   8.114  0.7366 -1.1961 -3.2641
 7311SOL     OW33391   1.930   4.490   2.794 -0.1298 -0.4567  0.4041
 7311SOL    HW133392   1.942   4.411   2.742 -0.3772 -0.9485  1.0924
 7311SOL    HW233393   1.989   4.552   2.750 -0.1237 -0.0483  0.9852
 7312SOL     OW33394   2.172   0.867  12.959 -0.2086  0.1742 -0.6896
 7312SOL    HW133395   2.259   0.836  12.931 -0.5502 -2.2608  0.9370
 7312SOL    HW233396   2.149   0.804  13.027  1.7960 -0.8788 -0.9784
 7313SOL     OW33397   3.565   4.672   3.447  0.1783 -0.1521  0.1979
 7313SOL    HW133398   3.512   4.592   3.452  1.0342 -0.7745 -0.9304
 7313SOL    HW233399   3.655   4.639   3.451  0.5662  0.7960 -0.8784
 7314SOL     OW33400   0.399   4.258  17.484  0.3599  0.4746  0.5552
 7314SOL    HW133401   0.305   4.259  17.502  0.1023 -1.6522 -0.7434
 7314SOL    HW233402   0.423   4.332  17.541 -0.9839  1.3196  0.0198
 7315SOL     OW33403   1.743   3.092   5.893  0.2645  0.1250  0.5371
 7315SOL    HW133404   1.826   3.085   5.846  0.3657 -0.1401  0.7629
 7315SOL    HW233405   1.772   3.130   5.976 -0.1187  1.1729  0.1998
 7316SOL     OW33406   3.515   4.435  14.095 -0.3977  0.1201 -0.0090
 7316SOL    HW133407   3.577   4.367  14.122 -0.7751 -0.5879 -0.9306
 7316SOL    HW233408   3.559   4.508  14.139  0.1983 -0.2016 -0.0772
 7317SOL     OW33409   2.094   1.498   2.573  0.4608  0.0113  0.1895
 7317SOL    HW133410   2.012   1.541   2.551 -0.4244 -0.4867  2.5263
 7317SOL    HW233411   2.087   1.490   2.668  2.5057  0.0170  0.3559
 7318SOL     OW33412   4.330   1.614  16.795  0.1796  0.0274  0.4078
 7318SOL    HW133413   4.328   1.530  16.841 -1.2304 -0.3253 -0.3101
 7318SOL    HW233414   4.380   1.667  16.857 -0.2039 -1.5942  2.1071
 7319SOL     OW33415   4.589   4.122   5.803 -0.0451 -0.7194  0.6873
 7319SOL    HW133416   4.518   4.064   5.774 -0.9237  1.1700 -0.8930
 7319SOL    HW233417   4.553   4.157   5.884  0.5976  0.4031  0.4721
 7320SOL     OW33418   0.507   1.123   6.978 -0.0296  0.0658  0.3765
 7320SOL    HW133419   0.542   1.111   6.890  0.6089 -0.7847  0.7471
 7320SOL    HW233420   0.596   1.141   7.007  0.0630 -1.0872  0.7858
 7321SOL     OW33421   2.940   1.268   6.018  0.0198  0.4428  0.2810
 7321SOL    HW133422   2.976   1.208   6.083  0.0007  0.2625  0.1289
 7321SOL    HW233423   2.966   1.232   5.933 -0.9292 -0.9957  0.6018
 7322SOL     OW33424   0.135   4.048   5.852  0.2233 -0.3347  0.2080
 7322SOL    HW133425   0.155   4.129   5.805  0.3679 -0.5097 -0.0300
 7322SOL    HW233426   0.043   4.042   5.826  0.5700  0.0150 -1.1251
 7323SOL     OW33427   4.658   2.335   7.004 -0.3539 -0.1954 -0.5299
 7323SOL    HW133428   4.689   2.289   6.925  1.4853  0.7408 -0.3506
 7323SOL    HW233429   4.634   2.420   6.969 -0.9169  0.2292  0.8973
 7324SOL     OW33430   1.803   3.627  15.574 -0.0045 -0.4839  0.3049
 7324SOL    HW133431   1.788   3.698  15.511 -0.0279  0.3423  1.2439
 7324SOL    HW233432   1.868   3.668  15.630  1.2975 -1.7394 -0.2660
 7325SOL     OW33433   3.879   1.697   5.290 -0.0308  0.2320  0.1738
 7325SOL    HW133434   3.848   1.606   5.285 -0.4235  0.5821 -4.2118
 7325SOL    HW233435   3.938   1.693   5.365  0.2362  0.0340 -0.0432
 7326SOL     OW33436   1.903   4.459   4.594 -0.2895 -0.2790  0.0816
 7326SOL    HW133437   1.898   4.365   4.579 -2.1558 -0.0557 -0.6333
 7326SOL    HW233438   1.837   4.470   4.662  0.6756 -0.6401  1.0715
 7327SOL     OW33439   3.454   3.812   3.568 -0.2717 -0.4456  0.1044
 7327SOL    HW133440   3.534   3.845   3.610 -0.6373  0.1559  0.3336
 7327SOL    HW233441   3.385   3.826   3.633  0.2394  4.2724 -0.3863
 7328SOL     OW33442   3.213   3.388   4.149 -0.3456 -0.6643  0.1141
 7328SOL    HW133443   3.258   3.308   4.176  0.5836  0.2362  1.2521
 7328SOL    HW233444   3.298   3.432   4.142 -1.2608  1.0795 -0.0248
 7329SOL     OW33445   0.446   3.593   4.758 -0.1561  0.4581 -0.5766
 7329SOL    HW133446   0.502   3.515   4.767 -0.3342  0.1492 -2.2214
 7329SOL    HW233447   0.483   3.623   4.675  1.3901  0.9252  0.2604
 7330SOL     OW33448   0.325   2.160   0.547  0.2277 -0.1577  0.1072
 7330SOL    HW133449   0.350   2.072   0.518 -1.6733 -0.6578 -0.0521
 7330SOL    HW233450   0.403   2.202   0.582 -0.3586  0.2164  0.9673
 7331SOL     OW33451   1.280   0.591   5.425  0.4051 -0.0982  0.2316
 7331SOL    HW133452   1.225   0.660   5.461 -0.4375 -1.5409  1.6954
 7331SOL    HW233453   1.292   0.532   5.500  0.2401  0.4175  0.6630
 7332SOL     OW33454   4.161   2.763  10.682 -0.5084 -0.4309 -0.2798
 7332SOL    HW133455   4.137   2.675  10.712  0.8956 -1.2432 -1.5593
 7332SOL    HW233456   4.133   2.762  10.591  1.3213  2.4250 -0.8557
 7333SOL     OW33457   3.020   3.100   0.954  0.5201 -0.8218  0.3562
 7333SOL    HW133458   3.037   3.050   0.875 -0.3085  2.7593 -2.1300
 7333SOL    HW233459   3.041   3.181   0.908  3.5258 -1.3312  0.8635
 7334SOL     OW33460   3.436   4.023   8.881  0.0491 -0.2030  0.5558
 7334SOL    HW133461   3.476   4.056   8.800  0.1538 -0.0674  0.6626
 7334SOL    HW233462   3.489   3.948   8.908  0.9314  0.0037 -0.6053
 7335SOL     OW33463   2.765   1.899  13.363 -0.3496  0.7414 -0.1365
 7335SOL    HW133464   2.721   1.858  13.288 -0.6762 -0.3068  0.6400
 7335SOL    HW233465   2.712   1.861  13.432  0.7919 -2.9937 -1.3281
 7336SOL     OW33466   2.329   0.750   4.427  0.1334  0.0663  0.0233
 7336SOL    HW133467   2.378   0.668   4.425  1.3702  0.8092 -0.4402
 7336SOL    HW233468   2.401   0.809   4.449  1.3560 -1.5668  0.3970
 7337SOL     OW33469   3.456   4.146   0.608  0.0262  0.0280 -0.5905
 7337SOL    HW133470   3.468   4.223   0.553  0.5585 -0.6274 -1.3809
 7337SOL    HW233471   3.379   4.168   0.662  0.5011 -0.2970  0.2211
 7338SOL     OW33472   2.630   0.776  11.907  0.4861 -0.4366 -0.0952
 7338SOL    HW133473   2.678   0.719  11.847  0.8849 -0.0768 -0.1229
 7338SOL    HW233474   2.645   0.863  11.869  2.6962 -1.1870 -0.9488
 7339SOL     OW33475   2.497   1.911   7.573 -0.0721 -0.0888 -0.8449
 7339SOL    HW133476   2.583   1.915   7.616 -0.1885  0.8240 -0.6956
 7339SOL    HW233477   2.471   1.820   7.592  1.8461 -0.6614 -0.9304
 7340SOL     OW33478   3.889   1.707   7.809 -0.2653 -0.2422 -0.2639
 7340SOL    HW133479   3.823   1.755   7.760 -0.4313  0.8601  1.0082
 7340SOL    HW233480   3.964   1.744   7.762 -0.5841 -0.5518 -1.0079
 7341SOL     OW33481   2.291   0.167  17.279  0.1657 -0.3450  0.1630
 7341SOL    HW133482   2.240   0.246  17.258  0.1806  0.2197  2.2362
 7341SOL    HW233483   2.338   0.189  17.360 -1.0832  0.0275  0.7900
 7342SOL     OW33484   3.357   2.215   3.042  0.0984 -0.7119 -0.3349
 7342SOL    HW133485   3.434   2.229   2.987  0.5738  0.0288  0.5015
 7342SOL    HW233486   3.289   2.236   2.978 -1.5847  0.3670  1.7992
 7343SOL     OW33487   1.698   1.797   4.011  0.5001 -0.4216  0.1187
 7343SOL    HW133488   1.730   1.715   4.048 -0.8006 -0.6367  0.7547
 7343SOL    HW233489   1.770   1.854   4.040 -1.5434  1.7222  0.9722
 7344SOL     OW33490   2.722   3.808  15.634  0.8708 -0.0807 -0.4849
 7344SOL    HW133491   2.679   3.725  15.652  0.5459 -0.0732 -1.2137
 7344SOL    HW233492   2.672   3.847  15.563 -0.4757  0.6239  0.8459
 7345SOL     OW33493   4.145   0.292  14.468 -0.4118  0.2122 -0.1289
 7345SOL    HW133494   4.219   0.235  14.448  0.7069  1.4358  0.5078
 7345SOL    HW233495   4.069   0.252  14.425 -2.4282  0.6192  3.0719
 7346SOL     OW33496   3.929   1.775   2.892 -0.1843  0.4995  0.1820
 7346SOL    HW133497   3.888   1.691   2.872 -0.8948 -0.1976  4.5685
 7346SOL    HW233498   3.958   1.803   2.805 -0.5576  1.0848  0.2432
 7347SOL     OW33499   0.340   1.402   7.924  0.3477 -0.2667 -0.7139
 7347SOL    HW133500   0.343   1.310   7.948  2.4728  0.1029  0.3866
 7347SOL    HW233501   0.254   1.427   7.959  0.6451 -1.4393  0.8338
 7348SOL     OW33502   4.373   3.345   6.294 -0.1806  1.4268 -0.0207
 7348SOL    HW133503   4.439   3.388   6.349  1.2286 -0.0167 -0.5857
 7348SOL    HW233504   4.423   3.272   6.259 -2.2350 -0.0784  0.2297
 7349SOL     OW33505   2.574   3.591   1.569 -0.4867 -0.3571  0.0173
 7349SOL    HW133506   2.635   3.531   1.526 -0.0036  0.1087  0.0648
 7349SOL    HW233507   2.616   3.677   1.567  1.1447 -1.1263  1.0605
 7350SOL     OW33508   2.856   4.612   8.577 -0.1604 -0.2850 -0.1367
 7350SOL    HW133509   2.803   4.690   8.563  1.2850  1.4031  3.8427
 7350SOL    HW233510   2.812   4.551   8.517  1.7331 -0.7117 -1.1122
 7351SOL     OW33511   3.000   4.395  10.089  0.5128 -0.6203  0.3137
 7351SOL    HW133512   2.988   4.354  10.004 -0.8512 -0.8708  0.6187
 7351SOL    HW233513   3.059   4.466  10.067  1.5363 -1.0808  1.5734
 7352SOL     OW33514   3.614   2.811   4.142  0.7324  0.4258 -0.1291
 7352SOL    HW133515   3.570   2.748   4.085 -1.9484  0.6936  1.6708
 7352SOL    HW233516   3.678   2.842   4.077  0.1201 -0.5173 -1.1892
 7353SOL     OW33517   2.160   2.528  17.496 -0.4278 -0.6254  0.0465
 7353SOL    HW133518   2.135   2.517  17.404 -0.1982 -1.6579  0.1031
 7353SOL    HW233519   2.191   2.618  17.490 -0.8834 -0.3373  2.1555
 7354SOL     OW33520   0.757   4.317   5.522 -0.2914 -0.1648 -0.4356
 7354SOL    HW133521   0.847   4.288   5.536  0.2430  2.3820  1.3666
 7354SOL    HW233522   0.716   4.242   5.479 -1.0643 -0.3981  0.7113
 7355SOL     OW33523   4.411   3.597   3.744 -0.1450  0.4868  0.1783
 7355SOL    HW133524   4.432   3.541   3.669  1.8387 -1.3636  2.0991
 7355SOL    HW233525   4.493   3.648   3.745 -1.1065  2.0189  0.1944
 7356SOL     OW33526   2.852   0.480  11.232 -0.2414  0.1212  0.0654
 7356SOL    HW133527   2.893   0.431  11.161  0.5079  0.0603  0.5468
 7356SOL    HW233528   2.896   0.564  11.220  0.1863 -0.1544 -0.2976
 7357SOL     OW33529   1.268   2.596   6.330  0.2702 -0.6565  0.3508
 7357SOL    HW133530   1.332   2.641   6.274 -0.1621 -1.1769 -0.5573
 7357SOL    HW233531   1.326   2.590   6.406 -0.6597 -2.5112  0.9006
 7358SOL     OW33532   0.080   1.100   6.803 -0.1457 -0.1290  0.3042
 7358SOL    HW133533   0.169   1.067   6.790  0.6630  2.2895 -0.3595
 7358SOL    HW233534   0.111   1.187   6.826 -0.3845 -0.2364  1.0405
 7359SOL     OW33535   2.101   1.522   5.751  0.2503  0.0684  0.4868
 7359SOL    HW133536   2.121   1.478   5.833  0.6693 -0.3792  0.1490
 7359SOL    HW233537   2.181   1.510   5.700 -0.3102 -1.0137 -0.1441
 7360SOL     OW33538   0.612   0.641  14.665  0.4008 -0.1141  0.3562
 7360SOL    HW133539   0.550   0.664  14.596  0.8972 -2.5013 -0.8849
 7360SOL    HW233540   0.670   0.717  14.664  0.1603  0.0722  0.7370
 7361SOL     OW33541   0.633   1.854   5.059  0.1823 -0.2708  0.5970
 7361SOL    HW133542   0.719   1.826   5.026 -0.9604 -0.8915 -1.8926
 7361SOL    HW233543   0.645   1.949   5.067 -1.6346  0.0966 -1.0092
 7362SOL     OW33544   2.674   0.117   8.619  0.1809  0.5567  0.0992
 7362SOL    HW133545   2.614   0.053   8.656  2.2974 -0.7153  1.2930
 7362SOL    HW233546   2.657   0.193   8.676 -0.2787 -1.6209  2.8538
 7363SOL     OW33547   4.623   4.265  13.588  0.3339 -0.0891  1.0818
 7363SOL    HW133548   4.571   4.186  13.602  0.2842 -0.2647 -0.0291
 7363SOL    HW233549   4.694   4.255  13.651  1.6028 -0.6152 -0.4049
 7364SOL     OW33550   3.776   4.525  14.470  0.0476  1.1365 -0.2490
 7364SOL    HW133551   3.777   4.618  14.445  0.4680  0.7899 -1.5332
 7364SOL    HW233552   3.706   4.488  14.417  2.9297 -0.6297 -2.8256
 7365SOL     OW33553   2.931   0.254   5.100  0.3853  0.3384  0.3176
 7365SOL    HW133554   2.842   0.235   5.071  1.5865 -0.2607 -2.9319
 7365SOL    HW233555   2.957   0.162   5.087  1.0074  0.5458  0.0962
 7366SOL     OW33556   0.814   2.020   3.079  0.1263  0.0847 -0.2375
 7366SOL    HW133557   0.769   1.941   3.048 -2.4929  0.6716  2.0594
 7366SOL    HW233558   0.881   2.024   3.011 -0.1513 -1.0939 -0.5824
 7367SOL     OW33559   2.315   4.711   0.498 -0.5627 -0.5242  0.3262
 7367SOL    HW133560   2.292   4.651   0.569 -0.5873 -1.2084 -0.2558
 7367SOL    HW233561   2.359   0.059   0.540 -1.9334  0.6406 -0.3013
 7368SOL     OW33562   4.662   0.764  14.635 -0.4934 -0.2050  0.3085
 7368SOL    HW133563   4.622   0.679  14.649  0.0046 -0.5429 -0.2973
 7368SOL    HW233564   0.022   0.737  14.666 -0.7828 -1.1106  0.3214
 7369SOL     OW33565   2.075   1.896   6.713  0.4292  0.5071  0.9477
 7369SOL    HW133566   2.103   1.893   6.621  1.1917 -1.1614  1.2376
 7369SOL    HW233567   2.150   1.946   6.746  1.4740 -0.0209 -0.6054
 7370SOL     OW33568   3.716   3.760   2.976  0.4411 -0.2262 -0.4144
 7370SOL    HW133569   3.806   3.792   2.982  0.0967  0.7465 -0.4696
 7370SOL    HW233570   3.668   3.828   3.024  1.2082  1.1329 -1.5937
 7371SOL     OW33571   2.546   1.513   7.313 -0.2309  0.0305 -0.4985
 7371SOL    HW133572   2.478   1.515   7.245 -0.0416 -0.7938 -0.7069
 7371SOL    HW233573   2.545   1.421   7.338  0.4759 -0.3423 -1.8267
 7372SOL     OW33574   1.183   1.126   7.620 -0.2496 -0.1225 -0.3205
 7372SOL    HW133575   1.102   1.171   7.596  0.8981  0.9176 -2.2668
 7372SOL    HW233576   1.217   1.082   7.542 -0.6493 -3.1827  1.2363
 7373SOL     OW33577   0.501   0.683   2.609  0.0800 -0.1409  0.6888
 7373SOL    HW133578   0.587   0.695   2.568 -0.1293  0.2395  0.3575
 7373SOL    HW233579   0.454   0.758   2.575  1.6307  0.1511 -0.8454
 7374SOL     OW33580   1.163   0.757   9.547 -0.3037 -0.3692  0.7053
 7374SOL    HW133581   1.227   0.707   9.497 -0.6469 -0.7278  0.6252
 7374SOL    HW233582   1.195   0.756   9.637  1.6648 -1.3652 -0.0022
 7375SOL     OW33583   3.580   4.605   1.101 -0.1251  0.0895  0.3901
 7375SOL    HW133584   3.555   4.632   1.012  3.1018 -0.4557 -0.6681
 7375SOL    HW233585   3.658   4.554   1.079  0.9799  2.4979 -1.3059
 7376SOL     OW33586   1.365   0.290   5.324  0.1917  0.4872  0.3458
 7376SOL    HW133587   1.314   0.307   5.403 -2.0608  2.6292 -1.5903
 7376SOL    HW233588   1.444   0.255   5.367  0.1764  0.7348  0.5707
 7377SOL     OW33589   1.487   0.971   2.453 -0.5330 -0.1672  0.1621
 7377SOL    HW133590   1.574   0.932   2.461  0.4846  2.3627  1.2063
 7377SOL    HW233591   1.505   1.060   2.484  0.8579  0.3252 -2.0698
 7378SOL     OW33592   0.274   4.472   3.662  0.2783  0.5478 -0.0121
 7378SOL    HW133593   0.278   4.567   3.656 -2.1407  0.6741  0.4363
 7378SOL    HW233594   0.193   4.441   3.621  0.9223  1.1646 -1.7283
 7379SOL     OW33595   2.291   3.832  16.923 -0.3663  0.6051  0.2535
 7379SOL    HW133596   2.318   3.923  16.938 -1.0270  0.6916  0.9237
 7379SOL    HW233597   2.359   3.796  16.866  0.8255  3.9719 -0.4271
 7380SOL     OW33598   1.177   1.501   7.163 -0.0772 -0.0844 -0.0028
 7380SOL    HW133599   1.203   1.592   7.149  1.3570 -0.8045 -2.1522
 7380SOL    HW233600   1.263   1.457   7.161  0.9016  1.9742 -3.3627
 7381SOL     OW33601   0.964   1.727   8.797 -0.5839  0.1432  0.0339
 7381SOL    HW133602   1.032   1.765   8.852 -0.0513 -1.4120  0.4369
 7381SOL    HW233603   0.887   1.715   8.853  1.2387 -0.4055  2.4125
 7382SOL     OW33604   0.011   0.866  10.518  0.2559 -0.2091 -0.5172
 7382SOL    HW133605   4.664   0.822  10.560  0.9173  0.2615  1.1318
 7382SOL    HW233606   0.042   0.921  10.590  0.3487 -1.1573  0.1584
 7383SOL     OW33607   0.331   3.033  10.010  0.1142 -0.0288  0.0675
 7383SOL    HW133608   0.276   2.957   9.989  1.8271 -1.4254  0.5934
 7383SOL    HW233609   0.412   2.991  10.040  0.4354  0.5315 -0.0213
 7384SOL     OW33610   2.871   0.232   6.054 -0.1196 -0.0219 -0.8430
 7384SOL    HW133611   2.867   0.267   5.965 -0.3835 -0.2032 -0.9032
 7384SOL    HW233612   2.788   0.185   6.061 -0.1059  0.2984  1.3828
 7385SOL     OW33613   1.577   0.564   9.082  0.1621 -0.0634  0.2163
 7385SOL    HW133614   1.594   0.486   9.028 -2.0875 -1.1438  1.0928
 7385SOL    HW233615   1.546   0.622   9.012  1.9558  1.0023  0.3167
 7386SOL     OW33616   1.791   0.331  17.506  0.3694  0.4776 -0.2818
 7386SOL    HW133617   1.826   0.352  17.592 -0.2590  0.3920 -0.0116
 7386SOL    HW233618   1.828   0.403  17.456  1.4319  1.0818  1.3899
 7387SOL     OW33619   3.143   3.626   3.462 -0.0020 -0.7235  0.5432
 7387SOL    HW133620   3.148   3.686   3.537  2.3341  0.2433 -0.3971
 7387SOL    HW233621   3.054   3.651   3.440  0.3733 -0.0034 -0.1369
 7388SOL     OW33622   3.525   0.806   3.409  0.7624  0.1231  0.2855
 7388SOL    HW133623   3.592   0.757   3.457 -2.5582 -1.0110  3.7047
 7388SOL    HW233624   3.580   0.839   3.337  3.0020  0.0908  2.0050
 7389SOL     OW33625   2.855   2.447   0.157  0.2437 -0.4359  0.1963
 7389SOL    HW133626   2.862   2.519   0.094  0.1378 -0.1644  0.4922
 7389SOL    HW233627   2.942   2.454   0.197 -0.8508  0.8887  2.3459
 7390SOL     OW33628   4.310   2.899   2.982  0.1229 -0.0341 -0.1131
 7390SOL    HW133629   4.346   2.977   2.942  2.4100 -0.6235  0.7950
 7390SOL    HW233630   4.364   2.833   2.939 -0.8694 -1.6188  1.0461
 7391SOL     OW33631   4.616   4.680   4.756 -0.4415  0.3130 -0.0711
 7391SOL    HW133632   4.667   4.636   4.824 -2.7868 -0.3740  1.2520
 7391SOL    HW233633   4.675   4.678   4.681 -0.9244  0.0284 -0.4465
 7392SOL     OW33634   2.725   2.386   5.232 -0.6147  0.4957 -0.1264
 7392SOL    HW133635   2.641   2.344   5.219 -0.4679 -0.3803  1.7189
 7392SOL    HW233636   2.755   2.340   5.311 -2.9058 -0.8203 -0.0413
 7393SOL     OW33637   0.237   4.201   8.193  0.1139 -0.7506 -0.2193
 7393SOL    HW133638   0.174   4.145   8.149 -1.7394  1.0606  0.1598
 7393SOL    HW233639   0.254   4.158   8.277  0.3641  1.0647  0.6626
 7394SOL     OW33640   4.645   0.880   6.765 -0.0556  0.1851 -0.4155
 7394SOL    HW133641   4.683   0.956   6.809  0.4209  0.4251 -1.2408
 7394SOL    HW233642   4.693   0.887   6.682 -0.0193  0.1859 -0.3945
 7395SOL     OW33643   2.162   2.834   4.019  0.5755  0.0720  0.3826
 7395SOL    HW133644   2.210   2.762   4.060 -0.8577 -0.8896  0.3709
 7395SOL    HW233645   2.073   2.802   4.007  1.0040 -0.5353 -1.1138
 7396SOL     OW33646   1.595   0.227   3.270 -0.1497 -0.0747  0.1180
 7396SOL    HW133647   1.549   0.153   3.231 -0.3592  0.8547 -1.3677
 7396SOL    HW233648   1.670   0.225   3.211 -0.0830  1.9216  0.1605
 7397SOL     OW33649   1.088   2.939   9.651 -0.2460  0.1748  0.5467
 7397SOL    HW133650   1.120   2.975   9.569 -2.5796 -0.1997 -0.5149
 7397SOL    HW233651   1.054   2.854   9.622  2.2007 -0.3822 -0.6360
 7398SOL     OW33652   1.652   0.461  13.807 -0.0011  0.3467  0.1524
 7398SOL    HW133653   1.605   0.400  13.864 -2.8627  1.3240 -1.1559
 7398SOL    HW233654   1.601   0.542  13.815 -0.6498  0.0678 -1.1993
 7399SOL     OW33655   4.719   3.618   5.668 -0.3579 -0.3419  0.0327
 7399SOL    HW133656   0.023   3.616   5.577  0.6474 -1.7349  0.3943
 7399SOL    HW233657   4.632   3.644   5.638 -0.1256  0.1779 -0.1788
 7400SOL     OW33658   4.155   0.839   1.934  0.3863 -0.3807  0.0776
 7400SOL    HW133659   4.202   0.923   1.932 -1.4404  0.5885 -1.9697
 7400SOL    HW233660   4.187   0.811   2.020  1.6310 -3.1596 -1.3031
 7401SOL     OW33661   2.576   0.584  10.224  0.3212 -0.1232  0.4355
 7401SOL    HW133662   2.666   0.603  10.195 -0.0106 -0.3732 -0.7767
 7401SOL    HW233663   2.538   0.671  10.234  1.3801  0.1236  2.2547
 7402SOL     OW33664   4.303   1.754   4.091 -0.3927 -0.5545 -0.0590
 7402SOL    HW133665   4.252   1.812   4.035 -0.2169 -0.6636 -0.3292
 7402SOL    HW233666   4.384   1.746   4.041 -0.1530  0.0398  0.2332
 7403SOL     OW33667   0.378   3.600  11.200  0.1621 -0.1697  0.3749
 7403SOL    HW133668   0.463   3.608  11.155  0.4820 -2.1042  0.6198
 7403SOL    HW233669   0.403   3.610  11.292  0.3687  1.7167  0.1078
 7404SOL     OW33670   2.676   1.796   6.602 -0.4942  0.0111  0.5974
 7404SOL    HW133671   2.672   1.858   6.675 -2.4144 -1.5229  1.7783
 7404SOL    HW233672   2.713   1.715   6.637  1.5875  0.0612 -1.4302
 7405SOL     OW33673   3.862   4.404   0.249  0.2942 -1.0186  0.4316
 7405SOL    HW133674   3.942   4.351   0.250  0.9918  0.0102 -0.3143
 7405SOL    HW233675   3.795   4.340   0.274  0.7430 -0.1531  3.8175
 7406SOL     OW33676   3.941   4.600   7.011 -0.8088 -0.5228  0.3332
 7406SOL    HW133677   3.999   4.548   7.066  2.7988  1.8372 -1.2618
 7406SOL    HW233678   3.965   4.691   7.027 -0.0884 -0.5987 -0.3128
 7407SOL     OW33679   1.774   0.550  16.763 -0.0292  0.1642  0.2329
 7407SOL    HW133680   1.870   0.545  16.765 -0.0148 -0.2728 -2.2990
 7407SOL    HW233681   1.752   0.475  16.708 -0.5950 -0.9397  1.9652
 7408SOL     OW33682   4.692   0.679   7.181 -0.7358 -0.1881 -0.3436
 7408SOL    HW133683   4.644   0.712   7.257  0.8432 -0.4278  0.7499
 7408SOL    HW233684   4.633   0.612   7.145 -0.6868 -0.5248  0.1973
 7409SOL     OW33685   1.188   1.305   8.038 -0.2318 -0.0046  0.2354
 7409SOL    HW133686   1.207   1.307   8.132  0.8762 -3.2030  0.0563
 7409SOL    HW233687   1.198   1.398   8.017  2.0405 -0.0540  1.1196
 7410SOL     OW33688   1.846   0.964   5.290  0.2155  0.0111 -0.2518
 7410SOL    HW133689   1.893   1.044   5.265 -2.5439  0.7674 -2.8921
 7410SOL    HW233690   1.801   0.946   5.208 -2.1583 -2.1870  1.5360
 7411SOL     OW33691   1.670   1.365   4.490 -0.4440 -0.2319 -0.1990
 7411SOL    HW133692   1.714   1.357   4.405  2.0634 -0.6528  1.1398
 7411SOL    HW233693   1.695   1.281   4.529  0.7193 -0.2799 -1.0364
 7412SOL     OW33694   3.321   1.823   6.133  0.3557  0.2503  1.1881
 7412SOL    HW133695   3.234   1.792   6.109  0.8542 -1.4879  1.6373
 7412SOL    HW233696   3.324   1.913   6.098 -1.3730  0.1208  0.7124
 7413SOL     OW33697   0.602   0.589   1.061  0.3886 -0.5535 -0.2143
 7413SOL    HW133698   0.629   0.562   1.149 -0.8826  0.6613  0.5475
 7413SOL    HW233699   0.655   0.529   1.008  0.5230 -0.2480 -0.4273
 7414SOL     OW33700   4.237   4.106   2.502 -0.3152  0.0991 -0.2101
 7414SOL    HW133701   4.315   4.115   2.447  1.2730 -1.6250  1.7789
 7414SOL    HW233702   4.249   4.012   2.515 -0.4918  0.4634  2.4536
 7415SOL     OW33703   0.929   3.324   9.448 -0.0231 -0.0958 -0.0988
 7415SOL    HW133704   0.924   3.408   9.403  0.2287 -0.8094 -1.4738
 7415SOL    HW233705   0.982   3.336   9.526 -0.6014 -2.9603  0.7441
 7416SOL     OW33706   3.886   3.992   8.349  0.0129  0.5350 -0.0508
 7416SOL    HW133707   3.958   4.055   8.354  1.9232 -1.6288 -0.3450
 7416SOL    HW233708   3.811   4.050   8.363 -0.8152 -0.3689 -0.6988
 7417SOL     OW33709   2.531   1.262   7.373  0.5648 -0.6459  0.2869
 7417SOL    HW133710   2.540   1.170   7.350  1.3469  0.0291 -2.1218
 7417SOL    HW233711   2.436   1.271   7.379  0.7447  1.2007  0.4394
 7418SOL     OW33712   2.069   1.353   8.554  0.0310 -0.0840 -1.4086
 7418SOL    HW133713   2.035   1.442   8.562 -1.5957 -0.9949  2.0355
 7418SOL    HW233714   1.992   1.320   8.600 -1.2297  2.8070 -1.4334
 7419SOL     OW33715   1.501   0.895   8.727  0.3912  0.3059  0.0677
 7419SOL    HW133716   1.582   0.847   8.745  0.0184 -0.5109 -0.4193
 7419SOL    HW233717   1.453   0.825   8.682 -0.0310 -0.3312  1.5093
 7420SOL     OW33718   2.225   2.325   9.316 -0.3324  0.2894  0.4270
 7420SOL    HW133719   2.225   2.419   9.335  0.9097  0.0532  1.5879
 7420SOL    HW233720   2.316   2.322   9.285 -0.8062 -1.1569 -0.7994
 7421SOL     OW33721   3.761   3.664   1.936  0.2461 -0.2470  0.5166
 7421SOL    HW133722   3.789   3.702   1.852  0.7982 -0.8559  0.4263
 7421SOL    HW233723   3.816   3.586   1.946  1.1515  0.4975  1.3118
 7422SOL     OW33724   1.809   4.267   6.745  0.1599  0.1183  0.6787
 7422SOL    HW133725   1.882   4.258   6.807  0.1193  0.5659  0.7892
 7422SOL    HW233726   1.731   4.263   6.800  0.4990 -1.7709  1.0058
 7423SOL     OW33727   1.420   0.458   3.216 -0.4857 -0.2078  0.2312
 7423SOL    HW133728   1.495   0.405   3.244 -0.1846  0.3125  0.4138
 7423SOL    HW233729   1.352   0.392   3.210  0.7017 -1.3301 -0.8817
 7424SOL     OW33730   3.048   2.744   8.209 -0.0236 -0.1418  0.1357
 7424SOL    HW133731   3.098   2.664   8.227  0.7157  0.5136  0.9579
 7424SOL    HW233732   3.088   2.769   8.125 -0.0326  0.1856  0.2290
 7425SOL     OW33733   1.256   1.204   2.314 -0.4495  0.0161  0.4078
 7425SOL    HW133734   1.350   1.210   2.298 -0.2105 -2.3277  1.0334
 7425SOL    HW233735   1.210   1.256   2.248  1.7139  1.0679 -0.2659
 7426SOL     OW33736   2.432   0.091   2.386 -0.0292  0.3069 -0.3648
 7426SOL    HW133737   2.450   0.091   2.480 -2.8236 -2.2411  0.1960
 7426SOL    HW233738   2.507   0.136   2.348 -0.6500  1.4465 -0.2489
 7427SOL     OW33739   1.851   4.416   3.963 -0.2784 -0.3350  0.5612
 7427SOL    HW133740   1.797   4.367   3.901  0.8836  0.3777 -0.9783
 7427SOL    HW233741   1.938   4.392   3.933 -0.9196 -1.7116 -0.2233
 7428SOL     OW33742   4.281   4.061   5.739 -0.0189  0.3932  0.0058
 7428SOL    HW133743   4.189   4.039   5.724  0.4374 -0.5274 -1.4812
 7428SOL    HW233744   4.275   4.120   5.814 -0.5888  2.2348 -1.5089
 7429SOL     OW33745   3.473   1.905   3.224  0.5100  0.0923  1.1202
 7429SOL    HW133746   3.495   1.835   3.286  3.7395  0.0651 -0.0390
 7429SOL    HW233747   3.550   1.961   3.235  0.2992  0.4659  0.6786
 7430SOL     OW33748   0.701   0.087  15.556 -0.2565  0.0080 -0.2550
 7430SOL    HW133749   0.623   0.076  15.609  1.2766 -0.1596  1.9828
 7430SOL    HW233750   0.781   0.077  15.608  0.7488  3.4403 -1.1216
 7431SOL     OW33751   3.692   2.717   7.140  0.1932 -0.0745  0.1575
 7431SOL    HW133752   3.687   2.638   7.195 -0.5516 -1.4263 -1.8305
 7431SOL    HW233753   3.751   2.683   7.072  0.7147 -0.2290  0.6882
 7432SOL     OW33754   0.292   1.066   3.262  0.2330  0.1428  0.1266
 7432SOL    HW133755   0.377   1.090   3.297 -0.1162  2.5209 -0.6522
 7432SOL    HW233756   0.313   0.973   3.266  1.4214  0.3926 -0.4869
 7433SOL     OW33757   4.655   1.655   8.497  0.4708  0.0063 -0.1019
 7433SOL    HW133758   4.658   1.650   8.592 -0.4845  1.8059  0.0186
 7433SOL    HW233759   4.580   1.712   8.479  1.1280  0.8645 -0.1113
 7434SOL     OW33760   2.124   3.301   2.923  0.7391 -0.1742  0.0427
 7434SOL    HW133761   2.064   3.236   2.885 -0.9486  0.5670  1.4245
 7434SOL    HW233762   2.200   3.251   2.952  1.8968  1.1449 -0.6830
 7435SOL     OW33763   1.864   1.499   6.485 -0.0923 -0.2090  0.3266
 7435SOL    HW133764   1.909   1.576   6.451 -1.6567  1.4401  1.9552
 7435SOL    HW233765   1.923   1.425   6.478 -0.3142 -0.3287 -0.2605
 7436SOL     OW33766   4.261   2.717   5.545  0.3303  0.0490  0.4068
 7436SOL    HW133767   4.180   2.666   5.542  0.2625  0.3621 -2.2358
 7436SOL    HW233768   4.316   2.651   5.589  0.4268 -1.0447 -1.3526
 7437SOL     OW33769   3.572   0.106   8.561 -0.3459 -0.9244 -0.0928
 7437SOL    HW133770   3.478   0.111   8.577 -0.0834  0.7859  0.9297
 7437SOL    HW233771   3.589   0.187   8.512 -0.1851 -2.1054 -1.9798
 7438SOL     OW33772   2.728   0.296   6.348  0.3471  0.7111  0.0072
 7438SOL    HW133773   2.662   0.361   6.323  1.1980  0.3730 -3.1231
 7438SOL    HW233774   2.735   0.244   6.269  1.7716 -1.1102  1.3283
 7439SOL     OW33775   3.054   4.214  11.981 -0.8101 -0.1280  0.2408
 7439SOL    HW133776   3.081   4.278  12.047 -0.2643 -1.1363  0.9923
 7439SOL    HW233777   3.088   4.245  11.897 -0.3258  1.9088  1.1817
 7440SOL     OW33778   4.345   2.824   5.818 -0.8449  0.5102  0.6771
 7440SOL    HW133779   4.409   2.755   5.836 -0.7309  0.6398  0.7652
 7440SOL    HW233780   4.393   2.895   5.860  1.3730 -0.5590 -0.0508
 7441SOL     OW33781   1.428   0.019   4.467  0.3933 -0.0940 -0.6296
 7441SOL    HW133782   1.382   4.661   4.478  0.1465  0.2040  0.6116
 7441SOL    HW233783   1.402   0.059   4.550  0.2027  0.0879 -0.7786
 7442SOL     OW33784   3.022   4.680   7.993 -0.0549  0.3146  0.5847
 7442SOL    HW133785   3.000   4.608   8.053 -1.0635  1.2549  1.3382
 7442SOL    HW233786   2.967   4.668   7.916 -0.9864 -0.0221  1.3007
 7443SOL     OW33787   1.194   2.920   9.906  0.3193  0.0760 -0.5111
 7443SOL    HW133788   1.132   2.925   9.833 -1.6261  1.3215  1.2482
 7443SOL    HW233789   1.243   3.002   9.902  0.3368  0.1506  1.7263
 7444SOL     OW33790   3.785   2.219   8.450  0.3419  0.7731  0.1811
 7444SOL    HW133791   3.698   2.227   8.489 -0.3923 -1.8313 -0.9213
 7444SOL    HW233792   3.849   2.174   8.505  0.8349  0.5637 -0.5643
 7445SOL     OW33793   0.488   2.295   4.041 -0.0640 -0.2046 -0.1238
 7445SOL    HW133794   0.569   2.262   4.081  1.2822  1.1354 -1.7254
 7445SOL    HW233795   0.455   2.227   3.981  1.5119  0.0025 -1.2229
 7446SOL     OW33796   1.387   0.826   7.152  0.2546  0.1789  0.0808
 7446SOL    HW133797   1.294   0.827   7.130 -0.0350 -0.9021  1.2659
 7446SOL    HW233798   1.389   0.751   7.211 -0.6855 -0.4097 -0.6376
 7447SOL     OW33799   0.766   1.809  10.623  0.0070  0.0614  0.1447
 7447SOL    HW133800   0.680   1.819  10.584  0.0180  0.1888  0.1500
 7447SOL    HW233801   0.751   1.803  10.718  1.8013 -2.5533  0.2484
 7448SOL     OW33802   1.107   0.604   5.639  0.2532  0.6314 -0.6402
 7448SOL    HW133803   1.077   0.568   5.722  1.1540 -0.6016 -0.8515
 7448SOL    HW233804   1.032   0.589   5.581 -0.7781  1.5384  0.4632
 7449SOL     OW33805   1.258   0.690   9.139 -0.9040 -0.3685 -0.3108
 7449SOL    HW133806   1.238   0.630   9.211 -1.8049 -0.2391 -0.4567
 7449SOL    HW233807   1.197   0.667   9.069 -1.1307 -0.1417 -0.1876
 7450SOL     OW33808   2.027   3.640   7.287 -0.1226 -0.0302  0.0831
 7450SOL    HW133809   1.977   3.581   7.231 -2.1137  0.5192  1.2739
 7450SOL    HW233810   2.117   3.642   7.254 -1.2467  1.0549 -2.8325
 7451SOL     OW33811   3.720   4.141   5.511  0.3533  0.5161  0.1694
 7451SOL    HW133812   3.647   4.082   5.530  1.6164 -1.2595 -0.3927
 7451SOL    HW233813   3.727   4.117   5.418 -1.7427  1.2251 -0.1764
 7452SOL     OW33814   3.670   0.701  10.496  0.0256  0.0547 -0.3641
 7452SOL    HW133815   3.638   0.758  10.426  1.6959  0.9713 -0.4058
 7452SOL    HW233816   3.632   0.624  10.455 -0.5432  0.3177 -0.3309
 7453SOL     OW33817   3.736   3.398   8.327  0.3462 -0.2109 -0.1286
 7453SOL    HW133818   3.747   3.442   8.411 -0.6548  0.0155 -0.1212
 7453SOL    HW233819   3.694   3.467   8.275 -0.3777  0.5890  1.5120
 7454SOL     OW33820   4.335   4.701   4.740  0.2109  0.0646 -0.3844
 7454SOL    HW133821   4.420   4.672   4.708  0.1216 -0.9744  0.3256
 7454SOL    HW233822   4.323   4.682   4.833 -1.3026 -1.3266 -0.8551
 7455SOL     OW33823   0.179   2.802   1.880  0.2888 -0.0857  0.1435
 7455SOL    HW133824   0.198   2.781   1.971 -2.0448  0.1382  0.6621
 7455SOL    HW233825   0.198   2.719   1.835  0.7463 -0.5828  1.2611
 7456SOL     OW33826   2.450   4.527   3.316  0.0808  0.2746 -0.8387
 7456SOL    HW133827   2.535   4.569   3.303 -0.0381  1.2008  1.3159
 7456SOL    HW233828   2.443   4.553   3.408  0.2716 -0.1880 -0.6918
 7457SOL     OW33829   0.405   3.276   3.643 -0.1689  0.5802 -0.1971
 7457SOL    HW133830   0.453   3.338   3.588  1.0219  1.3589  1.6942
 7457SOL    HW233831   0.453   3.299   3.722 -0.8295  1.1734  0.0331
 7458SOL     OW33832   0.185   2.609  17.302  0.1488  0.0170 -0.4404
 7458SOL    HW133833   0.255   2.668  17.330  0.1270 -0.3970  0.5068
 7458SOL    HW233834   0.123   2.627  17.373  0.5002 -2.5405  0.5418
 7459SOL     OW33835   3.092   4.263   1.014  0.1140 -0.1250 -0.4061
 7459SOL    HW133836   3.026   4.311   0.964  0.1316 -0.0285 -0.3371
 7459SOL    HW233837   3.051   4.181   1.040 -1.2639  0.8552  0.4557
 7460SOL     OW33838   2.016   0.596  13.665 -0.7409 -0.4907  0.1228
 7460SOL    HW133839   2.101   0.635  13.643 -0.8804  0.8421  1.9182
 7460SOL    HW233840   1.953   0.655  13.623 -0.0167  0.5741  0.5252
 7461SOL     OW33841   4.484   3.434   4.607 -0.3420 -0.3253  0.3105
 7461SOL    HW133842   4.422   3.492   4.562  0.7652 -0.6408 -1.6506
 7461SOL    HW233843   4.562   3.448   4.554 -1.2515 -0.6411 -1.1243
 7462SOL     OW33844   1.490   1.412   5.566  0.0222 -0.2803 -0.2983
 7462SOL    HW133845   1.538   1.329   5.570 -0.8469 -0.8777 -2.2342
 7462SOL    HW233846   1.432   1.398   5.491 -1.3131 -3.3046  1.3155
 7463SOL     OW33847   1.353   2.030   6.369 -0.1725  0.0571  0.6441
 7463SOL    HW133848   1.350   2.051   6.275  1.0953  2.4662  1.1422
 7463SOL    HW233849   1.439   1.990   6.368  0.5065  1.5203  0.4181
 7464SOL     OW33850   4.592   1.236   4.305  0.1136  0.2532 -0.0440
 7464SOL    HW133851   4.523   1.229   4.239  1.0389 -2.5434 -0.7074
 7464SOL    HW233852   4.594   1.332   4.307 -3.3706  0.3433 -1.3633
 7465SOL     OW33853   2.337   1.598   3.054  0.2592 -0.1338  0.4658
 7465SOL    HW133854   2.409   1.550   3.094 -0.6090 -2.7351 -1.0521
 7465SOL    HW233855   2.385   1.652   2.991 -2.1920  0.5151 -0.8402
 7466SOL     OW33856   4.117   3.426   3.666 -0.3021 -0.4438  0.3739
 7466SOL    HW133857   4.203   3.438   3.707 -0.8099  0.0098  1.3050
 7466SOL    HW233858   4.108   3.332   3.682 -1.3174 -0.2624  0.8746
 7467SOL     OW33859   3.300   4.581   7.132  0.2006  0.1795  0.2253
 7467SOL    HW133860   3.280   4.557   7.042  0.0034  1.6054 -0.1184
 7467SOL    HW233861   3.248   4.662   7.134  0.9780  0.7641 -2.7711
 7468SOL     OW33862   1.850   0.078   2.796  0.4803  0.6209  0.4223
 7468SOL    HW133863   1.937   0.113   2.815  0.5331  0.5574  0.2920
 7468SOL    HW233864   1.863   0.008   2.733  1.4911  2.7584 -1.7428
 7469SOL     OW33865   1.963   2.130   0.468 -0.6618  0.1829  0.1285
 7469SOL    HW133866   1.930   2.197   0.408  4.3410  0.7982 -2.0127
 7469SOL    HW233867   1.990   2.063   0.406 -0.9475  0.8489 -0.7133
 7470SOL     OW33868   3.030   1.378   6.864  0.7147 -0.0051  0.4703
 7470SOL    HW133869   3.113   1.424   6.875  0.5496  0.0035  1.7046
 7470SOL    HW233870   3.037   1.373   6.769  0.8118 -1.3629  0.5485
 7471SOL     OW33871   1.226   3.402   4.687 -0.0738  0.4350 -0.4080
 7471SOL    HW133872   1.299   3.360   4.643  0.2437  1.1445 -0.5688
 7471SOL    HW233873   1.239   3.494   4.662  0.6840  0.2501 -0.6875
 7472SOL     OW33874   4.553   2.386  11.692  0.2442 -0.3493 -0.1034
 7472SOL    HW133875   4.463   2.415  11.706  1.3651  2.1922  1.6196
 7472SOL    HW233876   4.548   2.322  11.620 -0.7490  0.0095 -0.3422
 7473SOL     OW33877   0.405   4.014   3.646 -0.5288 -0.1035 -0.4540
 7473SOL    HW133878   0.312   4.032   3.633 -0.5800  0.4214  0.5967
 7473SOL    HW233879   0.430   4.105   3.662 -2.4448  0.4990 -0.8920
 7474SOL     OW33880   2.179   0.423  14.241 -0.4817  0.3595  0.4887
 7474SOL    HW133881   2.165   0.423  14.336  1.7685 -1.6066  0.8388
 7474SOL    HW233882   2.267   0.389  14.227 -1.0522 -0.7879 -0.3386
 7475SOL     OW33883   2.629   2.063   4.354 -0.1292  0.4008 -0.8208
 7475SOL    HW133884   2.661   2.021   4.275  1.4747  0.3320 -0.1350
 7475SOL    HW233885   2.566   1.997   4.385  2.3627 -0.9677  1.2602
 7476SOL     OW33886   0.374   0.025  16.703  0.1145  0.0256 -0.1210
 7476SOL    HW133887   0.288   4.711  16.698  1.1651 -2.2845  0.7776
 7476SOL    HW233888   0.430   4.680  16.734 -0.7248 -1.6098 -2.4065
 7477SOL     OW33889   1.708   2.854   8.263 -0.6020  0.1279  0.6433
 7477SOL    HW133890   1.641   2.793   8.233  0.2607  0.1501 -1.3230
 7477SOL    HW233891   1.716   2.823   8.353 -2.2609 -2.2188 -0.0237
 7478SOL     OW33892   1.415   3.469   9.109 -0.5629  0.5575  0.2427
 7478SOL    HW133893   1.381   3.551   9.073 -2.4884 -1.2374 -1.9891
 7478SOL    HW233894   1.476   3.441   9.042 -0.4577 -1.3001  1.1311
 7479SOL     OW33895   2.434   2.819  11.001 -0.2930 -0.3166  0.4097
 7479SOL    HW133896   2.448   2.770  10.920  2.1523  0.1004  0.5705
 7479SOL    HW233897   2.491   2.894  10.984  0.6254 -1.6830 -2.6366
 7480SOL     OW33898   2.602   4.109   1.767 -0.3608 -0.2387 -0.2121
 7480SOL    HW133899   2.535   4.108   1.698 -0.9456  1.4970  0.3373
 7480SOL    HW233900   2.555   4.063   1.837 -0.0056 -0.7472 -0.3096
 7481SOL     OW33901   1.490   1.057   3.202  0.0921 -0.0681  0.5092
 7481SOL    HW133902   1.545   1.115   3.150  0.1457 -0.0105  0.6327
 7481SOL    HW233903   1.562   1.005   3.237 -0.0150 -0.8325 -0.4033
 7482SOL     OW33904   2.635   0.766  13.771 -0.1539  0.2621 -0.1698
 7482SOL    HW133905   2.652   0.815  13.690 -2.1210 -0.2927 -0.9086
 7482SOL    HW233906   2.712   0.793  13.821 -1.4051  1.6835  0.9885
 7483SOL     OW33907   1.660   2.105   7.638 -0.1109  0.0112 -0.4263
 7483SOL    HW133908   1.668   2.190   7.595 -0.5885  0.1622 -0.2146
 7483SOL    HW233909   1.591   2.063   7.587 -0.1559 -1.5386  0.9204
 7484SOL     OW33910   2.817   0.137  11.507 -0.2739 -0.1299  0.2236
 7484SOL    HW133911   2.761   0.162  11.434  0.0565  1.2917  0.4479
 7484SOL    HW233912   2.824   0.042  11.511  1.3725  0.0197  0.5458
 7485SOL     OW33913   3.962   3.197  11.854 -0.0465 -0.4488 -0.6004
 7485SOL    HW133914   3.899   3.253  11.898 -1.6711 -0.5807 -2.7558
 7485SOL    HW233915   4.040   3.252  11.858  0.0379 -0.5329 -1.0751
 7486SOL     OW33916   3.101   4.317   9.217 -0.1040  0.5830 -0.3922
 7486SOL    HW133917   3.154   4.361   9.150  0.2213 -0.0769 -0.5775
 7486SOL    HW233918   3.179   4.265   9.237 -0.0536  1.3482  1.3413
 7487SOL     OW33919   0.787   3.965   9.564 -0.3266  0.1416 -0.9599
 7487SOL    HW133920   0.694   3.984   9.559 -0.1961  0.9744 -0.2240
 7487SOL    HW233921   0.810   4.013   9.643 -1.2438  2.0023 -1.8295
 7488SOL     OW33922   2.549   3.525  16.701  0.1708  0.4901 -0.7030
 7488SOL    HW133923   2.492   3.456  16.667 -0.0964  1.1799 -1.6336
 7488SOL    HW233924   2.629   3.474  16.717 -1.2744 -1.1797  1.1762
 7489SOL     OW33925   2.008   3.604  13.661  0.1149 -0.0996 -0.1006
 7489SOL    HW133926   2.021   3.670  13.593  0.9861 -0.1590  0.0168
 7489SOL    HW233927   1.988   3.666  13.731 -1.0566 -0.0665 -0.4651
 7490SOL     OW33928   0.930   3.267  10.611 -0.5013 -0.1196  0.2341
 7490SOL    HW133929   0.893   3.183  10.582 -0.4099  0.7224 -2.3297
 7490SOL    HW233930   0.925   3.327  10.537  0.5450  0.8078  0.9115
 7491SOL     OW33931   0.835   3.495  17.052 -0.4806  0.0027 -0.4045
 7491SOL    HW133932   0.831   3.520  17.144  0.7942  1.4976 -0.7659
 7491SOL    HW233933   0.768   3.550  17.012 -0.2156  0.2952 -0.4403
 7492SOL     OW33934   4.161   3.447   1.026  0.0267 -0.0406 -0.1768
 7492SOL    HW133935   4.072   3.438   0.992 -0.4100  0.1933  0.8818
 7492SOL    HW233936   4.194   3.514   0.966 -1.7237 -0.3429 -1.4763
 7493SOL     OW33937   4.031   0.056   3.601  0.0345  0.6507 -0.0962
 7493SOL    HW133938   4.015   4.690   3.623 -1.4888  0.1216 -3.4855
 7493SOL    HW233939   4.126   0.053   3.603  0.0707  0.1216 -2.4086
 7494SOL     OW33940   0.719   1.432   7.095 -0.0921 -0.1244 -0.4367
 7494SOL    HW133941   0.754   1.348   7.124  1.2266  0.1052 -1.3732
 7494SOL    HW233942   0.797   1.469   7.054  0.7033 -0.5459  0.7089
 7495SOL     OW33943   1.823   1.053   4.866  0.6445  0.1717  0.0705
 7495SOL    HW133944   1.894   0.990   4.856  0.9426  0.4287  0.5635
 7495SOL    HW233945   1.855   1.121   4.926  2.8408  0.3293 -1.3232
 7496SOL     OW33946   2.095   1.006  10.871 -0.4904  0.1810 -0.3826
 7496SOL    HW133947   2.104   0.963  10.956 -1.8731 -1.4155 -1.0439
 7496SOL    HW233948   2.029   1.072  10.891 -2.3274 -1.8363  0.2273
 7497SOL     OW33949   1.994   0.240  16.687  0.3245  0.1170 -0.2637
 7497SOL    HW133950   2.012   0.181  16.613  0.5235  1.0881 -0.9883
 7497SOL    HW233951   1.900   0.257  16.680 -0.1904 -1.3966  2.9757
 7498SOL     OW33952   3.614   4.622   2.802 -0.0778  0.3619  0.1657
 7498SOL    HW133953   3.520   4.605   2.792  0.0971  0.8216 -2.2735
 7498SOL    HW233954   3.646   4.538   2.836 -0.7842 -0.6258 -1.5967
 7499SOL     OW33955   2.054   2.312   8.284  0.4311  0.2570  0.2042
 7499SOL    HW133956   2.084   2.224   8.262  3.2391  1.5680 -1.2158
 7499SOL    HW233957   2.129   2.359   8.321  1.1359 -0.1394 -0.7301
 7500SOL     OW33958   1.436   3.816   7.608 -0.3981  0.1236  0.4083
 7500SOL    HW133959   1.403   3.889   7.659 -0.3384 -0.8689  1.8534
 7500SOL    HW233960   1.449   3.747   7.672 -0.9551 -0.0566  0.3291
 7501SOL     OW33961   4.433   4.227   6.240 -0.0518  0.2238 -0.2756
 7501SOL    HW133962   4.402   4.309   6.202  1.1904  0.6469 -0.3703
 7501SOL    HW233963   4.427   4.256   6.331  0.6320 -1.7599  0.4060
 7502SOL     OW33964   2.465   3.987   3.069  0.3203  0.3348 -0.0361
 7502SOL    HW133965   2.477   3.954   3.158 -1.5030  2.1972  0.8749
 7502SOL    HW233966   2.371   3.970   3.060  0.0026  1.6517  0.8187
 7503SOL     OW33967   3.087   2.276   1.918 -0.0053 -0.1195  0.1499
 7503SOL    HW133968   3.078   2.256   1.825 -0.7841 -1.5126  0.5216
 7503SOL    HW233969   3.038   2.208   1.963  1.0675  0.6023  2.4504
 7504SOL     OW33970   1.000   2.689   3.256 -0.1128  0.4841 -0.1954
 7504SOL    HW133971   0.917   2.644   3.270  0.2532  0.2276  1.1521
 7504SOL    HW233972   1.045   2.635   3.192  1.6826  1.2170  0.4489
 7505SOL     OW33973   3.488   0.719   8.253  0.0549 -0.1198 -0.3619
 7505SOL    HW133974   3.498   0.625   8.237 -0.0035 -0.3666  1.0685
 7505SOL    HW233975   3.574   0.750   8.224  0.3380  0.9129  1.5827
 7506SOL     OW33976   1.210   2.860  13.036 -0.0927 -0.2973  0.6366
 7506SOL    HW133977   1.297   2.893  13.013 -0.2073 -0.9214 -0.7419
 7506SOL    HW233978   1.199   2.873  13.130 -0.8260  4.9972 -0.1864
 7507SOL     OW33979   0.032   1.665   2.273 -0.5439  0.2178 -0.3286
 7507SOL    HW133980   0.044   1.688   2.181 -2.8213  1.1397 -0.4078
 7507SOL    HW233981   0.094   1.718   2.323  0.6890  0.4911 -2.1756
 7508SOL     OW33982   1.063   4.625   4.166  0.2136 -0.4666  0.0591
 7508SOL    HW133983   0.997   4.689   4.193  1.1158 -0.5126  2.3743
 7508SOL    HW233984   1.034   4.592   4.080 -2.7838  0.1132  0.8400
 7509SOL     OW33985   2.945   0.075   9.067 -0.0976  0.0378  0.5207
 7509SOL    HW133986   2.973   0.025   8.990 -2.0778  0.5424 -0.5293
 7509SOL    HW233987   2.960   0.018   9.142  0.4809 -0.6184 -0.0972
 7510SOL     OW33988   4.598   3.890   3.613  0.3321 -0.0167 -0.2017
 7510SOL    HW133989   4.649   3.820   3.652 -0.6701 -0.6396  0.0028
 7510SOL    HW233990   4.591   3.867   3.521  1.3986 -2.2657  0.2701
 7511SOL     OW33991   1.500   1.950   5.581 -0.5306  0.9149 -0.0908
 7511SOL    HW133992   1.590   1.983   5.586 -1.1208  2.5757 -0.6107
 7511SOL    HW233993   1.498   1.855   5.590  0.3530  0.8513 -0.4977
 7512SOL     OW33994   3.624   3.731   4.642 -0.1551 -0.4264  0.4648
 7512SOL    HW133995   3.643   3.637   4.645  0.0136 -0.3265  2.7885
 7512SOL    HW233996   3.694   3.764   4.699 -0.4858  0.9279  0.0770
 7513SOL     OW33997   4.616   0.290  13.421  0.6225  0.0698 -0.0265
 7513SOL    HW133998   4.693   0.342  13.445  0.7456 -1.4044  2.7967
 7513SOL    HW233999   4.591   0.235  13.496  0.4406  0.3958  0.1499
 7514SOL     OW34000   2.321   3.368  10.990  0.3611 -0.3601  0.4821
 7514SOL    HW134001   2.275   3.340  10.911 -1.4629  0.1480  1.3656
 7514SOL    HW234002   2.345   3.459  10.970 -2.8691  0.8104  1.8907
 7515SOL     OW34003   3.109   2.229   3.720 -0.1094 -0.3081  0.4915
 7515SOL    HW134004   3.109   2.179   3.639  1.2918 -1.2910  1.1097
 7515SOL    HW234005   3.031   2.283   3.707  1.1674  1.5209  0.4485
 7516SOL     OW34006   1.131   1.177   5.385  0.2052  0.0620 -0.0298
 7516SOL    HW134007   1.066   1.156   5.318  0.1494 -1.2132  0.4150
 7516SOL    HW234008   1.103   1.111   5.448  0.3582  1.3452  1.3754
 7517SOL     OW34009   2.807   1.632   8.569  0.1672 -0.5919 -0.0934
 7517SOL    HW134010   2.768   1.545   8.572 -0.3363 -0.3769 -0.2887
 7517SOL    HW234011   2.725   1.673   8.598  1.8595  1.7745  1.4196
 7518SOL     OW34012   0.977   0.641  11.096 -0.0126 -0.2095 -0.3850
 7518SOL    HW134013   0.995   0.722  11.142 -1.6223  0.0437 -0.1962
 7518SOL    HW234014   1.004   0.571  11.155 -0.9464  1.3312  1.8525
 7519SOL     OW34015   4.373   2.845  16.026  0.1573  0.0105 -0.4320
 7519SOL    HW134016   4.398   2.809  16.110  1.5908  0.9994 -0.4314
 7519SOL    HW234017   4.301   2.899  16.057  1.2516  1.4983 -0.4703
 7520SOL     OW34018   3.557   2.851   2.104 -0.2128 -0.4784 -0.4945
 7520SOL    HW134019   3.573   2.757   2.094 -1.2286 -0.4589 -2.3884
 7520SOL    HW234020   3.632   2.887   2.057  0.2842 -0.5501  0.2436
 7521SOL     OW34021   3.680   3.782   6.640  0.1397  0.6152 -0.4300
 7521SOL    HW134022   3.645   3.812   6.724  0.7712 -0.4390  0.2054
 7521SOL    HW234023   3.737   3.709   6.666 -0.2318  0.8178  0.9541
 7522SOL     OW34024   1.572   0.895   6.208  0.4875  0.8480  0.3581
 7522SOL    HW134025   1.655   0.854   6.184  0.6421  2.3767 -1.6255
 7522SOL    HW234026   1.520   0.870   6.132  0.1962  1.8495  0.2288
 7523SOL     OW34027   2.449   0.454  16.530  0.1196 -0.5217 -0.3707
 7523SOL    HW134028   2.495   0.397  16.593  2.7577  0.5935 -1.2669
 7523SOL    HW234029   2.416   0.516  16.595  1.6162 -0.7005  0.5703
 7524SOL     OW34030   2.443   1.415   6.441  0.2151  0.4811  0.4108
 7524SOL    HW134031   2.484   1.405   6.528  1.0227 -0.7562 -0.1128
 7524SOL    HW234032   2.482   1.497   6.412  0.7600  1.1360  2.9381
 7525SOL     OW34033   1.552   3.698   9.705 -0.3813  0.3715  0.0820
 7525SOL    HW134034   1.538   3.763   9.774 -1.6801  1.5400 -1.2778
 7525SOL    HW234035   1.465   3.678   9.672  0.6244 -2.4839 -0.8133
 7526SOL     OW34036   4.163   1.913  11.905 -0.0450 -0.5877  0.6398
 7526SOL    HW134037   4.227   1.863  11.853 -0.2546 -0.8471  0.6282
 7526SOL    HW234038   4.095   1.926  11.838  0.0251  0.0449  0.6922
 7527SOL     OW34039   3.460   3.725   2.409  0.3285  0.1192  0.1823
 7527SOL    HW134040   3.378   3.712   2.361  0.4229  0.4167 -0.0606
 7527SOL    HW234041   3.427   3.704   2.496 -0.3028 -0.2624 -0.1486
 7528SOL     OW34042   1.410   0.878   4.611  0.4945 -0.7409 -0.5956
 7528SOL    HW134043   1.374   0.890   4.524  0.0709 -1.6417 -0.5458
 7528SOL    HW234044   1.360   0.939   4.666  2.4014 -0.4082  0.8018
 7529SOL     OW34045   2.606   2.136   3.283 -0.0179 -0.2059  0.2809
 7529SOL    HW134046   2.529   2.085   3.255 -0.9724  0.1613  2.2332
 7529SOL    HW234047   2.584   2.140   3.376 -0.5151 -1.0261  0.2030
 7530SOL     OW34048   1.088   1.399  10.230  0.2449  0.5940  0.4101
 7530SOL    HW134049   1.011   1.343  10.243  0.3174  0.3336 -0.2801
 7530SOL    HW234050   1.049   1.482  10.203 -0.2661 -0.9873 -3.5966
 7531SOL     OW34051   3.173   0.646   4.199  0.2681 -0.1240  0.0063
 7531SOL    HW134052   3.260   0.608   4.186  0.0954 -0.7225  0.5719
 7531SOL    HW234053   3.127   0.630   4.116 -2.8476  2.4988  1.2093
 7532SOL     OW34054   2.624   3.486  11.355 -0.5880 -0.0084 -0.1805
 7532SOL    HW134055   2.548   3.536  11.385 -0.4842 -1.1402  1.9533
 7532SOL    HW234056   2.585   3.434  11.285 -3.9264  0.4396  1.3655
 7533SOL     OW34057   2.827   3.754  16.077 -0.0131  0.5882 -0.3542
 7533SOL    HW134058   2.908   3.703  16.089 -1.0280 -0.1342  3.5328
 7533SOL    HW234059   2.859   3.841  16.100 -0.3714  0.6661 -0.1528
 7534SOL     OW34060   3.932   3.002   5.399  0.1386 -0.6053 -0.3360
 7534SOL    HW134061   3.910   3.095   5.396 -1.0050 -0.9029 -1.1173
 7534SOL    HW234062   3.977   2.993   5.483  1.4040  0.0945 -0.9426
 7535SOL     OW34063   3.836   2.271  12.553 -0.2572  0.7062 -0.7918
 7535SOL    HW134064   3.874   2.185  12.538  0.7412  1.2877 -1.6221
 7535SOL    HW234065   3.845   2.308  12.465 -1.1783 -0.4628 -1.3819
 7536SOL     OW34066   1.248   0.911   3.211 -0.3161 -0.3734 -0.0827
 7536SOL    HW134067   1.310   0.979   3.185 -0.1239 -1.0822 -1.4538
 7536SOL    HW234068   1.309   0.844   3.181  0.0367  0.1038 -0.4380
 7537SOL     OW34069   3.173   1.196   7.739  0.0760  0.2991 -0.2002
 7537SOL    HW134070   3.100   1.205   7.677  0.2018  4.2814  0.2353
 7537SOL    HW234071   3.191   1.102   7.730  2.6859  0.7437  0.4108
 7538SOL     OW34072   4.533   1.602   7.774  0.1099  0.4467 -0.1160
 7538SOL    HW134073   4.538   1.693   7.806 -0.7978  1.3209 -2.4633
 7538SOL    HW234074   4.450   1.575   7.812  0.4446  0.7468  0.8490
 7539SOL     OW34075   2.276   2.250   8.982  0.0448 -0.0172 -0.3710
 7539SOL    HW134076   2.214   2.316   9.012  0.8680  1.4817 -1.9429
 7539SOL    HW234077   2.331   2.243   9.059 -0.5307  0.0734  0.0512
 7540SOL     OW34078   4.491   4.437   1.758  0.5264  0.8022  0.7186
 7540SOL    HW134079   4.439   4.509   1.723 -0.8207  0.0518  1.2012
 7540SOL    HW234080   4.472   4.436   1.852  0.8504 -1.7832  0.7626
 7541SOL     OW34081   4.695   3.136   4.009 -0.0256 -0.2240 -0.5802
 7541SOL    HW134082   4.607   3.110   3.982 -0.6824 -0.5693  1.9482
 7541SOL    HW234083   4.677   3.198   4.078 -0.1102  1.4720 -2.1227
 7542SOL     OW34084   0.896   3.091   9.202  0.4188  0.8194 -0.6223
 7542SOL    HW134085   0.957   3.162   9.185 -0.7092  1.1615 -3.2952
 7542SOL    HW234086   0.959   3.022   9.220 -1.3278 -0.4338  0.7037
 7543SOL     OW34087   2.493   3.134   4.880  0.2480 -0.2082  0.0479
 7543SOL    HW134088   2.572   3.143   4.933  2.5112 -1.7156 -3.0757
 7543SOL    HW234089   2.489   3.038   4.878  0.2663 -0.1948 -0.8936
 7544SOL     OW34090   4.622   3.201   8.454  0.1991  0.2348 -0.4120
 7544SOL    HW134091   4.682   3.273   8.474  0.7128  0.6953 -3.5072
 7544SOL    HW234092   4.597   3.204   8.361 -1.4122  0.3219  0.0323
 7545SOL     OW34093   2.862   2.863   5.824  0.3120 -0.5475 -0.6248
 7545SOL    HW134094   2.876   2.772   5.848  0.7412 -0.7358 -1.6067
 7545SOL    HW234095   2.773   2.872   5.860  0.6135 -2.0530  0.4997
 7546SOL     OW34096   0.275   0.508   0.632  0.5422  0.4048  0.2673
 7546SOL    HW134097   0.324   0.444   0.581 -1.3896 -0.2344 -0.8004
 7546SOL    HW234098   0.319   0.492   0.715 -1.4481  0.3911  1.3283
 7547SOL     OW34099   1.207   3.158   1.465 -0.0717  0.4793  0.5733
 7547SOL    HW134100   1.217   3.098   1.540 -1.0233 -1.7271 -1.0573
 7547SOL    HW234101   1.294   3.198   1.467  0.5193 -0.7745 -0.7110
 7548SOL     OW34102   0.877   4.708   5.189 -0.5769 -1.0879 -0.1361
 7548SOL    HW134103   0.950   4.645   5.192 -1.2461 -1.8471  0.1752
 7548SOL    HW234104   0.929   0.061   5.174 -0.1845 -1.6297 -1.5844
 7549SOL     OW34105   4.046   1.659   0.603 -0.2237  0.2447  0.3970
 7549SOL    HW134106   3.997   1.585   0.639 -0.0256 -0.0570  0.0440
 7549SOL    HW234107   3.990   1.726   0.642 -1.0562 -0.3729  0.2625
 7550SOL     OW34108   0.496   2.166  15.360 -0.2150 -0.0096  0.0874
 7550SOL    HW134109   0.432   2.147  15.291 -1.2032 -1.7150  1.4540
 7550SOL    HW234110   0.535   2.237  15.310  1.3476 -1.5032 -0.7993
 7551SOL     OW34111   3.641   1.067  17.121  0.1435 -0.2128  0.2395
 7551SOL    HW134112   3.559   1.067  17.170  0.1591  0.5543  0.2627
 7551SOL    HW234113   3.610   1.019  17.044  0.9158 -3.1089  1.7589
 7552SOL     OW34114   1.312   2.092   1.616 -0.0163  0.0744  0.2707
 7552SOL    HW134115   1.337   2.052   1.700 -1.7380 -1.3412  0.1195
 7552SOL    HW234116   1.299   2.020   1.554 -2.3845  0.0501  0.7703
 7553SOL     OW34117   4.472   4.552  10.170  0.3031 -0.5151 -0.3038
 7553SOL    HW134118   4.506   4.610  10.238 -0.5434 -2.9592  2.1918
 7553SOL    HW234119   4.382   4.584  10.171 -0.6052 -3.0223 -0.8775
 7554SOL     OW34120   0.827   2.655   0.126  0.2309 -0.2131 -0.3320
 7554SOL    HW134121   0.873   2.692   0.201 -1.0248  0.9480 -0.1227
 7554SOL    HW234122   0.834   2.560   0.134  4.0422  0.0854 -0.1596
 7555SOL     OW34123   3.651   0.847   4.704 -0.7203 -0.2615  0.1073
 7555SOL    HW134124   3.580   0.809   4.757 -1.2152  3.8874  2.3472
 7555SOL    HW234125   3.605   0.923   4.669 -1.2250 -0.0967  1.1198
 7556SOL     OW34126   0.223   0.021   7.486 -0.4884  0.0568  0.2381
 7556SOL    HW134127   0.296   0.008   7.546 -0.5515  0.1774  0.3409
 7556SOL    HW234128   0.174   4.666   7.501  0.0949 -0.6064 -1.5013
 7557SOL     OW34129   3.207   1.855   3.824  0.1792 -0.1780  0.5632
 7557SOL    HW134130   3.204   1.787   3.892  0.3577  1.0966  1.8497
 7557SOL    HW234131   3.169   1.929   3.870  1.5302  1.1047 -0.3761
 7558SOL     OW34132   2.411   1.925   6.590  0.1599  0.2279  0.2098
 7558SOL    HW134133   2.448   1.841   6.616 -0.2468 -0.1528 -0.4230
 7558SOL    HW234134   2.484   1.978   6.556  0.0257 -0.5165 -1.2331
 7559SOL     OW34135   2.452   3.196  14.202 -0.5725  0.1171  0.3531
 7559SOL    HW134136   2.437   3.135  14.274 -1.3893  0.8715  0.8212
 7559SOL    HW234137   2.403   3.276  14.221 -0.4975  0.3028 -0.2197
 7560SOL     OW34138   1.793   0.762   9.277 -0.1360  0.0356  0.2601
 7560SOL    HW134139   1.727   0.695   9.296 -2.9738  2.3019 -1.5298
 7560SOL    HW234140   1.764   0.827   9.341  1.8987  0.2391  0.9875
 7561SOL     OW34141   2.886   1.832  12.772  0.2033  0.0330 -0.2493
 7561SOL    HW134142   2.816   1.861  12.713 -0.2396 -2.8893 -1.1714
 7561SOL    HW234143   2.906   1.749  12.729  0.9913  0.2005 -0.2144
 7562SOL     OW34144   0.431   1.485   9.051  0.1426 -0.3798  0.1692
 7562SOL    HW134145   0.464   1.566   9.013  1.4674 -1.4780 -1.0321
 7562SOL    HW234146   0.379   1.514   9.126 -3.5367 -2.5389 -1.5649
 7563SOL     OW34147   3.480   0.189   3.173  0.1446  0.0724 -0.6959
 7563SOL    HW134148   3.407   0.145   3.132  0.0221 -0.0133 -0.3866
 7563SOL    HW234149   3.543   0.181   3.101 -2.7086 -2.1927 -2.9194
 7564SOL     OW34150   2.693   1.559   3.441  0.0652 -0.0727  0.2964
 7564SOL    HW134151   2.608   1.537   3.404 -0.9429 -2.9063  4.3650
 7564SOL    HW234152   2.698   1.498   3.515 -0.0199 -3.1477 -2.2184
 7565SOL     OW34153   0.738   4.315   6.824 -0.1170 -0.4545  0.1174
 7565SOL    HW134154   0.809   4.302   6.886  0.3381 -0.5885 -0.4269
 7565SOL    HW234155   0.733   4.409   6.812  0.2375 -0.0983  2.7818
 7566SOL     OW34156   0.328   2.627   2.107  0.1071  0.0410  0.1674
 7566SOL    HW134157   0.284   2.691   2.163 -2.3662  0.4349 -2.2284
 7566SOL    HW234158   0.400   2.676   2.067  0.9090  2.3185  4.4117
 7567SOL     OW34159   0.327   3.141   1.360  0.2726  0.1217 -0.0493
 7567SOL    HW134160   0.396   3.084   1.392  0.9149  1.0628  0.2635
 7567SOL    HW234161   0.274   3.145   1.439 -1.2765 -3.9266 -0.9092
 7568SOL     OW34162   2.212   2.403  10.287 -0.3029 -0.5010 -0.5738
 7568SOL    HW134163   2.210   2.356  10.370 -1.5484 -0.2135 -0.4407
 7568SOL    HW234164   2.245   2.334  10.230 -2.6098 -0.9529 -1.3595
 7569SOL     OW34165   0.931   3.480  10.405  0.5812 -0.3940 -0.7482
 7569SOL    HW134166   1.011   3.525  10.432 -0.0192  1.5056 -2.2138
 7569SOL    HW234167   0.878   3.557  10.387 -0.1588 -0.5135  0.9385
 7570SOL     OW34168   3.977   1.930   4.339 -0.0708 -0.8072 -0.6084
 7570SOL    HW134169   3.934   2.015   4.339  2.6336  0.5712  0.0407
 7570SOL    HW234170   3.954   1.886   4.257 -1.2191 -0.9670 -0.1903
 7571SOL     OW34171   3.458   2.912  15.304  1.1015  0.2244 -0.1044
 7571SOL    HW134172   3.541   2.910  15.351  1.0754  1.8324  0.0125
 7571SOL    HW234173   3.460   2.991  15.251  0.1739 -0.2337 -0.8310
 7572SOL     OW34174   3.365   4.579   9.379 -0.4926  0.2341 -0.0021
 7572SOL    HW134175   3.346   4.652   9.321 -1.2230 -0.9872 -1.3198
 7572SOL    HW234176   3.461   4.578   9.383 -0.5026 -0.2279  0.1359
 7573SOL     OW34177   1.836   2.087  15.386 -0.4040 -0.4250 -0.3424
 7573SOL    HW134178   1.869   2.131  15.465  1.2343 -1.0200 -0.6935
 7573SOL    HW234179   1.907   2.112  15.327  0.4671  0.9361  1.2519
 7574SOL     OW34180   0.894   2.036   4.142 -0.1293 -0.6347 -0.5048
 7574SOL    HW134181   0.912   2.126   4.168 -1.5852 -0.2769 -0.7026
 7574SOL    HW234182   0.801   2.031   4.166 -0.6291 -4.4582 -3.2035
 7575SOL     OW34183   4.717   0.461   6.394 -0.1853 -0.1824 -0.3732
 7575SOL    HW134184   4.663   0.448   6.316 -0.4257 -3.5238  0.3706
 7575SOL    HW234185   4.718   0.368   6.416 -2.4552  0.0608  0.7096
 7576SOL     OW34186   3.080   1.260  12.379  0.1513 -0.1633 -0.2646
 7576SOL    HW134187   3.128   1.329  12.335  1.7604 -0.9755  0.1963
 7576SOL    HW234188   2.997   1.306  12.379  1.3500  1.9821 -2.3510
 7577SOL     OW34189   3.833   4.504   1.026  0.2699 -0.6587  0.3675
 7577SOL    HW134190   3.911   4.449   1.036  1.0936  0.5086  0.2791
 7577SOL    HW234191   3.784   4.473   0.950 -2.1669 -0.5320  1.8625
 7578SOL     OW34192   0.953   1.321  10.849  0.5702 -0.0177 -0.3415
 7578SOL    HW134193   0.904   1.397  10.820  2.3293  0.6862 -1.5200
 7578SOL    HW234194   0.880   1.269  10.881 -0.0718  1.3538  0.4046
 7579SOL     OW34195   0.362   1.209   7.309 -0.3011  0.1038  0.1968
 7579SOL    HW134196   0.429   1.272   7.282  0.7558 -0.3924  1.6709
 7579SOL    HW234197   0.353   1.235   7.400 -0.0168 -1.0259  0.5437
 7580SOL     OW34198   1.486   3.816   4.070  0.0836  0.0003  0.0491
 7580SOL    HW134199   1.578   3.791   4.070 -0.1002 -0.6633 -1.1352
 7580SOL    HW234200   1.497   3.892   4.128 -1.2178 -0.0528  0.3717
 7581SOL     OW34201   4.620   3.884  13.532  0.1583  1.0231 -0.0565
 7581SOL    HW134202   4.621   3.843  13.446  0.4425  1.6907 -0.3774
 7581SOL    HW234203   4.702   3.853  13.569 -0.4470  0.4850  0.8359
 7582SOL     OW34204   0.388   1.675   4.563  0.5334 -0.1490 -0.1130
 7582SOL    HW134205   0.405   1.760   4.523  1.9038  0.2060  1.2305
 7582SOL    HW234206   0.293   1.672   4.567  0.4999 -0.5756 -1.3379
 7583SOL     OW34207   4.353   1.656   3.661  0.6819 -0.3720 -0.3813
 7583SOL    HW134208   4.295   1.602   3.715  2.3091 -0.6352  1.0954
 7583SOL    HW234209   4.300   1.669   3.582 -2.0863  0.7519  1.6913
 7584SOL     OW34210   1.881   2.730   6.015 -0.2390  0.0162  0.3197
 7584SOL    HW134211   1.842   2.686   5.940  0.8449 -0.3404 -0.0407
 7584SOL    HW234212   1.965   2.755   5.976 -0.2241 -2.2454 -1.1173
 7585SOL     OW34213   2.818   2.279   5.828  0.1409 -0.1162  0.4459
 7585SOL    HW134214   2.891   2.319   5.876  0.2628  1.8175 -1.3552
 7585SOL    HW234215   2.801   2.204   5.885 -1.0403 -1.2690 -1.3842
 7586SOL     OW34216   2.924   4.288  11.115  0.0876 -0.0909 -0.3144
 7586SOL    HW134217   2.968   4.279  11.031  2.0396 -0.0964  0.7052
 7586SOL    HW234218   2.857   4.354  11.096  0.9259  0.2444 -2.0524
 7587SOL     OW34219   2.959   2.406   8.554  0.3455 -0.3485  0.0761
 7587SOL    HW134220   2.948   2.499   8.576 -0.6995  0.4123 -3.6475
 7587SOL    HW234221   2.892   2.364   8.607 -0.8759  1.1563 -0.2593
 7588SOL     OW34222   4.152   0.366   4.080 -0.7107 -0.0262  0.0357
 7588SOL    HW134223   4.218   0.431   4.101  0.0370 -0.9236  0.4611
 7588SOL    HW234224   4.207   0.298   4.041 -0.5337  0.5016 -0.6187
 7589SOL     OW34225   2.136   0.910  11.123  0.4893  0.0246  0.5471
 7589SOL    HW134226   2.217   0.882  11.166  0.9069  0.0978 -0.1953
 7589SOL    HW234227   2.067   0.893  11.187 -0.8815 -0.1478 -0.9742
 7590SOL     OW34228   0.838   4.213  12.577  0.3547 -0.1350 -0.1226
 7590SOL    HW134229   0.752   4.255  12.584  1.7325  2.8760 -1.5205
 7590SOL    HW234230   0.823   4.118  12.583 -0.3010 -0.1170 -1.4825
 7591SOL     OW34231   2.460   2.802   7.913  0.7034 -0.2511 -0.1096
 7591SOL    HW134232   2.394   2.736   7.936  0.6053 -1.6321 -4.2897
 7591SOL    HW234233   2.405   2.860   7.860  0.9224  1.1119  1.1693
 7592SOL     OW34234   3.194   4.590  10.018  0.4852  0.3229  0.0873
 7592SOL    HW134235   3.236   4.646  10.083 -2.5217 -0.1398  2.4121
 7592SOL    HW234236   3.266   4.529  10.002  0.2182 -0.3455  1.4320
 7593SOL     OW34237   2.417   4.249  17.331  0.0467  0.3529  0.2054
 7593SOL    HW134238   2.401   4.230  17.423 -1.9715 -1.2821 -0.4599
 7593SOL    HW234239   2.377   4.333  17.309 -1.0676  0.4844  2.7335
 7594SOL     OW34240   2.415   0.983  15.069  0.1292  0.2009  0.2885
 7594SOL    HW134241   2.457   0.910  15.114  1.1151  1.1513  0.9042
 7594SOL    HW234242   2.408   0.952  14.978  1.6121  0.6499  0.0187
 7595SOL     OW34243   0.343   2.567  12.361  0.3780  0.4798  0.2141
 7595SOL    HW134244   0.372   2.656  12.342  1.3097 -0.0081 -0.6644
 7595SOL    HW234245   0.269   2.562  12.301 -0.7199 -0.6923  1.6706
 7596SOL     OW34246   1.171   2.630   8.846  0.0647  0.1142  0.5297
 7596SOL    HW134247   1.150   2.598   8.759 -0.3832  4.7483 -1.0907
 7596SOL    HW234248   1.176   2.724   8.824  0.9833 -0.1476 -0.3849
 7597SOL     OW34249   1.366   0.368  13.756 -0.3040  0.0248  0.0786
 7597SOL    HW134250   1.308   0.412  13.819 -0.0043 -0.6860  0.8436
 7597SOL    HW234251   1.300   0.335  13.694 -0.1181  2.4370 -1.4187
 7598SOL     OW34252   2.047   3.271   7.311  0.5381  0.0218  0.6412
 7598SOL    HW134253   2.130   3.311   7.285 -0.5347  1.3301 -0.7456
 7598SOL    HW234254   2.079   3.213   7.380  2.3495  2.3998  1.8070
 7599SOL     OW34255   3.072   0.931   5.021 -0.2305 -0.0611 -0.2680
 7599SOL    HW134256   2.979   0.951   5.013 -0.4292 -1.0975 -0.5151
 7599SOL    HW234257   3.104   0.936   4.931 -1.1891 -1.9790 -0.7031
 7600SOL     OW34258   1.376   0.343  13.198 -0.2128 -0.1555 -0.0191
 7600SOL    HW134259   1.330   0.387  13.270  0.2595 -0.6756  0.5962
 7600SOL    HW234260   1.455   0.311  13.241 -0.0434 -1.2742 -1.1789
 7601SOL     OW34261   0.332   1.353  14.171  0.1490  0.5301 -0.4987
 7601SOL    HW134262   0.273   1.424  14.143  0.1980 -0.2203 -2.5027
 7601SOL    HW234263   0.270   1.281  14.178  0.8568 -0.0102  0.2275
 7602SOL     OW34264   2.363   2.519   9.102  0.6598  0.6481  0.1613
 7602SOL    HW134265   2.388   2.431   9.129 -1.6678  0.1948  0.8107
 7602SOL    HW234266   2.312   2.537   9.181  3.4598  0.1240  2.0840
 7603SOL     OW34267   0.085   1.154  16.218 -0.2561  0.0868  0.0317
 7603SOL    HW134268   0.074   1.200  16.301  1.2458  2.1600 -0.9143
 7603SOL    HW234269   0.163   1.198  16.183  0.6416 -0.3810  1.4599
 7604SOL     OW34270   0.333   0.526   2.375  0.4751  0.1999 -0.0982
 7604SOL    HW134271   0.387   0.530   2.453 -1.0267  0.5466  0.9269
 7604SOL    HW234272   0.371   0.600   2.329 -1.5387  0.4549 -1.3629
 7605SOL     OW34273   0.441   4.369   9.751  0.5003  0.6679  0.0353
 7605SOL    HW134274   0.397   4.284   9.744  2.9951 -0.6802  0.8892
 7605SOL    HW234275   0.426   4.392   9.659 -1.8080  0.7273  0.4256
 7606SOL     OW34276   4.227   1.586   8.970  0.1875  0.0611 -0.4855
 7606SOL    HW134277   4.173   1.508   8.978  0.3059 -0.0212 -0.4936
 7606SOL    HW234278   4.195   1.620   8.887 -0.0086 -0.0299 -0.4478
 7607SOL     OW34279   2.682   3.773   4.593  0.3449  0.4997 -0.0691
 7607SOL    HW134280   2.618   3.710   4.625  2.2895 -0.0920  2.7057
 7607SOL    HW234281   2.718   3.803   4.676  0.4309  0.6040 -0.1440
 7608SOL     OW34282   2.886   3.993   3.931 -0.4799  0.1904 -0.0446
 7608SOL    HW134283   2.899   3.999   3.837  0.6867 -1.0139  0.0430
 7608SOL    HW234284   2.794   4.020   3.931 -0.5101  0.0922  0.0420
 7609SOL     OW34285   0.280   3.832   7.592  0.1667 -0.3960 -0.0879
 7609SOL    HW134286   0.250   3.780   7.517  0.0012 -1.6518  0.8487
 7609SOL    HW234287   0.340   3.765   7.624  1.0625  0.2499 -0.4001
 7610SOL     OW34288   0.186   3.627   4.045 -0.2023 -0.1293  0.2843
 7610SOL    HW134289   0.245   3.553   4.057 -0.0953 -0.2598 -1.0963
 7610SOL    HW234290   0.241   3.702   4.024 -0.4280  0.6036  2.3136
 7611SOL     OW34291   4.505   4.104   1.359  0.4264  0.4274  0.8063
 7611SOL    HW134292   4.594   4.136   1.372 -0.1986  2.3084  0.4756
 7611SOL    HW234293   4.472   4.121   1.447  1.3281  0.9116  1.0547
 7612SOL     OW34294   4.395   1.022   7.804 -0.0921 -0.0606  0.2574
 7612SOL    HW134295   4.467   0.960   7.819 -0.3048  0.0022  1.5282
 7612SOL    HW234296   4.336   0.963   7.758  0.4360  0.7486 -1.4480
 7613SOL     OW34297   3.147   3.675   8.381 -0.0254  0.4770  0.2595
 7613SOL    HW134298   3.093   3.615   8.432 -0.8830 -0.2577 -1.5144
 7613SOL    HW234299   3.124   3.632   8.299 -0.6080  2.5546 -0.6628
 7614SOL     OW34300   4.685   1.535  12.627  0.0563  0.4370 -0.3073
 7614SOL    HW134301   4.637   1.460  12.590  1.0660 -1.5969  2.4789
 7614SOL    HW234302   0.024   1.551  12.560 -1.4532  0.5325 -1.7585
 7615SOL     OW34303   1.310   2.722  16.625 -0.1246  0.3410 -0.4732
 7615SOL    HW134304   1.278   2.801  16.583 -2.2123 -0.0302  0.4342
 7615SOL    HW234305   1.231   2.681  16.659  0.3600 -0.5433 -0.3898
 7616SOL     OW34306   2.847   3.833  11.650  0.2319 -0.0175 -0.3581
 7616SOL    HW134307   2.779   3.900  11.639 -0.2908 -0.5802 -0.5687
 7616SOL    HW234308   2.922   3.881  11.686 -0.1525 -0.1044  0.5550
 7617SOL     OW34309   3.561   3.358   9.111  0.5532 -0.2498 -0.1053
 7617SOL    HW134310   3.588   3.267   9.103  2.7359  0.3741  0.3427
 7617SOL    HW234311   3.534   3.352   9.203 -0.5153 -2.4386 -0.5734
 7618SOL     OW34312   0.428   0.362   5.422  0.6417 -0.3619  0.2140
 7618SOL    HW134313   0.390   0.419   5.489  1.0034 -1.3753  1.2812
 7618SOL    HW234314   0.380   0.280   5.429  0.9311 -0.3031  2.9401
 7619SOL     OW34315   1.468   3.238   1.675  0.2996  0.5117 -0.0000
 7619SOL    HW134316   1.492   3.192   1.595  3.1572  0.1050  1.1094
 7619SOL    HW234317   1.463   3.166   1.737 -0.4247  0.0551 -0.5934
 7620SOL     OW34318   3.340   4.357  17.337  1.0259 -0.0903 -0.3400
 7620SOL    HW134319   3.393   4.290  17.293  2.3924  0.8888 -0.1734
 7620SOL    HW234320   3.343   4.429  17.275 -1.2619 -0.0350 -0.3868
 7621SOL     OW34321   2.557   2.680  15.858  0.1021 -0.0170  0.0058
 7621SOL    HW134322   2.533   2.675  15.765  0.9550 -1.5729 -0.1309
 7621SOL    HW234323   2.627   2.615  15.862 -0.1263 -0.3043 -0.6453
 7622SOL     OW34324   4.497   1.150  15.246 -0.1054  0.5999 -0.5871
 7622SOL    HW134325   4.440   1.165  15.322  0.3379  1.0338 -0.3402
 7622SOL    HW234326   4.426   1.149  15.182 -2.0901  1.3369  1.5633
 7623SOL     OW34327   4.554   1.863   7.923 -0.1419  1.0005  0.2297
 7623SOL    HW134328   4.543   1.871   8.017  1.2947  0.7293  0.4145
 7623SOL    HW234329   4.603   1.942   7.901  2.5114 -1.1737 -1.7613
 7624SOL     OW34330   3.083   3.208   5.688 -0.0552  0.1114  0.2061
 7624SOL    HW134331   3.063   3.265   5.762 -1.7927  1.8042 -1.5718
 7624SOL    HW234332   3.095   3.125   5.734 -0.4445  0.3306  0.7090
 7625SOL     OW34333   0.097   3.418  10.914  0.1532  0.4047  0.1346
 7625SOL    HW134334   0.030   3.367  10.868  1.5708 -0.0977 -1.3558
 7625SOL    HW234335   0.177   3.387  10.872  1.3545  0.6645  2.2298
 7626SOL     OW34336   3.629   3.931   9.669 -0.7077  0.2234 -0.0168
 7626SOL    HW134337   3.681   3.993   9.720  0.6404 -0.6700 -0.3043
 7626SOL    HW234338   3.595   3.874   9.738 -0.2304  1.2349  1.0499
 7627SOL     OW34339   0.134   1.922   5.766 -0.6097  0.3258 -1.0474
 7627SOL    HW134340   0.157   2.015   5.766  0.8437 -0.0360  2.6599
 7627SOL    HW234341   0.224   1.893   5.750 -0.3128 -0.8874  2.8811
 7628SOL     OW34342   4.357   2.048   5.735  0.3571 -0.1725  0.2468
 7628SOL    HW134343   4.334   2.134   5.700 -2.8870 -1.5419 -1.0451
 7628SOL    HW234344   4.439   2.031   5.689 -0.0879 -1.8642  0.0760
 7629SOL     OW34345   3.375   1.605  11.030 -0.2335  0.5983  0.1879
 7629SOL    HW134346   3.413   1.687  11.063  1.4367 -0.4632  0.8808
 7629SOL    HW234347   3.385   1.624  10.937  0.4700 -0.6914 -0.0000
 7630SOL     OW34348   0.300   4.611   2.431 -0.9819 -1.0763 -0.5707
 7630SOL    HW134349   0.220   4.624   2.380 -1.4165 -2.1173 -0.1581
 7630SOL    HW234350   0.298   4.675   2.503  0.9476  0.5360 -1.9794
 7631SOL     OW34351   3.469   0.961   2.611  0.3166  0.0045 -0.0196
 7631SOL    HW134352   3.393   0.904   2.626  0.4241 -0.0108  0.4677
 7631SOL    HW234353   3.531   0.903   2.566  0.8953 -0.6288  1.6189
 7632SOL     OW34354   1.316   1.875   2.496  0.3643 -0.0252 -0.2039
 7632SOL    HW134355   1.233   1.829   2.508 -0.8690  2.1956 -0.2674
 7632SOL    HW234356   1.360   1.818   2.432  0.4574 -0.4793  0.2654
 7633SOL     OW34357   4.022   1.663   2.184 -0.1999 -0.3567  0.4487
 7633SOL    HW134358   3.940   1.710   2.168 -0.7911 -0.5192  2.9826
 7633SOL    HW234359   4.067   1.671   2.100  1.0834 -1.9723  0.9895
 7634SOL     OW34360   1.894   3.658   3.489 -0.4875  0.0329  0.0615
 7634SOL    HW134361   1.979   3.617   3.508  0.2760  1.5485 -0.0588
 7634SOL    HW234362   1.894   3.654   3.393 -0.3159 -1.2807  0.1194
 7635SOL     OW34363   0.875   0.362   8.911 -0.5613 -0.2470  0.5807
 7635SOL    HW134364   0.806   0.308   8.949 -0.8980 -0.8830 -0.9383
 7635SOL    HW234365   0.884   0.428   8.979  0.9143 -1.8408  1.9387
 7636SOL     OW34366   0.267   2.813   8.204  0.6530 -0.1225  0.5324
 7636SOL    HW134367   0.225   2.859   8.277 -1.5675 -1.1946 -0.0847
 7636SOL    HW234368   0.350   2.783   8.241  0.1373 -1.4637  0.6226
 7637SOL     OW34369   1.829   0.006   4.614 -0.7971 -0.0685 -0.1832
 7637SOL    HW134370   1.871   4.648   4.601  1.2467  1.2909 -2.4505
 7637SOL    HW234371   1.894   0.073   4.589 -0.3028 -0.5311 -0.1276
 7638SOL     OW34372   2.232   1.829   3.268 -0.4663 -0.2485 -0.6850
 7638SOL    HW134373   2.293   1.765   3.232  1.1292  0.0073  1.5685
 7638SOL    HW234374   2.232   1.886   3.192 -3.1599 -1.1421 -1.3564
 7639SOL     OW34375   3.234   2.778   5.610 -0.1572 -0.1774  0.1826
 7639SOL    HW134376   3.248   2.818   5.524  0.4848 -0.8997 -0.0546
 7639SOL    HW234377   3.321   2.790   5.648 -0.6422  1.7036  0.6929
 7640SOL     OW34378   3.927   1.071   2.504  0.2103 -0.1380 -0.6115
 7640SOL    HW134379   3.832   1.085   2.503  0.0188 -1.4047  0.4028
 7640SOL    HW234380   3.938   0.997   2.564  2.2023  2.8969  2.7799
 7641SOL     OW34381   3.982   2.121   1.577  0.0829 -0.2250  0.7465
 7641SOL    HW134382   4.055   2.174   1.548  1.2794 -2.8625 -1.0929
 7641SOL    HW234383   3.961   2.098   1.487  3.2480 -1.5324  0.3456
 7642SOL     OW34384   3.714   2.950   3.241 -0.2783 -0.7558  0.0343
 7642SOL    HW134385   3.643   2.891   3.216 -0.7862 -0.1322 -0.0088
 7642SOL    HW234386   3.711   3.022   3.178 -0.9118  1.3032  2.4347
 7643SOL     OW34387   1.595   2.798  14.923 -0.5300  0.7893 -0.7340
 7643SOL    HW134388   1.536   2.873  14.934 -0.1151  0.9223  0.6030
 7643SOL    HW234389   1.649   2.837  14.854  1.0607  0.6401  0.4507
 7644SOL     OW34390   4.066   3.388   5.554 -0.6522  0.3871 -0.0011
 7644SOL    HW134391   4.159   3.372   5.540 -1.2276 -2.2475 -0.8689
 7644SOL    HW234392   4.044   3.440   5.476  1.3171  0.1812 -0.6855
 7645SOL     OW34393   1.903   3.512  15.360 -0.4041 -0.5240 -0.2825
 7645SOL    HW134394   1.950   3.435  15.391  0.0670 -0.4826 -0.8927
 7645SOL    HW234395   1.876   3.542  15.447 -0.2336  3.0587 -1.4729
 7646SOL     OW34396   1.109   2.090  14.121  0.1828 -0.1718 -0.8704
 7646SOL    HW134397   1.022   2.091  14.160 -0.0201 -1.7809 -1.3117
 7646SOL    HW234398   1.157   2.067  14.201  2.0470  1.3383 -1.5594
 7647SOL     OW34399   0.127   2.639  11.727 -0.1489  0.3032  0.1815
 7647SOL    HW134400   0.178   2.705  11.775 -2.0440  0.9340  1.3584
 7647SOL    HW234401   0.184   2.563  11.740  0.6856  0.9341  0.2357
 7648SOL     OW34402   0.039   0.507  14.775  0.4255 -0.1496 -0.0607
 7648SOL    HW134403   0.102   0.552  14.719  0.1781 -0.0584 -0.2654
 7648SOL    HW234404   0.094   0.490  14.852  0.8967 -0.4640 -0.4613
 7649SOL     OW34405   1.791   2.923   0.837  0.0818  0.3194 -0.1405
 7649SOL    HW134406   1.746   3.001   0.806  1.8985  1.3751 -0.1194
 7649SOL    HW234407   1.806   2.960   0.924 -1.0938  2.0250 -0.6666
 7650SOL     OW34408   4.220   2.972   6.915  0.3376 -0.5520  0.1965
 7650SOL    HW134409   4.169   2.909   6.864  0.8918 -0.2755 -0.7003
 7650SOL    HW234410   4.208   2.935   7.003 -0.6154  1.2349  0.8125
 7651SOL     OW34411   3.048   0.533  17.470 -0.1216  0.1067  0.0204
 7651SOL    HW134412   2.980   0.466  17.483  0.8032 -0.8725 -0.2147
 7651SOL    HW234413   3.120   0.487  17.514 -0.2420  0.5350  0.6666
 7652SOL     OW34414   3.246   1.258   4.771  0.1477  0.1951 -0.0858
 7652SOL    HW134415   3.222   1.205   4.694  1.6354 -0.2617 -0.2313
 7652SOL    HW234416   3.302   1.191   4.809  0.3280 -0.3929 -1.3811
 7653SOL     OW34417   0.253   2.519   6.648  0.4931  0.2632 -0.4576
 7653SOL    HW134418   0.261   2.520   6.743 -0.8051  1.4538 -0.3520
 7653SOL    HW234419   0.290   2.606   6.630 -1.4104  0.8826 -1.3779
 7654SOL     OW34420   0.974   2.781  11.240 -0.6337  0.2847 -0.1252
 7654SOL    HW134421   0.953   2.707  11.183 -1.8623  1.8581 -1.7196
 7654SOL    HW234422   0.979   2.742  11.327  1.5125 -0.1720 -0.4489
 7655SOL     OW34423   4.473   3.176  12.600 -0.0005 -0.2562  0.0808
 7655SOL    HW134424   4.447   3.254  12.551 -0.6393 -0.2169  0.4879
 7655SOL    HW234425   4.390   3.140  12.631  1.5380 -3.0503  0.9152
 7656SOL     OW34426   2.717   1.336  14.219 -0.1578  0.6065  0.5161
 7656SOL    HW134427   2.697   1.250  14.256 -0.4719  0.4913  0.0736
 7656SOL    HW234428   2.648   1.333  14.152  0.5954  2.2542 -0.3516
 7657SOL     OW34429   3.133   0.258   9.404  0.6515  0.1919  0.1908
 7657SOL    HW134430   3.089   0.321   9.347  0.1290  1.8161  2.3632
 7657SOL    HW234431   3.216   0.301   9.425 -0.0035  1.7700 -0.4753
 7658SOL     OW34432   3.170   2.494   3.413  0.1982  0.2752  0.0712
 7658SOL    HW134433   3.255   2.469   3.376  0.2454 -1.9826  1.7577
 7658SOL    HW234434   3.164   2.442   3.492 -0.4649  1.9642  1.1395
 7659SOL     OW34435   2.153   1.153   8.251 -0.1611  0.4859  0.1172
 7659SOL    HW134436   2.103   1.171   8.331 -1.1801 -0.7086 -0.2578
 7659SOL    HW234437   2.243   1.182   8.261  0.8262 -1.7838 -2.4621
 7660SOL     OW34438   0.166   2.903   3.468 -0.0327 -0.2279 -0.3065
 7660SOL    HW134439   0.119   2.868   3.392 -1.8000  0.1231  0.6203
 7660SOL    HW234440   0.198   2.990   3.444 -0.4508  0.9387  3.4159
 7661SOL     OW34441   2.428   1.897   3.701 -0.0777  0.2730 -0.0297
 7661SOL    HW134442   2.374   1.953   3.646  0.3628  0.0678 -0.6695
 7661SOL    HW234443   2.361   1.856   3.756 -1.5906 -0.1189 -2.1746
 7662SOL     OW34444   4.700   1.292   7.801 -0.2614  0.3930  0.5559
 7662SOL    HW134445   0.006   1.244   7.877  2.0021  1.6175  0.3708
 7662SOL    HW234446   4.609   1.267   7.812  0.0863 -0.4339  1.5320
 7663SOL     OW34447   1.367   3.569   5.682  0.5351 -0.0854  0.3866
 7663SOL    HW134448   1.452   3.539   5.650 -0.0051 -0.1657 -0.9700
 7663SOL    HW234449   1.402   3.617   5.758 -0.2010 -0.5051  0.9853
 7664SOL     OW34450   0.482   4.186   6.237  0.0960 -0.5406 -0.0676
 7664SOL    HW134451   0.441   4.253   6.183  0.1872 -0.1395  0.3572
 7664SOL    HW234452   0.517   4.127   6.170 -1.3695 -0.0871 -1.2208
 7665SOL     OW34453   0.052   0.618   3.365 -0.1216  0.4021 -0.5723
 7665SOL    HW134454   0.027   0.529   3.390  0.3019  0.1099 -1.1622
 7665SOL    HW234455   0.082   0.664   3.443  0.3554  1.9041 -1.6586
 7666SOL     OW34456   3.491   2.849   3.110 -0.5473  0.7813  0.0905
 7666SOL    HW134457   3.477   2.800   3.029  0.3662 -1.4994  1.2940
 7666SOL    HW234458   3.431   2.922   3.097 -1.8026 -0.4375 -0.9801
 7667SOL     OW34459   4.159   2.211   4.366  0.3068 -0.5246 -0.1386
 7667SOL    HW134460   4.174   2.189   4.458 -2.4820  2.0871  0.9368
 7667SOL    HW234461   4.105   2.290   4.375 -0.1218 -0.8498  0.1207
 7668SOL     OW34462   4.516   1.668  17.327  0.5066 -0.0982 -0.1584
 7668SOL    HW134463   4.527   1.733  17.258 -1.0437 -0.2145 -0.5004
 7668SOL    HW234464   4.423   1.682  17.342  0.9924  1.1405  1.7081
 7669SOL     OW34465   1.993   0.564   8.205  0.6865 -0.2167 -0.3387
 7669SOL    HW134466   1.946   0.641   8.173 -1.1012 -1.2290 -0.1222
 7669SOL    HW234467   2.079   0.566   8.163  1.1369 -1.3617  0.5508
 7670SOL     OW34468   2.376   3.593   7.662 -0.2512 -0.6842  0.2484
 7670SOL    HW134469   2.434   3.530   7.618 -0.0631 -0.1119 -0.3152
 7670SOL    HW234470   2.348   3.540   7.736 -1.8844  0.3104  0.3298
 7671SOL     OW34471   2.003   1.669   1.810 -0.2588 -0.1474  0.3764
 7671SOL    HW134472   2.014   1.728   1.736  1.3265 -0.0433  0.6984
 7671SOL    HW234473   2.094   1.640   1.816 -1.0222 -2.5582  0.3737
 7672SOL     OW34474   1.388   1.428   6.870  0.6741 -0.0084 -0.5280
 7672SOL    HW134475   1.412   1.427   6.777  1.8451  1.5483 -0.2423
 7672SOL    HW234476   1.453   1.486   6.910  0.8773  0.3899 -1.4265
 7673SOL     OW34477   2.221   1.618   6.360  0.5915 -0.6572  0.2617
 7673SOL    HW134478   2.309   1.655   6.367  0.0742  0.7158 -0.5129
 7673SOL    HW234479   2.206   1.625   6.454 -0.3489  1.0864 -0.0186
 7674SOL     OW34480   3.357   1.153   5.493  0.0000  0.8069 -0.0876
 7674SOL    HW134481   3.382   1.237   5.456  2.0485  0.7260  1.0631
 7674SOL    HW234482   3.392   1.159   5.582  0.7943 -0.1632 -0.3288
 7675SOL     OW34483   2.331   1.102   1.986  0.0476 -0.8941 -0.8071
 7675SOL    HW134484   2.343   1.157   1.909  0.4887  1.0591  0.6499
 7675SOL    HW234485   2.314   1.172   2.049  2.3066 -1.1043  0.0427
 7676SOL     OW34486   4.410   3.074  12.874  0.3595  0.3966  0.1426
 7676SOL    HW134487   4.411   3.014  12.949  0.1864 -0.9636 -0.9594
 7676SOL    HW234488   4.316   3.090  12.869  0.1736  0.1848  2.7311
 7677SOL     OW34489   3.958   1.524   8.502  0.3245  0.7352 -0.3402
 7677SOL    HW134490   4.046   1.506   8.469  0.6394  0.7415  0.5126
 7677SOL    HW234491   3.898   1.516   8.427  1.2447  1.4289 -1.1565
 7678SOL     OW34492   2.055   2.689   5.801 -0.3942  0.0756 -1.0368
 7678SOL    HW134493   2.135   2.736   5.826 -0.6606  0.3156 -0.6276
 7678SOL    HW234494   2.084   2.656   5.716  2.6305 -0.2961  0.1565
 7679SOL     OW34495   2.250   1.276   6.350  0.7103 -0.2491  0.1532
 7679SOL    HW134496   2.310   1.216   6.307  2.6698  0.4746  1.8962
 7679SOL    HW234497   2.317   1.330   6.392 -0.8538  0.5092  1.6623
 7680SOL     OW34498   0.897   0.201   0.119  0.0132  0.7191  0.1253
 7680SOL    HW134499   0.835   0.220   0.189  0.4786  1.4243  0.3499
 7680SOL    HW234500   0.973   0.243   0.159 -1.3734  1.3440  2.1249
 7681SOL     OW34501   3.356   1.434  10.616  0.1346 -0.0282  0.4762
 7681SOL    HW134502   3.421   1.368  10.591  0.1859 -0.5998  2.1421
 7681SOL    HW234503   3.413   1.501  10.653  2.2701 -1.3799 -0.3960
 7682SOL     OW34504   1.477   1.914   0.759  0.2627  0.1001  0.1715
 7682SOL    HW134505   1.508   2.004   0.765  1.9880 -0.5339  0.6520
 7682SOL    HW234506   1.383   1.932   0.765 -0.5289 -4.7604  1.9709
 7683SOL     OW34507   0.463   1.602   6.443  0.1551  0.5712 -0.1931
 7683SOL    HW134508   0.476   1.680   6.498 -1.5604 -0.8252  2.1847
 7683SOL    HW234509   0.544   1.620   6.395  0.7643 -0.4741  0.4410
 7684SOL     OW34510   2.466   1.397   9.600 -0.4324  0.1783  0.5700
 7684SOL    HW134511   2.373   1.382   9.585 -1.1612  2.5004  2.6516
 7684SOL    HW234512   2.482   1.479   9.553 -1.2658  0.7517  1.2734
 7685SOL     OW34513   1.626   0.991   7.344 -0.2220  0.4668  0.5988
 7685SOL    HW134514   1.680   1.068   7.360 -0.2241  0.8486 -1.2608
 7685SOL    HW234515   1.604   0.963   7.433 -1.0576  1.3240  0.6679
 7686SOL     OW34516   0.354   1.332   5.583  0.7419 -0.2467 -0.2013
 7686SOL    HW134517   0.405   1.359   5.506 -0.8689  1.1919 -0.7550
 7686SOL    HW234518   0.282   1.395   5.583 -2.3824 -3.8576 -2.5147
 7687SOL     OW34519   2.228   2.290  17.086 -0.0398 -0.6613  0.6227
 7687SOL    HW134520   2.169   2.330  17.150  2.8869  0.1870  2.8358
 7687SOL    HW234521   2.263   2.222  17.144 -0.7588  0.5810  2.5304
 7688SOL     OW34522   0.034   3.084  15.991 -0.1327  0.3276 -0.8289
 7688SOL    HW134523   4.675   3.039  15.993 -0.5197  1.0032 -2.1691
 7688SOL    HW234524   0.022   3.127  15.906  2.6283  0.9238 -0.9044
 7689SOL     OW34525   4.539   1.178   6.405  0.0250 -0.2257 -0.4203
 7689SOL    HW134526   4.543   1.092   6.447  1.1471  0.3582  0.6370
 7689SOL    HW234527   4.593   1.233   6.461 -0.8919 -0.2844  0.5382
 7690SOL     OW34528   3.008   4.631   2.955  0.2471 -0.1825  0.1360
 7690SOL    HW134529   3.067   4.555   2.951  1.3815  0.6920  0.2995
 7690SOL    HW234530   2.931   4.620   2.900 -0.1140 -0.2610  0.6570
 7691SOL     OW34531   0.201   0.921   3.788  0.1001  0.1381  0.3940
 7691SOL    HW134532   0.163   0.950   3.705 -2.1842 -1.4924  0.8765
 7691SOL    HW234533   0.214   0.996   3.845  0.2705 -0.0942  0.6630
 7692SOL     OW34534   3.165   3.677   2.263  0.1044  0.1815  0.1214
 7692SOL    HW134535   3.124   3.749   2.312  0.8842  1.6255 -1.3211
 7692SOL    HW234536   3.085   3.640   2.224  0.8365  0.9884 -2.1838
 7693SOL     OW34537   2.918   1.288   5.151 -0.6437 -0.0748  0.1361
 7693SOL    HW134538   2.972   1.269   5.074  0.7434  1.3035  0.7863
 7693SOL    HW234539   2.870   1.206   5.159  1.4432 -1.4897 -1.6243
 7694SOL     OW34540   0.917   2.874   7.727  0.2672  0.2336  0.0066
 7694SOL    HW134541   0.878   2.870   7.815  1.3603 -1.8556  0.3867
 7694SOL    HW234542   0.851   2.816   7.691  1.3741 -0.0990 -1.4623
 7695SOL     OW34543   1.323   3.459   7.744 -0.2557 -0.3019 -0.3134
 7695SOL    HW134544   1.313   3.388   7.807 -1.4986 -0.1391 -0.3277
 7695SOL    HW234545   1.276   3.533   7.780  1.5437  0.4536  0.4830
 7696SOL     OW34546   1.446   3.797  16.021  0.0007  0.0708 -0.9453
 7696SOL    HW134547   1.535   3.798  15.985  1.3530 -1.5955  2.3243
 7696SOL    HW234548   1.461   3.849  16.100 -3.3045 -1.3577  0.6126
 7697SOL     OW34549   2.317   4.116  11.499 -0.0270  0.7036  0.2195
 7697SOL    HW134550   2.370   4.183  11.456  0.8326  0.1077  0.3493
 7697SOL    HW234551   2.368   4.098  11.578 -0.4137  1.1150  0.5598
 7698SOL     OW34552   3.900   0.818   4.205 -0.1823  0.2801 -0.1666
 7698SOL    HW134553   3.877   0.885   4.141 -0.5291  0.6064  0.3042
 7698SOL    HW234554   3.958   0.758   4.159 -0.1464 -0.7028  1.1603
 7699SOL     OW34555   3.873   0.410  16.965 -0.1831 -0.0724 -0.3761
 7699SOL    HW134556   3.786   0.432  16.930 -0.5458 -1.1421 -0.1439
 7699SOL    HW234557   3.929   0.473  16.919 -0.4846  0.7633  0.4046
 7700SOL     OW34558   4.024   0.532   5.514 -0.2088 -0.2024 -0.4604
 7700SOL    HW134559   3.983   0.489   5.589  0.0901 -2.1364 -1.4142
 7700SOL    HW234560   4.047   0.620   5.544  0.4186  0.0423 -1.6692
 7701SOL     OW34561   4.169   3.616   7.772 -0.6320 -0.2350  0.1001
 7701SOL    HW134562   4.167   3.564   7.691  0.4598  0.4618 -0.3869
 7701SOL    HW234563   4.217   3.552   7.825 -2.6791 -0.1226  2.0513
 7702SOL     OW34564   1.073   1.751   2.491 -0.2633 -0.2693  0.3440
 7702SOL    HW134565   1.115   1.667   2.508 -0.5172 -1.3066 -4.2813
 7702SOL    HW234566   0.986   1.730   2.459  0.0366 -2.3111  0.9134
 7703SOL     OW34567   4.321   1.062   2.121 -0.0361 -0.4128  0.2066
 7703SOL    HW134568   4.243   1.101   2.160 -0.7564 -3.0224  1.3370
 7703SOL    HW234569   4.309   0.970   2.145 -0.1667 -0.7167 -1.0553
 7704SOL     OW34570   0.070   0.995   1.221 -0.1346  0.4729 -0.8691
 7704SOL    HW134571   0.065   0.905   1.188  2.3925  0.8060 -2.1809
 7704SOL    HW234572   0.135   0.989   1.291 -0.3563  0.8011 -0.6404
 7705SOL     OW34573   2.554   4.209   7.382  0.5542 -0.3957 -0.0359
 7705SOL    HW134574   2.609   4.287   7.392 -0.9737  0.7122 -0.1423
 7705SOL    HW234575   2.587   4.190   7.295  0.4526  0.1078 -0.1874
 7706SOL     OW34576   4.462   2.385   0.188 -1.1966 -0.1572 -0.2791
 7706SOL    HW134577   4.383   2.440   0.192 -0.5835  0.5870  1.7180
 7706SOL    HW234578   4.419   2.311   0.231  0.6090  0.3752  2.4449
 7707SOL     OW34579   3.548   2.939   7.195 -0.4348  0.1711 -0.1317
 7707SOL    HW134580   3.633   2.964   7.233  0.4212 -2.1579 -0.5263
 7707SOL    HW234581   3.560   2.846   7.178 -1.1422 -0.1397  1.1040
 7708SOL     OW34582   1.458   1.281   5.954 -0.8945 -0.2287 -0.5029
 7708SOL    HW134583   1.460   1.295   6.048  0.3542 -2.3676 -0.2184
 7708SOL    HW234584   1.405   1.202   5.950 -1.1705 -0.1134  1.1686
 7709SOL     OW34585   4.028   0.305   4.499 -0.1539 -0.3903 -0.3387
 7709SOL    HW134586   4.094   0.274   4.436  0.3509 -0.4411  0.2092
 7709SOL    HW234587   3.955   0.249   4.472 -0.5011 -1.0236  1.8886
 7710SOL     OW34588   0.582   2.434   2.204  0.4546  0.3353 -0.5129
 7710SOL    HW134589   0.552   2.521   2.231  1.3749  1.1851 -2.2372
 7710SOL    HW234590   0.610   2.462   2.117  2.4963  1.2732  0.4658
 7711SOL     OW34591   3.673   2.463   3.873  0.3944  0.0550  0.2615
 7711SOL    HW134592   3.644   2.415   3.795 -4.5546  3.7374 -0.1542
 7711SOL    HW234593   3.617   2.433   3.946 -0.7517  1.8435  0.1028
 7712SOL     OW34594   3.934   4.026   3.797  0.0091 -0.0358 -0.2680
 7712SOL    HW134595   3.956   4.119   3.800 -0.9623  0.1563  0.9730
 7712SOL    HW234596   3.861   4.028   3.859  0.6272 -1.2926  0.5134
 7713SOL     OW34597   4.209   4.193   9.326 -0.2260  0.6343  0.0342
 7713SOL    HW134598   4.273   4.130   9.359 -1.0685  0.3310  1.0954
 7713SOL    HW234599   4.225   4.266   9.386 -1.3715  0.9197  0.0030
 7714SOL     OW34600   3.869   3.782   5.334  0.3355 -0.0912  0.0866
 7714SOL    HW134601   3.811   3.778   5.410 -1.1780  0.6758 -1.0218
 7714SOL    HW234602   3.953   3.812   5.367 -0.5937 -1.0985  3.3997
 7715SOL     OW34603   4.626   2.050   3.739 -0.0640 -0.3005  0.0986
 7715SOL    HW134604   4.625   2.048   3.643 -2.0152  1.2024  0.1022
 7715SOL    HW234605   4.605   2.142   3.756  1.3018 -0.2978  1.7371
 7716SOL     OW34606   1.384   2.478   3.819 -0.0791 -0.2621  0.3873
 7716SOL    HW134607   1.371   2.566   3.782 -0.2652 -0.5922 -0.3239
 7716SOL    HW234608   1.368   2.419   3.746  0.7672  0.3079 -0.2641
 7717SOL     OW34609   3.995   3.985   2.350  0.0194 -0.2060  0.3334
 7717SOL    HW134610   4.053   3.965   2.423 -0.9279 -0.4930  1.0092
 7717SOL    HW234611   3.955   3.900   2.333 -2.1365  0.5094  1.8922
 7718SOL     OW34612   2.027   0.210   0.476 -0.0856  0.0479 -0.0142
 7718SOL    HW134613   1.951   0.158   0.449 -0.7574 -0.5029  2.8997
 7718SOL    HW234614   2.063   0.154   0.544  2.3006  2.0171  0.3308
 7719SOL     OW34615   3.811   2.299   8.802 -0.3439  0.5552  0.5004
 7719SOL    HW134616   3.830   2.343   8.885 -1.2409  2.6125 -0.3935
 7719SOL    HW234617   3.816   2.369   8.737 -1.8010 -0.4593 -0.6978
 7720SOL     OW34618   0.327   3.478   8.390 -0.2458  0.2105 -0.6734
 7720SOL    HW134619   0.341   3.404   8.331  1.1575  2.2470 -2.8943
 7720SOL    HW234620   0.368   3.554   8.350  1.3544 -0.1486  0.3102
 7721SOL     OW34621   2.847   0.207   6.661 -0.3655  0.1721  0.4244
 7721SOL    HW134622   2.810   0.292   6.684 -2.4351 -0.2209 -1.5907
 7721SOL    HW234623   2.914   0.192   6.729  0.8252 -1.2958 -1.0660
 7722SOL     OW34624   2.379   4.708   6.080 -0.2681 -0.0003 -0.3231
 7722SOL    HW134625   2.385   4.614   6.063 -1.7003 -0.1561  0.0641
 7722SOL    HW234626   2.371   4.706   6.175 -1.1425 -0.1655 -0.4034
 7723SOL     OW34627   1.828   1.929   3.579  0.1410 -0.1808  0.2742
 7723SOL    HW134628   1.788   2.000   3.528 -0.9429 -0.0809  1.2513
 7723SOL    HW234629   1.871   1.894   3.501  0.1140  1.5264 -0.5069
 7724SOL     OW34630   0.762   2.534  11.631 -0.3264 -0.0063  0.3880
 7724SOL    HW134631   0.672   2.558  11.653 -0.4049 -0.3157  0.3950
 7724SOL    HW234632   0.764   2.441  11.652 -1.2620 -0.2773 -0.7300
 7725SOL     OW34633   3.453   4.668   4.956  0.2771 -0.5689 -0.3976
 7725SOL    HW134634   3.466   4.649   4.863  0.5338 -1.7568 -0.1239
 7725SOL    HW234635   3.525   4.723   4.986 -1.2367  2.1216 -1.7251
 7726SOL     OW34636   0.538   4.060   9.595 -0.7484  0.4362 -0.5003
 7726SOL    HW134637   0.467   4.072   9.659  0.6065  2.9914  0.5380
 7726SOL    HW234638   0.514   3.970   9.572  1.4926  0.0199 -1.1666
 7727SOL     OW34639   3.047   3.293   5.450 -0.0402 -0.0761 -0.1184
 7727SOL    HW134640   3.075   3.228   5.385 -3.1032  0.6199 -2.1388
 7727SOL    HW234641   3.073   3.247   5.530 -0.1634 -2.4173 -1.3906
 7728SOL     OW34642   4.249   3.437   8.303  0.6071  0.5417 -0.1978
 7728SOL    HW134643   4.194   3.402   8.232 -1.6613  1.5390  1.0702
 7728SOL    HW234644   4.247   3.529   8.277 -0.8154  0.6238  0.2105
 7729SOL     OW34645   2.257   3.882   2.393  0.3400  0.1793  0.0776
 7729SOL    HW134646   2.283   3.972   2.411  0.5686  0.0787  0.2486
 7729SOL    HW234647   2.320   3.833   2.445 -0.8244  0.2661  1.5681
 7730SOL     OW34648   2.763   3.532  12.246  0.1141  0.2035  0.1497
 7730SOL    HW134649   2.832   3.508  12.184  0.3171  1.4562 -0.0943
 7730SOL    HW234650   2.811   3.498  12.323 -0.5751 -0.3522  0.3347
 7731SOL     OW34651   0.830   1.840   9.341 -0.5053 -0.3926 -0.2169
 7731SOL    HW134652   0.762   1.844   9.408  0.3761  0.4473  0.6043
 7731SOL    HW234653   0.868   1.927   9.331  1.4639 -1.3055 -0.5964
 7732SOL     OW34654   3.949   2.105   0.452 -0.4177 -0.1035  0.8587
 7732SOL    HW134655   3.884   2.035   0.465 -1.1187  0.2972 -0.5468
 7732SOL    HW234656   4.020   2.042   0.436  1.2373  1.9282  0.3243
 7733SOL     OW34657   0.058   0.557   3.757  0.1055  0.0770 -0.0331
 7733SOL    HW134658   0.144   0.551   3.716  0.2350 -0.5794  0.3264
 7733SOL    HW234659   0.082   0.560   3.850  0.3438  0.8860 -0.1252
 7734SOL     OW34660   2.481   0.554   3.157 -0.1795  0.4718 -0.8189
 7734SOL    HW134661   2.526   0.490   3.102 -0.1155  0.8095 -1.1547
 7734SOL    HW234662   2.435   0.493   3.216  0.8137  1.5399  1.0374
 7735SOL     OW34663   3.754   4.470   1.781 -0.4251  0.0615 -0.4307
 7735SOL    HW134664   3.775   4.546   1.727  3.0889  0.5381  1.6404
 7735SOL    HW234665   3.692   4.510   1.842 -0.4623  0.0487 -0.4592
 7736SOL     OW34666   2.186   1.385  11.564  0.0064  0.6616 -0.2019
 7736SOL    HW134667   2.236   1.455  11.606  1.7697  0.6139 -2.2035
 7736SOL    HW234668   2.155   1.415  11.478  2.2663  2.3105 -0.4536
 7737SOL     OW34669   3.726   3.181  16.644  0.3227 -0.1303  0.3076
 7737SOL    HW134670   3.631   3.189  16.638  0.2503 -0.9976  0.4161
 7737SOL    HW234671   3.735   3.107  16.704  1.7991  0.3305  0.6589
 7738SOL     OW34672   1.074   1.235   3.442  0.1200  0.2059  0.3792
 7738SOL    HW134673   1.129   1.220   3.365 -0.4248  2.0763 -0.3876
 7738SOL    HW234674   1.030   1.316   3.414  0.3480  0.0487 -0.4490
 7739SOL     OW34675   1.623   0.527  16.960  0.3266  0.0854  0.0101
 7739SOL    HW134676   1.675   0.556  16.886 -0.8392  0.2231 -0.7531
 7739SOL    HW234677   1.542   0.500  16.917  0.1743 -0.2382  0.4925
 7740SOL     OW34678   1.765   0.558   0.736 -0.2609 -0.6842  0.1229
 7740SOL    HW134679   1.833   0.609   0.691 -0.7660  0.2438  0.4216
 7740SOL    HW234680   1.695   0.544   0.672 -2.5738 -0.3343  2.5882
 7741SOL     OW34681   2.732   1.477   4.485 -0.6734  0.5139 -1.1829
 7741SOL    HW134682   2.821   1.471   4.451 -0.2528 -1.1553  0.1898
 7741SOL    HW234683   2.717   1.382   4.489  1.0224  0.2475 -1.0128
 7742SOL     OW34684   2.056   1.948   3.758 -0.5204  0.0048 -0.2643
 7742SOL    HW134685   2.042   1.944   3.663 -1.3302  1.8139 -0.2099
 7742SOL    HW234686   2.095   2.035   3.759 -2.6712  0.9751 -1.2895
 7743SOL     OW34687   2.901   0.833   4.092 -0.3689  0.0742  0.4218
 7743SOL    HW134688   2.918   0.741   4.074 -0.8489 -0.1044  0.8511
 7743SOL    HW234689   2.991   0.863   4.099  0.2399 -1.3196 -1.5399
 7744SOL     OW34690   2.413   3.752   4.740 -0.2229 -0.1872  0.2580
 7744SOL    HW134691   2.363   3.784   4.814  0.2596 -0.6858  0.7998
 7744SOL    HW234692   2.413   3.836   4.694 -1.6954 -0.1999  0.2258
 7745SOL     OW34693   3.421   2.603   7.931  0.1691  0.0298 -0.2677
 7745SOL    HW134694   3.359   2.609   8.004 -1.2370  1.2796 -1.5671
 7745SOL    HW234695   3.485   2.552   7.980 -0.0426  0.8401  0.8647
 7746SOL     OW34696   1.079   3.225   3.276  0.3698 -0.9558 -0.0128
 7746SOL    HW134697   1.087   3.226   3.181 -0.6205  1.4993 -0.0813
 7746SOL    HW234698   1.063   3.131   3.277 -1.9609 -0.5499 -0.2473
 7747SOL     OW34699   2.600   0.286   0.846 -0.8907 -0.3693 -0.8584
 7747SOL    HW134700   2.675   0.298   0.788 -0.2434 -2.4275 -0.4463
 7747SOL    HW234701   2.581   0.379   0.858  0.1028 -0.0350 -1.8435
 7748SOL     OW34702   2.078   1.549   7.456  0.5660  0.0015  0.1540
 7748SOL    HW134703   2.095   1.637   7.491 -2.7235  0.4204  0.7831
 7748SOL    HW234704   2.016   1.519   7.522  0.3106 -2.4089 -1.1915
 7749SOL     OW34705   0.386   1.649   8.196  0.1545  0.0229  0.0845
 7749SOL    HW134706   0.338   1.596   8.261  1.7850 -1.1825  0.3177
 7749SOL    HW234707   0.466   1.600   8.177 -2.1522 -3.1442 -1.5455
 7750SOL     OW34708   3.090   3.186   2.151 -0.1085 -0.1170 -0.1072
 7750SOL    HW134709   3.151   3.113   2.150 -1.6325 -1.4114  1.0579
 7750SOL    HW234710   3.009   3.140   2.129 -0.2293  0.6096 -1.1957
 7751SOL     OW34711   4.174   0.617   7.204  0.3451  0.3483 -0.2446
 7751SOL    HW134712   4.123   0.697   7.217  0.8111  0.7082 -0.6424
 7751SOL    HW234713   4.225   0.615   7.285 -1.4186  0.4916  0.8802
 7752SOL     OW34714   3.010   4.027   6.408  0.0875  0.0762 -0.0530
 7752SOL    HW134715   2.997   4.086   6.482  1.7008 -1.7565  1.6958
 7752SOL    HW234716   2.952   3.952   6.425 -1.8515  2.0741  2.1415
 7753SOL     OW34717   0.197   3.815   6.856  0.4687  0.0611  0.1094
 7753SOL    HW134718   0.218   3.767   6.776  0.7439 -1.4471  1.0936
 7753SOL    HW234719   0.189   3.743   6.918  1.3134  0.3388  0.5449
 7754SOL     OW34720   3.787   1.050   7.639 -0.2148 -0.3023  0.2069
 7754SOL    HW134721   3.732   1.119   7.602  2.8584  0.2457 -3.3837
 7754SOL    HW234722   3.868   1.056   7.588 -2.1272  1.1822 -2.6409
 7755SOL     OW34723   2.601   3.334   8.784 -0.3098  0.1282  0.5703
 7755SOL    HW134724   2.570   3.346   8.873 -2.8209  0.0025 -0.2854
 7755SOL    HW234725   2.610   3.426   8.759 -0.0890 -0.6039 -2.0743
 7756SOL     OW34726   2.257   4.437   6.487  0.9201  0.0770  0.2581
 7756SOL    HW134727   2.199   4.361   6.498  1.8193 -0.4415  1.3763
 7756SOL    HW234728   2.205   4.499   6.537 -1.8691 -3.2466  1.4911
 7757SOL     OW34729   3.691   2.876   5.400 -0.5482 -0.3407  0.2654
 7757SOL    HW134730   3.746   2.797   5.406 -0.2930 -0.3356 -2.2131
 7757SOL    HW234731   3.767   2.934   5.388 -0.0941 -0.7895  0.9280
 7758SOL     OW34732   2.610   3.534   2.871  0.4984  0.0296 -0.6032
 7758SOL    HW134733   2.556   3.491   2.805  0.0180 -0.0767 -0.1477
 7758SOL    HW234734   2.592   3.626   2.854 -0.9854 -0.5768 -2.3241
 7759SOL     OW34735   1.022   2.219  10.701  0.5193 -0.1440  0.6647
 7759SOL    HW134736   1.015   2.212  10.605 -1.9035 -1.1357  0.8917
 7759SOL    HW234737   1.042   2.128  10.720  1.7315  0.2051  1.0241
 7760SOL     OW34738   4.205   0.967  13.513 -0.4937  0.0249 -0.1102
 7760SOL    HW134739   4.138   0.907  13.482 -2.2734  2.0302 -0.1707
 7760SOL    HW234740   4.150   1.044  13.529  0.0204  0.2755  0.4494
 7761SOL     OW34741   2.023   0.340   4.042 -0.3896 -0.1260 -0.1104
 7761SOL    HW134742   1.948   0.358   3.985 -1.3802  0.1282  1.2775
 7761SOL    HW234743   1.979   0.316   4.123  0.3492  2.9728  1.2006
 7762SOL     OW34744   1.734   4.309   5.321  0.5971 -0.1120 -0.0066
 7762SOL    HW134745   1.656   4.266   5.357  0.6418 -0.2962 -0.1296
 7762SOL    HW234746   1.797   4.272   5.382 -0.2708 -2.3454 -0.4531
 7763SOL     OW34747   0.739   2.889   0.389 -0.3553 -0.1956  0.0653
 7763SOL    HW134748   0.674   2.820   0.379  1.8346 -2.3502  0.6606
 7763SOL    HW234749   0.816   2.843   0.357  0.2545  1.6953 -1.1882
 7764SOL     OW34750   4.055   2.110  11.626 -0.4347  0.3101 -0.1242
 7764SOL    HW134751   4.008   2.033  11.660  0.3991 -0.2332 -0.1816
 7764SOL    HW234752   4.117   2.068  11.566 -0.1717 -0.1911  0.4837
 7765SOL     OW34753   0.394   1.124   1.930  0.1903  0.6396  0.1176
 7765SOL    HW134754   0.451   1.175   1.872 -0.4826  1.1500 -0.0948
 7765SOL    HW234755   0.436   1.043   1.901  1.9717  1.9621 -1.0405
 7766SOL     OW34756   2.035   0.614   5.320  0.3201  0.6021  0.6500
 7766SOL    HW134757   2.024   0.645   5.230 -2.4651  1.6230  1.3792
 7766SOL    HW234758   2.076   0.686   5.368  2.6645 -0.9349  0.9842
 7767SOL     OW34759   0.215   0.571   6.098 -0.2231  0.1496  0.2296
 7767SOL    HW134760   0.266   0.557   6.178 -0.7599  0.6955  0.6680
 7767SOL    HW234761   0.199   0.480   6.075 -0.5257  0.0087  0.9980
 7768SOL     OW34762   0.621   0.933   3.458  0.6762 -0.2376  0.4748
 7768SOL    HW134763   0.689   0.868   3.475 -0.4852 -1.7738 -0.7110
 7768SOL    HW234764   0.614   0.992   3.533 -1.6973  1.5524 -1.1283
 7769SOL     OW34765   0.050   3.575   6.998  0.5789  0.3814  0.1479
 7769SOL    HW134766   4.726   3.626   7.061  1.7408  0.1160  1.3194
 7769SOL    HW234767   0.135   3.588   7.042  2.0182  1.2303 -2.8915
 7770SOL     OW34768   0.606   0.964  14.615  0.1911  0.4597 -0.1937
 7770SOL    HW134769   0.655   1.019  14.554 -0.0645  0.1727 -0.6522
 7770SOL    HW234770   0.582   1.013  14.694 -0.3336 -1.2271  0.6992
 7771SOL     OW34771   1.812   3.643  15.114  0.6012  0.3872 -0.4559
 7771SOL    HW134772   1.904   3.641  15.086  0.7446 -0.2475  0.0782
 7771SOL    HW234773   1.806   3.562  15.164  0.1220  0.7249  0.0294
 7772SOL     OW34774   0.981   0.537   5.869 -0.5490 -0.0770 -0.0591
 7772SOL    HW134775   0.952   0.533   5.961 -1.1403  2.7482 -0.1468
 7772SOL    HW234776   0.915   0.483   5.824 -0.0744 -1.2635  0.6505
 7773SOL     OW34777   2.873   1.330   4.251 -0.5935 -0.0314 -0.1567
 7773SOL    HW134778   2.963   1.319   4.281 -0.5124  0.4028 -0.2411
 7773SOL    HW234779   2.852   1.239   4.275  0.0874 -0.8166 -2.5124
 7774SOL     OW34780   0.295   4.661  12.472 -0.1772  0.8498 -0.0339
 7774SOL    HW134781   0.259   4.608  12.401  0.1623  0.7393 -0.1261
 7774SOL    HW234782   0.336   4.592  12.524  0.6019  2.0596  0.9571
 7775SOL     OW34783   2.799   2.308   1.734 -0.5572 -0.4152 -0.3082
 7775SOL    HW134784   2.801   2.279   1.642  2.5701  1.1633 -0.7547
 7775SOL    HW234785   2.875   2.265   1.772  0.2550  0.5596 -0.8051
 7776SOL     OW34786   1.569   1.914   9.100  0.2306  0.0370  0.1888
 7776SOL    HW134787   1.635   1.966   9.148  0.6855  2.3568 -2.9621
 7776SOL    HW234788   1.610   1.829   9.088 -0.4276 -0.2978  0.3219
 7777SOL     OW34789   3.567   1.946   9.868  0.3559 -0.1194  0.0684
 7777SOL    HW134790   3.546   2.004   9.941 -1.5379 -1.6293  0.7501
 7777SOL    HW234791   3.638   1.989   9.821  0.3744 -0.2396 -0.0144
 7778SOL     OW34792   3.666   3.119   4.262 -0.3707 -0.3681 -0.4490
 7778SOL    HW134793   3.754   3.155   4.251  0.2208 -1.2193  1.5650
 7778SOL    HW234794   3.679   3.040   4.209  0.3375 -0.3574 -0.2861
 7779SOL     OW34795   4.395   3.675   2.746  0.0253  0.3784 -0.2273
 7779SOL    HW134796   4.350   3.740   2.691 -1.1812  0.6565  1.0782
 7779SOL    HW234797   4.487   3.698   2.734 -0.8433  3.5786 -0.9117
 7780SOL     OW34798   0.210   3.030  13.914  0.5443  0.4130 -0.3933
 7780SOL    HW134799   0.148   2.959  13.901  0.6475  0.5947 -1.8403
 7780SOL    HW234800   0.214   3.062  13.824  1.3124 -1.6223 -1.0895
 7781SOL     OW34801   0.229   3.738   5.138 -0.2939  0.7000  0.4066
 7781SOL    HW134802   0.248   3.798   5.210 -1.6734  1.0803  0.4632
 7781SOL    HW234803   0.316   3.709   5.110 -0.4976  0.4896 -0.0180
 7782SOL     OW34804   0.423   0.230  11.836 -0.1136  0.1937 -0.3949
 7782SOL    HW134805   0.434   0.231  11.741  1.6344  1.3952 -0.1861
 7782SOL    HW234806   0.484   0.300  11.859 -0.4166  0.4389 -0.3360
 7783SOL     OW34807   2.574   3.047   5.563  0.7597  0.0869  0.4409
 7783SOL    HW134808   2.663   3.055   5.598  0.6730 -1.8986  1.0964
 7783SOL    HW234809   2.583   3.075   5.472  2.4255 -3.1987 -0.4263
 7784SOL     OW34810   0.303   0.561  11.747 -0.3293 -0.1287  0.4265
 7784SOL    HW134811   0.333   0.580  11.836  0.0722 -1.1238  0.4975
 7784SOL    HW234812   0.253   0.481  11.764  0.4685 -0.8225 -0.5795
 7785SOL     OW34813   2.710   3.562   1.989  0.3217 -0.2561  0.3961
 7785SOL    HW134814   2.771   3.575   1.917  0.4364  0.5237  0.6327
 7785SOL    HW234815   2.692   3.654   2.011  0.2976 -0.0607 -0.4545
 7786SOL     OW34816   1.742   2.975  14.765 -0.1044 -0.4839 -0.0590
 7786SOL    HW134817   1.823   2.933  14.738  0.1861 -0.0646  0.1615
 7786SOL    HW234818   1.690   2.948  14.689 -0.0317  2.3547 -1.1275
 7787SOL     OW34819   3.219   1.450  11.829  0.3450 -1.1281 -0.2683
 7787SOL    HW134820   3.188   1.517  11.768 -1.0572 -1.7619 -0.2684
 7787SOL    HW234821   3.145   1.389  11.835  0.2149 -0.8423  1.0132
 7788SOL     OW34822   3.649   3.673   0.257  0.4492  0.2537  0.3544
 7788SOL    HW134823   3.627   3.598   0.313 -0.8259  0.6423  0.3815
 7788SOL    HW234824   3.562   3.707   0.234  0.3633 -0.6585 -0.6973
 7789SOL     OW34825   2.550   1.308   5.051 -0.0055  0.4303  0.2497
 7789SOL    HW134826   2.551   1.215   5.070 -1.7840 -0.4721 -3.9339
 7789SOL    HW234827   2.455   1.316   5.037 -0.2769 -0.8226  1.4430
 7790SOL     OW34828   4.358   4.384   4.178  0.6335  0.0932  0.4269
 7790SOL    HW134829   4.388   4.297   4.154 -0.4060  0.0203 -0.6200
 7790SOL    HW234830   4.289   4.373   4.242  1.1229 -0.0474  0.9304
 7791SOL     OW34831   1.603   3.213   5.359  0.0027 -0.1581 -0.0001
 7791SOL    HW134832   1.666   3.215   5.431  0.0735 -1.2592 -0.0212
 7791SOL    HW234833   1.592   3.118   5.347  0.1142 -0.3612  1.5243
 7792SOL     OW34834   2.651   2.573   5.851 -0.1254  0.8838 -0.7838
 7792SOL    HW134835   2.742   2.544   5.842 -0.1378  0.7205 -0.3770
 7792SOL    HW234836   2.625   2.552   5.761 -1.2946 -0.1883 -0.1795
 7793SOL     OW34837   2.643   2.884   7.103 -0.2657 -0.2351 -0.5143
 7793SOL    HW134838   2.713   2.819   7.096  0.0973  0.3062 -1.8846
 7793SOL    HW234839   2.569   2.835   7.138 -1.7690  1.8443 -0.7841
 7794SOL     OW34840   1.635   1.146   4.688  0.3338  0.1467  0.4009
 7794SOL    HW134841   1.655   1.075   4.626  0.4319  1.4249 -1.0203
 7794SOL    HW234842   1.695   1.111   4.754 -0.6174  0.3726  1.3711
 7795SOL     OW34843   4.630   0.806  11.360 -0.0560 -0.6085 -0.4955
 7795SOL    HW134844   4.670   0.721  11.338 -3.1844 -1.8337 -1.4127
 7795SOL    HW234845   4.611   0.834  11.271  1.6705 -1.0088 -1.0022
 7796SOL     OW34846   2.277   4.504  17.313 -0.3345 -0.7491  0.1549
 7796SOL    HW134847   2.209   4.566  17.286 -0.1784 -1.8454 -2.7399
 7796SOL    HW234848   2.260   4.502  17.407 -0.2444  2.6449  0.2439
 7797SOL     OW34849   0.659   2.704  16.339 -0.0125  0.5220 -0.4306
 7797SOL    HW134850   0.597   2.766  16.300  0.2781  0.4519 -0.9929
 7797SOL    HW234851   0.733   2.758  16.366 -0.6506  1.1321  0.1126
 7798SOL     OW34852   1.889   4.603  13.706  0.8963 -0.1737 -0.3559
 7798SOL    HW134853   1.927   4.667  13.646  1.9526 -0.3109  0.1602
 7798SOL    HW234854   1.965   4.556  13.741  0.8435 -0.3344 -0.4574
 7799SOL     OW34855   1.535   1.472   1.116 -0.0399 -0.0952 -0.4129
 7799SOL    HW134856   1.570   1.536   1.179  2.0587 -2.6060  0.9605
 7799SOL    HW234857   1.476   1.528   1.065 -0.4203 -1.2091 -1.1891
 7800SOL     OW34858   2.404   2.664   6.753  0.3168  0.1800  0.3488
 7800SOL    HW134859   2.467   2.606   6.796  0.4025 -0.7582 -1.0508
 7800SOL    HW234860   2.456   2.722   6.698 -0.9150  1.2000  0.2724
 7801SOL     OW34861   2.254   1.227   7.394 -0.2236  0.0118 -0.1793
 7801SOL    HW134862   2.237   1.254   7.304 -0.9938 -1.8406 -0.5863
 7801SOL    HW234863   2.299   1.143   7.385  3.2497  1.9815 -1.4274
 7802SOL     OW34864   1.277   1.959   0.455 -0.1422  0.3407  0.0983
 7802SOL    HW134865   1.300   1.868   0.435 -3.2108 -0.2881 -0.5526
 7802SOL    HW234866   1.286   1.994   0.367  1.7332  2.1644  1.0342
 7803SOL     OW34867   4.521   1.511   2.169  0.2636  0.9339 -0.2303
 7803SOL    HW134868   4.438   1.514   2.122  0.4616 -1.8118 -0.7546
 7803SOL    HW234869   4.571   1.452   2.112 -0.6620  0.1452 -0.2201
 7804SOL     OW34870   2.772   3.672   3.114  0.1041  0.2131 -0.4991
 7804SOL    HW134871   2.747   3.672   3.021  0.9603  1.9271 -0.7355
 7804SOL    HW234872   2.686   3.695   3.149  0.4091  2.4488 -1.2052
 7805SOL     OW34873   2.675   3.697   3.938 -0.1223  0.0366 -0.5059
 7805SOL    HW134874   2.634   3.782   3.956 -0.0165  0.1653 -0.8695
 7805SOL    HW234875   2.720   3.718   3.856  0.2731 -0.2184 -0.3549
 7806SOL     OW34876   0.818   2.052  10.030  0.1858 -0.7447 -0.2701
 7806SOL    HW134877   0.790   1.996   9.958  0.6774  1.2341 -2.0026
 7806SOL    HW234878   0.813   1.993  10.104  0.4365 -0.1216  0.2474
 7807SOL     OW34879   4.357   1.762  17.080  0.4011  0.5119  0.3737
 7807SOL    HW134880   4.321   1.845  17.049 -0.4916 -0.0282 -0.0469
 7807SOL    HW234881   4.289   1.751  17.147 -0.0128  1.7742  0.1649
 7808SOL     OW34882   2.416   3.342  16.265  0.1147 -0.2647  0.1819
 7808SOL    HW134883   2.426   3.277  16.195 -0.5804  0.7295 -0.8318
 7808SOL    HW234884   2.506   3.364  16.289  0.5374 -0.7919 -0.9345
 7809SOL     OW34885   2.955   1.166   7.606  0.1202  0.1326 -0.1067
 7809SOL    HW134886   2.935   1.073   7.593 -1.1963  0.4181 -0.1812
 7809SOL    HW234887   2.868   1.207   7.604  0.2871  0.4512 -0.6769
 7810SOL     OW34888   1.968   0.442  13.345 -0.5929 -0.0100  0.6859
 7810SOL    HW134889   1.986   0.400  13.429  0.8385  0.9798  0.8706
 7810SOL    HW234890   1.877   0.472  13.349 -0.1695  0.8401  3.7429
 7811SOL     OW34891   1.720   3.838   5.248 -0.3951 -0.2708  0.4812
 7811SOL    HW134892   1.643   3.790   5.278 -1.7824  2.2723  0.9590
 7811SOL    HW234893   1.736   3.801   5.162 -0.5198  2.2508 -0.6360
 7812SOL     OW34894   3.401   4.026   8.023  0.1085 -0.8487 -0.0971
 7812SOL    HW134895   3.438   4.034   8.110 -0.6472 -0.1491  0.1626
 7812SOL    HW234896   3.361   3.939   8.029 -1.1993 -0.3456 -1.5673
 7813SOL     OW34897   3.105   0.641   6.782 -0.4013  0.2896 -0.2671
 7813SOL    HW134898   3.132   0.610   6.868  0.0197 -1.9127 -1.1930
 7813SOL    HW234899   3.095   0.560   6.733  0.0311  0.0029  0.1208
 7814SOL     OW34900   2.572   4.504   6.538 -0.1927 -0.1650 -0.4382
 7814SOL    HW134901   2.619   4.584   6.564 -1.1126 -0.2267  1.4530
 7814SOL    HW234902   2.478   4.515   6.550  0.1607 -0.6506  2.7952
 7815SOL     OW34903   2.619   4.095   2.257 -0.0171 -0.5774 -0.1754
 7815SOL    HW134904   2.602   4.051   2.339 -1.3402 -0.1174 -0.2035
 7815SOL    HW234905   2.578   4.180   2.272  2.0008  0.3764 -0.0374
 7816SOL     OW34906   3.256   0.022   3.082  0.2839 -0.6071 -0.0178
 7816SOL    HW134907   3.164   0.009   3.058  0.9284 -2.0404 -1.6969
 7816SOL    HW234908   3.280   4.662   3.115 -0.3127 -1.1751 -1.0732
 7817SOL     OW34909   1.452   0.988   9.968 -0.1358  0.3897  0.7379
 7817SOL    HW134910   1.489   0.900   9.970 -0.1706  0.3509 -0.2018
 7817SOL    HW234911   1.499   1.020  10.045  2.1101  0.9634 -0.8836
 7818SOL     OW34912   4.468   3.325   3.529 -0.1559 -0.7866 -0.4675
 7818SOL    HW134913   4.401   3.378   3.485  0.8350 -0.3804 -1.4937
 7818SOL    HW234914   4.546   3.358   3.483  0.6802 -2.2891 -0.1034
 7819SOL     OW34915   2.440   2.266   4.390 -0.0699 -0.2402  0.1741
 7819SOL    HW134916   2.458   2.340   4.449 -1.1298  1.2312 -1.3444
 7819SOL    HW234917   2.506   2.199   4.402 -0.4682 -0.6309  0.2021
 7820SOL     OW34918   3.646   4.391   0.839  0.2963 -0.8216  0.5916
 7820SOL    HW134919   3.552   4.406   0.834  0.7011  2.5004  2.6406
 7820SOL    HW234920   3.651   4.296   0.850  0.7413 -0.6340  2.0779
 7821SOL     OW34921   2.847   2.073   6.380  0.9085  0.5665  0.3500
 7821SOL    HW134922   2.758   2.038   6.377 -0.0506  3.0393  0.3892
 7821SOL    HW234923   2.877   2.033   6.298  0.7023  1.3673 -0.1184
 7822SOL     OW34924   2.785   2.824   3.958  0.4180 -0.5811 -0.1549
 7822SOL    HW134925   2.748   2.757   3.901 -0.4407  1.1224 -1.5833
 7822SOL    HW234926   2.848   2.859   3.895  0.1267  1.1899  0.5579
 7823SOL     OW34927   2.615   4.417   2.996  0.1152  0.3767  0.2916
 7823SOL    HW134928   2.527   4.380   2.985  0.1759  0.5852 -0.8839
 7823SOL    HW234929   2.667   4.343   3.028 -0.0768 -0.4412 -1.3106
 7824SOL     OW34930   2.933   1.626   8.086  0.1414  0.2788  0.0921
 7824SOL    HW134931   2.878   1.647   8.162  1.3940  0.1513  1.0520
 7824SOL    HW234932   3.012   1.678   8.104 -2.6500  4.3028  0.7455
 7825SOL     OW34933   1.080   4.032   8.366  0.4758 -0.4312  0.1494
 7825SOL    HW134934   1.059   3.938   8.361  0.4896 -0.3355 -1.9925
 7825SOL    HW234935   1.173   4.033   8.343  0.6206 -2.4424  0.6070
 7826SOL     OW34936   1.128   0.949   4.131 -0.1722 -0.0655  0.1770
 7826SOL    HW134937   1.186   0.892   4.081 -0.2156  0.2653 -0.2590
 7826SOL    HW234938   1.107   1.019   4.068  1.3760 -0.8125 -1.1724
 7827SOL     OW34939   3.263   1.374  14.784 -0.6637 -0.0843  0.1114
 7827SOL    HW134940   3.221   1.288  14.779  0.1580 -0.5118  0.6376
 7827SOL    HW234941   3.339   1.350  14.837  0.5212 -0.0658 -1.5958
 7828SOL     OW34942   4.224   0.498   3.393 -0.6779 -0.5069  0.2354
 7828SOL    HW134943   4.282   0.423   3.407  0.9981  1.1919  2.4085
 7828SOL    HW234944   4.267   0.562   3.336 -1.3762  0.3941  0.7126
 7829SOL     OW34945   0.210   0.605  10.422 -0.0854 -0.0310  0.0020
 7829SOL    HW134946   0.221   0.691  10.381  0.9742 -0.9120 -1.5568
 7829SOL    HW234947   0.217   0.638  10.512 -3.6868 -1.5125  0.7890
 7830SOL     OW34948   3.979   2.779   9.450 -0.6884  0.4911 -0.7650
 7830SOL    HW134949   4.057   2.815   9.407  0.3596 -0.2309  0.5152
 7830SOL    HW234950   3.962   2.847   9.515  1.2783  0.0923  0.1795
 7831SOL     OW34951   1.161   2.446   8.003  0.4998 -0.2346  0.4145
 7831SOL    HW134952   1.168   2.483   7.915  2.5144  1.0599  1.1486
 7831SOL    HW234953   1.207   2.362   8.005 -1.5920 -1.4554 -2.3047
 7832SOL     OW34954   1.835   2.814   6.311 -0.6455  0.8314 -0.4298
 7832SOL    HW134955   1.928   2.827   6.327 -0.4932 -0.1533 -0.4842
 7832SOL    HW234956   1.824   2.797   6.218  1.4829 -1.0159 -0.3387
 7833SOL     OW34957   2.910   4.568   6.072  0.0025  0.4517 -0.4999
 7833SOL    HW134958   2.846   4.573   6.142  0.7973 -2.7700  0.4650
 7833SOL    HW234959   2.990   4.540   6.118 -1.8071 -1.5127  1.4454
 7834SOL     OW34960   1.806   1.805   7.241 -0.5723  0.0250 -0.5927
 7834SOL    HW134961   1.745   1.740   7.277 -0.1469  0.0529  0.1800
 7834SOL    HW234962   1.856   1.752   7.179  0.2451 -0.7072  0.6698
 7835SOL     OW34963   3.963   4.586   8.812 -0.0471 -0.1100 -0.0567
 7835SOL    HW134964   3.921   4.526   8.750  2.1785 -0.4896 -1.2013
 7835SOL    HW234965   3.933   4.675   8.794  0.1263 -0.1766 -0.6747
 7836SOL     OW34966   4.524   0.295   9.669  0.0519 -0.0889 -0.0678
 7836SOL    HW134967   4.569   0.212   9.687  0.6569  0.5239  1.2271
 7836SOL    HW234968   4.458   0.272   9.604 -0.4958 -0.6500  0.6878
 7837SOL     OW34969   2.382   3.466   3.086 -0.4650 -0.0025  0.2825
 7837SOL    HW134970   2.375   3.378   3.050  1.9878 -0.2477  0.3458
 7837SOL    HW234971   2.363   3.522   3.011 -1.2041 -1.0835 -0.3391
 7838SOL     OW34972   0.687   4.145  15.072  0.1572 -0.0120  0.5720
 7838SOL    HW134973   0.720   4.149  14.982 -0.4393  0.0686  0.3609
 7838SOL    HW234974   0.688   4.053  15.096 -2.4264 -0.5012 -1.2001
 7839SOL     OW34975   4.696   2.794  12.746  0.1012 -0.0932  0.2583
 7839SOL    HW134976   4.610   2.758  12.772  1.0732 -2.7308 -0.2265
 7839SOL    HW234977   4.709   2.748  12.663  0.4329 -0.2348  0.3894
 7840SOL     OW34978   1.951   2.194  12.360 -0.0622 -0.4335  0.6817
 7840SOL    HW134979   1.915   2.159  12.279  0.2779  1.4101 -0.2758
 7840SOL    HW234980   1.945   2.288  12.342  0.7490 -0.1056  2.0312
 7841SOL     OW34981   2.182   0.053  11.161 -0.1324 -0.7243  0.2556
 7841SOL    HW134982   2.195   4.700  11.109  2.8907  0.0963 -0.2650
 7841SOL    HW234983   2.101   0.078  11.117 -0.1754 -0.3081  0.5743
 7842SOL     OW34984   0.312   3.205  11.354  0.1636 -0.5347  0.5418
 7842SOL    HW134985   0.251   3.239  11.289  0.5397  1.2196  1.1074
 7842SOL    HW234986   0.378   3.272  11.371  1.7434 -1.5893 -1.4212
 7843SOL     OW34987   0.421   3.756  10.750  0.2776 -0.3887  0.3542
 7843SOL    HW134988   0.423   3.755  10.846  0.4458 -0.5773  0.3502
 7843SOL    HW234989   0.375   3.840  10.745 -1.6242 -1.4851 -0.5802
 7844SOL     OW34990   3.569   2.879   8.505  0.4625 -0.5634 -0.2228
 7844SOL    HW134991   3.482   2.846   8.485  0.5099  0.0413 -1.4184
 7844SOL    HW234992   3.571   2.972   8.480  0.2474 -0.6991 -0.7432
 7845SOL     OW34993   0.239   1.343   4.803  0.1377 -0.1142 -0.4641
 7845SOL    HW134994   0.164   1.400   4.787  0.3622  0.5333  0.7742
 7845SOL    HW234995   0.206   1.278   4.865  0.4052  0.0731 -0.1268
 7846SOL     OW34996   1.100   0.709   7.942  0.6509  0.0762  0.0049
 7846SOL    HW134997   1.119   0.794   7.903  0.1431 -0.0967 -0.6113
 7846SOL    HW234998   1.186   0.670   7.929 -0.1198 -1.0449 -1.7446
 7847SOL     OW34999   1.100   4.059   3.189  0.0216  0.0165  0.2537
 7847SOL    HW135000   1.148   4.135   3.155 -0.7475 -0.3056 -1.5245
 7847SOL    HW235001   1.015   4.072   3.148  1.4958  0.0650 -2.7335
 7848SOL     OW35002   0.667   2.186   2.781 -0.1985 -0.3852 -0.4024
 7848SOL    HW135003   0.630   2.216   2.698 -1.1753  0.7637  0.4434
 7848SOL    HW235004   0.657   2.262   2.839  0.6485  0.4322 -1.3331
 7849SOL     OW35005   1.181   3.232  15.742 -0.0828 -0.0172  0.3514
 7849SOL    HW135006   1.089   3.250  15.722  0.5776  1.6944 -1.0931
 7849SOL    HW235007   1.221   3.277  15.668 -0.5132  0.1493  0.2199
 7850SOL     OW35008   2.544   0.233   4.852 -0.6904 -0.0959 -0.2224
 7850SOL    HW135009   2.487   0.309   4.841  0.2417  0.7111  0.5550
 7850SOL    HW235010   2.552   0.207   4.760  1.1180  0.1865 -0.1519
 7851SOL     OW35011   0.063   3.624  10.657  0.4103  0.4986 -0.4413
 7851SOL    HW135012   0.155   3.602  10.644  0.4485 -0.0494  0.7068
 7851SOL    HW235013   0.023   3.575  10.586 -0.7521  0.9729 -0.1127
 7852SOL     OW35014   0.078   0.364   2.075  0.1321 -0.4805 -0.3002
 7852SOL    HW135015   0.148   0.374   2.011 -1.2394  1.6494 -1.4791
 7852SOL    HW235016   0.128   0.336   2.152  0.5441  1.4530  0.1277
 7853SOL     OW35017   0.275   4.425   1.630 -0.2435  0.1728 -0.1959
 7853SOL    HW135018   0.264   4.393   1.540  0.6397 -1.3663  0.2415
 7853SOL    HW235019   0.196   4.398   1.676 -0.1863 -1.1736 -0.9043
 7854SOL     OW35020   1.537   1.600   3.095 -0.0464 -0.2515 -0.3397
 7854SOL    HW135021   1.579   1.530   3.145  0.0564  1.1914  1.5958
 7854SOL    HW235022   1.606   1.625   3.034 -1.7044  1.3394 -1.5615
 7855SOL     OW35023   3.977   1.036   1.755 -0.2443 -0.0493 -0.4346
 7855SOL    HW135024   3.991   1.033   1.661  1.9765 -0.1236 -0.0867
 7855SOL    HW235025   4.064   1.067   1.779 -1.0848  1.0338  1.2737
 7856SOL     OW35026   4.657   1.545  11.449 -0.5709 -0.0153 -0.5827
 7856SOL    HW135027   4.706   1.519  11.371 -0.0863 -1.3279  0.1734
 7856SOL    HW235028   4.640   1.468  11.503  0.0821  1.2690  1.4492
 7857SOL     OW35029   2.735   2.104   1.537  0.1608 -0.3241  0.4445
 7857SOL    HW135030   2.654   2.153   1.535 -0.3610 -1.3353 -2.5147
 7857SOL    HW235031   2.768   2.129   1.451 -1.9607 -0.5170 -0.4100
 7858SOL     OW35032   0.513   3.770   3.542 -0.4425  0.0541 -0.5267
 7858SOL    HW135033   0.491   3.860   3.565  1.9228  0.3404  0.6724
 7858SOL    HW235034   0.495   3.762   3.448  1.2225 -0.9562 -0.7729
 7859SOL     OW35035   3.281   3.238  12.963 -0.0165  0.1171  0.0437
 7859SOL    HW135036   3.260   3.147  12.942 -0.9247 -0.2402  2.5734
 7859SOL    HW235037   3.216   3.261  13.030  0.2868 -1.1802  0.7762
 7860SOL     OW35038   2.192   2.857   2.963  0.0695  0.4982 -0.3430
 7860SOL    HW135039   2.190   2.812   3.047  1.8776 -0.0617 -0.5935
 7860SOL    HW235040   2.175   2.946   2.994 -1.2329 -0.6186  2.1894
 7861SOL     OW35041   3.650   1.593   3.215  0.1502 -0.1387 -0.0014
 7861SOL    HW135042   3.619   1.629   3.298  2.8244  0.4418  0.7264
 7861SOL    HW235043   3.668   1.501   3.231 -0.8841 -0.3569 -0.0563
 7862SOL     OW35044   0.045   1.022   2.088 -0.2464 -0.1657 -1.0678
 7862SOL    HW135045   0.064   1.064   2.005  0.3301  1.3186 -0.1869
 7862SOL    HW235046   0.064   0.934   2.055 -2.3502 -1.1185  0.2560
 7863SOL     OW35047   1.761   4.304   7.629  0.8720  0.1964  0.3069
 7863SOL    HW135048   1.786   4.223   7.672 -2.4796 -0.7715  0.4499
 7863SOL    HW235049   1.723   4.350   7.704 -0.7105  0.9190 -0.9265
 7864SOL     OW35050   4.089   1.658   5.930  0.0448  0.1468  0.2970
 7864SOL    HW135051   4.180   1.690   5.937 -0.1452  0.7400  0.1191
 7864SOL    HW235052   4.052   1.730   5.878  1.0652 -0.8568 -1.8085
 7865SOL     OW35053   1.346   3.148   2.386 -0.2700 -0.1240  0.0499
 7865SOL    HW135054   1.293   3.085   2.435  0.3772  1.2548  2.5061
 7865SOL    HW235055   1.289   3.224   2.397 -1.7366 -1.3868  1.2398
 7866SOL     OW35056   3.630   1.739   1.328 -0.7864 -0.0012 -0.4466
 7866SOL    HW135057   3.596   1.768   1.243 -0.1600  0.4327 -0.5437
 7866SOL    HW235058   3.646   1.821   1.373  0.0147 -0.5152  0.1973
 7867SOL     OW35059   1.267   0.672   3.494  0.2036  0.4940  0.0393
 7867SOL    HW135060   1.340   0.707   3.443  0.1542  0.4205 -0.0820
 7867SOL    HW235061   1.203   0.655   3.425 -2.5180  1.3727  2.3648
 7868SOL     OW35062   0.173   3.545   4.860  0.3177  0.4615  0.4389
 7868SOL    HW135063   0.251   3.508   4.817 -1.2090 -1.9594 -0.2679
 7868SOL    HW235064   0.187   3.636   4.834 -2.1065  0.8354  0.4807
 7869SOL     OW35065   1.046   3.545   8.181  0.1348  0.4137 -0.7948
 7869SOL    HW135066   1.045   3.451   8.165  0.1001  0.7562 -2.7241
 7869SOL    HW235067   1.028   3.587   8.097  0.6322 -1.3523 -1.7932
 7870SOL     OW35068   0.871   3.183  13.052 -0.6064  0.1104  0.1453
 7870SOL    HW135069   0.789   3.139  13.075 -0.4482 -1.4295 -2.2883
 7870SOL    HW235070   0.915   3.108  13.012  1.6970  1.5315  0.0332
 7871SOL     OW35071   1.727   0.163   7.994  0.1768  0.2240  0.0266
 7871SOL    HW135072   1.797   0.166   7.928  0.9665  0.8578  0.8911
 7871SOL    HW235073   1.768   0.211   8.066 -0.1806  1.3017 -0.4974
 7872SOL     OW35074   3.534   3.892  11.938  0.8783 -0.3235  0.4478
 7872SOL    HW135075   3.567   3.880  11.849  0.8566 -0.3834  0.4481
 7872SOL    HW235076   3.563   3.815  11.986 -1.4072 -1.0189  0.6874
 7873SOL     OW35077   4.352   3.381   4.208 -0.1017  0.0981  0.3422
 7873SOL    HW135078   4.376   3.450   4.145 -0.1549  1.0049  1.3184
 7873SOL    HW235079   4.329   3.425   4.290 -1.8594 -1.1959  0.5291
 7874SOL     OW35080   0.175   2.265   4.521 -0.2683  0.2162  0.4417
 7874SOL    HW135081   0.126   2.257   4.440 -0.0897 -1.0659  0.4541
 7874SOL    HW235082   0.231   2.187   4.525  0.8347  0.8970 -1.9448
 7875SOL     OW35083   1.270   3.370   7.119 -0.5417  0.4182  0.2763
 7875SOL    HW135084   1.291   3.459   7.092  0.7466 -0.2643 -0.9951
 7875SOL    HW235085   1.232   3.375   7.206  0.7452 -0.0792  0.8572
 7876SOL     OW35086   0.010   2.763  13.342  0.6048  0.1901 -0.6240
 7876SOL    HW135087   0.093   2.732  13.305 -0.0106 -0.4090 -1.5237
 7876SOL    HW235088   4.707   2.703  13.411  1.6020 -0.0469 -0.4020
 7877SOL     OW35089   1.091   1.114   6.659 -0.1743 -0.2139  0.3045
 7877SOL    HW135090   1.152   1.041   6.664 -0.3265 -0.3209  0.5496
 7877SOL    HW235091   1.114   1.162   6.738 -0.8248  2.1057 -0.8900
 7878SOL     OW35092   0.897   0.096  16.722 -0.2807  0.0444  0.0627
 7878SOL    HW135093   0.854   0.025  16.770  3.3905 -1.0210  1.7344
 7878SOL    HW235094   0.847   0.168  16.760 -0.4354  0.8561 -1.6820
 7879SOL     OW35095   4.235   0.482   7.905 -0.4415 -0.5882 -0.2245
 7879SOL    HW135096   4.297   0.537   7.856 -0.1956  1.6633  2.5917
 7879SOL    HW235097   4.288   0.451   7.977  0.6974  1.1486 -0.3009
 7880SOL     OW35098   4.487   1.357   1.216  0.4637 -0.3130 -0.1352
 7880SOL    HW135099   4.434   1.298   1.163 -1.0196 -1.0313  2.1205
 7880SOL    HW235100   4.524   1.414   1.149  0.3970 -0.4323 -0.2729
 7881SOL     OW35101   0.813   4.327   8.777 -0.1620  0.2176 -0.5338
 7881SOL    HW135102   0.824   4.275   8.857  0.4725 -1.9056 -1.9803
 7881SOL    HW235103   0.808   4.419   8.801  0.6231 -0.1758  1.1598
 7882SOL     OW35104   0.829   1.415   6.042  0.3172  0.2480 -0.2237
 7882SOL    HW135105   0.901   1.438   5.983 -0.5486  1.8469 -0.6664
 7882SOL    HW235106   0.773   1.358   5.991 -0.0854 -0.1826  0.6922
 7883SOL     OW35107   3.138   3.105   4.338  0.3868 -0.1673  0.1510
 7883SOL    HW135108   3.058   3.110   4.389 -1.2596  1.9547 -2.6587
 7883SOL    HW235109   3.202   3.156   4.388  1.5920  0.0004 -1.5616
 7884SOL     OW35110   0.797   0.724   6.648  0.1327  0.4450 -0.0458
 7884SOL    HW135111   0.866   0.759   6.705  0.2627  2.1580 -1.2485
 7884SOL    HW235112   0.840   0.645   6.616 -0.2620  0.3253 -0.2780
 7885SOL     OW35113   3.072   1.064   3.723  0.6060  0.1386  0.0421
 7885SOL    HW135114   3.034   1.090   3.807 -0.1701  2.7662 -1.1275
 7885SOL    HW235115   3.127   1.141   3.708  1.6613 -0.8637 -1.3213
 7886SOL     OW35116   1.751   0.667  17.695  0.3379  0.0130  0.2106
 7886SOL    HW135117   1.753   0.726  17.619 -2.4075 -0.9125 -0.5500
 7886SOL    HW235118   1.726   0.730   0.057  1.1677 -0.2300  0.7430
 7887SOL     OW35119   2.607   1.302  17.021  0.4341  0.4149  0.7486
 7887SOL    HW135120   2.514   1.278  17.016  0.2221  1.7092 -1.3244
 7887SOL    HW235121   2.610   1.360  16.946  0.6355  0.0773  0.4949
 7888SOL     OW35122   2.682   0.357   1.283 -0.2588 -0.0317  0.0546
 7888SOL    HW135123   2.719   0.274   1.311  1.7489  1.8488  2.9885
 7888SOL    HW235124   2.746   0.387   1.219 -1.3774  2.7171  0.1793
 7889SOL     OW35125   4.169   1.225   5.647 -0.3897  0.3882  0.2766
 7889SOL    HW135126   4.210   1.204   5.731  2.0855  2.2344 -0.4791
 7889SOL    HW235127   4.187   1.144   5.598  0.3823  0.9054 -0.2868
 7890SOL     OW35128   3.031   2.069   2.630  0.3047 -0.5473  0.2944
 7890SOL    HW135129   3.055   2.142   2.572 -0.8991 -1.0316 -0.8108
 7890SOL    HW235130   3.027   2.116   2.714 -0.6170  0.0413 -0.0769
 7891SOL     OW35131   1.434   0.132   7.959 -0.0906  0.4103 -0.0958
 7891SOL    HW135132   1.399   0.070   8.024  0.3652  1.0399  0.7443
 7891SOL    HW235133   1.529   0.130   7.971 -0.1719  2.4131  0.8690
 7892SOL     OW35134   2.810   0.739   9.031  0.5445 -0.5567  0.2246
 7892SOL    HW135135   2.721   0.705   9.026  0.8742 -1.3939 -0.0344
 7892SOL    HW235136   2.799   0.806   9.098 -0.5822  2.0443 -2.5944
 7893SOL     OW35137   1.047   4.131   8.611 -0.2021 -0.2216  0.2029
 7893SOL    HW135138   0.990   4.206   8.599 -1.8790 -1.9223 -2.5161
 7893SOL    HW235139   1.051   4.096   8.521 -1.1269  0.3706 -0.0638
 7894SOL     OW35140   2.356   3.246   3.923 -0.3448 -0.4559  0.1052
 7894SOL    HW135141   2.442   3.259   3.883  0.1708  3.9333  2.5637
 7894SOL    HW235142   2.337   3.328   3.968  1.1229 -0.0957  0.0554
 7895SOL     OW35143   4.452   0.914   0.606 -0.0123  0.1842  0.1518
 7895SOL    HW135144   4.426   0.916   0.698  1.3993  1.3655  0.5299
 7895SOL    HW235145   4.538   0.872   0.602 -0.0722  0.1555 -0.8121
 7896SOL     OW35146   0.270   1.607   2.635  0.4440 -0.4294 -0.0605
 7896SOL    HW135147   0.362   1.600   2.663  1.1068 -1.3878 -2.4183
 7896SOL    HW235148   0.280   1.630   2.542  0.2469  1.5559  0.4241
 7897SOL     OW35149   4.161   4.081   6.544  0.0325 -0.0759  0.6908
 7897SOL    HW135150   4.119   4.029   6.475  1.4199  1.0663 -1.0456
 7897SOL    HW235151   4.095   4.071   6.612 -0.5052 -1.3327 -0.0064
 7898SOL     OW35152   4.538   1.904   8.236 -0.2737 -0.3439  0.4511
 7898SOL    HW135153   4.513   1.988   8.199 -0.2130  0.2217  1.6815
 7898SOL    HW235154   4.592   1.936   8.309  2.1396 -0.1835 -1.3802
 7899SOL     OW35155   3.773   0.374   1.263  0.1242  0.4167  0.1604
 7899SOL    HW135156   3.800   0.284   1.280  0.2333  0.5094  0.4759
 7899SOL    HW235157   3.734   0.372   1.176  1.6133 -0.9380 -0.4864
 7900SOL     OW35158   2.535   0.497   6.263  0.0731 -0.0786  0.0769
 7900SOL    HW135159   2.559   0.578   6.308 -0.5926  0.8394 -1.2307
 7900SOL    HW235160   2.492   0.527   6.183  0.5549 -0.4211 -0.3073
 7901SOL     OW35161   0.144   3.212  12.520 -0.5499  0.0804 -0.2221
 7901SOL    HW135162   0.223   3.255  12.489  0.8717 -1.9865  0.5254
 7901SOL    HW235163   0.118   3.270  12.592 -0.3411 -1.3348  0.9802
 7902SOL     OW35164   4.496   0.449   2.116 -0.5632  0.1904 -0.2489
 7902SOL    HW135165   4.445   0.473   2.193 -0.6764 -0.1218 -0.2304
 7902SOL    HW235166   4.508   0.534   2.074  1.3947  1.3218  2.5403
 7903SOL     OW35167   1.033   2.239   8.566 -0.2392 -0.5315  0.0178
 7903SOL    HW135168   1.114   2.218   8.612  1.2188 -0.5229 -2.6171
 7903SOL    HW235169   1.058   2.279   8.483  0.2830  0.1742  0.5149
 7904SOL     OW35170   4.225   1.152  11.190 -0.0035  0.2853  0.0316
 7904SOL    HW135171   4.252   1.072  11.235  0.1881 -0.7430 -1.9403
 7904SOL    HW235172   4.135   1.128  11.171 -0.3072  0.6158  1.0458
 7905SOL     OW35173   4.074   4.309  10.148  0.3837 -0.3291 -0.2236
 7905SOL    HW135174   3.991   4.350  10.175  0.0077 -1.5034  0.4104
 7905SOL    HW235175   4.129   4.387  10.146  0.8810 -0.7378 -2.3590
 7906SOL     OW35176   0.735   3.480   5.046  0.1025 -0.0423  0.7400
 7906SOL    HW135177   0.756   3.402   4.995 -3.5457 -1.5945  1.6118
 7906SOL    HW235178   0.779   3.460   5.129  0.6477 -0.8463  0.2552
 7907SOL     OW35179   2.505   2.451   4.175  0.3106  0.0245  0.9564
 7907SOL    HW135180   2.575   2.487   4.229 -0.6524  2.9720  0.2362
 7907SOL    HW235181   2.464   2.388   4.235  0.0285 -1.4253 -0.7503
 7908SOL     OW35182   0.685   2.907   9.762  0.3491 -0.4948  0.2677
 7908SOL    HW135183   0.608   2.950   9.726 -0.6828 -0.5504  2.4299
 7908SOL    HW235184   0.729   2.989   9.784  1.0774 -0.7383 -0.2579
 7909SOL     OW35185   1.251   2.134   5.877 -0.0948  0.0126 -0.2631
 7909SOL    HW135186   1.254   2.038   5.873  0.3629 -0.0052  0.5492
 7909SOL    HW235187   1.249   2.161   5.785 -1.6553  2.3304  0.4716
 7910SOL     OW35188   0.078   2.539  13.077 -0.0147  0.0452  0.1438
 7910SOL    HW135189   0.092   2.520  12.984  0.4331 -1.5386  0.5338
 7910SOL    HW235190   0.151   2.485  13.107  2.0406  1.7747 -1.6964
 7911SOL     OW35191   1.975   4.215  15.855 -0.9586  0.0996 -0.3365
 7911SOL    HW135192   1.885   4.213  15.821 -0.7844 -1.6029 -0.6962
 7911SOL    HW235193   2.019   4.145  15.807 -0.0037 -0.5242  1.4603
 7912SOL     OW35194   3.244   2.408   6.174  0.0908 -0.1939  0.0624
 7912SOL    HW135195   3.304   2.352   6.125 -0.9022 -1.2372  0.0168
 7912SOL    HW235196   3.308   2.467   6.213  0.7341 -1.4474  0.8645
 7913SOL     OW35197   2.331   2.871  10.665 -0.4114  0.6416  0.1139
 7913SOL    HW135198   2.391   2.807  10.704 -0.5392 -0.1571 -0.9977
 7913SOL    HW235199   2.329   2.937  10.734  1.4365  1.9239 -1.0626
 7914SOL     OW35200   0.680   2.116   6.080  0.8912 -0.4450  0.2520
 7914SOL    HW135201   0.707   2.187   6.138  1.1485  0.0220 -0.4470
 7914SOL    HW235202   0.597   2.095   6.124  0.8021  1.1943  0.8594
 7915SOL     OW35203   1.307   2.466  10.431 -0.2215  0.5793  0.4185
 7915SOL    HW135204   1.217   2.448  10.407  0.6835 -3.0556 -0.3253
 7915SOL    HW235205   1.307   2.560  10.418  1.4791  0.6471  0.8781
 7916SOL     OW35206   0.856   3.594   0.320  0.1419  0.1603 -0.9996
 7916SOL    HW135207   0.829   3.591   0.412 -0.9688  0.7296 -1.2952
 7916SOL    HW235208   0.814   3.676   0.293 -0.8952 -0.1197 -0.2305
 7917SOL     OW35209   0.892   3.646   4.174 -0.5188  0.1398  0.4928
 7917SOL    HW135210   0.893   3.614   4.265  2.0718  1.3515  0.8985
 7917SOL    HW235211   0.817   3.705   4.175 -0.1432  0.6112  0.9287
 7918SOL     OW35212   4.460   2.176   5.029 -0.8059 -0.5965 -0.1952
 7918SOL    HW135213   4.523   2.241   4.997  1.3048 -2.2036  0.7153
 7918SOL    HW235214   4.509   2.104   5.069  0.6786 -0.3536 -1.6159
 7919SOL     OW35215   3.541   1.612   6.124  0.3857  0.8063 -0.1153
 7919SOL    HW135216   3.512   1.699   6.095  1.1070  1.8425  2.2647
 7919SOL    HW235217   3.462   1.564   6.102 -0.8441  2.4057  0.7739
 7920SOL     OW35218   4.573   0.322   8.365  0.1132  0.0943  0.2887
 7920SOL    HW135219   4.632   0.398   8.364  1.3819 -0.8563  1.8007
 7920SOL    HW235220   4.620   0.250   8.323 -1.5756  1.0669 -3.2504
 7921SOL     OW35221   0.815   1.011   8.876 -0.2775  0.1061  0.1842
 7921SOL    HW135222   0.866   0.950   8.930  0.3051  0.9599  0.5874
 7921SOL    HW235223   0.722   0.998   8.895 -0.5396  0.8683 -0.5487
 7922SOL     OW35224   2.644   2.722   8.911  0.9662  0.4722 -0.2216
 7922SOL    HW135225   2.597   2.641   8.891  0.3857  0.7191  0.1291
 7922SOL    HW235226   2.648   2.693   9.002 -0.4389  0.2096 -0.2360
 7923SOL     OW35227   3.439   4.396   3.455  0.5862  0.2802 -0.1045
 7923SOL    HW135228   3.353   4.358   3.476  0.7596 -0.8957 -1.5968
 7923SOL    HW235229   3.498   4.356   3.519  0.4737 -0.8512 -0.7083
 7924SOL     OW35230   1.054   1.152   9.548 -0.6503 -0.0366 -0.4409
 7924SOL    HW135231   1.075   1.245   9.542 -1.4895  0.1466 -0.6481
 7924SOL    HW235232   1.134   1.104   9.567 -0.3895  1.2230  1.7085
 7925SOL     OW35233   2.643   0.715   1.659 -0.3659 -0.1174  0.3292
 7925SOL    HW135234   2.603   0.658   1.593 -1.2379  1.1797 -0.2551
 7925SOL    HW235235   2.576   0.784   1.666 -2.2241 -1.9824  1.0508
 7926SOL     OW35236   0.771   0.138  13.835 -0.7193 -0.8215 -0.5411
 7926SOL    HW135237   0.850   0.084  13.828 -0.4269 -0.2256 -1.7606
 7926SOL    HW235238   0.809   0.223  13.857  0.1414 -1.2654 -0.2972
 7927SOL     OW35239   4.698   1.475  17.145 -0.5566  0.3730  0.2122
 7927SOL    HW135240   4.651   1.541  17.195 -0.5710 -0.0594  0.7708
 7927SOL    HW235241   4.661   1.391  17.172 -0.0181 -0.4513 -1.6104
 7928SOL     OW35242   1.344   4.003   7.772  0.2873 -0.3603  0.4470
 7928SOL    HW135243   1.375   4.092   7.753 -1.0372  0.3373  1.5449
 7928SOL    HW235244   1.309   4.013   7.860  2.2354 -0.4316  1.2343
 7929SOL     OW35245   4.000   2.104   3.341 -0.0635 -0.3175 -0.7531
 7929SOL    HW135246   4.029   2.058   3.420 -0.8664  1.3050  0.4696
 7929SOL    HW235247   4.059   2.081   3.270  0.4339  1.0680 -0.7829
 7930SOL     OW35248   1.820   2.072   6.219 -0.1011 -0.7263 -0.3817
 7930SOL    HW135249   1.866   2.113   6.146 -1.9294  1.1840 -0.4737
 7930SOL    HW235250   1.732   2.104   6.199 -0.2115  1.1003  2.9208
 7931SOL     OW35251   0.732   1.193   5.906 -0.4742 -0.0351  0.1756
 7931SOL    HW135252   0.705   1.156   5.990 -0.8783  0.8656  0.4421
 7931SOL    HW235253   0.648   1.208   5.864  0.9488  0.3890 -2.5238
 7932SOL     OW35254   0.076   0.021   4.549  0.3476 -0.0683 -0.0176
 7932SOL    HW135255   0.106   0.092   4.605 -1.5937  1.2991 -0.7169
 7932SOL    HW235256   0.151   4.688   4.538  0.3960  0.2071 -1.2005
 7933SOL     OW35257   3.130   3.447  17.372 -0.0304 -0.5555 -0.7277
 7933SOL    HW135258   3.174   3.404  17.445 -1.9311 -0.3944  0.5340
 7933SOL    HW235259   3.093   3.527  17.410 -3.0645 -2.8003  1.1239
 7934SOL     OW35260   4.118   1.476   2.869 -0.3671  0.3985 -0.2742
 7934SOL    HW135261   4.176   1.500   2.940 -1.3694  0.7510  0.4233
 7934SOL    HW235262   4.166   1.404   2.828 -1.0756  0.1691 -0.6968
 7935SOL     OW35263   0.617   4.473   6.576 -0.6330  0.7816  0.3837
 7935SOL    HW135264   0.702   4.517   6.579 -0.5776  0.6765  0.3448
 7935SOL    HW235265   0.558   4.547   6.595  1.5201  2.8544 -1.0034
 7936SOL     OW35266   0.387   0.173   8.184 -0.0498 -0.5032 -0.9657
 7936SOL    HW135267   0.291   0.166   8.187 -0.0566 -1.4145 -2.9529
 7936SOL    HW235268   0.417   0.231   8.114  0.4369  0.3099 -0.0824
 7937SOL     OW35269   0.637   4.206   7.653 -0.6180 -0.0871 -0.0466
 7937SOL    HW135270   0.617   4.204   7.747  0.1077 -0.2521  0.1048
 7937SOL    HW235271   0.571   4.145   7.620 -2.2610  0.9684  1.2711
 7938SOL     OW35272   2.480   1.978   5.575 -0.3454  0.0179  0.5531
 7938SOL    HW135273   2.557   1.923   5.558 -0.1578  1.2153 -2.4623
 7938SOL    HW235274   2.460   1.953   5.666 -1.2643 -1.6066 -0.0982
 7939SOL     OW35275   3.987   3.485   5.968  0.5116  0.0453 -1.2478
 7939SOL    HW135276   4.031   3.452   5.890 -1.2972 -0.5219 -2.0213
 7939SOL    HW235277   4.052   3.476   6.038 -0.8996  0.2808  0.1100
 7940SOL     OW35278   0.954   4.058   6.009 -0.4513  0.3528 -0.0786
 7940SOL    HW135279   0.886   4.041   6.075 -0.9351  0.0629 -0.6513
 7940SOL    HW235280   0.902   4.078   5.931 -2.5355 -1.9987  0.7046
 7941SOL     OW35281   2.186   0.065   5.905  0.4052  0.0166  0.1169
 7941SOL    HW135282   2.236   0.027   5.977 -0.2966 -1.8053 -0.3603
 7941SOL    HW235283   2.256   0.082   5.842  1.3765 -0.5530  1.0406
 7942SOL     OW35284   3.359   2.682   6.492 -0.4084 -0.1512  0.1762
 7942SOL    HW135285   3.304   2.604   6.504  0.1441 -0.9006 -2.0805
 7942SOL    HW235286   3.398   2.656   6.408 -0.1741 -0.1334  0.2798
 7943SOL     OW35287   2.557   4.072   5.840 -0.0120 -0.4436 -0.1975
 7943SOL    HW135288   2.644   4.036   5.820 -0.9024 -1.5812 -2.0629
 7943SOL    HW235289   2.533   4.091   5.750 -1.6116 -0.4845  0.2315
 7944SOL     OW35290   1.953   3.582   4.763  0.2712 -0.4666  0.1246
 7944SOL    HW135291   2.045   3.578   4.735  0.2006 -3.7953  0.3901
 7944SOL    HW235292   1.931   3.662   4.715 -0.3380  0.6641  2.2636
 7945SOL     OW35293   1.375   2.194   5.628  0.1235  0.2174  0.2236
 7945SOL    HW135294   1.408   2.104   5.616 -1.2315 -0.2252 -0.1772
 7945SOL    HW235295   1.349   2.225   5.541  2.1410 -0.9947 -0.8132
 7946SOL     OW35296   2.374   1.221   0.027 -0.1675  0.1702  0.5088
 7946SOL    HW135297   2.456   1.262  17.706 -1.0232  1.4335 -0.2291
 7946SOL    HW235298   2.384   1.266   0.111 -1.3267  0.6352  0.3996
 7947SOL     OW35299   3.433   3.489   1.323 -0.2159  0.4483  0.3643
 7947SOL    HW135300   3.476   3.466   1.241  1.9318  1.7536  1.1232
 7947SOL    HW235301   3.416   3.410   1.375 -0.2005  1.1140  1.3839
 7948SOL     OW35302   0.341   2.866   3.206  0.1542 -0.0489  0.0803
 7948SOL    HW135303   0.361   2.926   3.278  3.3265 -0.9942 -0.0104
 7948SOL    HW235304   0.415   2.806   3.215  0.1136 -0.1394 -0.1916
 7949SOL     OW35305   0.981   0.593   4.605  0.5949  0.2928 -0.3373
 7949SOL    HW135306   0.908   0.636   4.561 -2.7412 -2.3722  2.5281
 7949SOL    HW235307   0.959   0.500   4.597 -0.5389  0.5251  0.0567
 7950SOL     OW35308   2.266   0.441  17.697 -0.3591  0.4104  0.2147
 7950SOL    HW135309   2.230   0.471   0.074  0.2415 -0.3593  0.7497
 7950SOL    HW235310   2.335   0.378   0.009 -0.4065 -0.6896 -3.3976
 7951SOL     OW35311   0.954   1.586   7.046 -0.1828 -0.4102  0.3287
 7951SOL    HW135312   1.040   1.572   7.083 -0.2535 -1.4534  0.1032
 7951SOL    HW235313   0.974   1.626   6.961 -0.3457 -3.2511 -1.0310
 7952SOL     OW35314   3.975   0.924   0.366  0.2312 -0.0585  0.2692
 7952SOL    HW135315   4.045   0.929   0.431  2.0809  1.1732 -1.8003
 7952SOL    HW235316   3.991   1.004   0.317 -1.8564  0.6317  0.7241
 7953SOL     OW35317   2.096   4.650  11.403  0.1119  0.1090 -0.0609
 7953SOL    HW135318   2.082   4.586  11.333 -0.5497 -1.0612  1.1534
 7953SOL    HW235319   2.137   4.722  11.356  3.0859 -2.2519 -1.1329
 7954SOL     OW35320   0.358   3.823   3.996 -0.2960  0.5163  0.2662
 7954SOL    HW135321   0.432   3.858   3.946  0.3823 -1.7814 -0.3317
 7954SOL    HW235322   0.300   3.898   3.982 -0.4860  0.5147  1.0696
 7955SOL     OW35323   2.686   3.063   2.524 -0.2090  0.2189  0.0342
 7955SOL    HW135324   2.702   3.071   2.618 -1.6955  1.7301  0.1597
 7955SOL    HW235325   2.670   2.969   2.517 -0.2044  0.1150  1.5877
 7956SOL     OW35326   4.481   0.180   3.373  0.6005  0.4979  0.1289
 7956SOL    HW135327   4.516   0.125   3.303  0.8432 -0.2824  0.8616
 7956SOL    HW235328   4.404   0.128   3.396  1.4054 -1.5339 -1.7091
 7957SOL     OW35329   1.077   2.783   0.045 -0.8006 -0.0945  0.6990
 7957SOL    HW135330   1.046   2.758   0.132  0.5078 -1.6868  0.7120
 7957SOL    HW235331   0.995   2.792  17.703 -0.8997 -1.9400  0.5351
 7958SOL     OW35332   0.248   1.802   5.466  0.5270 -0.0495  0.3410
 7958SOL    HW135333   0.283   1.834   5.550 -0.2705 -2.5015  1.6127
 7958SOL    HW235334   0.319   1.835   5.412  0.8899  1.9051  2.0094
 7959SOL     OW35335   3.134   0.332   3.205  0.0747  0.1864  0.1574
 7959SOL    HW135336   3.090   0.251   3.179 -1.6328  1.2018 -0.1314
 7959SOL    HW235337   3.196   0.333   3.131  0.3588  0.5970  0.3998
 7960SOL     OW35338   1.777   0.126  17.310 -0.5263 -0.4731  0.2250
 7960SOL    HW135339   1.857   0.102  17.357 -0.4355 -0.0735  0.2710
 7960SOL    HW235340   1.751   0.189  17.377  0.4429  0.2925 -0.1140
 7961SOL     OW35341   4.476   2.174   4.536  0.3140  0.2625  0.2690
 7961SOL    HW135342   4.541   2.211   4.596 -0.5012  2.2345 -0.0534
 7961SOL    HW235343   4.388   2.176   4.574  1.0608 -1.7833  2.0833
 7962SOL     OW35344   0.334   3.194  14.673  0.0328 -0.2928  0.1540
 7962SOL    HW135345   0.403   3.202  14.607 -1.6834 -1.6265 -1.7795
 7962SOL    HW235346   0.386   3.228  14.746  0.5358 -2.0855  0.6282
 7963SOL     OW35347   4.214   2.431   0.452  0.2556 -0.5308 -0.0618
 7963SOL    HW135348   4.263   2.351   0.434 -0.6828 -0.9689 -0.6572
 7963SOL    HW235349   4.234   2.482   0.374  0.1429 -2.1143 -1.1305
 7964SOL     OW35350   0.941   0.074   7.365 -0.1311  0.9941  0.0228
 7964SOL    HW135351   0.935   4.716   7.410 -2.7043  1.9477  1.5030
 7964SOL    HW235352   1.017   0.056   7.310 -0.5789 -0.3203 -0.1535
 7965SOL     OW35353   3.010   2.892  13.460  0.1419 -0.3494 -0.5595
 7965SOL    HW135354   2.986   2.985  13.453 -0.1676 -0.4272 -0.5221
 7965SOL    HW235355   2.937   2.855  13.411 -0.5377  0.1214  0.1107
 7966SOL     OW35356   0.804   0.873   7.267 -0.1013  0.4142 -0.3966
 7966SOL    HW135357   0.728   0.848   7.319  0.7356 -2.1810 -0.4349
 7966SOL    HW235358   0.875   0.866   7.331 -1.4395  0.0126  1.0254
 7967SOL     OW35359   4.544   3.727   3.097  0.4968 -0.5488  0.2656
 7967SOL    HW135360   4.494   3.670   3.039  2.1388 -0.2064 -1.4757
 7967SOL    HW235361   4.631   3.689   3.081  0.2800 -0.4608 -1.1110
 7968SOL     OW35362   2.744   3.411   9.198  0.0714 -0.4041  0.9052
 7968SOL    HW135363   2.778   3.444   9.281  4.1113  1.7381 -1.5785
 7968SOL    HW235364   2.650   3.408   9.214  0.3153 -1.8662  2.0374
 7969SOL     OW35365   0.857   1.522   5.687 -0.1780 -0.3549 -0.1547
 7969SOL    HW135366   0.899   1.608   5.689  0.2181 -0.5209 -1.6093
 7969SOL    HW235367   0.924   1.484   5.744 -0.1568 -0.2007 -0.0770
 7970SOL     OW35368   1.912   0.984   3.414  0.1785  0.0703 -0.2689
 7970SOL    HW135369   1.946   0.911   3.466  2.3486  0.7986 -0.6892
 7970SOL    HW235370   1.988   1.016   3.366  1.6986  0.7979  2.5787
 7971SOL     OW35371   3.754   1.688  17.257  0.0916 -0.0042 -0.3577
 7971SOL    HW135372   3.815   1.752  17.294  1.5324 -1.2326 -0.6113
 7971SOL    HW235373   3.808   1.611  17.276 -0.6618 -0.6075 -0.6820
 7972SOL     OW35374   1.170   4.237   6.975  1.1139 -0.0648  0.0463
 7972SOL    HW135375   1.245   4.283   6.938  2.0083 -0.0046  1.9129
 7972SOL    HW235376   1.100   4.302   6.967  0.8817 -0.3652 -0.3317
 7973SOL     OW35377   4.326   0.059   0.443  0.3109 -0.0168  0.3342
 7973SOL    HW135378   4.247   0.071   0.497  0.1943 -0.3535  0.2396
 7973SOL    HW235379   4.305   0.000   0.370  1.3096  0.9190 -0.6999
 7974SOL     OW35380   2.567   1.240   5.489 -0.3907 -0.1272 -0.2215
 7974SOL    HW135381   2.496   1.197   5.537  0.1921  0.8331  1.5193
 7974SOL    HW235382   2.537   1.306   5.427 -0.3854 -0.6775 -0.8123
 7975SOL     OW35383   4.312   0.308  14.821 -0.0266  0.7019 -0.0300
 7975SOL    HW135384   4.401   0.320  14.788  0.8139 -1.7253  1.3550
 7975SOL    HW235385   4.265   0.378  14.775 -0.3266  0.1362 -0.5853
 7976SOL     OW35386   2.774   3.987   6.790 -0.4828 -0.1126 -0.4167
 7976SOL    HW135387   2.722   4.044   6.846  1.1425 -2.5108  3.5640
 7976SOL    HW235388   2.817   4.054   6.737 -1.1791  0.1064 -0.6935
 7977SOL     OW35389   2.734   1.347   9.650 -0.3071  0.0867  0.2628
 7977SOL    HW135390   2.734   1.424   9.708 -1.0214 -0.6279  1.2029
 7977SOL    HW235391   2.648   1.359   9.612  0.0011  2.0411  0.1777
 7978SOL     OW35392   4.289   2.452  11.760 -0.3564  0.0571 -0.2459
 7978SOL    HW135393   4.290   2.542  11.791 -0.2607  0.5278 -1.6231
 7978SOL    HW235394   4.238   2.459  11.680  1.8445 -0.3486 -1.6824
 7979SOL     OW35395   0.252   4.598   9.714  0.1241  0.1396 -0.1579
 7979SOL    HW135396   0.331   4.601   9.660  0.4863 -2.1122  0.2539
 7979SOL    HW235397   0.192   4.550   9.658  0.6065 -2.1366  1.2693
 7980SOL     OW35398   0.605   0.670  11.946  0.1304  0.2083  0.3941
 7980SOL    HW135399   0.611   0.582  11.983 -0.2397  0.8017  1.8685
 7980SOL    HW235400   0.511   0.686  11.958 -0.2743 -2.2444  0.3549
 7981SOL     OW35401   4.632   2.840   7.171 -0.4086  0.2342  0.4669
 7981SOL    HW135402   4.692   2.910   7.145  0.0866 -0.2423  0.3241
 7981SOL    HW235403   4.561   2.888   7.215 -0.8923 -1.7456  1.8339
 7982SOL     OW35404   0.446   2.094   3.374 -0.3880 -0.3875  0.1448
 7982SOL    HW135405   0.528   2.141   3.355  1.6290 -3.1515  2.1248
 7982SOL    HW235406   0.379   2.160   3.393  1.6838  0.4802  4.3063
 7983SOL     OW35407   0.093   1.917   8.075 -0.6327  0.2304  0.6574
 7983SOL    HW135408   0.046   1.969   8.010 -1.4211 -0.6869  0.4868
 7983SOL    HW235409   0.140   1.854   8.021 -0.3569  1.4399 -0.4792
 7984SOL     OW35410   2.647   4.187  16.077  0.1105  0.2709 -0.3045
 7984SOL    HW135411   2.609   4.161  15.993 -1.5028 -0.2845  0.5881
 7984SOL    HW235412   2.597   4.260  16.113 -0.4800 -0.6313  0.6966
 7985SOL     OW35413   3.924   3.085  14.920  0.0588 -0.3504 -0.5141
 7985SOL    HW135414   4.019   3.074  14.927  0.3809 -0.6014 -5.2647
 7985SOL    HW235415   3.892   3.049  15.002  3.5682 -0.6482  0.7209
 7986SOL     OW35416   0.600   1.056  10.409 -0.3336 -0.1583 -0.2373
 7986SOL    HW135417   0.686   1.085  10.439 -0.5235 -1.1078  1.2225
 7986SOL    HW235418   0.568   1.132  10.361  0.0306  0.8604  1.1304
 7987SOL     OW35419   1.916   0.908   8.413  0.2901 -0.3002  0.6937
 7987SOL    HW135420   1.958   0.901   8.499 -1.2594 -0.5870  1.4187
 7987SOL    HW235421   1.897   1.002   8.404 -0.5611 -0.4950  0.4549
 7988SOL     OW35422   3.153   0.164   4.319  0.7090  0.5950 -0.0757
 7988SOL    HW135423   3.064   0.131   4.328  0.6168  0.5786 -1.0265
 7988SOL    HW235424   3.148   0.200   4.230 -0.6532 -1.8757 -1.0138
 7989SOL     OW35425   1.416   3.230   6.716  0.4064 -0.5641  0.3363
 7989SOL    HW135426   1.356   3.281   6.662  1.0775  0.7421  0.8343
 7989SOL    HW235427   1.364   3.232   6.797  1.6158  2.1445  1.0387
 7990SOL     OW35428   0.575   4.259   2.663  0.5653 -0.1243 -0.0849
 7990SOL    HW135429   0.491   4.214   2.672  0.1417  0.2581 -2.0871
 7990SOL    HW235430   0.545   4.350   2.667  1.3417  0.1625 -0.7402
 7991SOL     OW35431   4.662   2.187  11.842 -0.3662 -0.2228 -0.3243
 7991SOL    HW135432   4.617   2.264  11.808 -0.9126 -1.0192 -1.3972
 7991SOL    HW235433   4.582   2.135  11.854 -0.5620 -0.2003 -1.5570
 7992SOL     OW35434   0.909   1.178   2.272  0.1482 -0.0414  0.0355
 7992SOL    HW135435   0.841   1.171   2.338 -1.1812  3.2224 -0.9864
 7992SOL    HW235436   0.887   1.257   2.222 -1.7137 -0.3568  0.3622
 7993SOL     OW35437   4.271   1.315   0.452 -0.1117 -0.2065 -0.0058
 7993SOL    HW135438   4.261   1.327   0.546  0.6047  0.1643  0.0193
 7993SOL    HW235439   4.348   1.259   0.439  1.5082  2.0006  0.1625
 7994SOL     OW35440   3.669   3.516   5.977 -0.5509  0.2350  0.5213
 7994SOL    HW135441   3.764   3.508   5.971 -0.7564  0.0428 -2.2667
 7994SOL    HW235442   3.645   3.478   6.062 -0.0703 -0.0974  0.5099
 7995SOL     OW35443   4.076   1.465  10.264  0.0195 -0.2202 -0.2168
 7995SOL    HW135444   3.981   1.461  10.271 -0.1074  4.9940  1.0119
 7995SOL    HW235445   4.101   1.380  10.228  0.2985 -0.9109  1.5755
 7996SOL     OW35446   3.664   4.169   8.323 -0.6262  0.0671 -0.4682
 7996SOL    HW135447   3.589   4.116   8.351 -0.0552 -0.7247 -0.4059
 7996SOL    HW235448   3.667   4.149   8.229  2.5183  1.6679 -0.7149
 7997SOL     OW35449   2.422   1.501   1.895  0.7883 -0.6723 -0.0575
 7997SOL    HW135450   2.488   1.530   1.958 -0.2200  0.5823  0.4163
 7997SOL    HW235451   2.407   1.574   1.836  4.0228 -0.1755 -0.2338
 7998SOL     OW35452   1.481   3.588  15.079 -0.0162 -0.6239 -0.1377
 7998SOL    HW135453   1.502   3.673  15.041 -0.6400  0.0320  0.9715
 7998SOL    HW235454   1.433   3.535  15.015 -1.0077 -2.9118  2.4945
 7999SOL     OW35455   4.198   1.427   6.717  0.0536 -0.0081 -0.5342
 7999SOL    HW135456   4.205   1.413   6.622  0.5901  2.0367 -0.7811
 7999SOL    HW235457   4.153   1.510   6.730 -1.9477 -1.1905  0.2376
 8000SOL     OW35458   3.387   0.761   7.876  0.5938  0.6200 -0.4618
 8000SOL    HW135459   3.340   0.790   7.798 -2.1605 -0.0395  0.9367
 8000SOL    HW235460   3.337   0.801   7.947  1.5658  0.4288  0.3346
 8001SOL     OW35461   2.838   0.563   6.451 -0.2928  0.1439 -0.1517
 8001SOL    HW135462   2.829   0.470   6.433  2.5941 -0.3316  0.8232
 8001SOL    HW235463   2.930   0.571   6.424  0.2452 -1.1442  1.3179
 8002SOL     OW35464   1.039   3.119   2.753  0.0361  0.6100 -0.2122
 8002SOL    HW135465   0.996   3.187   2.701 -1.6181 -1.1643 -1.1620
 8002SOL    HW235466   0.970   3.067   2.795  0.5072  0.3898  0.2933
 8003SOL     OW35467   3.623   3.155   4.556  0.0038  0.1727  0.5026
 8003SOL    HW135468   3.640   3.153   4.462 -2.3349  0.3848  0.0598
 8003SOL    HW235469   3.690   3.105   4.602  0.7462  0.0502 -0.7055
 8004SOL     OW35470   1.796   2.262   5.654 -0.1756  0.0309 -0.2356
 8004SOL    HW135471   1.747   2.340   5.625 -3.7580 -1.8514  0.7435
 8004SOL    HW235472   1.737   2.228   5.722 -0.4005  0.2241 -0.3326
 8005SOL     OW35473   0.336   2.661   2.464  0.3720 -0.6305  0.0436
 8005SOL    HW135474   0.329   2.639   2.557 -2.2653  1.6703  0.3956
 8005SOL    HW235475   0.311   2.576   2.427 -1.3036  0.4157 -1.2674
 8006SOL     OW35476   1.934   1.419   8.149 -0.1005  0.1123 -0.6386
 8006SOL    HW135477   1.868   1.392   8.212  0.7245 -1.9218 -0.6656
 8006SOL    HW235478   2.001   1.462   8.203 -0.6858 -1.3597  1.2766
 8007SOL     OW35479   0.920   2.704  11.508 -0.5383 -0.4960 -0.0739
 8007SOL    HW135480   0.919   2.783  11.564 -2.3394 -1.4999  1.3235
 8007SOL    HW235481   0.861   2.648  11.559 -0.2910  0.5366  1.3848
 8008SOL     OW35482   0.446   3.239   6.410 -0.0760  0.1201  0.2978
 8008SOL    HW135483   0.535   3.207   6.422  0.0001 -0.5061 -1.9821
 8008SOL    HW235484   0.429   3.281   6.495  0.4818  1.5878 -0.3279
 8009SOL     OW35485   1.970   4.177   3.250 -0.1035 -0.5500  0.1857
 8009SOL    HW135486   1.977   4.126   3.169  0.1907  0.7356 -0.6030
 8009SOL    HW235487   1.985   4.106   3.312 -2.9087  0.3983  1.9345
 8010SOL     OW35488   0.517   1.879   2.096 -0.4730 -0.1959 -0.5331
 8010SOL    HW135489   0.519   1.911   2.187  0.6352  2.2348 -1.4047
 8010SOL    HW235490   0.449   1.934   2.057 -1.0202 -1.2480 -1.0702
 8011SOL     OW35491   4.581   3.888   8.390 -0.5874 -0.6585 -0.1017
 8011SOL    HW135492   4.499   3.872   8.437 -2.1756 -0.7365 -2.8750
 8011SOL    HW235493   4.554   3.862   8.302 -0.7546 -0.3751 -0.1316
 8012SOL     OW35494   3.535   0.171   8.973 -0.2191 -0.1634  0.0469
 8012SOL    HW135495   3.570   0.089   8.938  0.0983  1.0029 -2.3588
 8012SOL    HW235496   3.454   0.188   8.925  0.0490  2.3849  0.4959
 8013SOL     OW35497   0.654   1.178   6.150 -0.4400  0.4326 -0.2380
 8013SOL    HW135498   0.571   1.227   6.152 -1.9536 -2.1220 -0.1712
 8013SOL    HW235499   0.709   1.240   6.198  0.1329 -0.1869 -0.1004
 8014SOL     OW35500   2.044   4.323   3.526 -0.0055 -0.0609 -0.5274
 8014SOL    HW135501   2.078   4.240   3.559  0.8809 -0.2537 -1.9101
 8014SOL    HW235502   1.958   4.288   3.502 -0.0477 -0.0505 -0.3930
 8015SOL     OW35503   3.304   1.215  15.454 -0.4407  0.1910 -0.0836
 8015SOL    HW135504   3.244   1.161  15.505 -2.2837  3.1299  0.8865
 8015SOL    HW235505   3.353   1.271  15.514  1.8668 -3.2210  1.1778
 8016SOL     OW35506   1.631   1.889   3.210 -0.4089  0.4919  0.0190
 8016SOL    HW135507   1.574   1.958   3.244  0.2248  0.8762  0.3141
 8016SOL    HW235508   1.571   1.838   3.156 -1.8432  1.3610  0.8003
 8017SOL     OW35509   3.917   0.232   0.834  0.2297  0.2444  0.3703
 8017SOL    HW135510   3.966   0.180   0.898 -0.2926  0.3591  0.8676
 8017SOL    HW235511   3.976   0.284   0.780  1.0870 -2.0189 -0.9137
 8018SOL     OW35512   1.408   3.747   4.887 -0.0583 -0.3641  0.0886
 8018SOL    HW135513   1.430   3.683   4.954 -1.6486  0.3201  1.2505
 8018SOL    HW235514   1.486   3.747   4.831  1.4851 -0.6155  2.2467
 8019SOL     OW35515   3.302   4.163   9.070 -0.5256 -0.4529 -0.1420
 8019SOL    HW135516   3.341   4.117   8.996 -1.7078 -1.0011 -0.4272
 8019SOL    HW235517   3.336   4.106   9.139  0.5601  1.2358  0.7099
 8020SOL     OW35518   0.486   1.750   8.962 -0.0823 -0.0385 -0.8956
 8020SOL    HW135519   0.456   1.795   9.041 -1.6801 -2.1345 -0.3197
 8020SOL    HW235520   0.452   1.806   8.892  1.1454  1.6580 -0.1430
 8021SOL     OW35521   0.097   1.818  13.427 -0.6740  0.1449 -0.2417
 8021SOL    HW135522   0.090   1.723  13.419  0.0793  0.1575 -1.1057
 8021SOL    HW235523   0.084   1.845  13.336  2.9441 -0.1641 -0.8474
 8022SOL     OW35524   4.696   4.340   0.364  0.1727 -0.6266 -0.0590
 8022SOL    HW135525   4.674   4.272   0.428 -6.3863 -0.2755 -1.8886
 8022SOL    HW235526   0.004   4.411   0.417 -0.0116 -1.0036  0.5687
 8023SOL     OW35527   4.521   3.897   7.914 -0.3225  0.7022 -0.3322
 8023SOL    HW135528   4.550   3.949   7.839 -2.2036  1.4817 -0.5208
 8023SOL    HW235529   4.448   3.848   7.876  1.4748 -1.2050 -1.3467
 8024SOL     OW35530   1.743   4.349   5.033  0.1185 -0.1629 -0.1077
 8024SOL    HW135531   1.770   4.326   5.121 -1.0008 -0.7564  0.0785
 8024SOL    HW235532   1.819   4.401   5.008  0.8177 -1.6629 -1.1147
 8025SOL     OW35533   0.542   3.619  17.369 -0.0394  0.2272  0.7875
 8025SOL    HW135534   0.479   3.690  17.364 -2.4843 -2.1190 -1.5123
 8025SOL    HW235535   0.544   3.576  17.283  0.7048  1.4972  0.1669
 8026SOL     OW35536   1.005   2.953   3.290 -0.5213 -0.3946 -0.2035
 8026SOL    HW135537   0.917   2.979   3.316 -0.3400 -0.5825  0.5866
 8026SOL    HW235538   1.006   2.857   3.287 -0.8062 -0.4203  0.6888
 8027SOL     OW35539   4.720   1.927   8.910  0.1530 -0.1158 -0.1532
 8027SOL    HW135540   4.665   1.999   8.877  1.9623 -0.2323 -3.3596
 8027SOL    HW235541   0.083   1.962   8.904  0.7671 -1.5562  0.7439
 8028SOL     OW35542   0.723   0.644   2.230  0.3081 -0.6327  0.3560
 8028SOL    HW135543   0.808   0.683   2.215  0.1437  0.0803  1.2752
 8028SOL    HW235544   0.718   0.663   2.324  1.9995  1.0336  0.0975
 8029SOL     OW35545   4.002   0.837   5.976 -0.0316  0.2618 -0.0930
 8029SOL    HW135546   4.096   0.846   5.959 -0.0669 -2.9433 -1.9772
 8029SOL    HW235547   3.984   0.743   5.972  1.4535  0.0167 -0.9802
 8030SOL     OW35548   4.109   0.793   2.511  0.2297 -0.8423 -0.0503
 8030SOL    HW135549   4.085   0.761   2.425  0.3879 -0.4098 -0.2594
 8030SOL    HW235550   4.042   0.760   2.570 -1.0965 -0.1549 -1.1949
 8031SOL     OW35551   0.562   4.021   7.884  0.0560 -0.0117 -0.3124
 8031SOL    HW135552   0.628   4.035   7.951 -1.0716 -2.4792  1.3070
 8031SOL    HW235553   0.575   3.927   7.881 -0.9337 -0.1833  1.0301
 8032SOL     OW35554   2.422   2.367   4.717 -0.9816 -0.7236 -0.0822
 8032SOL    HW135555   2.454   2.407   4.637 -0.6467 -1.8333 -0.5092
 8032SOL    HW235556   2.491   2.302   4.728 -0.3474  0.0298  0.4211
 8033SOL     OW35557   3.427   0.333  10.484  0.8655 -0.3563  0.0834
 8033SOL    HW135558   3.360   0.295  10.427  1.2572  1.0743 -1.3318
 8033SOL    HW235559   3.449   0.257  10.537  0.2917 -1.2140 -0.9175
 8034SOL     OW35560   0.577   0.515  17.487  1.0196  0.6584 -0.6019
 8034SOL    HW135561   0.643   0.453  17.519  0.2790  0.6842  0.9693
 8034SOL    HW235562   0.518   0.510  17.561  1.4198  1.9458 -0.1875
 8035SOL     OW35563   3.817   3.139   0.895 -0.1162  0.2897 -0.3989
 8035SOL    HW135564   3.723   3.151   0.887 -0.1116  1.3988  1.1425
 8035SOL    HW235565   3.833   3.082   0.820 -2.6174 -1.4860  0.4310
 8036SOL     OW35566   1.781   1.782   8.880  0.4882  0.5761 -0.9890
 8036SOL    HW135567   1.750   1.716   8.942  0.7689  2.1424  0.8087
 8036SOL    HW235568   1.875   1.783   8.897  0.4661 -0.0211 -0.8424
 8037SOL     OW35569   2.656   4.260   3.368 -0.5563 -0.3008  0.3878
 8037SOL    HW135570   2.569   4.226   3.349 -1.0775  0.6435  1.1444
 8037SOL    HW235571   2.638   4.325   3.436  0.5708  1.0423 -0.6048
 8038SOL     OW35572   1.411   1.325  12.279 -0.0455  0.1524  0.5561
 8038SOL    HW135573   1.384   1.238  12.308  2.7946 -0.8619  0.1479
 8038SOL    HW235574   1.395   1.322  12.184 -0.6292  0.6885  0.6370
 8039SOL     OW35575   1.025   2.028   9.422 -0.1753 -0.2131 -0.6012
 8039SOL    HW135576   1.008   1.998   9.511  1.4628  0.2168 -0.1471
 8039SOL    HW235577   1.118   2.045   9.405 -0.0688 -0.0806  0.1311
 8040SOL     OW35578   0.164   1.397   1.146  0.3705  0.1155  0.3666
 8040SOL    HW135579   0.244   1.360   1.109  0.2294  0.1120  0.0633
 8040SOL    HW235580   0.100   1.327   1.131 -1.0160  1.8218 -1.7064
 8041SOL     OW35581   1.394   0.908   9.237  0.4597 -0.1095  0.1346
 8041SOL    HW135582   1.342   0.936   9.312 -1.7598  1.5590 -2.0500
 8041SOL    HW235583   1.342   0.833   9.206 -0.2057  0.4439 -0.0853
 8042SOL     OW35584   1.307   4.491   1.211  0.5190 -0.1672 -0.3247
 8042SOL    HW135585   1.364   4.550   1.161 -1.7188  0.7057 -1.8865
 8042SOL    HW235586   1.227   4.530   1.175  0.4947  2.2568  2.4184
 8043SOL     OW35587   4.567   0.880  16.816 -0.1505 -0.2173  0.1905
 8043SOL    HW135588   4.538   0.816  16.881  0.7725 -0.7126  0.1138
 8043SOL    HW235589   4.662   0.887  16.824 -0.0297 -2.6284  0.9038
 8044SOL     OW35590   0.192   0.081   5.183 -0.3342 -0.1270  0.3817
 8044SOL    HW135591   0.166   0.064   5.092  1.2423  0.9095 -0.2565
 8044SOL    HW235592   0.251   0.007   5.194  2.5186  2.4450  2.0932
 8045SOL     OW35593   4.716   3.939  15.195  0.1697  0.8095  0.3341
 8045SOL    HW135594   4.705   3.889  15.115  0.5455 -1.3016  1.6058
 8045SOL    HW235595   4.714   4.029  15.162 -0.5150  1.2065  1.4493
 8046SOL     OW35596   2.885   0.981  16.324 -0.0618  0.4869  0.1874
 8046SOL    HW135597   2.876   1.023  16.410  1.1581 -0.2308  0.6732
 8046SOL    HW235598   2.796   0.997  16.294 -0.1552 -0.5113 -0.0697
 8047SOL     OW35599   1.039   4.293  14.794  0.0032  0.0196  0.5426
 8047SOL    HW135600   1.078   4.270  14.710  2.3366  1.1190  1.3478
 8047SOL    HW235601   0.991   4.211  14.812  0.8928 -1.0238 -1.7939
 8048SOL     OW35602   1.430   4.243   2.036  0.1230  0.2083 -0.7823
 8048SOL    HW135603   1.411   4.306   1.966 -0.6312  1.3901  0.5010
 8048SOL    HW235604   1.384   4.279   2.111  0.1886  1.1252 -1.1807
 8049SOL     OW35605   2.763   4.321  13.323  0.5589  0.5192 -0.2433
 8049SOL    HW135606   2.729   4.268  13.395  0.8011  2.3162  1.1929
 8049SOL    HW235607   2.774   4.405  13.367  0.4106 -0.5876  1.8804
 8050SOL     OW35608   0.860   3.750   5.603  0.6547 -0.1451  0.0440
 8050SOL    HW135609   0.767   3.734   5.619  1.0069 -0.0666  2.2390
 8050SOL    HW235610   0.878   3.775   5.694 -1.3794  0.1764  0.3628
 8051SOL     OW35611   3.696   4.409   5.584 -0.1285 -0.3922  0.0017
 8051SOL    HW135612   3.723   4.317   5.584 -1.3162 -0.7264  3.0834
 8051SOL    HW235613   3.731   4.452   5.506 -1.2743  1.5354  0.5548
 8052SOL     OW35614   4.222   0.438   5.349 -0.0269  0.1788  0.2616
 8052SOL    HW135615   4.191   0.512   5.400  2.9480  1.5613  0.0360
 8052SOL    HW235616   4.315   0.432   5.370 -0.0106 -2.7013 -0.5618
 8053SOL     OW35617   1.502   1.258   3.820 -0.1836 -0.3698  0.1143
 8053SOL    HW135618   1.558   1.335   3.825 -0.3380 -0.1810 -1.1330
 8053SOL    HW235619   1.434   1.302   3.769  2.7017  0.8942 -2.6135
 8054SOL     OW35620   1.648   2.934   6.806 -0.0870  0.4718 -0.3755
 8054SOL    HW135621   1.710   2.923   6.878  1.1803  2.1861 -1.2089
 8054SOL    HW235622   1.674   3.020   6.773  1.0693  0.4429  0.4490
 8055SOL     OW35623   2.004   2.443   9.075 -0.0139 -0.0417  0.1879
 8055SOL    HW135624   1.990   2.467   9.167  1.9698  2.7861 -0.2245
 8055SOL    HW235625   2.018   2.528   9.032  3.6658 -0.4738  0.5744
 8056SOL     OW35626   3.388   2.467   1.932 -0.3725  0.1855  0.3682
 8056SOL    HW135627   3.428   2.484   1.847  0.2533 -1.0385  0.4202
 8056SOL    HW235628   3.388   2.372   1.937  2.5419  0.2206  1.1945
 8057SOL     OW35629   2.179   0.570   8.000 -0.2715 -0.3984 -0.5726
 8057SOL    HW135630   2.141   0.650   7.962  1.6750  0.3158 -1.0119
 8057SOL    HW235631   2.257   0.552   7.947  0.8067  0.7713  0.6012
 8058SOL     OW35632   1.698   0.204   3.845  0.8965 -0.0356  0.0099
 8058SOL    HW135633   1.741   0.127   3.884  0.0680  0.7359  2.4489
 8058SOL    HW235634   1.608   0.176   3.827  0.6772  1.0377 -0.5335
 8059SOL     OW35635   1.784   0.783  11.579 -0.0433 -0.5950 -0.0747
 8059SOL    HW135636   1.860   0.835  11.554  0.5964 -0.7640  1.5156
 8059SOL    HW235637   1.760   0.759  11.489 -1.5773 -0.1761  0.2226
 8060SOL     OW35638   1.668   0.461   7.147 -0.4989  0.6061 -0.0465
 8060SOL    HW135639   1.688   0.411   7.226 -1.0372  1.2601  0.5091
 8060SOL    HW235640   1.756   0.477   7.112  0.7606 -0.9979  2.4200
 8061SOL     OW35641   2.187   1.407   2.943  0.0336 -0.0856 -0.1674
 8061SOL    HW135642   2.092   1.416   2.935 -0.0851 -0.9990  0.2349
 8061SOL    HW235643   2.215   1.467   3.012 -1.9955 -1.1337  1.5731
 8062SOL     OW35644   3.305   0.458   8.502  0.2355 -0.5809  0.6881
 8062SOL    HW135645   3.371   0.515   8.462  0.1497 -0.1236  1.1973
 8062SOL    HW235646   3.263   0.513   8.568 -0.5723 -1.7846  1.1924
 8063SOL     OW35647   2.522   1.605   5.163  0.4204  0.1641 -0.4942
 8063SOL    HW135648   2.546   1.526   5.115 -1.0223 -1.5769  1.6494
 8063SOL    HW235649   2.599   1.625   5.217 -1.0697  0.9411  1.3502
 8064SOL     OW35650   1.349   4.069   8.300  0.3774  0.5198 -0.1005
 8064SOL    HW135651   1.417   4.136   8.287 -1.8856  2.7897 -0.2436
 8064SOL    HW235652   1.339   4.083   8.394  1.1194  2.7729 -0.3613
 8065SOL     OW35653   4.085   1.818   7.678  0.3209  0.3927  0.5971
 8065SOL    HW135654   4.139   1.790   7.605  0.8431  1.1641  0.6964
 8065SOL    HW235655   4.158   1.843   7.734 -0.9991  3.2330  1.0198
 8066SOL     OW35656   3.024   1.345   8.556  0.5390 -0.1856 -0.3266
 8066SOL    HW135657   2.943   1.297   8.540  0.9779  0.0402 -3.1815
 8066SOL    HW235658   3.083   1.272   8.537 -1.6996 -1.3842 -2.7951
 8067SOL     OW35659   1.365   2.364   3.540 -0.3304 -0.8737 -0.1482
 8067SOL    HW135660   1.272   2.380   3.526  0.3589  0.7640 -2.7035
 8067SOL    HW235661   1.399   2.364   3.451 -0.3914 -0.0534 -0.1673
 8068SOL     OW35662   3.440   4.135   7.786 -0.0877  0.0275  0.8891
 8068SOL    HW135663   3.507   4.201   7.765 -0.4227  0.4075  1.0183
 8068SOL    HW235664   3.448   4.109   7.878 -4.6422 -0.4134  1.1664
 8069SOL     OW35665   0.396   2.474  14.923 -0.4702  0.1007  0.5437
 8069SOL    HW135666   0.486   2.498  14.946 -0.7418  0.1213  1.6292
 8069SOL    HW235667   0.369   2.556  14.881  0.7976 -0.5032 -1.4036
 8070SOL     OW35668   2.978   0.828   8.055  0.3748 -0.1154 -0.1259
 8070SOL    HW135669   3.021   0.909   8.028 -1.5135 -0.2029 -3.4295
 8070SOL    HW235670   3.046   0.798   8.116 -1.2187 -0.7479  1.3452
 8071SOL     OW35671   1.537   1.499   8.260 -0.3754  0.1314 -0.3782
 8071SOL    HW135672   1.444   1.487   8.276 -0.2560  0.0852  0.2803
 8071SOL    HW235673   1.560   1.437   8.329 -2.4268  0.9061  1.0158
 8072SOL     OW35674   2.485   4.263  13.941 -0.5080  0.4138  0.1159
 8072SOL    HW135675   2.560   4.303  13.984 -1.5819  2.3631  0.1658
 8072SOL    HW235676   2.415   4.318  13.977  0.5614  1.5739  0.3975
 8073SOL     OW35677   2.670   4.351  12.235 -0.2071 -0.5874  0.0488
 8073SOL    HW135678   2.717   4.373  12.155  0.7540  0.9703  1.0332
 8073SOL    HW235679   2.581   4.359  12.200  0.0635 -1.5782 -0.8868
 8074SOL     OW35680   0.523   3.662   7.337  0.0020  0.0890 -0.7222
 8074SOL    HW135681   0.590   3.679   7.404 -0.4091 -2.5287  0.3486
 8074SOL    HW235682   0.485   3.581   7.370  1.4264 -0.4632 -0.4166
 8075SOL     OW35683   0.813   4.696  15.870  0.2951  0.4758 -0.4184
 8075SOL    HW135684   0.834   0.061  15.890 -0.3966  0.5483 -0.0253
 8075SOL    HW235685   0.725   4.700  15.908 -0.0498 -0.2081 -1.1482
 8076SOL     OW35686   0.852   2.372   9.002  0.4950 -0.1568 -0.4527
 8076SOL    HW135687   0.788   2.357   8.932 -0.1954  3.3351 -0.5655
 8076SOL    HW235688   0.909   2.297   8.984  2.4808  1.8868 -2.7420
 8077SOL     OW35689   0.151   1.419   0.614 -0.2431  0.3849 -0.2232
 8077SOL    HW135690   0.159   1.344   0.555  0.8130  0.2871  0.0475
 8077SOL    HW235691   0.243   1.424   0.639  0.5096  0.1249 -2.9133
 8078SOL     OW35692   4.401   2.290  13.038 -0.0345 -0.4307  0.4318
 8078SOL    HW135693   4.428   2.232  13.110 -2.3391 -2.1806 -0.1189
 8078SOL    HW235694   4.309   2.299  13.061  0.1019 -2.4671  1.8563
 8079SOL     OW35695   2.392   3.091  15.430 -0.0881 -0.2692 -0.4081
 8079SOL    HW135696   2.303   3.077  15.397 -0.2118  1.1610 -0.6947
 8079SOL    HW235697   2.433   3.013  15.391  3.0160  0.8702  0.5553
 8080SOL     OW35698   2.823   2.981   3.449  0.6030 -0.1109  0.2518
 8080SOL    HW135699   2.851   3.069   3.473  0.3018 -0.5048  1.9713
 8080SOL    HW235700   2.872   2.967   3.367  3.3560  0.6648  1.7793
 8081SOL     OW35701   2.130   0.864   2.494  0.0912  0.3579  0.1514
 8081SOL    HW135702   2.166   0.896   2.411 -1.0292  0.7993 -0.1722
 8081SOL    HW235703   2.086   0.784   2.465  1.2332  0.3286 -1.5149
 8082SOL     OW35704   2.770   1.252  11.616 -0.1478 -0.7063 -0.3989
 8082SOL    HW135705   2.738   1.232  11.528 -0.8825  1.8403 -0.7096
 8082SOL    HW235706   2.714   1.200  11.674  1.8658 -0.4290  1.7973
 8083SOL     OW35707   2.272   1.745   5.137 -0.3092  0.3180  0.1950
 8083SOL    HW135708   2.351   1.695   5.160 -1.2226 -0.6211  1.2691
 8083SOL    HW235709   2.274   1.744   5.041  3.3895  0.4040  0.2452
 8084SOL     OW35710   2.425   3.474   5.846 -0.3076 -0.4714  0.3394
 8084SOL    HW135711   2.378   3.514   5.773 -0.5355 -0.3375  0.5595
 8084SOL    HW235712   2.451   3.393   5.801 -0.1407  0.1552 -0.6851
 8085SOL     OW35713   1.538   0.339   8.360  0.5251 -0.1035  0.9603
 8085SOL    HW135714   1.468   0.278   8.383 -0.9769  0.6333 -1.6774
 8085SOL    HW235715   1.612   0.303   8.408  2.2263 -0.6018 -2.0108
 8086SOL     OW35716   2.867   0.820  10.972 -0.0676 -0.6507 -0.6555
 8086SOL    HW135717   2.915   0.773  11.040 -0.8103 -3.2059 -1.8873
 8086SOL    HW235718   2.928   0.813  10.898  0.4943  0.7036 -0.3223
 8087SOL     OW35719   3.862   1.768  12.686 -0.0540  0.4671 -0.7130
 8087SOL    HW135720   3.835   1.837  12.626 -0.2107  2.0834  1.2012
 8087SOL    HW235721   3.782   1.746  12.734  0.5143  1.4715  0.7110
 8088SOL     OW35722   4.060   2.574  10.098  0.6782 -0.1882 -0.0086
 8088SOL    HW135723   3.977   2.618  10.080  1.3062  0.5782 -1.0002
 8088SOL    HW235724   4.073   2.514  10.025  0.9046  0.2742 -0.3450
 8089SOL     OW35725   1.514   0.337   7.389 -0.3095  0.2170  0.1477
 8089SOL    HW135726   1.537   0.319   7.480 -1.4152  2.4351  0.8786
 8089SOL    HW235727   1.528   0.248   7.357 -1.1644  0.5196 -1.0788
 8090SOL     OW35728   0.716   0.533   4.362 -0.0416 -0.0362 -0.5847
 8090SOL    HW135729   0.682   0.619   4.387 -0.6762  0.3711 -2.8951
 8090SOL    HW235730   0.732   0.550   4.269 -0.9521 -0.9624 -0.9103
 8091SOL     OW35731   2.115   1.980   7.692  0.0541  0.0123  0.2871
 8091SOL    HW135732   2.160   1.895   7.695 -0.2368 -0.1851 -0.9001
 8091SOL    HW235733   2.058   1.961   7.617 -0.9006 -0.7856  1.2065
 8092SOL     OW35734   2.544   0.893   8.878  0.3683  0.2946  0.3785
 8092SOL    HW135735   2.463   0.904   8.829  0.8288 -0.9804 -0.6524
 8092SOL    HW235736   2.555   0.798   8.878 -0.5622  0.1927 -1.2978
 8093SOL     OW35737   2.763   0.724   5.049 -0.0615  0.3108  0.1342
 8093SOL    HW135738   2.832   0.671   5.091  0.9686  1.5871  0.0671
 8093SOL    HW235739   2.710   0.735   5.128 -2.1885  1.5797 -1.4874
 8094SOL     OW35740   4.149   3.559   8.964 -0.1566 -0.3117 -0.5695
 8094SOL    HW135741   4.086   3.582   8.896 -0.9897  1.0461  0.6413
 8094SOL    HW235742   4.109   3.480   9.001  0.6586 -0.9254 -1.0094
 8095SOL     OW35743   2.436   4.397  12.108  0.7156  0.8541 -0.6417
 8095SOL    HW135744   2.432   4.491  12.123 -2.1795  1.3637 -4.7748
 8095SOL    HW235745   2.353   4.377  12.065  0.6396  0.9307 -0.5307
 8096SOL     OW35746   0.630   0.816  11.438 -0.1991 -0.5072 -0.2384
 8096SOL    HW135747   0.664   0.821  11.527 -0.6108 -3.8599  0.1140
 8096SOL    HW235748   0.668   0.729  11.425 -0.9756 -0.5772 -2.0875
 8097SOL     OW35749   3.162   0.689   5.621  0.6148  0.1181  0.3817
 8097SOL    HW135750   3.102   0.624   5.585  0.3771  0.2424  0.5522
 8097SOL    HW235751   3.117   0.720   5.700  2.9673  1.5604  1.1393
 8098SOL     OW35752   3.389   1.831  10.313 -0.0115 -0.5132 -0.3152
 8098SOL    HW135753   3.337   1.751  10.318 -2.2476  0.8635 -1.3772
 8098SOL    HW235754   3.480   1.800  10.316  0.2422  0.2508 -0.2330
 8099SOL     OW35755   0.267   1.898   3.106  0.1993 -0.0321 -0.0164
 8099SOL    HW135756   0.323   1.975   3.108  0.9062 -0.5620  0.5877
 8099SOL    HW235757   0.283   1.870   3.016  1.6642 -1.1967  0.6022
 8100SOL     OW35758   1.907   0.340  11.486  0.2106 -0.2085  0.1753
 8100SOL    HW135759   1.915   0.346  11.582  1.6757 -0.8860  0.0821
 8100SOL    HW235760   2.001   0.329  11.471  0.3280 -1.3238  1.7152
 8101SOL     OW35761   3.924   4.526   4.163  0.4082  0.3911  0.2761
 8101SOL    HW135762   3.916   4.472   4.242 -0.9516 -2.4910 -1.8309
 8101SOL    HW235763   3.834   4.556   4.155  0.2816  0.0590  0.4148
 8102SOL     OW35764   4.565   0.349  14.712  0.4685  0.0913 -0.6981
 8102SOL    HW135765   4.633   0.407  14.746 -0.8219  1.7507 -0.9108
 8102SOL    HW235766   4.629   0.278  14.706 -1.1083 -1.3167 -0.8692
 8103SOL     OW35767   0.950   0.482   7.714 -0.1992  0.6320 -0.1742
 8103SOL    HW135768   1.040   0.498   7.741  0.2141 -1.5122 -0.2297
 8103SOL    HW235769   0.971   0.474   7.621 -1.7139 -3.3404 -0.2107
 8104SOL     OW35770   1.963   2.253  13.358  0.5091  0.5179 -0.6039
 8104SOL    HW135771   2.051   2.279  13.387 -0.8658  0.6136  3.5111
 8104SOL    HW235772   1.911   2.295  13.427 -0.0164  0.5874 -1.0435
 8105SOL     OW35773   4.543   2.329   5.785  0.2439 -0.2865  0.3751
 8105SOL    HW135774   4.572   2.271   5.715  0.8597  0.5431 -0.0663
 8105SOL    HW235775   4.601   2.298   5.855 -1.3509  0.6648  2.1158
 8106SOL     OW35776   3.587   2.538  14.412 -0.2222 -0.4814  0.0456
 8106SOL    HW135777   3.610   2.520  14.503  0.2174 -1.1210 -0.1875
 8106SOL    HW235778   3.496   2.559  14.429 -0.6241 -0.0591 -2.6063
 8107SOL     OW35779   2.371   0.782   8.166 -0.7616  0.4745  0.5756
 8107SOL    HW135780   2.296   0.815   8.115 -0.0756 -0.2701 -0.8921
 8107SOL    HW235781   2.335   0.701   8.202 -1.6744  0.8721  0.5633
 8108SOL     OW35782   0.853   2.850   2.291  0.4691  0.3936  0.2925
 8108SOL    HW135783   0.935   2.837   2.242  0.4397  0.7601  0.1439
 8108SOL    HW235784   0.876   2.844   2.384 -1.0332 -1.3012  0.5290
 8109SOL     OW35785   1.621   2.058   0.100  0.3540 -0.1461 -0.2664
 8109SOL    HW135786   1.670   2.140   0.091  1.2698 -0.6827 -0.1747
 8109SOL    HW235787   1.662   1.999   0.036 -1.0014 -0.2820 -1.0172
 8110SOL     OW35788   1.244   1.831  10.534 -0.1125 -0.2584 -0.0587
 8110SOL    HW135789   1.329   1.834  10.580  1.2335  2.6249 -2.7046
 8110SOL    HW235790   1.175   1.861  10.593  0.9858  2.7049 -0.2788
 8111SOL     OW35791   0.951   2.125   2.832  0.2973  0.0855 -0.1108
 8111SOL    HW135792   0.997   2.144   2.750 -1.6171  0.9382 -0.9798
 8111SOL    HW235793   0.861   2.148   2.811 -1.0297 -2.0684  3.2069
 8112SOL     OW35794   0.860   0.262   3.582 -0.5513  0.0579 -0.0410
 8112SOL    HW135795   0.860   0.339   3.638  1.4308  0.2884 -0.3594
 8112SOL    HW235796   0.934   0.292   3.528  0.1457 -0.5463  0.5878
 8113SOL     OW35797   4.538   2.689  12.484 -0.0528  0.8879  0.5599
 8113SOL    HW135798   4.471   2.685  12.415  2.3740 -0.2850 -1.6938
 8113SOL    HW235799   4.517   2.777  12.516 -2.2822  0.5598  0.0588
 8114SOL     OW35800   3.819   1.253   7.028  0.5044 -0.0358 -0.0845
 8114SOL    HW135801   3.835   1.159   7.038 -1.1225 -0.4959 -1.7603
 8114SOL    HW235802   3.891   1.278   6.970  0.2032  2.1340  0.4888
 8115SOL     OW35803   2.863   1.597  12.667 -1.0145 -0.0896 -0.4486
 8115SOL    HW135804   2.772   1.583  12.690 -0.6460 -0.8038  0.5818
 8115SOL    HW235805   2.884   1.505  12.651 -0.6039  0.1516 -1.2990
 8116SOL     OW35806   2.258   1.939   9.580  0.1070 -0.1084 -0.0400
 8116SOL    HW135807   2.228   1.979   9.662 -2.6882 -0.2268 -1.0010
 8116SOL    HW235808   2.348   1.972   9.578 -0.3511  1.0532 -1.4948
 8117SOL     OW35809   4.545   3.709  15.284  0.3976 -0.3573  0.5554
 8117SOL    HW135810   4.605   3.640  15.256  0.6744  0.2379 -0.3337
 8117SOL    HW235811   4.593   3.792  15.282  0.9671 -0.7821 -2.7361
 8118SOL     OW35812   3.226   3.408  16.205 -0.5185  0.6394 -0.2722
 8118SOL    HW135813   3.236   3.315  16.184  0.9437  0.1493  2.6470
 8118SOL    HW235814   3.318   3.433  16.212 -0.4392  0.3537 -0.3079
 8119SOL     OW35815   3.848   2.702   4.271 -0.5217 -0.4370 -0.0133
 8119SOL    HW135816   3.844   2.791   4.236  0.5983  0.3179  1.7800
 8119SOL    HW235817   3.754   2.683   4.276 -0.3754 -1.8142 -2.6270
 8120SOL     OW35818   0.638   1.042   6.746  0.0996 -0.5875 -0.3618
 8120SOL    HW135819   0.698   1.110   6.715 -2.3531  1.5724 -0.3742
 8120SOL    HW235820   0.608   1.004   6.663  0.6472  0.1493 -0.8999
 8121SOL     OW35821   4.715   3.130   7.373  0.1777 -0.2263  0.4616
 8121SOL    HW135822   4.659   3.067   7.419  1.2098 -1.9876 -0.7376
 8121SOL    HW235823   4.673   3.211   7.403  1.2053 -0.8491  3.6779
 8122SOL     OW35824   0.524   2.418   3.785 -0.0185 -0.0396  0.2595
 8122SOL    HW135825   0.497   2.502   3.822  1.6932  0.5301  0.2111
 8122SOL    HW235826   0.532   2.371   3.868 -3.0022  0.7956  1.0171
 8123SOL     OW35827   0.133   4.249   8.831  0.2102  0.2340 -0.1701
 8123SOL    HW135828   0.129   4.193   8.908  5.8975 -1.2443 -0.9596
 8123SOL    HW235829   0.054   4.301   8.847 -1.6058 -2.5926  0.0617
 8124SOL     OW35830   2.890   1.638   4.238  0.2058 -0.3591  0.2698
 8124SOL    HW135831   2.803   1.630   4.198  1.1637 -2.3132 -1.4670
 8124SOL    HW235832   2.879   1.557   4.288 -0.4360  1.6885  3.4178
 8125SOL     OW35833   3.002   1.775   2.721 -0.4875  0.2580  0.0168
 8125SOL    HW135834   3.040   1.692   2.751 -0.4298  0.5903  0.8514
 8125SOL    HW235835   3.061   1.799   2.649 -0.7699 -0.6680 -0.5328
 8126SOL     OW35836   0.105   4.022  11.418  0.2026  0.3533  0.6472
 8126SOL    HW135837   0.053   4.002  11.496 -1.8883 -1.8203 -1.2779
 8126SOL    HW235838   0.182   4.063  11.457 -0.6384  2.8892 -0.3662
 8127SOL     OW35839   2.696   1.040  17.079  0.5496  0.4408 -0.5086
 8127SOL    HW135840   2.678   1.117  17.024 -1.7912 -1.1381 -1.9450
 8127SOL    HW235841   2.747   0.992  17.014  1.1554  1.3779 -0.7398
 8128SOL     OW35842   2.195   0.746   4.663  0.0803 -0.4620 -0.1068
 8128SOL    HW135843   2.242   0.735   4.580  1.3900 -2.8282  0.9672
 8128SOL    HW235844   2.135   0.672   4.664  1.6015 -1.6658  1.0762
 8129SOL     OW35845   0.261   4.332   1.377  0.1084  0.0763 -0.4048
 8129SOL    HW135846   0.329   4.296   1.321 -1.6118 -1.2741 -1.6531
 8129SOL    HW235847   0.277   4.423   1.352 -2.7227  1.1450  1.6044
 8130SOL     OW35848   1.560   2.493   1.718  0.3887  0.0561  0.0453
 8130SOL    HW135849   1.522   2.426   1.662 -0.1560  0.3682  0.0460
 8130SOL    HW235850   1.596   2.432   1.783 -3.7931 -2.2938  0.1068
 8131SOL     OW35851   0.311   0.712  14.922 -0.1477  0.5204  0.1236
 8131SOL    HW135852   0.393   0.667  14.942  0.2275  1.3963  0.5413
 8131SOL    HW235853   0.300   0.766  15.000 -2.7049  2.5977 -1.6905
 8132SOL     OW35854   1.855   3.731   7.996  0.1063  0.1188 -0.7879
 8132SOL    HW135855   1.910   3.739   7.918  0.8232  0.3077 -0.2698
 8132SOL    HW235856   1.774   3.754   7.951  0.1883  0.6990 -0.6485
 8133SOL     OW35857   4.205   4.083   2.958  0.2001 -0.7508 -0.3315
 8133SOL    HW135858   4.292   4.045   2.946  1.5327  2.2484 -0.3787
 8133SOL    HW235859   4.160   4.040   2.885  0.0725  0.5931 -1.0449
 8134SOL     OW35860   1.098   2.512   4.138  0.3890 -0.2935 -0.0285
 8134SOL    HW135861   1.050   2.582   4.183  0.7196  2.0151 -3.2686
 8134SOL    HW235862   1.077   2.538   4.048  0.3675 -0.6485 -0.1246
 8135SOL     OW35863   0.709   2.119   7.042  0.2081  0.5310  0.3416
 8135SOL    HW135864   0.767   2.069   7.098  0.9557 -0.1225 -1.0378
 8135SOL    HW235865   0.715   2.071   6.960 -0.0865  1.1891 -0.0738
 8136SOL     OW35866   2.198   3.925   6.124 -0.0390  0.0771  0.3118
 8136SOL    HW135867   2.208   3.917   6.029 -0.5913  0.7416  0.1946
 8136SOL    HW235868   2.142   3.851   6.148 -1.2941  0.6107 -1.0026
 8137SOL     OW35869   3.814   0.557   4.942  0.2932 -0.3534  0.4294
 8137SOL    HW135870   3.778   0.553   5.031  0.0486 -0.9261  0.3007
 8137SOL    HW235871   3.859   0.641   4.954  0.9077 -0.8903  1.8344
 8138SOL     OW35872   0.573   4.064   6.464  0.3782  0.2182  0.3504
 8138SOL    HW135873   0.561   3.976   6.429 -1.9371  2.0042 -3.3563
 8138SOL    HW235874   0.523   4.119   6.404  2.3671  0.9552 -0.6131
 8139SOL     OW35875   1.245   0.543   2.202  0.2344  0.2198 -0.2567
 8139SOL    HW135876   1.287   0.623   2.233  1.0311 -0.6181  0.8438
 8139SOL    HW235877   1.230   0.552   2.108 -3.6137 -1.7057  0.1549
 8140SOL     OW35878   2.138   3.910   4.867  0.3499  0.6369  0.1881
 8140SOL    HW135879   2.218   3.914   4.919  0.7485 -0.1842 -0.3588
 8140SOL    HW235880   2.086   3.980   4.906  0.3022  0.8699 -0.2847
 8141SOL     OW35881   0.240   3.979   6.436 -0.1052  0.4160 -0.4942
 8141SOL    HW135882   0.179   3.908   6.450 -0.2805  0.3477 -1.5711
 8141SOL    HW235883   0.210   4.001   6.347 -0.6439  0.9738 -0.1746
 8142SOL     OW35884   2.394   3.710   3.741 -0.0034  0.2766 -0.3090
 8142SOL    HW135885   2.309   3.735   3.776  0.8760  0.6955  1.5219
 8142SOL    HW235886   2.429   3.797   3.720  0.4724 -0.2603 -1.7827
 8143SOL     OW35887   0.258   2.984  16.930 -0.0618 -0.3995 -0.1118
 8143SOL    HW135888   0.291   3.038  17.002 -1.4970  2.1479 -1.3604
 8143SOL    HW235889   0.241   2.905  16.981 -1.2209 -0.0724  0.0227
 8144SOL     OW35890   3.916   2.689  11.610 -0.0931 -0.2934 -0.5551
 8144SOL    HW135891   3.883   2.659  11.695  0.7474 -3.4200 -1.3393
 8144SOL    HW235892   3.867   2.638  11.545  0.2529 -0.6240 -0.5553
 8145SOL     OW35893   0.860   4.181   7.506  0.0703  0.4937 -0.1641
 8145SOL    HW135894   0.778   4.150   7.545  0.0731 -0.4850 -0.9168
 8145SOL    HW235895   0.908   4.202   7.587 -0.1578 -0.3723  0.1989
 8146SOL     OW35896   0.131   1.538   4.123  0.2074  0.6054 -0.0262
 8146SOL    HW135897   0.178   1.555   4.205 -0.6438  0.0499  0.5690
 8146SOL    HW235898   0.141   1.444   4.108 -1.0263  0.0444  2.6915
 8147SOL     OW35899   3.923   0.882   6.260 -0.2844  0.3267  0.2630
 8147SOL    HW135900   3.946   0.871   6.168  1.2077 -0.8115  0.7802
 8147SOL    HW235901   4.008   0.862   6.299  0.6987  1.6148 -1.1772
 8148SOL     OW35902   0.003   3.432  11.416 -0.2067 -0.0835  0.3390
 8148SOL    HW135903   0.094   3.451  11.438  0.6816 -2.5873 -1.2303
 8148SOL    HW235904   0.008   3.439  11.321 -2.6503  0.2465  0.2385
 8149SOL     OW35905   3.649   0.886   1.821  0.1139 -0.3170  0.7343
 8149SOL    HW135906   3.607   0.971   1.805  0.1738 -0.4960 -0.4168
 8149SOL    HW235907   3.590   0.836   1.877  0.0327  0.3520  1.2371
 8150SOL     OW35908   3.494   2.998   0.488 -0.0036 -0.2273  0.0822
 8150SOL    HW135909   3.440   3.046   0.550  0.3456 -1.0791  1.0375
 8150SOL    HW235910   3.441   3.014   0.410  0.8684 -1.2697 -0.7273
 8151SOL     OW35911   0.329   0.222   5.819 -0.5396  0.2294 -0.0799
 8151SOL    HW135912   0.344   0.146   5.875 -2.8907  0.1797  0.4866
 8151SOL    HW235913   0.374   0.192   5.741 -0.3744 -1.8955  0.8420
 8152SOL     OW35914   3.314   0.138   2.808  0.1131 -0.1931 -0.3435
 8152SOL    HW135915   3.304   0.103   2.897  1.8467  0.9941  0.3222
 8152SOL    HW235916   3.234   0.187   2.793  0.5947  0.3161 -1.2512
 8153SOL     OW35917   1.752   3.534   6.286 -0.3103 -0.2379 -0.3496
 8153SOL    HW135918   1.738   3.628   6.292 -3.4880 -0.5968 -2.3729
 8153SOL    HW235919   1.695   3.509   6.359  1.6716 -0.6634  1.0407
 8154SOL     OW35920   0.264   4.693   3.284  0.0205 -0.1248  0.3020
 8154SOL    HW135921   0.187   4.713   3.338 -0.9146 -1.0856 -0.7059
 8154SOL    HW235922   0.309   0.051   3.297 -0.3419  0.1976 -0.5380
 8155SOL     OW35923   3.844   4.117   4.911 -0.4843  0.4623 -0.3156
 8155SOL    HW135924   3.918   4.157   4.956 -1.5059  0.6192  1.2019
 8155SOL    HW235925   3.863   4.156   4.825  3.0131 -2.3478 -0.8288
 8156SOL     OW35926   4.165   2.561   6.784  0.0033  0.1883  0.4332
 8156SOL    HW135927   4.157   2.638   6.726  0.0272 -1.0964 -1.2684
 8156SOL    HW235928   4.090   2.514   6.747  0.4510 -0.3995  0.2859
 8157SOL     OW35929   2.659   1.569   0.447 -0.1988  0.3807  0.3130
 8157SOL    HW135930   2.665   1.474   0.453 -1.4048  0.2852  0.0146
 8157SOL    HW235931   2.731   1.584   0.509  0.7525 -0.7747 -0.5360
 8158SOL     OW35932   0.883   2.419   6.435 -0.3271  0.2237  0.0998
 8158SOL    HW135933   0.963   2.389   6.391 -1.1945 -1.2601 -0.4565
 8158SOL    HW235934   0.903   2.512   6.432  1.5751 -0.2456 -1.6300
 8159SOL     OW35935   2.764   1.588   9.765  0.6520  0.2610  0.1571
 8159SOL    HW135936   2.711   1.564   9.841 -0.2013 -1.6602 -1.0648
 8159SOL    HW235937   2.757   1.684   9.762 -0.2809  0.1226 -1.5620
 8160SOL     OW35938   4.431   0.742   8.500 -0.3011  0.3555 -0.3892
 8160SOL    HW135939   4.423   0.690   8.581 -1.6165 -0.7879 -1.2501
 8160SOL    HW235940   4.350   0.727   8.452 -1.0380 -1.1603  1.3109
 8161SOL     OW35941   4.072   0.261   1.307  0.6258 -0.2608  0.1814
 8161SOL    HW135942   4.085   0.233   1.217  2.4120  1.7344 -0.1796
 8161SOL    HW235943   4.069   0.357   1.306  1.3242 -0.2390  0.0946
 8162SOL     OW35944   2.218   1.556   4.288  0.4863 -0.3732 -0.5141
 8162SOL    HW135945   2.131   1.524   4.311  0.9257  0.5471  2.3686
 8162SOL    HW235946   2.214   1.556   4.192  2.2078  0.5865 -0.5895
 8163SOL     OW35947   1.912   3.291  10.118 -0.6845  0.0927 -0.2372
 8163SOL    HW135948   2.004   3.303  10.144 -1.1599 -1.1662  2.0249
 8163SOL    HW235949   1.907   3.198  10.099 -2.4379  0.0525  0.4713
 8164SOL     OW35950   3.958   3.671   3.675 -0.1350  0.7295 -0.1438
 8164SOL    HW135951   3.919   3.677   3.587 -0.8594  1.3798  0.2210
 8164SOL    HW235952   4.037   3.618   3.665 -0.3321  0.1028  1.6781
 8165SOL     OW35953   4.263   0.672  14.423 -0.6242  0.3013  0.1241
 8165SOL    HW135954   4.229   0.708  14.505 -4.0942  0.5034 -1.4331
 8165SOL    HW235955   4.313   0.600  14.463 -0.1204  0.2087 -0.6835
 8166SOL     OW35956   4.493   1.804   3.379  0.2042 -0.1114  0.0442
 8166SOL    HW135957   4.418   1.852   3.414 -0.4780 -2.0030  1.2086
 8166SOL    HW235958   4.569   1.846   3.419  0.7036 -0.4748 -0.5105
 8167SOL     OW35959   2.272   4.209   9.014 -0.3066  0.2589  0.5729
 8167SOL    HW135960   2.307   4.282   9.064 -0.7757 -1.1387  2.9476
 8167SOL    HW235961   2.305   4.137   9.067  0.5171 -1.3326 -2.0850
 8168SOL     OW35962   1.752   0.876  14.551  0.4108  0.4147 -0.4824
 8168SOL    HW135963   1.665   0.915  14.544  0.9014  1.7006  0.6564
 8168SOL    HW235964   1.754   0.864  14.646 -0.3952 -3.5019 -0.9495
 8169SOL     OW35965   1.087   0.330  16.930  0.0589  0.0751 -0.3389
 8169SOL    HW135966   1.075   0.235  16.933  1.7067 -0.1023  0.4953
 8169SOL    HW235967   1.004   0.359  16.968 -0.0137 -2.6498  1.6302
 8170SOL     OW35968   2.173   2.588   6.154  0.5280  0.2484 -0.3509
 8170SOL    HW135969   2.161   2.555   6.243  1.1627  1.6884  0.2719
 8170SOL    HW235970   2.108   2.532   6.111  0.4114  0.2244 -0.1459
 8171SOL     OW35971   3.602   4.144   1.181 -0.7700  0.2197 -0.2727
 8171SOL    HW135972   3.675   4.118   1.237 -0.2261  0.7087 -0.7693
 8171SOL    HW235973   3.523   4.126   1.233  0.0028 -3.4402 -0.3633
 8172SOL     OW35974   2.629   0.315  16.683 -0.1550  0.5491 -0.0130
 8172SOL    HW135975   2.636   0.314  16.778  1.5426  2.4543 -0.1235
 8172SOL    HW235976   2.694   0.375  16.647  2.0780 -0.7821  1.8201
 8173SOL     OW35977   4.583   3.515   1.680 -0.8606  0.1141 -0.4317
 8173SOL    HW135978   4.667   3.487   1.644  0.6378  2.3567  1.3104
 8173SOL    HW235979   4.569   3.598   1.635  1.8379  1.4222  1.1830
 8174SOL     OW35980   1.563   2.658   2.504  0.5482 -0.2288 -0.8680
 8174SOL    HW135981   1.514   2.735   2.531  0.0246 -0.1207 -2.1313
 8174SOL    HW235982   1.622   2.651   2.580 -0.6605  0.1462  0.0965
 8175SOL     OW35983   0.865   0.758   9.011  0.1621 -0.4244  0.2938
 8175SOL    HW135984   0.915   0.818   9.066  0.7591 -2.4515  1.9781
 8175SOL    HW235985   0.801   0.721   9.072  0.2435  0.5048  0.9458
 8176SOL     OW35986   0.254   3.836   2.968  0.1375 -0.1791  0.5374
 8176SOL    HW135987   0.285   3.815   2.880 -1.0370 -2.2231  0.6029
 8176SOL    HW235988   0.325   3.897   2.986  0.6026 -1.6131  3.5596
 8177SOL     OW35989   2.709   1.917   7.721  0.1847  0.4849 -0.3019
 8177SOL    HW135990   2.721   1.956   7.807 -1.9190 -1.0297  0.6711
 8177SOL    HW235991   2.704   1.824   7.740 -0.4653  0.6412  0.2965
 8178SOL     OW35992   3.246   3.732  14.062 -0.0969 -0.3609  0.1373
 8178SOL    HW135993   3.298   3.812  14.056  0.3134 -0.5745  0.8498
 8178SOL    HW235994   3.203   3.742  14.147  0.7528 -0.4952  0.5763
 8179SOL     OW35995   2.614   2.119   6.742  0.9160  0.1288  0.1482
 8179SOL    HW135996   2.553   2.158   6.680 -0.3314  1.6969  2.3910
 8179SOL    HW235997   2.584   2.171   6.816 -3.6085 -1.6575 -0.4223
 8180SOL     OW35998   1.250   2.536  15.694  0.0375  0.1314 -0.1903
 8180SOL    HW135999   1.321   2.485  15.654  0.4365 -0.2726  1.0195
 8180SOL    HW236000   1.306   2.603  15.733  1.4143 -0.7599 -0.6391
 8181SOL     OW36001   0.510   0.138   0.318  0.6762 -0.5557  0.1133
 8181SOL    HW136002   0.441   0.072   0.306  0.0024  0.2357 -0.3460
 8181SOL    HW236003   0.584   0.078   0.305  0.5167 -0.3745 -1.5831
 8182SOL     OW36004   2.583   1.483   3.138  0.4365 -0.2596 -0.2628
 8182SOL    HW136005   2.664   1.532   3.152 -0.5282  1.0990  0.5607
 8182SOL    HW236006   2.632   1.413   3.095  1.1759  0.6616 -0.9523
 8183SOL     OW36007   1.264   3.884   3.318 -0.4326  0.1981  0.1460
 8183SOL    HW136008   1.209   3.957   3.289 -2.0661 -1.3991 -0.7388
 8183SOL    HW236009   1.345   3.928   3.292 -1.3121 -0.3716 -3.6890
 8184SOL     OW36010   3.870   4.433   6.207 -0.0546 -0.3761  0.0772
 8184SOL    HW136011   3.938   4.373   6.236  1.2519  0.5210 -1.1143
 8184SOL    HW236012   3.871   4.499   6.276  2.1021  0.3707 -0.6652
 8185SOL     OW36013   3.363   4.664  14.803  0.1946  0.1019  0.4607
 8185SOL    HW136014   3.374   4.571  14.822  1.8528  0.7730  2.6674
 8185SOL    HW236015   3.443   4.696  14.843  0.8390  0.1246 -0.8419
 8186SOL     OW36016   2.501   3.748   7.391 -0.1996  0.3362  1.0390
 8186SOL    HW136017   2.533   3.665   7.355  3.1746  3.0043 -2.1230
 8186SOL    HW236018   2.421   3.717   7.435 -1.2726 -0.9156 -1.7907
 8187SOL     OW36019   4.690   4.555  17.204 -0.1692 -0.5709 -0.6306
 8187SOL    HW136020   4.613   4.498  17.214  1.2206 -2.3107  0.0827
 8187SOL    HW236021   4.662   4.610  17.130  1.6936  3.3136  1.5856
 8188SOL     OW36022   3.490   3.100   6.507  0.1778 -0.2502  0.3803
 8188SOL    HW136023   3.428   3.048   6.558 -2.6868  1.1531 -1.6789
 8188SOL    HW236024   3.430   3.160   6.463 -0.1840 -0.8458  0.0560
 8189SOL     OW36025   2.332   1.578   8.655  0.0575  0.6988 -0.0681
 8189SOL    HW136026   2.352   1.489   8.623  1.4784  1.2483 -0.7215
 8189SOL    HW236027   2.290   1.561   8.739 -0.2191 -0.1844 -0.3878
 8190SOL     OW36028   1.268   1.775   4.192 -0.2784  0.4525 -0.0813
 8190SOL    HW136029   1.223   1.858   4.207 -1.5842 -0.2474 -0.0952
 8190SOL    HW236030   1.326   1.798   4.120  0.6251  1.3180  0.9301
 8191SOL     OW36031   2.095   1.975   1.932 -0.8376 -0.2484  0.7601
 8191SOL    HW136032   2.090   1.996   1.839  0.2507  1.0704  1.0105
 8191SOL    HW236033   2.116   1.881   1.932  2.8026  0.5778 -0.6808
 8192SOL     OW36034   0.573   1.025   4.863 -1.2849  0.2647 -0.1843
 8192SOL    HW136035   0.656   1.072   4.856 -0.9085 -0.3103  0.4381
 8192SOL    HW236036   0.565   1.008   4.769 -0.2728 -5.4670  0.7584
 8193SOL     OW36037   1.249   3.285  15.210 -0.3254 -0.7041 -0.2334
 8193SOL    HW136038   1.193   3.341  15.156  0.0314 -1.1309 -1.0362
 8193SOL    HW236039   1.183   3.221  15.236  0.7670 -1.3757  0.8646
 8194SOL     OW36040   2.559   1.844   9.703 -0.1290 -0.1535 -0.2231
 8194SOL    HW136041   2.652   1.841   9.724 -0.0696  0.7277 -0.3653
 8194SOL    HW236042   2.542   1.937   9.721 -1.8695 -0.4437 -0.3508
 8195SOL     OW36043   0.991   2.803  12.689  0.5098  0.2249  0.0376
 8195SOL    HW136044   1.071   2.775  12.645  0.5903 -0.0433  0.3583
 8195SOL    HW236045   0.936   2.731  12.660 -0.1545  0.6370  0.2641
 8196SOL     OW36046   3.624   3.872   8.682 -0.4349  0.0763 -0.0393
 8196SOL    HW136047   3.615   3.953   8.632 -0.4573 -0.7363 -1.3705
 8196SOL    HW236048   3.564   3.808   8.643  0.2710 -0.3557 -0.4168
 8197SOL     OW36049   3.056   4.129   8.313 -0.2416 -0.0237  0.4950
 8197SOL    HW136050   2.970   4.124   8.354 -0.1184 -3.8148  0.3011
 8197SOL    HW236051   3.070   4.035   8.307 -0.2826  0.0730 -1.0670
 8198SOL     OW36052   0.359   0.475   2.756  0.2407 -0.5453 -0.9215
 8198SOL    HW136053   0.270   0.498   2.729 -0.1802  0.8915  1.7159
 8198SOL    HW236054   0.408   0.540   2.706 -0.7625  1.0492  0.1392
 8199SOL     OW36055   2.772   3.772  10.244  0.5153 -0.2399  0.4625
 8199SOL    HW136056   2.758   3.705  10.311 -0.5804  0.0750  0.5528
 8199SOL    HW236057   2.769   3.855  10.291 -0.1614  0.5298 -0.9533
 8200SOL     OW36058   2.906   1.958  13.614 -0.6982  0.1925 -0.1942
 8200SOL    HW136059   2.897   1.956  13.519 -2.8987  0.4024  0.0083
 8200SOL    HW236060   2.924   2.052  13.624  0.1662  0.2587 -2.2882
 8201SOL     OW36061   3.779   1.312   5.297  0.1036  0.0413 -0.0764
 8201SOL    HW136062   3.858   1.329   5.245 -0.5524  0.4054 -0.9473
 8201SOL    HW236063   3.782   1.217   5.311 -2.4319  0.5643  3.8033
 8202SOL     OW36064   3.985   0.343   8.515  0.1402 -0.1232  0.2076
 8202SOL    HW136065   3.972   0.277   8.447 -2.9127 -0.8033  1.4301
 8202SOL    HW236066   4.080   0.340   8.518  0.2127  1.2281 -0.7452
 8203SOL     OW36067   3.299   1.924   2.708  0.1017 -0.2133  0.0799
 8203SOL    HW136068   3.250   1.987   2.760 -1.8927 -1.5176 -0.2238
 8203SOL    HW236069   3.311   1.853   2.771 -0.6834 -1.7206 -1.4732
 8204SOL     OW36070   3.182   0.858   7.741  0.0271 -0.0305 -0.6013
 8204SOL    HW136071   3.234   0.819   7.672  2.0178  0.2594  0.7367
 8204SOL    HW236072   3.105   0.802   7.736 -0.8462  1.0373  0.8386
 8205SOL     OW36073   4.492   2.576   5.651 -0.7350  0.2399  0.2611
 8205SOL    HW136074   4.510   2.516   5.724 -1.4594  0.6883  0.8062
 8205SOL    HW236075   4.524   2.657   5.691  0.4045  0.7867 -1.7405
 8206SOL     OW36076   1.255   4.619   5.447  0.0896 -0.1087 -0.5229
 8206SOL    HW136077   1.267   4.668   5.528  0.2597 -0.9634 -0.0244
 8206SOL    HW236078   1.308   4.541   5.464 -0.0519  0.1606  1.1247
 8207SOL     OW36079   4.267   4.302   7.832  0.6675  0.0433  0.9742
 8207SOL    HW136080   4.303   4.243   7.765 -0.8165  0.0144  0.2095
 8207SOL    HW236081   4.231   4.233   7.888  1.0338  0.2375  1.4453
 8208SOL     OW36082   0.294   3.672   6.593 -0.0185  0.6140 -0.0387
 8208SOL    HW136083   0.361   3.676   6.525  0.5674 -0.0549  0.4960
 8208SOL    HW236084   0.325   3.604   6.653 -1.0733  1.1129  1.0535
 8209SOL     OW36085   3.268   1.511   5.678 -0.0504 -0.1134  0.0660
 8209SOL    HW136086   3.362   1.527   5.682 -0.3338  1.2940  1.0880
 8209SOL    HW236087   3.257   1.552   5.592 -1.3404 -1.6529 -0.5066
 8210SOL     OW36088   3.023   4.060  11.738 -0.5283 -0.0068 -0.1875
 8210SOL    HW136089   2.983   4.115  11.671 -0.6039 -0.3506 -0.4223
 8210SOL    HW236090   3.075   4.127  11.782 -3.2348  1.1073  1.2819
 8211SOL     OW36091   2.940   0.466   2.852 -0.3842 -0.7120  0.0902
 8211SOL    HW136092   2.991   0.408   2.794 -1.0350  0.9127 -2.0860
 8211SOL    HW236093   2.851   0.470   2.819 -0.3441 -2.1592 -0.1896
 8212SOL     OW36094   0.544   3.350   4.658  0.2162 -0.3673 -0.0978
 8212SOL    HW136095   0.501   3.268   4.634  0.0744 -0.4619  0.4742
 8212SOL    HW236096   0.579   3.381   4.575 -1.4682 -0.1632 -0.7344
 8213SOL     OW36097   4.386   2.661   3.995  0.1296 -0.1676 -0.2788
 8213SOL    HW136098   4.327   2.600   3.950 -2.1141  0.9269  1.1685
 8213SOL    HW236099   4.328   2.728   4.034 -1.8958 -1.6980 -0.6613
 8214SOL     OW36100   1.408   1.657   7.864 -0.3798 -0.6731 -0.0658
 8214SOL    HW136101   1.493   1.642   7.907  0.1609 -2.0860 -1.6284
 8214SOL    HW236102   1.425   1.734   7.811 -1.1463  1.0282  2.1502
 8215SOL     OW36103   1.558   4.574   0.129  0.2736  0.2472  0.5250
 8215SOL    HW136104   1.580   4.645   0.069  0.7547  2.1804  3.0189
 8215SOL    HW236105   1.586   4.498   0.077  0.0916  0.7637 -0.3356
 8216SOL     OW36106   2.518   2.852  15.353 -0.3833 -0.1614 -0.6964
 8216SOL    HW136107   2.443   2.793  15.358  2.6765 -4.1698 -1.7724
 8216SOL    HW236108   2.506   2.873  15.261  1.5224  1.5598 -0.5472
 8217SOL     OW36109   2.792   0.125  17.307 -0.2574 -0.2597  0.0855
 8217SOL    HW136110   2.736   0.115  17.229 -0.8282  0.3350  0.4229
 8217SOL    HW236111   2.751   0.058  17.361 -2.0948  0.5988 -0.2522
 8218SOL     OW36112   0.058   0.219   6.504 -0.0062  0.0240  0.9623
 8218SOL    HW136113   0.018   0.140   6.540  1.0382 -0.1438  1.7221
 8218SOL    HW236114   0.139   0.232   6.552  0.0430  0.9737  0.6229
 8219SOL     OW36115   3.161   3.075   6.445  0.1787 -0.1624  0.3185
 8219SOL    HW136116   3.190   3.139   6.380  0.4828  1.3256  1.9083
 8219SOL    HW236117   3.067   3.093   6.451 -0.0413 -1.7003  1.5138
 8220SOL     OW36118   2.771   3.206   1.748 -0.1926  0.3058 -0.4259
 8220SOL    HW136119   2.808   3.221   1.835 -1.2661 -1.0929  0.2740
 8220SOL    HW236120   2.686   3.250   1.754 -0.9178 -1.1455 -0.0098
 8221SOL     OW36121   0.989   4.397   8.481  0.2606  0.0417 -0.0811
 8221SOL    HW136122   0.971   4.464   8.416  2.6574  0.7659  0.0158
 8221SOL    HW236123   0.900   4.366   8.499  0.1638 -0.5808 -1.6474
 8222SOL     OW36124   0.085   3.019  17.341  0.2608 -0.2412  0.7113
 8222SOL    HW136125   0.163   3.072  17.357 -0.8775  1.7516 -0.3247
 8222SOL    HW236126   0.014   3.083  17.351  0.0851  0.0319 -2.0602
 8223SOL     OW36127   0.512   3.720  11.531  0.6306  0.1653  0.4971
 8223SOL    HW136128   0.493   3.781  11.602  1.9853  0.1054  0.9145
 8223SOL    HW236129   0.576   3.663  11.576 -0.1261  0.0712  1.4554
 8224SOL     OW36130   4.413   3.664   5.595  0.0022  0.0287 -0.6119
 8224SOL    HW136131   4.350   3.702   5.657 -1.9796  0.3836 -2.8665
 8224SOL    HW236132   4.439   3.746   5.554 -0.6043  0.4128 -0.2241
 8225SOL     OW36133   3.734   2.940  11.254  0.2132 -0.4259 -0.3490
 8225SOL    HW136134   3.683   2.910  11.178 -0.7059 -1.0950  0.5293
 8225SOL    HW236135   3.763   3.025  11.223  0.6588 -1.0151 -1.5637
 8226SOL     OW36136   3.516   2.932   5.706  0.5088 -0.0070 -0.3839
 8226SOL    HW136137   3.534   2.986   5.783  0.0089  2.8051 -2.2818
 8226SOL    HW236138   3.596   2.879   5.712  0.3019 -0.3839 -0.9053
 8227SOL     OW36139   2.418   2.990   8.908 -0.0877  0.2611 -0.1448
 8227SOL    HW136140   2.498   3.020   8.864  0.1944  0.0561  0.2305
 8227SOL    HW236141   2.395   3.071   8.954  2.0591  0.9533 -0.2757
 8228SOL     OW36142   0.587   2.779   6.666  0.4547  0.4528 -0.1182
 8228SOL    HW136143   0.499   2.809   6.688 -0.8576 -0.9115 -3.5644
 8228SOL    HW236144   0.626   2.866   6.674  0.1999  0.5322  0.2886
 8229SOL     OW36145   2.759   1.094   9.751  0.1035 -0.5541 -0.3050
 8229SOL    HW136146   2.744   1.181   9.714 -0.1934 -0.3346  0.3264
 8229SOL    HW236147   2.753   1.037   9.675 -1.6177 -1.5425  0.5688
 8230SOL     OW36148   3.381   1.611   9.488 -0.4065 -0.2278 -0.2238
 8230SOL    HW136149   3.428   1.694   9.481  2.1141 -1.7545 -1.1450
 8230SOL    HW236150   3.378   1.600   9.583 -0.6588 -0.7267 -0.2868
 8231SOL     OW36151   1.785   0.460   2.867 -0.1822  0.1114 -0.4573
 8231SOL    HW136152   1.716   0.525   2.885  1.5591  1.9363 -0.3281
 8231SOL    HW236153   1.850   0.526   2.843  0.2246  0.2667  1.0578
 8232SOL     OW36154   3.555   4.621   9.828 -0.1694 -0.5146 -0.5085
 8232SOL    HW136155   3.468   4.654   9.803  0.8714  1.5684 -1.3194
 8232SOL    HW236156   3.553   4.540   9.776  1.6173 -0.9001  0.0546
 8233SOL     OW36157   3.452   3.268   7.668  0.2121 -0.4954  0.1348
 8233SOL    HW136158   3.410   3.195   7.622 -1.3804  0.5399 -0.0532
 8233SOL    HW236159   3.377   3.325   7.653  1.2470  0.6049 -0.8759
 8234SOL     OW36160   3.466   4.628   4.681  0.6695 -0.2029 -0.0956
 8234SOL    HW136161   3.556   4.610   4.654  1.0455  0.4408  0.7356
 8234SOL    HW236162   3.442   4.691   4.613  1.8249  2.0335  1.5410
 8235SOL     OW36163   4.533   0.256  16.904  0.5443  0.3045 -0.2766
 8235SOL    HW136164   4.580   0.308  16.837 -0.7239 -0.4271 -1.7397
 8235SOL    HW236165   4.444   0.252  16.869  0.1061 -3.0776  1.2523
 8236SOL     OW36166   0.276   1.230   1.607  0.2942 -0.7969  0.5257
 8236SOL    HW136167   0.264   1.210   1.514  0.9134 -1.3098  0.5579
 8236SOL    HW236168   0.368   1.206   1.613  0.5854  0.9631  2.9404
 8237SOL     OW36169   3.793   1.826   5.078  0.0473  0.5401 -0.3677
 8237SOL    HW136170   3.813   1.778   5.158 -1.8210 -0.5544 -0.5610
 8237SOL    HW236171   3.744   1.899   5.115 -0.2884  0.3628 -0.4672
 8238SOL     OW36172   1.868   0.880  10.458 -0.1448 -0.0347  0.6101
 8238SOL    HW136173   1.905   0.809  10.511 -0.9413  0.6389  2.0789
 8238SOL    HW236174   1.788   0.909  10.501  0.0391  1.8787 -0.3069
 8239SOL     OW36175   1.006   0.974   0.979  0.2190 -0.0225  0.4430
 8239SOL    HW136176   0.999   1.000   0.887 -0.7712 -0.3224  0.4350
 8239SOL    HW236177   1.100   0.954   0.974  0.4422  0.5647  2.1950
 8240SOL     OW36178   0.046   4.665   1.639 -0.0855 -0.1007 -0.4894
 8240SOL    HW136179   0.078   4.576   1.656  0.8566  0.6627  1.7172
 8240SOL    HW236180   0.087   4.698   1.558 -2.6026 -0.9270 -2.0803
 8241SOL     OW36181   3.651   4.269   1.629  0.2150  0.3010 -0.2796
 8241SOL    HW136182   3.670   4.335   1.696 -0.1697 -0.2064  0.3237
 8241SOL    HW236183   3.584   4.324   1.588 -1.5184 -2.1917 -0.7591
 8242SOL     OW36184   2.766   3.230  17.064 -0.0110  0.5718  0.0451
 8242SOL    HW136185   2.676   3.263  17.058  0.2257  1.0378 -1.0284
 8242SOL    HW236186   2.795   3.254  17.151  1.5631 -0.7847 -0.1154
 8243SOL     OW36187   2.437   2.583  15.621  0.3171 -0.0416  0.4636
 8243SOL    HW136188   2.469   2.595  15.532 -0.4572 -2.1304 -0.0947
 8243SOL    HW236189   2.385   2.663  15.630 -2.5158 -1.9088  0.5154
 8244SOL     OW36190   0.886   0.634  17.582 -0.1557  0.3056  0.0996
 8244SOL    HW136191   0.801   0.660  17.619 -0.6451  0.4310 -1.1027
 8244SOL    HW236192   0.931   0.718  17.592  2.3438 -1.0057 -0.2154
 8245SOL     OW36193   3.752   0.480   1.608 -0.2721  0.7405 -0.2326
 8245SOL    HW136194   3.828   0.425   1.626 -1.5339 -1.1862 -0.8080
 8245SOL    HW236195   3.704   0.454   1.687  0.0565 -1.6673 -0.8043
 8246SOL     OW36196   3.173   4.325   3.756  0.6177 -0.2416 -0.9448
 8246SOL    HW136197   3.229   4.256   3.721  0.3670  0.2467 -2.3216
 8246SOL    HW236198   3.159   4.295   3.846 -2.7386  0.1095 -1.3388
 8247SOL     OW36199   0.293   1.591  16.768  0.2072 -0.0033 -0.4400
 8247SOL    HW136200   0.208   1.620  16.801 -0.4006 -1.9055 -0.3703
 8247SOL    HW236201   0.317   1.674  16.727  1.9063 -1.2429 -1.9679
 8248SOL     OW36202   3.751   1.275   3.908  0.0181 -0.3367 -0.8313
 8248SOL    HW136203   3.702   1.224   3.844 -0.4212  0.4941 -1.1655
 8248SOL    HW236204   3.725   1.361   3.873 -0.1032  0.7990  2.0424
 8249SOL     OW36205   2.542   3.308  11.153 -0.5237 -0.2681 -0.5090
 8249SOL    HW136206   2.554   3.219  11.121  0.4888 -1.1069  2.2828
 8249SOL    HW236207   2.480   3.352  11.093  0.6330 -2.1621 -3.1023
 8250SOL     OW36208   2.158   1.775  17.468 -0.2837  0.0252 -0.2497
 8250SOL    HW136209   2.180   1.687  17.498  2.1506  0.1158 -1.8102
 8250SOL    HW236210   2.215   1.788  17.393  3.0042 -1.7563  1.9414
 8251SOL     OW36211   3.540   4.600   1.901  0.0282  0.5996  0.8776
 8251SOL    HW136212   3.461   4.560   1.863  0.8351  0.3625 -0.5441
 8251SOL    HW236213   3.520   4.687   1.867  2.5823  0.7181 -0.2622
 8252SOL     OW36214   0.145   2.564   3.670  0.6353 -0.2370  0.3970
 8252SOL    HW136215   0.238   2.560   3.645  0.6726 -0.0334  0.5058
 8252SOL    HW236216   0.119   2.482   3.711  0.1531 -1.4486 -2.3286
 8253SOL     OW36217   3.909   0.550   4.466  0.1160  0.3388 -0.5865
 8253SOL    HW136218   3.830   0.604   4.459  0.0325  0.2772 -0.0949
 8253SOL    HW236219   3.933   0.510   4.382  0.7976  1.2211 -0.8136
 8254SOL     OW36220   1.525   0.654  17.489 -0.2861 -0.2990  0.6322
 8254SOL    HW136221   1.578   0.732  17.508 -0.0167 -0.8866  2.2414
 8254SOL    HW236222   1.550   0.632  17.399 -2.9629 -0.3194 -0.0965
 8255SOL     OW36223   1.463   3.488   9.387  0.4668  1.3123 -0.2027
 8255SOL    HW136224   1.536   3.428   9.374 -0.6460  0.3384 -1.9732
 8255SOL    HW236225   1.463   3.522   9.297  0.6576 -2.0606 -1.4734
 8256SOL     OW36226   0.885   0.815   5.832 -0.3742 -0.0500 -0.5049
 8256SOL    HW136227   0.800   0.780   5.805  0.3011 -1.5739 -0.6482
 8256SOL    HW236228   0.927   0.731   5.851  2.0894  1.3678  0.2783
 8257SOL     OW36229   0.540   3.466   3.473  0.4131 -0.1518  0.1835
 8257SOL    HW136230   0.602   3.434   3.407 -0.3742 -0.5367 -0.3858
 8257SOL    HW236231   0.595   3.534   3.510  0.5539 -0.5134  0.6403
 8258SOL     OW36232   1.807   4.199   3.515 -0.4885  0.4491  0.3298
 8258SOL    HW136233   1.826   4.107   3.496 -0.7917  0.3095  0.6997
 8258SOL    HW236234   1.715   4.198   3.539 -0.3751 -0.1468  0.7578
 8259SOL     OW36235   2.904   3.025   8.853 -0.4621  0.0998  0.5324
 8259SOL    HW136236   2.911   3.119   8.840 -1.2928  0.0129 -0.4985
 8259SOL    HW236237   2.988   3.003   8.812 -2.1427 -2.5409 -1.4979
 8260SOL     OW36238   2.975   2.730   0.358  0.0872  0.5885  0.5044
 8260SOL    HW136239   3.060   2.731   0.314 -0.6772  2.6474 -0.9087
 8260SOL    HW236240   2.950   2.638   0.365  0.0927  0.6893  1.7954
 8261SOL     OW36241   3.166   2.914  12.298  0.1112  0.3703 -0.4431
 8261SOL    HW136242   3.145   3.003  12.325 -1.7716 -0.6256  1.3678
 8261SOL    HW236243   3.255   2.897  12.330 -0.3972 -2.5738 -0.5277
 8262SOL     OW36244   3.379   2.925  13.038 -0.3207  0.3461  0.3785
 8262SOL    HW136245   3.358   2.927  12.945 -0.4532  2.2170  0.4548
 8262SOL    HW236246   3.391   2.830  13.048  1.1471  0.3598 -1.2723
 8263SOL     OW36247   0.151   3.691   7.390 -0.1274  0.7585 -0.5612
 8263SOL    HW136248   0.184   3.608   7.426 -1.9688  1.2532  2.2205
 8263SOL    HW236249   0.059   3.675   7.368 -0.1217  1.2925 -0.9693
 8264SOL     OW36250   1.564   0.178   5.476 -0.2795  0.4120 -0.2716
 8264SOL    HW136251   1.572   0.083   5.473  1.1583  0.5338  0.0898
 8264SOL    HW236252   1.620   0.223   5.540 -0.9304 -0.6317  1.0446
 8265SOL     OW36253   3.711   1.881   6.952  0.2172  0.0849  0.1504
 8265SOL    HW136254   3.718   1.787   6.971 -0.7381 -0.1215 -0.5039
 8265SOL    HW236255   3.780   1.894   6.888  0.6328 -3.5520 -0.1515
 8266SOL     OW36256   3.188   2.967   2.888  0.4791 -0.2698  0.3016
 8266SOL    HW136257   3.128   2.904   2.927  1.6092 -0.2719  2.0782
 8266SOL    HW236258   3.197   2.925   2.803  1.1648  2.3339 -0.9344
 8267SOL     OW36259   0.301   1.444   5.927 -0.0655 -0.2431  0.1650
 8267SOL    HW136260   0.297   1.516   5.864 -3.0532  0.1564  0.8408
 8267SOL    HW236261   0.214   1.407   5.912 -0.5203  1.6512 -1.8767
 8268SOL     OW36262   4.475   2.630   8.662  0.3495  0.1259 -0.3138
 8268SOL    HW136263   4.383   2.634   8.688  0.0628  0.3428 -1.3806
 8268SOL    HW236264   4.508   2.613   8.750 -0.1389 -1.9138 -0.5224
 8269SOL     OW36265   2.969   0.489  10.866 -0.1484  0.0066 -0.3097
 8269SOL    HW136266   3.031   0.546  10.911 -1.3554  1.2594 -0.2323
 8269SOL    HW236267   2.977   0.418  10.931 -1.3714  0.0712 -0.0683
 8270SOL     OW36268   2.585   2.935   3.632 -0.5964 -0.3609  0.1705
 8270SOL    HW136269   2.649   2.939   3.560 -0.7600 -0.5229  0.0161
 8270SOL    HW236270   2.613   3.011   3.684  0.7391 -1.7913  1.5512
 8271SOL     OW36271   1.224   0.692   3.908 -0.1622 -0.5372  0.5447
 8271SOL    HW136272   1.299   0.749   3.922  0.1657 -0.3644 -1.9809
 8271SOL    HW236273   1.246   0.622   3.969  0.4907 -0.3269  0.5430
 8272SOL     OW36274   3.457   0.868   6.126  0.3685  0.0987  0.0292
 8272SOL    HW136275   3.486   0.853   6.036 -0.0184 -1.6301  0.1866
 8272SOL    HW236276   3.534   0.885   6.180  0.1443  1.2728 -0.0162
 8273SOL     OW36277   0.254   1.094   0.899  0.3761  0.0662 -0.3609
 8273SOL    HW136278   0.276   1.134   0.815  0.5761  0.4167 -0.1423
 8273SOL    HW236279   0.160   1.078   0.894  0.6096 -1.7709  0.9662
 8274SOL     OW36280   4.660   0.018   5.863 -0.1673 -0.0828 -0.5747
 8274SOL    HW136281   4.575   0.016   5.907  1.7342 -1.6746  3.0497
 8274SOL    HW236282   4.688   4.653   5.870  1.2495  0.4371  0.6418
 8275SOL     OW36283   4.532   0.440   1.830 -0.0024 -0.2156 -0.3431
 8275SOL    HW136284   4.548   0.421   1.922  1.0905 -0.4776 -0.5933
 8275SOL    HW236285   4.617   0.414   1.795 -1.0795  0.1811 -3.3016
 8276SOL     OW36286   0.715   0.495   4.976 -0.1317 -0.0638  0.5194
 8276SOL    HW136287   0.655   0.472   4.904 -0.1260  1.0919  0.1323
 8276SOL    HW236288   0.670   0.468   5.056 -0.4998 -1.4127 -0.1432
 8277SOL     OW36289   0.224   4.419   4.408 -1.2627 -0.0841 -0.0175
 8277SOL    HW136290   0.274   4.480   4.463 -2.4250  1.4095 -0.6012
 8277SOL    HW236291   0.228   4.462   4.323  0.3397 -0.3046 -0.0509
 8278SOL     OW36292   4.542   0.429   5.372  0.1251 -0.3855 -0.0278
 8278SOL    HW136293   4.563   0.388   5.289  3.2367 -1.2226  1.1549
 8278SOL    HW236294   4.629   0.463   5.394  0.1663  0.5190 -1.6162
 8279SOL     OW36295   0.697   4.434  16.073 -0.5621  0.4205 -0.3263
 8279SOL    HW136296   0.685   4.343  16.101  1.6798  0.7965  1.9099
 8279SOL    HW236297   0.650   4.431  15.990  0.2335 -2.3353 -0.6765
 8280SOL     OW36298   4.130   0.492   2.744  0.0673  0.3610  0.0772
 8280SOL    HW136299   4.119   0.408   2.788 -0.9013  0.0042 -0.8395
 8280SOL    HW236300   4.224   0.507   2.755  0.5980 -2.3109 -0.8044
 8281SOL     OW36301   1.908   3.161   3.678  0.2709 -0.0645 -0.5106
 8281SOL    HW136302   1.857   3.082   3.694 -1.0886  1.0265  0.5091
 8281SOL    HW236303   1.858   3.224   3.729 -0.4090 -0.3377 -0.8345
 8282SOL     OW36304   2.970   3.477   5.654  0.3813 -0.3868  0.4297
 8282SOL    HW136305   2.994   3.424   5.578  0.3732  0.0734  0.1041
 8282SOL    HW236306   2.876   3.463   5.642  0.9346 -2.3207 -1.6863
 8283SOL     OW36307   2.505   2.413   0.948  0.2592 -0.0086  0.4112
 8283SOL    HW136308   2.444   2.340   0.962  0.3597 -0.2743 -0.5342
 8283SOL    HW236309   2.474   2.454   0.867  0.4403 -3.0291 -1.2095
 8284SOL     OW36310   3.830   4.409   2.060  0.1523 -0.5978 -0.9132
 8284SOL    HW136311   3.842   4.476   2.127  0.7695 -2.3323  0.7201
 8284SOL    HW236312   3.906   4.414   2.002  1.1290  1.8147  0.5652
 8285SOL     OW36313   3.086   4.460  12.945  0.5552  0.3508 -0.5679
 8285SOL    HW136314   3.132   4.387  12.987 -0.1916  1.6359  2.4440
 8285SOL    HW236315   3.134   4.536  12.978  0.1153  0.0020  0.8787
 8286SOL     OW36316   2.922   0.553   7.864 -0.5831  0.0451 -0.1872
 8286SOL    HW136317   2.905   0.627   7.923 -0.2203  0.4459 -0.5772
 8286SOL    HW236318   2.996   0.574   7.807 -0.0984 -3.3291 -0.7930
 8287SOL     OW36319   3.116   2.617  11.981  0.1020  0.6829  0.5759
 8287SOL    HW136320   3.152   2.558  11.915 -1.6602 -1.3021  1.3886
 8287SOL    HW236321   3.096   2.681  11.913  0.5162 -0.0332 -0.2252
 8288SOL     OW36322   4.271   0.561   0.389  0.2171 -0.0689  1.0104
 8288SOL    HW136323   4.356   0.555   0.433  1.5017  3.6408 -0.9882
 8288SOL    HW236324   4.254   0.477   0.346  0.8684 -0.1006  0.8138
 8289SOL     OW36325   1.186   0.029   7.233  0.0614  0.0346  0.0383
 8289SOL    HW136326   1.212   0.107   7.184  2.1757 -0.1491  0.8532
 8289SOL    HW236327   1.184   4.681   7.173  1.6223  0.1731 -0.1824
 8290SOL     OW36328   0.830   3.113   9.878  0.0724  0.1580  0.1596
 8290SOL    HW136329   0.743   3.152   9.882 -0.6659 -1.6708  1.5133
 8290SOL    HW236330   0.872   3.123   9.964 -0.1818 -0.1795  0.3207
 8291SOL     OW36331   3.496   0.126   7.959 -0.3772 -0.1414  0.1669
 8291SOL    HW136332   3.401   0.119   7.968 -0.3063  0.4211  1.3724
 8291SOL    HW236333   3.494   0.151   7.867  0.6621  0.8532  0.4117
 8292SOL     OW36334   1.021   4.094  10.442 -0.1345 -0.0072  0.2040
 8292SOL    HW136335   0.958   4.143  10.389  1.4920  1.7073 -0.1367
 8292SOL    HW236336   0.968   4.091  10.521 -1.4288  0.0444 -0.6677
 8293SOL     OW36337   3.476   3.932   0.765  0.0206 -0.5332 -0.5120
 8293SOL    HW136338   3.457   4.009   0.711  0.6462 -0.3558 -0.4770
 8293SOL    HW236339   3.558   3.959   0.805 -0.0968 -1.3914  0.2912
 8294SOL     OW36340   1.318   0.178   8.791  0.5633  0.3438  0.6798
 8294SOL    HW136341   1.308   0.214   8.879 -0.2376 -0.2996  0.8456
 8294SOL    HW236342   1.235   0.214   8.761  0.4665 -0.2228  0.2649
 8295SOL     OW36343   4.704   1.411   4.736  0.7489 -0.3081 -0.1675
 8295SOL    HW136344   4.674   1.481   4.795 -0.5688 -1.4225  0.4647
 8295SOL    HW236345   4.623   1.360   4.738 -1.2093  2.7625 -1.2789
 8296SOL     OW36346   2.548   4.430  16.168  0.4870  0.1803 -0.8781
 8296SOL    HW136347   2.592   4.445  16.251  0.3199 -0.3410 -0.6992
 8296SOL    HW236348   2.616   4.470  16.113  0.7134 -2.3770 -2.4369
 8297SOL     OW36349   1.144   0.424   7.497 -0.1242 -0.0669 -0.2367
 8297SOL    HW136350   1.112   0.435   7.408  0.2592  0.5784 -0.2939
 8297SOL    HW236351   1.198   0.501   7.517 -0.3668  0.2812 -0.9305
 8298SOL     OW36352   1.219   3.916   3.599 -0.5076 -0.5385  0.0087
 8298SOL    HW136353   1.245   3.863   3.524 -0.7352 -0.1932 -0.3182
 8298SOL    HW236354   1.159   3.982   3.563 -1.7688 -1.0817  1.0916
 8299SOL     OW36355   1.175   3.800   2.064 -0.2032 -0.6966 -0.4022
 8299SOL    HW136356   1.171   3.751   1.982  2.1912 -3.3540  1.0676
 8299SOL    HW236357   1.186   3.891   2.034 -1.5787 -1.2184 -2.5289
 8300SOL     OW36358   2.486   2.406   8.607 -0.2002 -0.0634 -0.6913
 8300SOL    HW136359   2.461   2.411   8.699 -0.7125  1.4936 -0.9151
 8300SOL    HW236360   2.568   2.357   8.608  0.7343  1.5001 -1.1686
 8301SOL     OW36361   1.561   0.328   2.394 -0.0089  0.2565 -0.2133
 8301SOL    HW136362   1.629   0.339   2.460 -0.5688  0.2739  0.3609
 8301SOL    HW236363   1.556   0.232   2.401  2.5763  0.3296  2.5319
 8302SOL     OW36364   2.737   2.655  13.699  0.0211  0.2089  0.0722
 8302SOL    HW136365   2.718   2.688  13.611 -0.3721 -1.8159 -0.6190
 8302SOL    HW236366   2.716   2.724  13.761  1.9793 -0.3424  1.3649
 8303SOL     OW36367   4.424   0.313  13.672 -0.0701  0.1477 -0.5327
 8303SOL    HW136368   4.506   0.277  13.706 -0.4874  0.4758  0.8628
 8303SOL    HW236369   4.431   0.279  13.584 -2.3147 -0.4757 -0.4724
 8304SOL     OW36370   3.734   3.071   5.162  0.3418 -0.0960  0.1838
 8304SOL    HW136371   3.713   3.105   5.075 -1.4679  0.3794  0.8112
 8304SOL    HW236372   3.682   2.994   5.138 -0.6278  0.5168  0.3016
 8305SOL     OW36373   3.472   3.438   8.722  0.3327 -0.0774  0.1508
 8305SOL    HW136374   3.511   3.356   8.691  4.8562  2.1735 -0.0879
 8305SOL    HW236375   3.382   3.407   8.719  0.5823 -0.7220 -0.9990
 8306SOL     OW36376   4.449   2.895   6.335  0.3358  0.1467 -0.7771
 8306SOL    HW136377   4.483   2.806   6.325 -1.5923 -0.6691 -0.1258
 8306SOL    HW236378   4.526   2.941   6.303  1.1225 -2.3554 -2.4212
 8307SOL     OW36379   3.048   2.185   1.651  0.1421 -0.3688 -0.1371
 8307SOL    HW136380   2.994   2.223   1.582 -2.2833 -0.3219  1.7646
 8307SOL    HW236381   3.122   2.144   1.607  0.6650  1.5226 -0.9866
 8308SOL     OW36382   0.164   3.995  15.743 -0.0239 -0.1467 -0.2809
 8308SOL    HW136383   0.258   3.980  15.753  0.3424  1.4180 -1.2218
 8308SOL    HW236384   0.159   4.089  15.723  1.0480  0.1783  0.9559
 8309SOL     OW36385   2.774   0.812  17.319 -0.0388  0.4889 -0.3270
 8309SOL    HW136386   2.698   0.839  17.371  0.9292  0.6605  1.0008
 8309SOL    HW236387   2.766   0.721  17.346 -1.3574  0.9766  0.9254
 8310SOL     OW36388   0.654   1.639   5.984 -0.5074  0.2781 -0.7025
 8310SOL    HW136389   0.722   1.705   5.977  0.7334 -0.7328  2.2703
 8310SOL    HW236390   0.696   1.570   6.034  0.1879  0.7818 -0.6032
 8311SOL     OW36391   3.379   3.343   5.054 -0.1481  0.0243 -0.4758
 8311SOL    HW136392   3.370   3.368   4.962 -1.2246  0.7680 -0.1675
 8311SOL    HW236393   3.356   3.250   5.049  0.9123 -0.2570 -0.1990
 8312SOL     OW36394   4.561   3.694   9.032  0.8687 -0.1721 -0.0626
 8312SOL    HW136395   4.639   3.646   9.059  1.1810  0.1805 -0.3374
 8312SOL    HW236396   4.494   3.662   9.093  0.9600 -1.8231 -0.8373
 8313SOL     OW36397   4.221   2.440   8.198  0.0183  0.4234 -0.4242
 8313SOL    HW136398   4.208   2.423   8.291 -4.8809 -0.0817 -1.1997
 8313SOL    HW236399   4.310   2.476   8.204 -0.5716  1.6347  1.0943
 8314SOL     OW36400   0.923   1.092   5.250 -0.3897 -0.1451  0.6614
 8314SOL    HW136401   0.838   1.109   5.208  0.1080  1.8664  0.4779
 8314SOL    HW236402   0.926   0.997   5.265  0.8460 -0.1660  0.2305
 8315SOL     OW36403   0.790   4.296   6.350  0.1999 -0.6250  0.1651
 8315SOL    HW136404   0.748   4.216   6.317 -2.6610  2.6473 -4.1874
 8315SOL    HW236405   0.743   4.308   6.432 -1.1897  1.8590 -0.9947
 8316SOL     OW36406   2.917   0.139   4.568 -0.5107 -0.1639  0.1573
 8316SOL    HW136407   2.875   0.225   4.563  1.1454  0.5630 -1.2838
 8316SOL    HW236408   2.926   0.129   4.473  0.8309 -1.1668  0.4126
 8317SOL     OW36409   1.538   1.393  11.186  0.1126  0.3005  0.0405
 8317SOL    HW136410   1.459   1.448  11.185 -0.7096 -0.8290  1.7379
 8317SOL    HW236411   1.497   1.308  11.201  0.9639 -0.0193  0.5588
 8318SOL     OW36412   3.369   2.366   0.656 -0.1587 -0.4325 -0.4060
 8318SOL    HW136413   3.445   2.404   0.611 -0.5400  0.6570 -0.1411
 8318SOL    HW236414   3.406   2.363   0.745 -2.7244 -1.9882  0.5958
 8319SOL     OW36415   2.591   0.454   5.663  0.3377 -0.5296 -0.1851
 8319SOL    HW136416   2.628   0.436   5.577  0.7975 -0.0040 -0.0945
 8319SOL    HW236417   2.555   0.541   5.645 -0.7361 -0.5233  1.9811
 8320SOL     OW36418   2.737   4.660   3.760 -0.1005  0.1359 -0.2719
 8320SOL    HW136419   2.805   4.726   3.743  1.3518 -0.8815  1.5476
 8320SOL    HW236420   2.660   4.715   3.741  1.1056  1.4357 -1.3977
 8321SOL     OW36421   0.711   3.701   2.297  0.1657 -0.3445 -0.5307
 8321SOL    HW136422   0.629   3.749   2.296  1.5139  1.9505  0.1518
 8321SOL    HW236423   0.755   3.728   2.216  0.4282 -0.3986 -0.4079
 8322SOL     OW36424   2.426   0.267   5.440  0.1839 -0.3130  0.1604
 8322SOL    HW136425   2.334   0.267   5.412  0.3682 -0.6160 -0.4359
 8322SOL    HW236426   2.451   0.358   5.423 -1.2596 -0.3756 -2.3082
 8323SOL     OW36427   3.389   2.037   6.356  0.2294 -0.2425  0.4232
 8323SOL    HW136428   3.428   1.954   6.331  0.0575 -0.4469  0.8395
 8323SOL    HW236429   3.410   2.047   6.449 -0.4069 -0.9058  0.6352
 8324SOL     OW36430   3.079   4.106   2.208  0.1965 -0.4616 -0.0022
 8324SOL    HW136431   3.001   4.095   2.264  0.8128  0.9944  1.1412
 8324SOL    HW236432   3.142   4.116   2.279  0.5523 -1.8694 -0.1118
 8325SOL     OW36433   0.803   4.555  14.903  0.4265 -0.0683 -0.5031
 8325SOL    HW136434   0.737   4.503  14.948  0.3573  0.5059  0.0714
 8325SOL    HW236435   0.772   4.645  14.920 -0.6381 -0.8260  1.6064
 8326SOL     OW36436   1.329   1.566   3.289  0.2199  0.3277  0.4661
 8326SOL    HW136437   1.370   1.576   3.374  0.1703 -0.9204  0.6487
 8326SOL    HW236438   1.401   1.573   3.227 -1.6008  0.2324 -1.6680
 8327SOL     OW36439   1.993   0.846   4.837  0.0516  0.5426  0.0297
 8327SOL    HW136440   2.065   0.833   4.775 -0.4080 -2.2184  0.0937
 8327SOL    HW236441   1.925   0.790   4.801  2.3424 -1.2104 -1.5368
 8328SOL     OW36442   2.124   3.506   1.333 -0.6230  0.5298 -0.0717
 8328SOL    HW136443   2.041   3.544   1.305  0.3599  3.1556  0.6310
 8328SOL    HW236444   2.189   3.561   1.291  2.3779 -3.3401 -0.5261
 8329SOL     OW36445   0.488   1.512   6.934 -0.5897  0.5475  0.0979
 8329SOL    HW136446   0.442   1.546   7.010  0.1879  0.8995  0.4045
 8329SOL    HW236447   0.566   1.477   6.977 -0.3912  2.6465  1.4287
 8330SOL     OW36448   0.955   0.089   1.257  0.2333 -0.0944 -0.4814
 8330SOL    HW136449   0.912   0.173   1.240 -0.7499 -0.7462 -1.1730
 8330SOL    HW236450   0.907   0.065   1.336 -0.5569 -1.5626 -1.4113
 8331SOL     OW36451   1.508   2.558   6.202 -0.5921 -0.1661 -0.0474
 8331SOL    HW136452   1.588   2.510   6.179 -0.5099  0.6082 -1.3708
 8331SOL    HW236453   1.434   2.514   6.160 -0.6685  0.9762 -1.0906
 8332SOL     OW36454   1.967   0.890  13.867 -0.0377 -0.1542  0.3556
 8332SOL    HW136455   2.030   0.838  13.917 -0.6517 -1.8559 -0.6305
 8332SOL    HW236456   2.024   0.939  13.808 -0.9512  2.9620  2.0830
 8333SOL     OW36457   3.639   1.738  12.864 -0.4990  0.4651  0.8239
 8333SOL    HW136458   3.553   1.747  12.822  0.2532 -1.4460 -1.0843
 8333SOL    HW236459   3.630   1.662  12.923 -0.1748  0.6154  1.0638
 8334SOL     OW36460   3.232   1.692  12.024 -0.1716  0.4498 -0.6934
 8334SOL    HW136461   3.307   1.673  11.967 -0.8362 -1.8644 -0.8296
 8334SOL    HW236462   3.171   1.702  11.951 -0.2666 -0.3858 -0.7293
 8335SOL     OW36463   1.701   4.290   9.355  0.0351  0.1746 -0.2437
 8335SOL    HW136464   1.730   4.350   9.286  1.4932 -0.2730 -0.0333
 8335SOL    HW236465   1.647   4.352   9.404  0.0055  0.2689 -0.3946
 8336SOL     OW36466   4.670   0.164   4.170  0.0789  0.1535 -0.1280
 8336SOL    HW136467   4.720   0.190   4.248 -1.8532  0.6412  0.9429
 8336SOL    HW236468   4.635   0.080   4.200  0.9489 -0.6057 -1.2607
 8337SOL     OW36469   0.846   0.508   7.244  0.0987 -0.2761 -0.5026
 8337SOL    HW136470   0.775   0.568   7.267  1.3222 -0.2885  3.3038
 8337SOL    HW236471   0.845   0.437   7.308 -0.4107 -0.7319 -1.0158
 8338SOL     OW36472   2.540   3.591   3.277  0.3406 -0.4617  0.6224
 8338SOL    HW136473   2.487   3.535   3.221 -0.9326  1.6757 -0.3194
 8338SOL    HW236474   2.625   3.546   3.279  0.7557  0.1787 -2.0458
 8339SOL     OW36475   0.650   2.661   9.260 -0.1861 -0.2216  0.3103
 8339SOL    HW136476   0.662   2.568   9.240  1.4577 -0.0448  0.4957
 8339SOL    HW236477   0.686   2.668   9.348  0.8572  1.8583 -0.2815
 8340SOL     OW36478   2.320   0.257   3.036 -0.2623  0.2421 -0.3802
 8340SOL    HW136479   2.327   0.321   2.965  1.3198  0.3182 -0.1520
 8340SOL    HW236480   2.295   0.321   3.103  0.2545  1.1639 -1.0592
 8341SOL     OW36481   2.780   1.869   2.565  0.2090 -0.8064 -0.0820
 8341SOL    HW136482   2.858   1.841   2.612  1.4385  2.1402 -0.3624
 8341SOL    HW236483   2.718   1.809   2.608  0.0638 -0.9848 -0.5403
 8342SOL     OW36484   3.945   0.131   1.905 -0.0490  0.5053 -0.0627
 8342SOL    HW136485   3.864   0.087   1.878 -0.0767 -0.0080  0.8836
 8342SOL    HW236486   3.910   0.163   1.988  0.5660 -2.6964  1.4233
 8343SOL     OW36487   3.682   1.548  12.148  0.4357 -0.6517  0.0823
 8343SOL    HW136488   3.719   1.481  12.090  0.9453 -0.8562  0.6461
 8343SOL    HW236489   3.593   1.521  12.127  0.2797 -1.3750  1.6856
 8344SOL     OW36490   3.451   0.035  14.520  0.0791  0.4590 -0.0614
 8344SOL    HW136491   3.363   0.001  14.534  0.0589  0.7685  0.5504
 8344SOL    HW236492   3.485   0.059  14.606  2.0536 -0.3212 -0.6148
 8345SOL     OW36493   0.580   3.120  15.323  0.2069  0.3695  0.2843
 8345SOL    HW136494   0.572   3.197  15.266 -1.4408 -0.3633 -0.4879
 8345SOL    HW236495   0.512   3.060  15.293 -0.4049  1.8230 -1.2524
 8346SOL     OW36496   3.068   2.870   6.603  0.0014  0.6961 -0.7916
 8346SOL    HW136497   3.110   2.945   6.562  2.0364 -0.5763 -1.0037
 8346SOL    HW236498   3.139   2.807   6.613  1.3732  2.1420 -1.4537
 8347SOL     OW36499   3.784   2.155   4.330 -0.3038 -0.6614  0.4451
 8347SOL    HW136500   3.793   2.235   4.279 -0.8025 -0.3094  0.9064
 8347SOL    HW236501   3.702   2.171   4.376 -0.7541  3.5837 -1.7965
 8348SOL     OW36502   0.458   2.877   8.540 -0.7816  0.8538 -0.6783
 8348SOL    HW136503   0.530   2.934   8.566 -0.4507  1.0654 -2.0417
 8348SOL    HW236504   0.501   2.823   8.474 -1.3416 -0.6839  0.2129
 8349SOL     OW36505   0.088   2.739  12.475  0.4456  0.2039 -0.3754
 8349SOL    HW136506   4.719   2.746  12.465  0.5571  1.1465 -0.8348
 8349SOL    HW236507   0.116   2.779  12.392  0.3165  0.7305 -0.1636
 8350SOL     OW36508   2.659   2.712   6.591 -0.3253 -0.4549 -0.2832
 8350SOL    HW136509   2.655   2.617   6.583 -2.5889 -0.5147  1.5195
 8350SOL    HW236510   2.692   2.740   6.506 -2.1520  0.4508 -0.6774
 8351SOL     OW36511   0.854   2.267  14.210  0.2524 -0.4861  0.7729
 8351SOL    HW136512   0.817   2.196  14.158  0.8028 -2.5640  3.2282
 8351SOL    HW236513   0.851   2.213  14.289 -1.0226 -0.2023  0.9106
 8352SOL     OW36514   3.298   0.902   2.130  0.4742 -0.0090 -0.0194
 8352SOL    HW136515   3.315   0.995   2.118  2.9918 -0.7575 -2.1529
 8352SOL    HW236516   3.236   0.883   2.060  0.0697  1.3610 -0.0287
 8353SOL     OW36517   3.202   2.644   3.708 -0.5477 -0.9096 -0.0944
 8353SOL    HW136518   3.191   2.686   3.623 -3.3387 -0.2283  0.5951
 8353SOL    HW236519   3.258   2.697   3.765  0.0423  1.0963 -2.5261
 8354SOL     OW36520   4.641   3.136  15.353 -0.1897 -0.1060 -0.4192
 8354SOL    HW136521   4.624   3.095  15.438 -1.8171  3.0942  0.8116
 8354SOL    HW236522   4.681   3.061  15.310  0.0436 -0.5131  0.5163
 8355SOL     OW36523   4.711   0.608   7.625 -0.0802 -0.2821  0.1758
 8355SOL    HW136524   0.025   0.684   7.668 -1.4338  0.2213  0.5635
 8355SOL    HW236525   0.059   0.556   7.593  1.7731  2.5415 -0.1902
 8356SOL     OW36526   4.242   2.268   5.167  0.0302 -0.1510  0.6062
 8356SOL    HW136527   4.322   2.224   5.139 -0.0111 -0.1146  0.4310
 8356SOL    HW236528   4.289   2.346   5.197  1.7261 -0.7903 -0.4226
 8357SOL     OW36529   4.020   3.346   6.438  0.0171 -0.5175 -0.2807
 8357SOL    HW136530   4.065   3.277   6.487 -1.6083  0.2137  2.2033
 8357SOL    HW236531   3.929   3.318   6.451 -0.3872  1.2356  0.5846
 8358SOL     OW36532   0.591   4.472   6.289 -0.4633 -0.2677  0.5793
 8358SOL    HW136533   0.605   4.465   6.383 -1.2589 -0.4987  0.6833
 8358SOL    HW236534   0.682   4.454   6.266 -1.1059 -1.7427 -0.8164
 8359SOL     OW36535   3.948   3.028   1.124 -0.8725  0.4135  0.4423
 8359SOL    HW136536   3.946   3.099   1.188 -0.0844 -1.1678  2.1982
 8359SOL    HW236537   3.911   3.067   1.045  1.6310 -2.2454 -2.0302
 8360SOL     OW36538   4.474   1.522   3.361  0.6312 -0.1789  0.0255
 8360SOL    HW136539   4.457   1.616   3.351  0.5936 -0.0056  1.6237
 8360SOL    HW236540   4.569   1.520   3.362  0.6250 -2.3220 -2.6910
 8361SOL     OW36541   0.655   3.462   5.701  0.1039 -0.4130  0.3650
 8361SOL    HW136542   0.638   3.551   5.671  0.8337 -0.5162 -0.3698
 8361SOL    HW236543   0.570   3.424   5.679  0.9215 -0.6378 -2.4069
 8362SOL     OW36544   1.865   0.287  11.197  0.5329 -0.5773  0.7019
 8362SOL    HW136545   1.936   0.351  11.206  1.1647 -1.5027  2.3225
 8362SOL    HW236546   1.827   0.315  11.114  1.1581  5.1941  2.3387
 8363SOL     OW36547   3.350   2.930   6.662 -0.1679 -0.5012  0.0638
 8363SOL    HW136548   3.384   2.943   6.751  1.6338  0.0118 -0.6902
 8363SOL    HW236549   3.373   2.841   6.636  3.1162  0.5861 -0.8405
 8364SOL     OW36550   3.340   4.112  15.999 -0.0044  0.0453 -0.4891
 8364SOL    HW136551   3.304   4.109  15.910  2.0926 -1.0244 -1.3073
 8364SOL    HW236552   3.299   4.036  16.040 -0.7449  0.0118 -1.2830
 8365SOL     OW36553   3.453   4.121  14.298 -0.4530  0.5098  0.5376
 8365SOL    HW136554   3.378   4.174  14.327 -0.8676  0.3837 -0.3255
 8365SOL    HW236555   3.464   4.062  14.372 -2.5880 -0.9795 -0.3329
 8366SOL     OW36556   4.141   1.049   5.272  0.6087  0.2269  0.3863
 8366SOL    HW136557   4.051   1.020   5.285  0.9991  0.4176  3.5863
 8366SOL    HW236558   4.133   1.144   5.287 -0.9682  0.3463 -1.3118
 8367SOL     OW36559   2.013   4.147  13.057 -0.0203 -0.0824 -1.1052
 8367SOL    HW136560   1.968   4.213  13.003  1.1891 -0.2194 -2.2653
 8367SOL    HW236561   2.091   4.191  13.089 -1.3236  1.8186 -0.5284
 8368SOL     OW36562   0.856   0.508   6.977 -0.5006 -0.4189  0.4413
 8368SOL    HW136563   0.805   0.588   6.961 -0.4462 -0.4981 -0.1380
 8368SOL    HW236564   0.858   0.508   7.073  1.5540 -1.4956  0.3810
 8369SOL     OW36565   2.483   2.301   5.191  0.0871  0.0399 -0.4335
 8369SOL    HW136566   2.422   2.232   5.217  0.5882 -0.4960 -0.6757
 8369SOL    HW236567   2.429   2.339   5.122 -0.6962  1.9559  1.2703
 8370SOL     OW36568   1.988   2.366   6.137  0.1676 -0.2737 -0.2898
 8370SOL    HW136569   1.965   2.296   6.076 -0.4471  0.0163 -0.3874
 8370SOL    HW236570   1.988   2.319   6.221  2.4539 -1.2756 -0.8668
 8371SOL     OW36571   2.437   0.896   6.304  0.2133 -0.0375 -0.0160
 8371SOL    HW136572   2.494   0.966   6.273  0.9002 -1.0427 -1.0075
 8371SOL    HW236573   2.497   0.823   6.316  1.1447  0.7936  0.3925
 8372SOL     OW36574   1.809   1.356   4.244  0.9153 -0.4024 -0.6674
 8372SOL    HW136575   1.779   1.282   4.192 -0.9420  0.2657 -0.5214
 8372SOL    HW236576   1.810   1.424   4.177  0.4092 -0.6817 -0.9574
 8373SOL     OW36577   0.852   3.580  17.339  0.5285 -0.2917  0.5736
 8373SOL    HW136578   0.847   3.674  17.353 -0.5445  0.0694 -2.0721
 8373SOL    HW236579   0.822   3.545  17.422 -1.1166 -1.4870 -0.5079
 8374SOL     OW36580   1.881   3.601   1.196 -0.6903 -0.0652  0.1585
 8374SOL    HW136581   1.925   3.672   1.151 -2.0569 -0.1637 -1.3204
 8374SOL    HW236582   1.865   3.626   1.287  0.6323  0.7640  0.1571
 8375SOL     OW36583   2.452   4.552   2.515  0.5035 -0.5604 -0.2258
 8375SOL    HW136584   2.448   4.496   2.592  0.3575 -0.5684 -0.2400
 8375SOL    HW236585   2.476   4.633   2.559  0.6003 -0.2134 -0.9084
 8376SOL     OW36586   1.961   2.430  14.872 -0.1256 -0.2077 -0.4776
 8376SOL    HW136587   1.945   2.344  14.833 -1.6287  0.2077 -0.7619
 8376SOL    HW236588   2.042   2.401  14.915 -1.0132 -1.7129  0.2053
 8377SOL     OW36589   0.153   1.519   8.373 -0.5796  0.1500  0.5239
 8377SOL    HW136590   0.114   1.576   8.439 -0.6758  0.3931  0.2574
 8377SOL    HW236591   0.112   1.549   8.292 -1.2213 -1.0676  0.3982
 8378SOL     OW36592   1.699   3.482   7.395 -0.0750  0.3026 -0.2929
 8378SOL    HW136593   1.665   3.411   7.341 -2.2022  0.3960  0.9325
 8378SOL    HW236594   1.615   3.508   7.432 -0.6672 -1.1210 -0.6234
 8379SOL     OW36595   1.438   1.856   4.003  0.2230 -0.1142  0.0666
 8379SOL    HW136596   1.516   1.804   4.024  0.7219  1.1506  1.3503
 8379SOL    HW236597   1.472   1.945   4.007 -1.0440  0.3911 -0.3047
 8380SOL     OW36598   0.405   0.357   4.364  0.2194 -0.4408  0.8487
 8380SOL    HW136599   0.433   0.325   4.449  0.3601  0.1199  1.0134
 8380SOL    HW236600   0.488   0.371   4.319  0.6381  0.5434  1.9325
 8381SOL     OW36601   0.117   0.608   2.230 -0.1407 -0.1996 -0.2802
 8381SOL    HW136602   0.189   0.566   2.278 -0.0850 -2.1708 -2.0576
 8381SOL    HW236603   0.062   0.535   2.203  0.1804  0.1373 -1.8759
 8382SOL     OW36604   0.587   1.994  11.733 -0.2542 -0.5423  0.0977
 8382SOL    HW136605   0.661   2.051  11.714  1.0704 -2.3824 -0.2230
 8382SOL    HW236606   0.537   1.989  11.652  0.1001  0.7887 -0.2009
 8383SOL     OW36607   2.723   3.707   7.609  0.3647 -0.1923 -0.4607
 8383SOL    HW136608   2.790   3.699   7.540 -0.1272 -2.5337 -0.6743
 8383SOL    HW236609   2.665   3.761   7.556  2.5888  1.4018 -1.2438
 8384SOL     OW36610   4.122   2.762  17.114 -0.7083 -0.2204  0.7547
 8384SOL    HW136611   4.091   2.811  17.190 -1.1826 -0.5940  0.8079
 8384SOL    HW236612   4.191   2.821  17.086 -0.7244 -0.4736  0.1683
 8385SOL     OW36613   0.794   3.257   4.892 -0.5179  0.5937  0.2567
 8385SOL    HW136614   0.702   3.235   4.909  0.2369 -0.4170  3.1408
 8385SOL    HW236615   0.838   3.218   4.968 -0.7014 -1.3963 -0.6522
 8386SOL     OW36616   3.108   0.044   4.737  0.3160  0.0484 -0.7950
 8386SOL    HW136617   3.053   0.061   4.813 -0.9260 -3.1661 -0.9572
 8386SOL    HW236618   3.057   0.081   4.665  0.8206  1.0999 -0.6071
 8387SOL     OW36619   1.965   3.410  12.632 -0.0280 -0.0267 -0.3833
 8387SOL    HW136620   1.958   3.377  12.721  0.2099  0.9799  0.0140
 8387SOL    HW236621   2.058   3.393  12.616  0.2918  0.8639  0.4872
 8388SOL     OW36622   0.183   2.391  13.700  0.0737 -0.0522 -0.4716
 8388SOL    HW136623   0.258   2.446  13.727  0.3298 -1.3879  1.5626
 8388SOL    HW236624   0.159   2.417  13.611 -0.7387 -1.4966 -0.6773
 8389SOL     OW36625   3.395   3.800   1.954 -0.1824 -0.5027  0.2922
 8389SOL    HW136626   3.477   3.847   1.970  1.2500 -2.3985 -1.3775
 8389SOL    HW236627   3.335   3.870   1.930  0.9254  0.1485 -0.6096
 8390SOL     OW36628   3.232   3.874  10.885  0.0037 -0.3087  0.2182
 8390SOL    HW136629   3.250   3.921  10.804  0.0494 -0.1669  0.3096
 8390SOL    HW236630   3.151   3.842  10.846 -1.0100 -0.0588  2.0840
 8391SOL     OW36631   3.935   3.029  13.168 -0.2778 -0.7449 -0.3301
 8391SOL    HW136632   3.946   3.124  13.179 -2.9681 -0.6432  1.4442
 8391SOL    HW236633   3.957   2.995  13.254 -1.1054 -1.7676 -0.5290
 8392SOL     OW36634   4.527   4.257   7.245 -0.3313 -0.8473 -0.1025
 8392SOL    HW136635   4.472   4.335   7.248 -0.9143 -1.3454  1.8094
 8392SOL    HW236636   4.496   4.215   7.165 -0.4993  0.1987 -0.5859
 8393SOL     OW36637   1.366   2.622   7.204 -0.1502  0.1386 -1.3865
 8393SOL    HW136638   1.279   2.624   7.166 -0.6094  1.0567 -0.3043
 8393SOL    HW236639   1.417   2.655   7.130 -3.0762  1.0231 -2.9815
 8394SOL     OW36640   3.893   2.362   0.886 -0.1680  0.4512 -0.1038
 8394SOL    HW136641   3.943   2.434   0.847 -1.2034  0.8177 -0.7351
 8394SOL    HW236642   3.834   2.341   0.814  0.7065 -0.1717 -0.6345
 8395SOL     OW36643   0.276   1.722   8.594  0.3231  0.4262  0.7179
 8395SOL    HW136644   0.189   1.760   8.583 -0.1291 -1.4156 -1.9963
 8395SOL    HW236645   0.335   1.788   8.558  0.6081  0.2281  0.8195
 8396SOL     OW36646   2.451   0.783   7.182 -0.1036 -0.1797 -0.0245
 8396SOL    HW136647   2.453   0.862   7.129 -1.3674 -0.3937 -0.3939
 8396SOL    HW236648   2.519   0.793   7.249 -0.8085  0.3435  0.6148
 8397SOL     OW36649   4.176   1.342   1.593  0.4580 -0.4141 -0.1274
 8397SOL    HW136650   4.120   1.370   1.665  2.2957 -0.7001  1.4097
 8397SOL    HW236651   4.121   1.351   1.515 -0.7447  0.9807  0.8984
 8398SOL     OW36652   2.771   3.840   4.841 -0.6303 -0.6120 -0.2396
 8398SOL    HW136653   2.768   3.931   4.869 -4.3633  0.1002 -2.9492
 8398SOL    HW236654   2.733   3.799   4.918  0.2135 -1.9356 -0.5175
 8399SOL     OW36655   1.838   0.173   8.436  0.7244  0.0634  0.6023
 8399SOL    HW136656   1.864   0.259   8.470  0.1534 -0.1872  1.6671
 8399SOL    HW236657   1.804   0.138   8.518 -0.5963  0.5839  0.2729
 8400SOL     OW36658   2.546   2.779  14.627 -0.0790 -0.1678  0.4426
 8400SOL    HW136659   2.481   2.727  14.673  1.0974  0.8381  3.2913
 8400SOL    HW236660   2.537   2.856  14.684  1.2737  0.7455 -0.5859
 8401SOL     OW36661   1.326   4.217   2.632 -0.5600 -0.2667  1.1511
 8401SOL    HW136662   1.349   4.172   2.551 -0.9124 -1.8672  1.9426
 8401SOL    HW236663   1.375   4.297   2.613  0.6146 -0.3332  3.7854
 8402SOL     OW36664   3.873   3.364   4.721  0.2503  0.0272 -0.1159
 8402SOL    HW136665   3.945   3.305   4.741  0.5283 -0.1589 -1.6435
 8402SOL    HW236666   3.916   3.449   4.714  0.7347 -0.4091 -2.6854
 8403SOL     OW36667   2.827   0.988   3.491 -0.2490 -0.2540  0.0290
 8403SOL    HW136668   2.897   0.950   3.438  0.6721  0.5938  0.6231
 8403SOL    HW236669   2.762   0.918   3.488  1.2945 -1.6730 -0.8980
 8404SOL     OW36670   1.927   0.268   5.009 -0.4668 -0.7560 -0.3716
 8404SOL    HW136671   2.003   0.214   5.031 -0.3358  0.6253  2.5406
 8404SOL    HW236672   1.924   0.316   5.092  2.1438 -0.3060 -0.5374
 8405SOL     OW36673   1.717   1.218   6.769  0.1182 -0.5034  0.0721
 8405SOL    HW136674   1.769   1.140   6.789 -0.7062 -0.8311  0.9619
 8405SOL    HW236675   1.677   1.235   6.855  2.0619  0.4300  0.7863
 8406SOL     OW36676   1.507   1.958  17.208 -0.2431  0.1229  0.1995
 8406SOL    HW136677   1.475   2.037  17.165 -2.1237 -1.8387 -2.0045
 8406SOL    HW236678   1.592   1.992  17.235 -1.2207  2.9049 -0.2249
 8407SOL     OW36679   2.141   1.488  16.180  0.1711 -0.0527  0.6490
 8407SOL    HW136680   2.103   1.411  16.221 -0.7600 -0.1159 -0.3233
 8407SOL    HW236681   2.196   1.451  16.111 -0.0395  0.8972 -0.0398
 8408SOL     OW36682   1.962   3.107   5.693  0.4767  0.0221 -0.2315
 8408SOL    HW136683   2.045   3.118   5.646  0.8232  0.4460  0.4795
 8408SOL    HW236684   1.987   3.147   5.776 -0.8733 -0.5461  0.4503
 8409SOL     OW36685   3.276   3.167  16.065  0.0341  0.0940 -0.4532
 8409SOL    HW136686   3.301   3.092  16.120  0.6493  0.0232 -0.8217
 8409SOL    HW236687   3.343   3.157  15.996  0.9934  0.2351  0.4547
 8410SOL     OW36688   4.356   2.469   3.561 -0.0379 -0.1976 -0.7360
 8410SOL    HW136689   4.394   2.557   3.556 -2.0235  0.8841  3.4694
 8410SOL    HW236690   4.277   2.481   3.508 -0.5398  0.0828  0.0900
 8411SOL     OW36691   1.051   4.550   2.155 -0.1064  0.4142 -0.1934
 8411SOL    HW136692   0.968   4.510   2.129 -0.6061  1.4269 -0.1629
 8411SOL    HW236693   1.113   4.480   2.135 -0.7982  0.2380 -1.7757
 8412SOL     OW36694   1.919   0.089   7.823  0.2364  0.1330 -0.2001
 8412SOL    HW136695   1.962   0.164   7.782  1.0923 -0.8639 -1.1302
 8412SOL    HW236696   1.985   0.020   7.814 -0.7132 -0.5730 -1.8133
 8413SOL     OW36697   1.495   0.627  11.823 -0.6917 -0.0749  0.3710
 8413SOL    HW136698   1.562   0.683  11.863 -3.5602  3.0210  0.8390
 8413SOL    HW236699   1.560   0.589  11.764  0.3021  0.7416  0.9362
 8414SOL     OW36700   3.093   3.095  16.935  0.2786 -0.6664  0.2978
 8414SOL    HW136701   3.101   3.070  17.027  0.3480  1.1555  0.7874
 8414SOL    HW236702   3.005   3.064  16.915  0.2229 -0.4823  0.2537
 8415SOL     OW36703   3.256   3.283   6.277  0.4131 -0.1116  0.9213
 8415SOL    HW136704   3.231   3.274   6.184 -0.4169 -0.1358  1.1435
 8415SOL    HW236705   3.216   3.368   6.295 -1.2976 -0.6653 -0.2465
 8416SOL     OW36706   3.206   3.768  16.635  0.4062 -0.1430  0.0873
 8416SOL    HW136707   3.275   3.817  16.679 -0.3181  0.7763  0.1965
 8416SOL    HW236708   3.170   3.823  16.566 -0.5120  0.0430  0.7111
 8417SOL     OW36709   3.048   3.146   7.196 -0.5456  0.1771  0.4646
 8417SOL    HW136710   3.132   3.105   7.214 -0.7299 -0.3374  0.1585
 8417SOL    HW236711   3.054   3.235   7.232  0.6904 -0.0572  0.8107
 8418SOL     OW36712   2.791   1.672   7.060  0.6131 -0.2037 -0.1269
 8418SOL    HW136713   2.811   1.679   6.967 -0.6570  0.3899 -0.3521
 8418SOL    HW236714   2.862   1.729   7.089 -0.6222  0.6952  1.0654
 8419SOL     OW36715   1.627   2.702   5.251  0.0839  0.3804 -0.0734
 8419SOL    HW136716   1.616   2.608   5.268  0.1909  0.4957  0.6492
 8419SOL    HW236717   1.567   2.706   5.177 -0.0865  1.5316  0.1287
 8420SOL     OW36718   2.443   2.956   2.185 -0.3149  0.1565  0.4799
 8420SOL    HW136719   2.370   2.914   2.139  1.6646 -2.1123 -0.5546
 8420SOL    HW236720   2.500   2.882   2.204 -1.9478 -1.6788 -1.8129
 8421SOL     OW36721   3.115   2.188   5.345  0.2433  0.6698  0.1698
 8421SOL    HW136722   3.099   2.282   5.349 -0.4392  0.7022 -2.9069
 8421SOL    HW236723   3.102   2.167   5.438  0.3717  0.4858  0.1468
 8422SOL     OW36724   2.978   2.315   7.807  0.3196 -0.6305  0.3431
 8422SOL    HW136725   2.891   2.349   7.789  0.4258  0.1821  1.3537
 8422SOL    HW236726   2.972   2.236   7.753  3.8178 -1.8908  1.7995
 8423SOL     OW36727   1.116   0.249   5.950  0.4114  0.2922 -0.1967
 8423SOL    HW136728   1.052   0.254   5.880  0.7048  0.5369 -0.4480
 8423SOL    HW236729   1.195   0.226   5.902  0.4986 -1.3729  0.7397
 8424SOL     OW36730   1.453   1.293  11.987  0.1778 -0.4163  0.8285
 8424SOL    HW136731   1.474   1.200  11.987 -2.0302 -0.9230  0.3886
 8424SOL    HW236732   1.512   1.320  11.916 -1.1356 -0.4322 -0.2805
 8425SOL     OW36733   1.443   4.604   2.255  0.6265 -0.0550 -0.0931
 8425SOL    HW136734   1.448   4.622   2.161  0.1491  0.8807  0.0623
 8425SOL    HW236735   1.420   4.511   2.253  3.5049 -0.7321 -1.2698
 8426SOL     OW36736   0.029   1.277  15.040  0.0642 -0.2407  0.3793
 8426SOL    HW136737   0.031   1.340  15.111  0.1952  0.7724 -0.5304
 8426SOL    HW236738   0.073   1.329  14.973 -0.7329 -1.0980 -0.8237
 8427SOL     OW36739   3.551   1.713   8.141  0.3866 -0.1345 -0.2626
 8427SOL    HW136740   3.553   1.695   8.235  0.7509 -2.7996 -0.7810
 8427SOL    HW236741   3.638   1.682   8.115  0.7617  2.3455 -1.9582
 8428SOL     OW36742   0.719   0.421   0.854 -0.5111  0.4725 -0.1778
 8428SOL    HW136743   0.782   0.360   0.814 -0.2457  0.2518  0.5761
 8428SOL    HW236744   0.770   0.501   0.837 -0.8558  0.0692 -3.1338
 8429SOL     OW36745   1.596   2.169   0.497  0.4033  0.3628  0.1422
 8429SOL    HW136746   1.576   2.081   0.465 -0.6483  1.0071 -0.9971
 8429SOL    HW236747   1.582   2.223   0.419  1.3945 -0.6584 -0.7450
 8430SOL     OW36748   3.143   3.342  16.826  0.2535  0.2690 -0.4430
 8430SOL    HW136749   3.174   3.292  16.902 -1.2678 -1.2314 -0.8147
 8430SOL    HW236750   3.049   3.334  16.842  0.5198  0.5277  1.2322
 8431SOL     OW36751   2.845   3.362  17.342  0.2784 -0.2416  0.1380
 8431SOL    HW136752   2.828   3.343  17.434 -1.2916  0.7710  0.0610
 8431SOL    HW236753   2.936   3.391  17.342  0.0733  0.3828  2.1636
 8432SOL     OW36754   2.705   4.487   5.390 -0.1352  0.2307 -0.3097
 8432SOL    HW136755   2.782   4.540   5.408  0.4828 -0.4204 -1.0645
 8432SOL    HW236756   2.679   4.469   5.480 -1.4458  0.4515 -0.6454
 8433SOL     OW36757   2.790   0.377   4.498 -0.2675  0.0382  0.0817
 8433SOL    HW136758   2.852   0.436   4.454 -1.0515 -1.7194 -3.3309
 8433SOL    HW236759   2.749   0.433   4.564 -1.2596  1.1969 -1.5380
 8434SOL     OW36760   3.120   3.320   0.524 -0.1868 -0.4419 -0.2637
 8434SOL    HW136761   3.030   3.342   0.546 -0.8084 -0.4451 -2.8343
 8434SOL    HW236762   3.150   3.409   0.503  1.1890 -1.1749 -1.4329
 8435SOL     OW36763   4.638   1.204   3.394 -0.6777 -0.6457 -0.0177
 8435SOL    HW136764   4.638   1.109   3.379 -1.9217 -0.4549 -1.2558
 8435SOL    HW236765   4.600   1.242   3.315  1.2128 -0.0626 -0.6664
 8436SOL     OW36766   0.665   4.488   2.886  0.0621 -0.6990  0.3886
 8436SOL    HW136767   0.757   4.482   2.861  0.5121 -0.0301  1.8808
 8436SOL    HW236768   0.620   4.496   2.802  0.8530  0.5268  0.0934
 8437SOL     OW36769   3.448   0.552   4.495 -0.1849  0.0740 -0.6765
 8437SOL    HW136770   3.525   0.533   4.548 -0.5019  1.8684  0.4241
 8437SOL    HW236771   3.469   0.518   4.408 -0.5712  0.5334 -0.9469
 8438SOL     OW36772   4.258   3.180   8.804  0.3087  0.0275  0.1182
 8438SOL    HW136773   4.297   3.261   8.838  0.5221 -0.0992  0.1706
 8438SOL    HW236774   4.217   3.200   8.720 -1.1995 -2.0045  0.3545
 8439SOL     OW36775   3.995   2.074  12.398  0.0640 -0.5606 -0.0574
 8439SOL    HW136776   4.060   2.005  12.409  1.1468  0.3773 -0.5634
 8439SOL    HW236777   3.990   2.102  12.307  0.5576  1.4074  0.5250
 8440SOL     OW36778   1.732   1.324   6.288 -0.2066  0.4023  0.8221
 8440SOL    HW136779   1.757   1.410   6.322 -1.0162  2.4140 -3.6752
 8440SOL    HW236780   1.801   1.260   6.309 -0.0171  0.4550  0.3530
 8441SOL     OW36781   1.155   0.376   8.039  0.0848  0.4221 -0.0471
 8441SOL    HW136782   1.225   0.405   8.098 -0.7636  1.2479  0.5493
 8441SOL    HW236783   1.078   0.409   8.085 -0.6110  0.2799 -1.1214
 8442SOL     OW36784   0.471   0.463  12.957  0.1639 -0.1657  0.1194
 8442SOL    HW136785   0.500   0.471  13.048  1.9387 -0.7865 -0.4120
 8442SOL    HW236786   0.515   0.387  12.921  3.0881  0.7382  1.8367
 8443SOL     OW36787   1.655   2.691   4.518 -0.1004 -0.2975 -0.0234
 8443SOL    HW136788   1.613   2.623   4.571 -0.1484 -0.4527 -0.2569
 8443SOL    HW236789   1.743   2.656   4.505 -0.2760 -0.6255 -0.3357
 8444SOL     OW36790   1.874   1.899   0.297  0.0177 -0.2335  0.0077
 8444SOL    HW136791   1.863   1.805   0.283  0.2939  0.1277 -2.8121
 8444SOL    HW236792   1.790   1.930   0.332  0.9888  0.6166  1.5317
 8445SOL     OW36793   3.065   0.219   6.230 -0.7113 -0.1255 -0.4593
 8445SOL    HW136794   3.045   0.299   6.278 -0.5006  0.4375 -1.3088
 8445SOL    HW236795   2.998   0.225   6.163 -1.6804 -0.0063  0.5176
 8446SOL     OW36796   0.098   0.135   7.773 -0.0378  0.0255 -0.3547
 8446SOL    HW136797   0.170   0.197   7.772  1.2399 -1.4743 -1.1148
 8446SOL    HW236798   0.135   0.048   7.759  0.3435  0.5852 -2.7016
 8447SOL     OW36799   2.381   0.530   8.322 -0.7731  0.5047 -1.2003
 8447SOL    HW136800   2.476   0.529   8.312 -0.5011  0.3928  1.2365
 8447SOL    HW236801   2.380   0.607   8.379 -1.0579  0.3600 -1.0073
 8448SOL     OW36802   3.230   2.704   2.009  0.3983  0.5459 -0.0535
 8448SOL    HW136803   3.299   2.650   1.970  0.3513 -1.2444  2.3743
 8448SOL    HW236804   3.158   2.642   1.997 -0.4206  1.6240 -0.6575
 8449SOL     OW36805   1.998   4.582  15.112  0.4642 -0.1563  0.5641
 8449SOL    HW136806   1.907   4.574  15.140  0.5807  0.0136  0.9913
 8449SOL    HW236807   1.990   4.637  15.034 -0.2070  0.1152  0.8292
 8450SOL     OW36808   0.251   1.215   7.034  0.1320  0.0397 -0.0779
 8450SOL    HW136809   0.339   1.178   7.024  0.4919  0.4300  1.5945
 8450SOL    HW236810   0.238   1.214   7.129 -2.2319  2.4186 -0.3969
 8451SOL     OW36811   1.669   2.302   7.297 -0.3179  0.1059 -0.2219
 8451SOL    HW136812   1.720   2.220   7.293  2.5740  1.8716  0.7538
 8451SOL    HW236813   1.584   2.289   7.255 -0.7737  1.7312  0.2022
 8452SOL     OW36814   0.901   3.103  10.958  0.2270  0.0596 -0.4010
 8452SOL    HW136815   0.979   3.155  10.940 -0.2320  0.5162 -1.0616
 8452SOL    HW236816   0.941   3.027  11.002  2.9320  0.1044 -2.7953
 8453SOL     OW36817   2.607   2.960   6.835 -0.2193  0.2484  0.0119
 8453SOL    HW136818   2.527   3.009   6.854 -1.1094 -0.5574 -1.6740
 8453SOL    HW236819   2.632   2.925   6.921 -0.9548 -1.0888 -0.3195
 8454SOL     OW36820   1.570   1.360  13.235 -0.7776  0.2814 -0.5775
 8454SOL    HW136821   1.578   1.409  13.153  0.1715 -3.1701 -2.5318
 8454SOL    HW236822   1.647   1.303  13.232  1.3577  2.9928  2.0227
 8455SOL     OW36823   1.826   0.759  13.546 -0.4151 -0.5649  0.5180
 8455SOL    HW136824   1.830   0.816  13.470 -1.8166 -0.5399  0.4593
 8455SOL    HW236825   1.732   0.744  13.556 -0.1318 -0.7195  3.0072
 8456SOL     OW36826   0.767   2.500   2.683 -0.1748 -0.1038  0.6086
 8456SOL    HW136827   0.804   2.444   2.616  0.1292  1.5169 -0.5943
 8456SOL    HW236828   0.699   2.540   2.629  0.6514  1.6040  0.8101
 8457SOL     OW36829   2.029   0.812  14.542 -0.3584  0.2340  0.1819
 8457SOL    HW136830   2.080   0.874  14.595 -1.1000  1.3492 -0.4208
 8457SOL    HW236831   1.938   0.841  14.548 -0.4680 -0.7033  2.9247
 8458SOL     OW36832   4.518   3.539   5.136 -0.9196 -0.1550  0.1912
 8458SOL    HW136833   4.545   3.561   5.047  1.4726 -0.6030  0.7952
 8458SOL    HW236834   4.492   3.626   5.168  2.6494  0.8460  0.3894
 8459SOL     OW36835   2.387   3.921   9.123 -0.4408  0.0666 -0.3486
 8459SOL    HW136836   2.428   3.870   9.193  0.8081  1.1008 -0.3287
 8459SOL    HW236837   2.303   3.920   9.168  0.4406  0.4205  1.3154
 8460SOL     OW36838   4.142   1.489   7.001 -0.3215 -0.2491 -0.0572
 8460SOL    HW136839   4.213   1.436   7.039 -1.1210 -1.6212 -0.4801
 8460SOL    HW236840   4.122   1.425   6.934  1.0054  0.8263 -1.4750
 8461SOL     OW36841   1.856   0.536   5.544  0.0182 -0.1244 -0.1507
 8461SOL    HW136842   1.844   0.454   5.592 -1.6641  0.7126  0.8679
 8461SOL    HW236843   1.943   0.522   5.507  1.1521 -1.0554  2.8153
 8462SOL     OW36844   2.108   1.616   5.415 -0.1024  0.1425 -0.2395
 8462SOL    HW136845   2.146   1.553   5.477 -2.3166 -1.3132 -0.3446
 8462SOL    HW236846   2.188   1.650   5.376  0.1942 -0.8030 -0.4650
 8463SOL     OW36847   2.038   1.731   4.764 -0.4476 -0.2886 -0.3786
 8463SOL    HW136848   1.963   1.709   4.708 -0.1386 -2.1233 -0.0906
 8463SOL    HW236849   2.071   1.649   4.801  1.6783  1.6784  2.1087
 8464SOL     OW36850   4.491   4.154   2.443  0.0113  0.2080 -0.0934
 8464SOL    HW136851   4.561   4.141   2.378 -1.5495  0.9429 -1.9260
 8464SOL    HW236852   4.481   4.249   2.439 -0.2346  0.0790 -2.6017
 8465SOL     OW36853   0.207   2.428   5.232  0.0112  0.5418 -0.4376
 8465SOL    HW136854   0.275   2.473   5.182  0.0183  1.5589  0.4574
 8465SOL    HW236855   0.211   2.336   5.207  1.3104  0.1940  1.0628
 8466SOL     OW36856   3.173   4.701   3.444 -0.5507  0.1151  0.0129
 8466SOL    HW136857   3.239   0.043   3.438 -0.7518  0.3921  0.9490
 8466SOL    HW236858   3.188   4.667   3.532 -3.4700 -1.1824  0.0203
 8467SOL     OW36859   0.895   2.508   4.941  0.3295 -0.4458  0.3675
 8467SOL    HW136860   0.917   2.570   5.011  3.3856  0.4582 -1.4112
 8467SOL    HW236861   0.982   2.473   4.923 -0.4260 -1.2375 -1.7485
 8468SOL     OW36862   3.031   1.593  13.864 -0.2408  0.5515  0.1404
 8468SOL    HW136863   3.043   1.561  13.953 -1.3020 -0.3713 -0.0356
 8468SOL    HW236864   3.092   1.529  13.827 -2.4600 -1.7687  0.4177
 8469SOL     OW36865   3.031   2.287   6.387 -0.6608 -0.7107 -0.5200
 8469SOL    HW136866   3.097   2.250   6.329  1.3651  0.0842  1.2803
 8469SOL    HW236867   2.956   2.228   6.378 -0.4624 -0.9283 -0.7115
 8470SOL     OW36868   1.252   2.356  12.988  0.1811  0.0561  0.3107
 8470SOL    HW136869   1.234   2.285  12.927  0.5108  1.3126 -1.2378
 8470SOL    HW236870   1.338   2.384  12.956  0.1774  0.3390  0.5512
 8471SOL     OW36871   2.633   0.480   8.299  0.7171  0.0746 -0.2509
 8471SOL    HW136872   2.693   0.447   8.366 -0.5900 -1.0865  0.3420
 8471SOL    HW236873   2.681   0.558   8.272  0.6036  0.2193 -0.0352
 8472SOL     OW36874   2.862   4.521   4.457 -0.1116 -0.2528 -0.3151
 8472SOL    HW136875   2.921   4.461   4.504 -0.9000 -0.4319  0.4511
 8472SOL    HW236876   2.875   4.488   4.368  0.6733 -0.7526 -0.0193
 8473SOL     OW36877   3.328   0.824   3.895  0.4542 -0.1275 -0.4438
 8473SOL    HW136878   3.355   0.741   3.935  1.1932  0.5553  0.4616
 8473SOL    HW236879   3.260   0.797   3.833  0.3936  1.0736 -0.8916
 8474SOL     OW36880   0.715   4.573   3.316  0.4215  0.4222  0.1523
 8474SOL    HW136881   0.637   4.518   3.329  0.3234  0.1285 -1.7310
 8474SOL    HW236882   0.703   4.578   3.221  1.4262 -1.2249 -0.0591
 8475SOL     OW36883   2.518   2.437   3.582  0.3278 -0.0403  0.1550
 8475SOL    HW136884   2.477   2.512   3.537  1.0743 -0.8586 -1.8728
 8475SOL    HW236885   2.610   2.445   3.557  0.7075 -2.9487  0.6572
 8476SOL     OW36886   3.984   2.862  14.183  0.4742 -0.4291  0.0240
 8476SOL    HW136887   4.010   2.904  14.265  0.3249 -0.9332  0.3328
 8476SOL    HW236888   3.929   2.792  14.219 -1.1734 -0.1649 -1.9746
 8477SOL     OW36889   3.801   0.171   7.593  0.1835 -0.5966  0.2963
 8477SOL    HW136890   3.792   0.175   7.497 -0.6237 -2.3248  0.2985
 8477SOL    HW236891   3.718   0.208   7.623  0.8507  0.3076  1.0253
 8478SOL     OW36892   2.982   1.051  17.310  0.0010  0.1108  0.7013
 8478SOL    HW136893   3.026   1.103  17.243 -1.1283 -1.4146 -1.2264
 8478SOL    HW236894   2.898   1.025  17.272  1.3659 -3.1258 -0.1052
 8479SOL     OW36895   4.656   3.068   3.371  0.3090 -0.0140  0.5454
 8479SOL    HW136896   4.585   3.080   3.307  0.0687  1.3123  1.0490
 8479SOL    HW236897   4.716   3.011   3.324  0.8789  1.1107 -0.0915
 8480SOL     OW36898   0.875   2.841   1.889  0.2034 -0.5266 -0.7817
 8480SOL    HW136899   0.900   2.816   1.978 -3.0657  1.5438  0.6962
 8480SOL    HW236900   0.914   2.764   1.847  1.1552 -0.4992  0.0554
 8481SOL     OW36901   1.588   1.160   1.499 -0.7825  0.2790  0.0229
 8481SOL    HW136902   1.494   1.162   1.482 -1.0900  1.5625  1.8988
 8481SOL    HW236903   1.591   1.154   1.594 -1.1262  1.8790  0.1363
 8482SOL     OW36904   3.822   2.447   2.906  0.4226 -0.4547  0.0459
 8482SOL    HW136905   3.766   2.468   2.831 -0.7107 -0.4760  0.9049
 8482SOL    HW236906   3.874   2.373   2.875  1.7206  0.9545 -1.1987
 8483SOL     OW36907   3.076   2.706   6.316  0.4112  0.5182 -0.1162
 8483SOL    HW136908   3.117   2.635   6.365 -1.3613 -0.0285  0.5999
 8483SOL    HW236909   3.043   2.763   6.386 -1.0956  0.0176 -0.4179
 8484SOL     OW36910   4.187   3.111   6.164 -0.3248 -0.2026 -0.4131
 8484SOL    HW136911   4.151   3.199   6.161  1.0264  0.3859  1.2330
 8484SOL    HW236912   4.266   3.128   6.113 -1.6028  0.1597 -2.2701
 8485SOL     OW36913   2.050   4.107   6.390 -0.3141 -0.2643  0.6143
 8485SOL    HW136914   2.037   4.191   6.434  0.3198 -0.0820  0.4466
 8485SOL    HW236915   1.969   4.070   6.425  0.4859  0.4178  3.1923
 8486SOL     OW36916   3.943   2.038  17.636 -0.2333 -0.0398  0.0392
 8486SOL    HW136917   3.997   2.024  17.558 -0.1618  0.0299  0.0756
 8486SOL    HW236918   3.885   1.963  17.630 -1.2352  0.7767 -0.5099
 8487SOL     OW36919   4.434   3.396  13.473  0.5632  0.3550  0.5134
 8487SOL    HW136920   4.342   3.377  13.454  1.3292 -2.1653 -0.6618
 8487SOL    HW236921   4.435   3.484  13.510 -0.0569  0.5642  0.0459
 8488SOL     OW36922   3.091   0.657   4.793  0.1135  0.2930 -0.7854
 8488SOL    HW136923   3.075   0.592   4.862  2.4812  2.2086  1.5982
 8488SOL    HW236924   3.133   0.600   4.729 -2.1277  0.0401 -2.0257
 8489SOL     OW36925   0.023   2.288   0.105  0.0770 -0.0131 -0.0737
 8489SOL    HW136926   0.113   2.286   0.138 -0.4637 -1.5690  1.3528
 8489SOL    HW236927   4.711   2.221   0.163 -0.3915  0.1085 -0.2422
 8490SOL     OW36928   1.456   4.090   3.237 -0.0081 -0.0316  0.0502
 8490SOL    HW136929   1.495   4.093   3.150 -0.9911  1.6790 -0.3303
 8490SOL    HW236930   1.467   4.183   3.253  1.7660 -0.1402 -0.5442
 8491SOL     OW36931   4.298   4.254   3.730  0.1489 -0.3752 -0.6388
 8491SOL    HW136932   4.389   4.232   3.713 -0.1262 -0.8368 -1.5029
 8491SOL    HW236933   4.259   4.228   3.647  0.0669  1.4824 -1.1831
 8492SOL     OW36934   2.960   0.126   3.157  0.6722  0.3634  0.2594
 8492SOL    HW136935   2.898   0.138   3.085 -2.4135 -2.0950  2.5387
 8492SOL    HW236936   2.905   0.157   3.228 -1.0991  0.3416 -1.0944
 8493SOL     OW36937   4.501   3.053   2.837 -0.4280  0.5571  0.1905
 8493SOL    HW136938   4.560   3.087   2.770 -0.4037 -1.4621 -0.8219
 8493SOL    HW236939   4.514   3.113   2.910  0.8728 -0.0701  0.4676
 8494SOL     OW36940   2.633   3.419   3.912 -0.1648  0.3660  0.3205
 8494SOL    HW136941   2.623   3.514   3.906 -0.4897  0.4147  1.6403
 8494SOL    HW236942   2.671   3.414   4.000  0.8923  3.2958  0.0266
 8495SOL     OW36943   0.165   4.591   7.782 -0.0057 -0.6793 -0.3134
 8495SOL    HW136944   0.183   4.504   7.818  1.1900 -0.4118 -0.2838
 8495SOL    HW236945   0.108   4.565   7.710  2.3235 -1.1921 -1.9596
 8496SOL     OW36946   1.294   4.372   1.804  0.2088 -0.7397  0.2101
 8496SOL    HW136947   1.200   4.386   1.805  0.6197  2.3684 -1.6095
 8496SOL    HW236948   1.316   4.404   1.716  0.4949 -1.9451 -0.1591
 8497SOL     OW36949   4.507   2.605   1.238  0.5854  0.2616  0.2008
 8497SOL    HW136950   4.458   2.682   1.266 -0.4522 -0.5845  0.6922
 8497SOL    HW236951   4.478   2.596   1.147 -0.0565 -0.9350  0.5179
 8498SOL     OW36952   3.953   4.496   8.231  0.1723 -0.2588  0.2067
 8498SOL    HW136953   4.016   4.425   8.241 -1.0510 -1.3059  0.3819
 8498SOL    HW236954   4.006   4.576   8.236  2.9485 -2.2017  1.5398
 8499SOL     OW36955   3.405   2.079  10.449 -0.0208 -0.3725 -0.1526
 8499SOL    HW136956   3.372   2.141  10.384  0.6761 -1.2268 -1.3283
 8499SOL    HW236957   3.392   1.999  10.397  1.5387 -0.3036 -0.6566
 8500SOL     OW36958   0.317   3.872   8.601 -0.8148 -0.2239 -0.0675
 8500SOL    HW136959   0.234   3.827   8.614 -1.9290  1.7634 -0.2617
 8500SOL    HW236960   0.289   3.960   8.629  3.0998  2.2096 -3.8817
 8501SOL     OW36961   2.748   1.699   1.976 -0.0716 -0.5002  0.0613
 8501SOL    HW136962   2.822   1.748   1.942  0.0332 -0.8894 -0.2796
 8501SOL    HW236963   2.709   1.682   1.890  1.1431  2.2700 -1.0343
 8502SOL     OW36964   0.336   4.355   7.567  0.3470  0.2292 -0.1389
 8502SOL    HW136965   0.328   4.292   7.638 -1.3439 -0.4106 -0.8991
 8502SOL    HW236966   0.364   4.434   7.613 -0.5855 -0.4942  1.6728
 8503SOL     OW36967   3.260   1.231  13.835 -0.4589  0.4055  0.3175
 8503SOL    HW136968   3.286   1.301  13.895  1.7345 -0.6766  0.6665
 8503SOL    HW236969   3.290   1.153  13.882 -0.8580 -0.3018 -0.5876
 8504SOL     OW36970   3.029   3.553   4.257 -0.0480  0.8425 -0.3788
 8504SOL    HW136971   3.092   3.489   4.224 -3.6088 -3.4545  1.1038
 8504SOL    HW236972   3.012   3.614   4.185 -2.3994 -1.6235 -1.9201
 8505SOL     OW36973   3.614   1.709   2.427 -0.1731 -0.2533 -0.5033
 8505SOL    HW136974   3.593   1.795   2.463 -0.2724 -0.3408 -0.3542
 8505SOL    HW236975   3.673   1.674   2.493  0.5165  1.5482 -0.1689
 8506SOL     OW36976   4.618   1.725   6.415 -0.0227 -0.4259 -0.2329
 8506SOL    HW136977   4.693   1.666   6.411  0.2129 -0.2291  1.2676
 8506SOL    HW236978   4.612   1.777   6.335  2.4330  1.2083  0.6379
 8507SOL     OW36979   4.524   2.155  16.746  0.2084 -0.1692 -0.7466
 8507SOL    HW136980   4.443   2.107  16.762  0.0891  0.0673 -0.6419
 8507SOL    HW236981   4.577   2.078  16.728  2.3113  1.0513  0.1646
 8508SOL     OW36982   2.680   2.224  16.077  0.0254 -0.5623 -0.2288
 8508SOL    HW136983   2.736   2.179  16.141  0.7403  0.6600  0.0292
 8508SOL    HW236984   2.647   2.158  16.017  0.4865  0.0769 -1.1877
 8509SOL     OW36985   1.190   0.528  13.883  0.3961  0.2700  0.2497
 8509SOL    HW136986   1.220   0.616  13.861 -0.2654  0.3524 -0.3410
 8509SOL    HW236987   1.104   0.529  13.841  1.0573  0.8073 -1.0731
 8510SOL     OW36988   3.397   1.730  12.789 -0.5196  0.4773  0.2118
 8510SOL    HW136989   3.379   1.817  12.753  1.7831 -0.5709 -3.5385
 8510SOL    HW236990   3.340   1.669  12.742  0.8073 -0.6360  0.0428
 8511SOL     OW36991   2.350   4.297  17.612 -0.1732  0.2687  0.3280
 8511SOL    HW136992   2.268   4.287  17.661 -0.1156  2.5905  0.8882
 8511SOL    HW236993   2.380   4.376  17.657  0.6148  0.8382 -1.2299
 8512SOL     OW36994   1.289   1.917   9.184  0.6984 -0.5352 -0.2478
 8512SOL    HW136995   1.377   1.931   9.148 -0.9922  2.7764 -3.1291
 8512SOL    HW236996   1.289   1.975   9.260  2.0900 -0.9699  0.0841
 8513SOL     OW36997   2.727   3.639   1.256  0.8489  0.0894  0.6869
 8513SOL    HW136998   2.693   3.565   1.205  1.8662 -0.6814  1.1092
 8513SOL    HW236999   2.753   3.588   1.333  0.1029 -1.8067 -0.3184
 8514SOL     OW37000   0.581   3.776   4.216  0.4729 -0.4234  0.3058
 8514SOL    HW137001   0.524   3.812   4.148  2.0775  1.1671 -0.2021
 8514SOL    HW237002   0.531   3.697   4.237 -1.2836  0.3411 -0.9414
 8515SOL     OW37003   0.356   2.594   0.253 -0.4472 -0.2731 -0.0626
 8515SOL    HW137004   0.304   2.514   0.268 -2.6667  0.6558 -2.9389
 8515SOL    HW237005   0.304   2.659   0.205 -1.5307 -1.7795 -0.9339
 8516SOL     OW37006   0.488   3.365   6.674 -0.1724 -0.1148  0.5318
 8516SOL    HW137007   0.584   3.365   6.663 -0.3781 -0.3003 -1.3890
 8516SOL    HW237008   0.495   3.452   6.713  1.4372  0.0388 -0.0870
 8517SOL     OW37009   1.158   3.169   4.906  0.6519  0.5272 -0.4866
 8517SOL    HW137010   1.160   3.246   4.848  0.7592  1.0614  0.2183
 8517SOL    HW237011   1.246   3.176   4.944  1.1139 -0.2786 -1.4135
 8518SOL     OW37012   2.325   3.489   6.091  0.4359  0.5930  0.1138
 8518SOL    HW137013   2.384   3.444   6.151  0.4186  0.2950 -0.0902
 8518SOL    HW237014   2.356   3.467   6.003 -0.8116 -0.2194 -0.1161
 8519SOL     OW37015   3.445   2.240  15.832  0.5590  0.3763 -0.3537
 8519SOL    HW137016   3.540   2.236  15.817  0.2266  0.4544 -2.3848
 8519SOL    HW237017   3.462   2.241  15.926  1.8921 -1.6436 -0.5606
 8520SOL     OW37018   4.463   1.339  12.617  0.7298 -0.5836  0.2783
 8520SOL    HW137019   4.399   1.396  12.660  0.1953  1.3387 -3.0933
 8520SOL    HW237020   4.397   1.274  12.591  3.0333 -2.5961 -0.4983
 8521SOL     OW37021   1.980   1.653   9.287  0.5829 -0.0414 -0.1773
 8521SOL    HW137022   2.070   1.668   9.317  0.4673  4.1734 -1.8500
 8521SOL    HW237023   1.960   1.743   9.261 -1.1614 -0.3583  0.1043
 8522SOL     OW37024   4.482   3.166   4.946 -0.3066  0.4448  0.7950
 8522SOL    HW137025   4.404   3.204   4.907  0.0479 -0.9829 -1.3018
 8522SOL    HW237026   4.449   3.076   4.954  2.4974 -0.8156 -1.5049
 8523SOL     OW37027   4.711   4.572  13.438 -0.0291  0.2099  0.2476
 8523SOL    HW137028   0.033   4.525  13.370 -0.2465  0.5830 -0.1660
 8523SOL    HW237029   0.056   4.620  13.480 -0.0518  0.1767  0.3239
 8524SOL     OW37030   4.190   0.576   9.957 -0.0099 -1.1622 -0.6265
 8524SOL    HW137031   4.191   0.627   9.876  0.2985 -0.7188 -0.3434
 8524SOL    HW237032   4.117   0.612  10.007  0.0138 -1.2984 -0.4943
 8525SOL     OW37033   1.192   2.433  12.204 -0.5497 -0.2006 -0.1035
 8525SOL    HW137034   1.192   2.475  12.118  0.2129 -3.1707 -1.5399
 8525SOL    HW237035   1.215   2.507  12.261  1.5192 -0.8761 -0.0502
 8526SOL     OW37036   0.841   3.120   6.075 -0.4148 -0.1155 -0.3692
 8526SOL    HW137037   0.814   3.043   6.025 -3.6869  0.8295 -0.0521
 8526SOL    HW237038   0.817   3.188   6.012 -1.3098 -0.2558 -0.1682
 8527SOL     OW37039   2.691   1.191   4.560 -0.1674 -0.4237 -0.4390
 8527SOL    HW137040   2.608   1.189   4.512 -1.5020  1.2928  1.7780
 8527SOL    HW237041   2.710   1.097   4.564 -0.8898 -0.5080  1.1804
 8528SOL     OW37042   3.050   3.334   2.406 -0.5495 -0.0421  0.0926
 8528SOL    HW137043   2.956   3.350   2.411 -0.4443 -0.1220  2.6228
 8528SOL    HW237044   3.056   3.285   2.325  0.6731 -0.1005  0.2158
 8529SOL     OW37045   1.900   0.427  10.120 -0.7227 -0.0182  0.1396
 8529SOL    HW137046   1.835   0.497  10.123 -0.0141  0.6806 -0.8135
 8529SOL    HW237047   1.842   0.352  10.115 -1.8102  0.7173  1.6806
 8530SOL     OW37048   2.242   0.450   6.058  0.6130  0.8917 -0.0758
 8530SOL    HW137049   2.247   0.542   6.033  2.1934  0.1968 -2.2104
 8530SOL    HW237050   2.284   0.401   5.988 -1.0795 -1.7011  0.7082
 8531SOL     OW37051   0.408   4.188   4.835  0.4653  0.1346 -0.3847
 8531SOL    HW137052   0.491   4.235   4.830  0.3352  0.3277 -0.7745
 8531SOL    HW237053   0.432   4.097   4.852  0.8776  0.4109  0.4639
 8532SOL     OW37054   2.124   1.241   7.643  0.4089  0.6234 -0.4773
 8532SOL    HW137055   2.137   1.330   7.673 -2.7347  0.9330 -0.0181
 8532SOL    HW237056   2.188   1.240   7.571  0.5309  2.3800 -0.3723
 8533SOL     OW37057   1.100   0.317   0.255 -0.2171 -0.1184  0.6390
 8533SOL    HW137058   1.136   0.273   0.332  0.8845 -2.3354 -1.1553
 8533SOL    HW237059   1.167   0.376   0.220 -0.8080  0.5932  0.7052
 8534SOL     OW37060   1.063   0.576  13.138  0.0847  0.1801 -0.3824
 8534SOL    HW137061   0.968   0.568  13.127  0.2340 -2.1682  0.0044
 8534SOL    HW237062   1.085   0.537  13.222 -2.0473 -0.9579 -0.3654
 8535SOL     OW37063   2.772   2.315   8.717  0.0014  0.8304 -0.0834
 8535SOL    HW137064   2.787   2.363   8.799  1.0324  1.1448 -0.4577
 8535SOL    HW237065   2.738   2.230   8.744  1.3695  0.1860 -0.4170
 8536SOL     OW37066   2.989   1.076   6.802 -0.1529  0.2707 -0.0758
 8536SOL    HW137067   3.062   1.064   6.742  1.7111  1.6727  1.9158
 8536SOL    HW237068   2.953   0.987   6.807  0.8760 -0.2709 -2.4328
 8537SOL     OW37069   3.800   2.716  15.104 -0.0875  0.2214 -0.0474
 8537SOL    HW137070   3.766   2.632  15.135  0.7992 -0.3578 -0.6208
 8537SOL    HW237071   3.789   2.705  15.010  1.1047 -0.0616 -0.1530
 8538SOL     OW37072   4.368   2.044   6.341  0.7611  0.3559 -0.0590
 8538SOL    HW137073   4.302   1.975   6.347  2.3720 -0.9877  2.3999
 8538SOL    HW237074   4.433   2.004   6.399  0.8949 -2.7107 -2.3508
 8539SOL     OW37075   1.569   0.483   5.218  0.4428 -0.0822  0.2702
 8539SOL    HW137076   1.565   0.534   5.299  4.1839  0.6832 -0.0408
 8539SOL    HW237077   1.482   0.444   5.221  1.2479 -1.9182 -0.0854
 8540SOL     OW37078   2.646   3.494   0.139 -0.0058  0.5928 -0.1585
 8540SOL    HW137079   2.643   3.488   0.044 -0.2558  0.8804 -0.1688
 8540SOL    HW237080   2.632   3.405   0.173 -0.2500  0.4626 -0.6079
 8541SOL     OW37081   2.026   0.053  17.442  0.2463 -0.1641  0.3062
 8541SOL    HW137082   2.039   4.705  17.501 -2.6201 -1.2383 -0.3952
 8541SOL    HW237083   2.064   0.133  17.479  0.1870  0.3028 -0.6534
 8542SOL     OW37084   1.246   3.723   2.760  0.1934 -0.0392  0.1999
 8542SOL    HW137085   1.207   3.786   2.821  1.8690 -0.0585  1.2974
 8542SOL    HW237086   1.277   3.783   2.691 -0.2472 -0.4489 -0.3529
 8543SOL     OW37087   0.118   3.701   1.801 -0.6102  0.7876 -0.0077
 8543SOL    HW137088   0.029   3.712   1.835 -0.5480 -1.4154  0.8756
 8543SOL    HW237089   0.097   3.695   1.708  0.3965 -0.7747 -0.1393
 8544SOL     OW37090   3.844   3.183  16.373 -0.0371  0.1446 -0.3698
 8544SOL    HW137091   3.780   3.247  16.341  0.2593  0.7979  0.3525
 8544SOL    HW237092   3.805   3.176  16.461  0.7874 -2.3074 -0.2061
 8545SOL     OW37093   0.923   0.328   4.661 -0.4800  0.1519 -0.6900
 8545SOL    HW137094   0.873   0.329   4.743 -2.1198  0.2407 -1.6959
 8545SOL    HW237095   0.970   0.247   4.683  1.2618  1.3625  0.0517
 8546SOL     OW37096   4.513   1.142   4.866  0.2477 -0.5832 -0.1708
 8546SOL    HW137097   4.505   1.141   4.771  0.5193  0.3621 -0.2103
 8546SOL    HW237098   4.472   1.058   4.886 -1.9111  0.2628 -1.0801
 8547SOL     OW37099   2.840   4.158   1.882 -0.1779  0.5816 -0.1222
 8547SOL    HW137100   2.760   4.146   1.830  0.0515  0.2960 -0.4059
 8547SOL    HW237101   2.900   4.194   1.817  2.1078 -1.1525  1.0418
 8548SOL     OW37102   3.748   0.345   6.177 -0.2588 -0.0695 -0.8942
 8548SOL    HW137103   3.835   0.357   6.214 -1.0042  1.4254  0.3915
 8548SOL    HW237104   3.694   0.407   6.226 -0.9069 -2.5974  1.5690
 8549SOL     OW37105   1.370   1.290   5.308  0.6458  0.1030 -0.1221
 8549SOL    HW137106   1.329   1.322   5.228 -1.1088  0.7064  1.0281
 8549SOL    HW237107   1.289   1.252   5.343  0.0272  0.3809 -1.2411
 8550SOL     OW37108   0.978   0.993   9.076  0.2339  1.0697  0.3578
 8550SOL    HW137109   1.055   1.050   9.079  1.0531  0.1606 -2.6199
 8550SOL    HW237110   0.941   1.003   9.163  0.1261 -0.2211  0.4604
 8551SOL     OW37111   1.482   2.707   8.206  0.3475 -0.0180  0.5949
 8551SOL    HW137112   1.510   2.623   8.172  0.5808  1.0395 -1.8259
 8551SOL    HW237113   1.403   2.735   8.159  0.7590  1.9326  1.0467
 8552SOL     OW37114   4.556   4.242   8.192 -0.3528  0.1226  0.0289
 8552SOL    HW137115   4.536   4.307   8.259  0.3053 -0.9703  1.2700
 8552SOL    HW237116   4.615   4.187   8.243 -0.6744 -0.0858  0.1720
 8553SOL     OW37117   4.372   0.762  17.331 -0.5920  0.0444 -0.2568
 8553SOL    HW137118   4.313   0.688  17.350 -1.2319  1.1181  1.9530
 8553SOL    HW237119   4.374   0.813  17.411  2.3729  1.0930 -1.0266
 8554SOL     OW37120   0.988   2.985   3.816  0.1247 -0.1963 -0.3662
 8554SOL    HW137121   0.993   3.080   3.831 -0.0976  0.1952 -2.7413
 8554SOL    HW237122   0.914   2.963   3.872  0.2175 -2.3670 -1.1201
 8555SOL     OW37123   1.671   3.475   6.611  0.3972  0.2626  0.2178
 8555SOL    HW137124   1.600   3.425   6.571  1.6116 -1.1795 -0.1629
 8555SOL    HW237125   1.624   3.524   6.679 -0.4964 -0.4131  0.0897
 8556SOL     OW37126   0.492   4.609  16.235 -0.5344 -0.2321  0.7316
 8556SOL    HW137127   0.559   4.566  16.183 -0.2022  0.7682  0.3401
 8556SOL    HW237128   0.528   4.595  16.323 -1.3390 -1.9720  0.7834
 8557SOL     OW37129   1.775   0.756   0.956 -0.8556  0.0762  0.1365
 8557SOL    HW137130   1.794   0.681   0.900 -0.7735  0.6400 -0.5930
 8557SOL    HW237131   1.864   0.774   0.985 -1.4899  0.5041  1.8076
 8558SOL     OW37132   4.286   2.101   1.975  0.5708 -0.5137  0.3135
 8558SOL    HW137133   4.314   2.190   1.956  0.4060 -0.2510  1.3223
 8558SOL    HW237134   4.193   2.121   1.967  0.3141 -2.2793 -1.1475
 8559SOL     OW37135   3.739   4.639   8.517 -0.1587 -0.3408  1.0022
 8559SOL    HW137136   3.673   4.708   8.519 -1.0744 -1.2072  0.4987
 8559SOL    HW237137   3.680   4.566   8.503  2.1554 -1.2848 -3.7360
 8560SOL     OW37138   3.641   0.264   5.790 -0.4524 -0.0498 -0.7682
 8560SOL    HW137139   3.629   0.170   5.780 -0.6874 -0.1067  0.0635
 8560SOL    HW237140   3.583   0.286   5.862 -0.1804 -1.4521 -0.1222
 8561SOL     OW37141   0.474   2.110   2.448  0.7071  0.5319 -0.2097
 8561SOL    HW137142   0.485   2.139   2.358 -0.8007  1.1494 -0.1916
 8561SOL    HW237143   0.475   2.198   2.485 -0.3642 -0.9559  3.4488
 8562SOL     OW37144   1.393   2.478   2.379  0.5374  0.9196  0.2147
 8562SOL    HW137145   1.446   2.406   2.345 -0.3362  1.3251 -2.0042
 8562SOL    HW237146   1.462   2.532   2.419  2.8366 -0.0442 -2.4513
 8563SOL     OW37147   2.543   1.833   1.752  0.2753 -0.4109 -0.6073
 8563SOL    HW137148   2.502   1.850   1.667 -0.7287  0.1019 -0.0226
 8563SOL    HW237149   2.602   1.761   1.733  1.4590  0.1660  0.8857
 8564SOL     OW37150   3.653   1.489  10.655  0.6640  0.3466 -0.0715
 8564SOL    HW137151   3.701   1.414  10.622 -0.9205  0.5577 -2.8406
 8564SOL    HW237152   3.642   1.462  10.747 -2.8740  1.9999  0.0239
 8565SOL     OW37153   3.027   1.261   8.159 -0.3557  0.3876  0.4088
 8565SOL    HW137154   3.075   1.182   8.186 -0.0153  0.1324 -0.9578
 8565SOL    HW237155   3.092   1.318   8.117  1.0195 -1.4425  0.0113
 8566SOL     OW37156   4.496   3.486   7.275  0.1587  0.2659 -0.4852
 8566SOL    HW137157   4.487   3.508   7.182  0.6611  1.0956 -0.3409
 8566SOL    HW237158   4.525   3.568   7.314  0.0279 -0.2989  0.7710
 8567SOL     OW37159   4.620   1.792  17.064  0.5702 -0.1541 -0.5095
 8567SOL    HW137160   4.604   1.882  17.090 -0.3383 -0.1725 -1.0016
 8567SOL    HW237161   4.529   1.775  17.040  0.5047 -0.4737 -0.0394
 8568SOL     OW37162   2.119   1.977   8.548 -0.1083 -0.8960  0.2960
 8568SOL    HW137163   2.123   2.066   8.582  0.1606 -0.4792 -0.8298
 8568SOL    HW237164   2.028   1.952   8.565 -0.9617  0.6254 -2.1279
 8569SOL     OW37165   1.048   0.097   4.750  0.4295  0.4427 -0.3956
 8569SOL    HW137166   1.132   0.063   4.721  0.3446 -0.6903  0.7364
 8569SOL    HW237167   1.069   0.122   4.839  0.5124  1.3568 -0.6697
 8570SOL     OW37168   1.508   3.902   6.157  0.2643 -0.5559 -0.2899
 8570SOL    HW137169   1.577   3.878   6.219  1.2614  3.6463  0.2763
 8570SOL    HW237170   1.510   3.997   6.173  0.8167 -0.8414  1.3825
 8571SOL     OW37171   4.394   1.085   2.455  0.8603 -0.1588 -0.5033
 8571SOL    HW137172   4.420   1.003   2.497  1.5786  0.3390  0.0398
 8571SOL    HW237173   4.457   1.095   2.383  1.3139 -0.9814 -0.2237
 8572SOL     OW37174   1.770   0.188   9.273  0.3658  0.2972  0.2497
 8572SOL    HW137175   1.681   0.187   9.237  0.2945 -0.4181  0.4477
 8572SOL    HW237176   1.807   0.257   9.219  0.6706 -0.6338 -0.7223
 8573SOL     OW37177   1.196   3.476   2.920 -0.3455 -0.0352 -0.2509
 8573SOL    HW137178   1.288   3.459   2.898  0.0637  0.9652  0.6875
 8573SOL    HW237179   1.196   3.563   2.881  0.7795  0.7252  1.4114
 8574SOL     OW37180   2.438   0.938   5.882  0.1467 -0.4436 -0.0441
 8574SOL    HW137181   2.343   0.948   5.878  0.3798  2.7461  2.0206
 8574SOL    HW237182   2.462   1.023   5.845  0.2480 -1.0929 -1.4403
 8575SOL     OW37183   4.707   0.127  17.423  0.5444 -0.4694 -0.5542
 8575SOL    HW137184   4.613   0.136  17.408  1.0173  2.6725 -1.5323
 8575SOL    HW237185   4.719   0.036  17.395 -1.8713 -0.7362 -0.6525
 8576SOL     OW37186   3.568   3.531  16.306 -0.4527  0.1505 -0.0478
 8576SOL    HW137187   3.611   3.466  16.251  3.0677  0.2763  2.6153
 8576SOL    HW237188   3.640   3.593  16.317 -1.9322  2.0870 -1.3189
 8577SOL     OW37189   2.268   4.419   7.438  0.1863  0.2446 -0.1263
 8577SOL    HW137190   2.199   4.357   7.464  1.6419 -1.3337  0.0085
 8577SOL    HW237191   2.336   4.408   7.505  2.1472  1.5557 -1.9135
 8578SOL     OW37192   1.633   0.602  17.227  0.1648  0.6750 -0.2381
 8578SOL    HW137193   1.631   0.565  17.138  1.3897 -0.1161  0.0627
 8578SOL    HW237194   1.713   0.568  17.266 -1.5710 -2.8905  0.2013
 8579SOL     OW37195   2.632   1.602  14.352 -0.4186  0.8352  0.6555
 8579SOL    HW137196   2.664   1.574  14.438  0.7024  0.9412  0.2723
 8579SOL    HW237197   2.678   1.543  14.291 -1.4847 -0.0479  0.7143
 8580SOL     OW37198   2.153   3.872   7.998 -0.1707  0.7705  0.1713
 8580SOL    HW137199   2.180   3.951   7.952  0.4739  0.5316  0.1361
 8580SOL    HW237200   2.122   3.818   7.925 -2.1897  0.9748  0.8779
 8581SOL     OW37201   2.416   1.264   6.883  0.5063 -0.3921 -0.0830
 8581SOL    HW137202   2.420   1.335   6.947  2.4353 -0.8893  0.3402
 8581SOL    HW237203   2.475   1.290   6.813  2.0157  0.5107  1.5062
 8582SOL     OW37204   3.319   0.034   2.244  0.0261 -0.1169 -0.2283
 8582SOL    HW137205   3.228   0.004   2.251  0.1463 -0.5475 -0.4887
 8582SOL    HW237206   3.367   4.698   2.300  0.1949 -0.6429 -0.9610
 8583SOL     OW37207   2.295   2.006   6.836  0.3050 -0.6100  0.3219
 8583SOL    HW137208   2.352   2.021   6.760  0.3636  0.8174  0.6564
 8583SOL    HW237209   2.350   1.948   6.888 -0.3368 -0.9949  0.5762
 8584SOL     OW37210   4.431   4.522   4.515  0.8648  0.0387  0.0445
 8584SOL    HW137211   4.437   4.451   4.579  0.5504  1.7823  2.0157
 8584SOL    HW237212   4.337   4.526   4.499  0.5711  0.6940  1.8399
 8585SOL     OW37213   4.460   1.876   4.910 -0.1101  0.8303 -0.2110
 8585SOL    HW137214   4.435   1.899   4.820 -0.1492 -0.1418 -0.4498
 8585SOL    HW237215   4.468   1.781   4.905  1.1290  0.7860  2.4094
 8586SOL     OW37216   2.569   2.877   8.392 -0.6756  0.2577 -0.4306
 8586SOL    HW137217   2.598   2.892   8.482 -0.7688  1.6810 -0.6443
 8586SOL    HW237218   2.570   2.781   8.388 -0.5473  0.2917 -1.2192
 8587SOL     OW37219   3.933   1.683   3.370 -0.5798 -0.2968 -1.0988
 8587SOL    HW137220   3.859   1.742   3.358  0.9890  2.1163  1.2876
 8587SOL    HW237221   3.983   1.708   3.292 -0.1829 -1.3531 -1.1827
 8588SOL     OW37222   2.131   3.297   8.387 -0.3472 -0.2007 -0.1626
 8588SOL    HW137223   2.189   3.347   8.444 -1.2700  0.9824 -0.2638
 8588SOL    HW237224   2.043   3.319   8.418 -0.4889 -1.8571  0.6070
 8589SOL     OW37225   2.173   1.507   4.023  0.1242  0.1707  0.3519
 8589SOL    HW137226   2.092   1.462   3.999 -0.2126  0.4156  1.0491
 8589SOL    HW237227   2.180   1.573   3.954  1.6602 -2.5455 -2.1121
 8590SOL     OW37228   2.755   3.048   8.277 -0.2704 -0.0531 -0.4141
 8590SOL    HW137229   2.699   3.122   8.257 -0.3133  0.2155  0.7079
 8590SOL    HW237230   2.697   2.973   8.289 -1.6929  0.6513 -2.9790
 8591SOL     OW37231   0.907   0.037   6.246 -0.1151  0.2982 -0.1963
 8591SOL    HW137232   0.854   0.081   6.312 -0.2755  3.0978 -2.1713
 8591SOL    HW237233   0.961   0.107   6.210  0.6846  0.1836  0.7645
 8592SOL     OW37234   2.264   3.603  16.199  0.2156  0.5159 -0.0641
 8592SOL    HW137235   2.345   3.553  16.216 -0.3343 -0.2706  0.2439
 8592SOL    HW237236   2.289   3.687  16.236  1.2569  0.0568  0.2886
 8593SOL     OW37237   0.330   3.131  13.699  0.2206 -0.5487 -0.1795
 8593SOL    HW137238   0.308   3.213  13.655 -0.2436 -0.3425  0.4372
 8593SOL    HW237239   0.425   3.142  13.708  0.0069 -1.2580  3.0194
 8594SOL     OW37240   2.370   2.016   9.171  0.3233 -0.3621  0.0888
 8594SOL    HW137241   2.370   2.109   9.191  0.7395  0.4328 -3.6430
 8594SOL    HW237242   2.459   1.997   9.199  0.1745  0.8725  1.3599
 8595SOL     OW37243   1.296   3.702   6.245  0.3409  0.2275 -0.5747
 8595SOL    HW137244   1.370   3.761   6.229 -0.7483  2.1067  1.2366
 8595SOL    HW237245   1.250   3.748   6.316  0.3267 -0.4946 -0.1211
 8596SOL     OW37246   2.165   0.175   2.549 -0.7542 -0.0840 -0.6396
 8596SOL    HW137247   2.136   0.120   2.475 -2.6099 -0.1117  0.1190
 8596SOL    HW237248   2.242   0.219   2.512  1.3613 -1.1703  2.5231
 8597SOL     OW37249   4.267   0.104   9.706  0.3928 -0.1960 -0.4675
 8597SOL    HW137250   4.259   0.199   9.716 -0.7343 -0.2203 -1.1171
 8597SOL    HW237251   4.262   0.081   9.799  2.5023  1.0095 -0.0426
 8598SOL     OW37252   1.629   0.540   4.937  0.3248 -0.2533 -0.1413
 8598SOL    HW137253   1.541   0.575   4.926  0.8572  1.5102  1.1050
 8598SOL    HW237254   1.638   0.531   5.032  2.1651  1.4205 -0.1441
 8599SOL     OW37255   2.975   1.857   2.288  0.7223 -0.0902 -0.2105
 8599SOL    HW137256   2.928   1.931   2.326  0.4017 -0.5183  0.2198
 8599SOL    HW237257   3.031   1.836   2.363  0.5136  1.4580  0.3798
 8600SOL     OW37258   0.512   0.010   3.960 -0.1430  0.3000  0.5044
 8600SOL    HW137259   0.535   0.034   3.870  1.9667  0.2531  1.0320
 8600SOL    HW237260   0.417   0.018   3.948  0.2410  0.5081 -2.4303
 8601SOL     OW37261   4.116   2.714  16.332  0.0176  0.1762  0.2324
 8601SOL    HW137262   4.076   2.635  16.370 -1.2346  1.1839  1.0221
 8601SOL    HW237263   4.043   2.740  16.276 -0.2843  3.3712  2.1478
 8602SOL     OW37264   2.003   3.924   7.557  0.1664  0.0259  0.1442
 8602SOL    HW137265   2.000   3.937   7.462 -2.3222  1.3163  0.3942
 8602SOL    HW237266   1.911   3.933   7.584  0.2515 -1.2766  0.8266
 8603SOL     OW37267   4.713   2.565  13.507 -0.1712 -0.0374  0.3587
 8603SOL    HW137268   4.650   2.494  13.519 -0.6515  0.0325 -1.8404
 8603SOL    HW237269   4.684   2.620  13.580 -0.9175  0.6796 -0.4767
 8604SOL     OW37270   1.517   1.224   9.813 -0.0851 -0.4401 -0.3201
 8604SOL    HW137271   1.591   1.242   9.871 -0.0648  0.0539 -0.5043
 8604SOL    HW237272   1.474   1.143   9.841 -1.1782 -0.0177 -0.7995
 8605SOL     OW37273   3.249   1.582  10.381 -0.6005 -0.3109 -0.2802
 8605SOL    HW137274   3.173   1.619  10.426  0.5010  0.9400  0.5493
 8605SOL    HW237275   3.265   1.519  10.452 -1.9983  0.9006  1.0993
 8606SOL     OW37276   2.422   2.176   7.637  0.0729 -0.3827  0.1832
 8606SOL    HW137277   2.446   2.148   7.725 -2.0151 -1.2660  0.4694
 8606SOL    HW237278   2.429   2.093   7.589 -2.3085 -1.5598  1.9056
 8607SOL     OW37279   2.506   1.020   0.381 -0.4251 -0.6393 -0.1744
 8607SOL    HW137280   2.423   1.016   0.428 -0.0569  0.9246  0.6058
 8607SOL    HW237281   2.492   1.108   0.346 -1.3623 -1.7765 -2.6554
 8608SOL     OW37282   1.061   3.973  14.642 -0.0882  0.7130  0.1777
 8608SOL    HW137283   1.108   4.040  14.592  0.6178  0.4860  0.5349
 8608SOL    HW237284   1.108   3.898  14.606 -0.0851  1.5226 -1.5012
 8609SOL     OW37285   2.869   1.852  11.392 -0.0150  0.0352  0.0297
 8609SOL    HW137286   2.855   1.925  11.331  1.3069  0.0197 -0.3135
 8609SOL    HW237287   2.835   1.887  11.474 -0.1667  1.2415 -0.5451
 8610SOL     OW37288   3.901   0.221   4.033  0.3309 -0.3468 -0.1454
 8610SOL    HW137289   3.985   0.252   3.999  0.1327  1.2694  0.8449
 8610SOL    HW237290   3.842   0.284   3.992  2.5347  1.0622 -1.0820
 8611SOL     OW37291   3.652   2.120   7.479  0.5054 -0.1013  0.1069
 8611SOL    HW137292   3.745   2.100   7.491  0.4765 -1.1400 -1.2563
 8611SOL    HW237293   3.634   2.034   7.439 -2.8937 -0.2663  1.9747
 8612SOL     OW37294   2.812   1.567  15.599 -0.4541 -0.2380  0.1052
 8612SOL    HW137295   2.804   1.544  15.691  0.2225  1.4831  0.5966
 8612SOL    HW237296   2.730   1.534  15.563 -0.7290 -0.2632  0.7755
 8613SOL     OW37297   3.444   1.464  12.016 -0.6221 -0.2867 -0.1508
 8613SOL    HW137298   3.497   1.497  11.944 -0.4252 -0.3981 -0.0569
 8613SOL    HW237299   3.368   1.449  11.960  0.0349 -2.0024 -0.5644
 8614SOL     OW37300   2.872   2.088   6.656  0.3439 -0.7173  0.2940
 8614SOL    HW137301   2.861   2.105   6.562 -1.9437  0.2023  0.7365
 8614SOL    HW237302   2.780   2.087   6.684  0.8755 -2.7418  1.9390
 8615SOL     OW37303   2.145   3.895   2.744  0.1038  0.2334  0.4585
 8615SOL    HW137304   2.070   3.839   2.727  0.2367 -0.2852  1.5419
 8615SOL    HW237305   2.118   3.975   2.700  2.7049  1.1315  0.4832
 8616SOL     OW37306   3.075   4.379   4.585  0.0344 -0.3033 -0.3086
 8616SOL    HW137307   3.074   4.306   4.648 -0.0857  1.1227  1.3546
 8616SOL    HW237308   3.101   4.449   4.644 -0.0985 -0.3474 -0.1977
 8617SOL     OW37309   3.849   2.998   4.634 -0.4564 -0.0325 -0.5111
 8617SOL    HW137310   3.899   3.056   4.691 -0.1229  0.6368 -1.4806
 8617SOL    HW237311   3.907   2.921   4.629  0.8949  1.1101 -2.4080
 8618SOL     OW37312   1.921   3.181   6.841 -0.0576 -0.0385  0.2642
 8618SOL    HW137313   1.950   3.269   6.815  1.1490  0.4278  3.1921
 8618SOL    HW237314   1.825   3.180   6.837 -0.0666  2.0371 -0.0129
 8619SOL     OW37315   2.495   1.231   7.912  0.1186  0.0407  0.2505
 8619SOL    HW137316   2.574   1.188   7.945 -0.6150 -3.0579 -2.0223
 8619SOL    HW237317   2.467   1.165   7.849 -0.0004 -0.0051  0.3516
 8620SOL     OW37318   2.465   0.050   9.336  0.0939  0.4078  0.0939
 8620SOL    HW137319   2.507   0.133   9.359  1.3586 -0.2284  0.0850
 8620SOL    HW237320   2.531   4.710   9.358  0.1912  1.0275  1.6880
 8621SOL     OW37321   0.994   3.377   0.273  0.1319 -0.5957  0.1857
 8621SOL    HW137322   0.976   3.367   0.179  0.7590  0.3946 -0.0375
 8621SOL    HW237323   0.931   3.446   0.295  0.1058 -0.5898  0.0963
 8622SOL     OW37324   3.061   3.604   3.131  0.0569  0.1194  0.1698
 8622SOL    HW137325   3.095   3.673   3.073 -0.5478 -0.0523 -0.3831
 8622SOL    HW237326   2.967   3.620   3.128  0.1258  0.6250  0.5381
 8623SOL     OW37327   3.010   1.023   6.139  0.0336  0.5001 -0.8846
 8623SOL    HW137328   2.969   0.948   6.095  1.3384 -1.1522  0.7296
 8623SOL    HW237329   3.099   0.988   6.147  0.8377  2.1803 -2.4936
 8624SOL     OW37330   0.154   3.169   1.909 -0.6152 -0.7722  0.3559
 8624SOL    HW137331   0.167   3.262   1.892 -2.8331 -0.6876 -0.8356
 8624SOL    HW237332   0.227   3.151   1.969  1.4803  1.6910 -1.4505
 8625SOL     OW37333   3.048   0.347   7.533  0.5756  0.0357  0.1771
 8625SOL    HW137334   3.049   0.280   7.602 -2.3854 -0.4175 -0.2335
 8625SOL    HW237335   3.092   0.414   7.586  0.7251  0.6070 -0.6699
 8626SOL     OW37336   0.815   1.354   1.384 -0.2913 -0.4405  0.0161
 8626SOL    HW137337   0.835   1.401   1.465 -1.1765  0.5018 -0.3183
 8626SOL    HW237338   0.745   1.411   1.353  0.6243 -0.1634 -1.5366
 8627SOL     OW37339   0.169   4.311  17.197 -0.2812 -0.5997  0.4777
 8627SOL    HW137340   0.142   4.247  17.263 -2.1414  0.6485  0.9360
 8627SOL    HW237341   0.084   4.356  17.195  0.5920  0.9585 -1.4652
 8628SOL     OW37342   4.153   3.393  13.396  0.2377 -0.0850 -0.4339
 8628SOL    HW137343   4.088   3.424  13.333  0.9463  1.9888 -0.1622
 8628SOL    HW237344   4.121   3.438  13.474  3.2097  0.2208  0.5937
 8629SOL     OW37345   4.506   0.398   5.883 -0.2356  0.4636  0.0320
 8629SOL    HW137346   4.500   0.493   5.881 -1.3791  0.3481 -1.8813
 8629SOL    HW237347   4.580   0.377   5.827 -0.0906  0.8003  0.1005
 8630SOL     OW37348   0.086   2.044  12.643  0.3023 -0.6882 -0.2777
 8630SOL    HW137349   0.009   2.042  12.700  1.0908 -0.5695  0.7743
 8630SOL    HW237350   0.124   2.132  12.647  1.3899 -1.1467 -0.6123
 8631SOL     OW37351   0.245   0.555   6.372  0.3267 -0.5276 -1.3556
 8631SOL    HW137352   0.165   0.517   6.407  0.1255 -0.8813 -2.1887
 8631SOL    HW237353   0.226   0.647   6.390 -0.3129 -1.0413  0.5334
 8632SOL     OW37354   4.415   2.035   0.563  0.1640 -0.8626  0.3437
 8632SOL    HW137355   4.474   2.049   0.636  0.5121 -2.7431  0.4139
 8632SOL    HW237356   4.426   1.941   0.550 -1.5851 -1.3688  2.6687
 8633SOL     OW37357   0.656   3.572  11.131  0.3445 -0.1970 -0.2598
 8633SOL    HW137358   0.696   3.502  11.080  2.4727  0.8588 -0.0237
 8633SOL    HW237359   0.709   3.566  11.211 -0.1282 -1.6288 -0.0533
 8634SOL     OW37360   0.660   1.573   4.598  0.0546  0.4570  0.1247
 8634SOL    HW137361   0.566   1.590   4.610  0.3125  1.3158  0.9722
 8634SOL    HW237362   0.696   1.584   4.686 -1.9636  1.2197  0.8826
 8635SOL     OW37363   4.341   2.257   5.493 -0.5009  0.1673 -0.0715
 8635SOL    HW137364   4.425   2.287   5.458 -0.3660 -0.2456 -0.1019
 8635SOL    HW237365   4.328   2.180   5.438  0.6172  0.8524 -1.2821
 8636SOL     OW37366   2.674   0.388  10.968  0.1678 -0.2483 -0.3016
 8636SOL    HW137367   2.659   0.423  10.880  1.0468 -1.0816 -0.7844
 8636SOL    HW237368   2.723   0.461  11.006 -0.8669  0.8045 -0.9678
 8637SOL     OW37369   2.274   2.836  11.220  0.8224 -0.0399 -0.1650
 8637SOL    HW137370   2.319   2.835  11.136 -1.0486 -1.1122 -1.1603
 8637SOL    HW237371   2.249   2.928  11.209 -1.3266 -0.6472 -0.4022
 8638SOL     OW37372   2.995   3.335   3.058  0.1413  0.2346  0.0076
 8638SOL    HW137373   2.906   3.346   3.026  0.8255  1.6068 -1.3909
 8638SOL    HW237374   3.012   3.425   3.086 -2.0158  1.0272 -1.2920
 8639SOL     OW37375   4.154   1.855   8.331  0.1377  0.5331 -0.5695
 8639SOL    HW137376   4.074   1.866   8.383  0.4961  0.3495  0.0196
 8639SOL    HW237377   4.114   1.785   8.278  0.2877 -1.1009  1.4544
 8640SOL     OW37378   1.565   2.329   0.274 -0.8218  0.1202 -0.1413
 8640SOL    HW137379   1.618   2.407   0.289 -1.0368  0.0384  0.9870
 8640SOL    HW237380   1.534   2.343   0.184 -1.4163  0.2871  0.0929
 8641SOL     OW37381   3.072   4.717   5.858  0.5373 -0.0485 -0.4900
 8641SOL    HW137382   3.017   4.657   5.909 -0.8178  1.0451 -0.6492
 8641SOL    HW237383   3.000   0.028   5.807  2.1574 -0.1317 -2.8282
 8642SOL     OW37384   4.676   3.772   4.653  0.4392  0.4683 -0.1631
 8642SOL    HW137385   4.611   3.789   4.585  1.6805 -0.4189 -1.5784
 8642SOL    HW237386   4.649   3.845   4.708 -0.8440 -1.8435  2.2798
 8643SOL     OW37387   0.931   0.114  12.974  0.1385 -0.2950  0.3998
 8643SOL    HW137388   0.972   0.190  13.017  0.3978  0.3639 -0.9852
 8643SOL    HW237389   0.896   0.163  12.900 -0.0688 -1.7328 -0.4486
 8644SOL     OW37390   0.631   4.200  16.165 -0.9595 -0.6201 -0.7353
 8644SOL    HW137391   0.556   4.141  16.159 -0.5850 -1.1402 -0.3020
 8644SOL    HW237392   0.599   4.244  16.244  3.6292  2.2702 -0.4500
 8645SOL     OW37393   2.378   1.397   4.426 -0.2372  0.1447 -0.2730
 8645SOL    HW137394   2.329   1.413   4.507 -2.4528 -1.9682 -1.1953
 8645SOL    HW237395   2.342   1.469   4.374 -1.3870 -0.4418 -0.2881
 8646SOL     OW37396   1.825   4.641  15.809 -0.1717  0.1850  0.4606
 8646SOL    HW137397   1.885   4.604  15.875  0.6720 -0.3016 -0.5843
 8646SOL    HW237398   1.877   4.664  15.733  0.2441 -0.8003  0.4423
 8647SOL     OW37399   3.501   3.980   4.036 -1.0984 -0.0871 -0.0052
 8647SOL    HW137400   3.443   3.957   4.109 -0.4588  0.0050  0.5234
 8647SOL    HW237401   3.502   4.075   4.045 -1.2301  0.0595 -1.5520
 8648SOL     OW37402   2.087   1.150   9.369 -0.5923 -0.0670 -0.3224
 8648SOL    HW137403   2.157   1.195   9.417 -0.9617  0.7590 -0.5634
 8648SOL    HW237404   2.003   1.171   9.410  0.2315  1.4695  0.5555
 8649SOL     OW37405   1.000   4.189   6.591 -0.5960 -0.3415 -0.3443
 8649SOL    HW137406   0.943   4.237   6.652  0.1158 -2.2274  1.7881
 8649SOL    HW237407   1.063   4.257   6.565 -0.9998  0.4223  0.6267
 8650SOL     OW37408   1.462   2.140   8.484  0.1374  0.1960  0.0169
 8650SOL    HW137409   1.464   2.213   8.422  1.6151 -0.4590 -0.6857
 8650SOL    HW237410   1.482   2.186   8.566 -1.6715  1.6100 -0.3367
 8651SOL     OW37411   1.623   1.591   8.031  0.2159  0.1601  0.0525
 8651SOL    HW137412   1.559   1.564   8.096 -1.6887 -0.2759 -1.9910
 8651SOL    HW237413   1.693   1.530   8.055 -0.5073 -0.0887  1.5081
 8652SOL     OW37414   4.372   1.587   5.340  0.1296 -0.0261 -0.0164
 8652SOL    HW137415   4.339   1.568   5.428 -2.4610  0.4160 -0.8995
 8652SOL    HW237416   4.292   1.630   5.311  0.3009  1.2076  1.3333
 8653SOL     OW37417   3.633   1.365   1.575 -0.2177  0.6190  0.1330
 8653SOL    HW137418   3.669   1.309   1.644  2.8291 -0.8208 -2.6328
 8653SOL    HW237419   3.564   1.312   1.534 -0.6278  1.8013 -0.6957
 8654SOL     OW37420   3.477   3.988  14.538 -0.4877  0.8618 -0.0591
 8654SOL    HW137421   3.563   3.952  14.514 -0.9406 -1.0094  1.1236
 8654SOL    HW237422   3.420   3.927  14.492  1.1820 -1.4998  0.9985
 8655SOL     OW37423   3.944   2.850   5.012  0.5726 -0.1903 -0.3190
 8655SOL    HW137424   3.874   2.888   4.959  0.6770  0.2813 -0.1155
 8655SOL    HW237425   3.975   2.926   5.062 -0.3631  0.4016 -0.6426
 8656SOL     OW37426   3.730   2.013   4.646 -0.3445  0.0488  0.4392
 8656SOL    HW137427   3.677   1.958   4.704 -1.8153 -1.3697 -2.2046
 8656SOL    HW237428   3.684   2.004   4.562 -0.3229 -0.7966  0.5200
 8657SOL     OW37429   3.617   1.784   4.831  0.0921  0.1266 -0.6253
 8657SOL    HW137430   3.535   1.815   4.870  1.8161  1.0241  2.2468
 8657SOL    HW237431   3.677   1.811   4.900 -1.6338  0.7479  0.6219
 8658SOL     OW37432   2.081   3.090   2.090 -0.3247 -0.2407 -0.1474
 8658SOL    HW137433   2.053   3.045   2.170  1.4843  0.0526  0.6398
 8658SOL    HW237434   2.063   3.028   2.020  0.3409 -0.1953 -0.3542
 8659SOL     OW37435   2.106   2.654  10.417  0.3203  0.7438  0.2386
 8659SOL    HW137436   2.171   2.713  10.378  1.0064  0.6047  1.1618
 8659SOL    HW237437   2.140   2.572  10.381 -1.8700 -0.2622  0.4791
 8660SOL     OW37438   3.253   0.794  16.170  0.0677  0.0852  0.5043
 8660SOL    HW137439   3.182   0.858  16.161  1.0112  1.1601  0.7814
 8660SOL    HW237440   3.290   0.810  16.083 -0.3839  2.0618  0.6870
 8661SOL     OW37441   0.924   3.107   1.437  0.0071 -0.7204  0.8944
 8661SOL    HW137442   1.016   3.132   1.429 -0.4414  0.0389 -1.7630
 8661SOL    HW237443   0.876   3.188   1.419 -0.2740 -0.6601  1.9231
 8662SOL     OW37444   1.957   0.794  10.720  0.1460  0.4052 -0.0042
 8662SOL    HW137445   1.875   0.787  10.770  0.1919  2.5287  0.3787
 8662SOL    HW237446   2.010   0.866  10.754  1.1863  0.3270 -1.4689
 8663SOL     OW37447   4.246   4.343  14.544 -0.0744  0.4580  0.0812
 8663SOL    HW137448   4.248   4.365  14.637  1.4861 -1.4536  0.4909
 8663SOL    HW237449   4.297   4.416  14.509  0.3696 -0.6077 -1.5141
 8664SOL     OW37450   3.996   0.339  10.739 -0.1361 -0.3811  0.1430
 8664SOL    HW137451   3.924   0.325  10.800  1.4015  0.3106  2.1404
 8664SOL    HW237452   4.054   0.267  10.765  0.8497 -1.0700 -3.9453
 8665SOL     OW37453   1.556   0.583   9.357 -0.3674  0.0048 -0.4948
 8665SOL    HW137454   1.545   0.488   9.365 -1.5729  0.1881 -0.0765
 8665SOL    HW237455   1.556   0.587   9.261  0.1820 -1.0439 -0.5429
 8666SOL     OW37456   1.045   2.594  16.450  0.0870  0.6386 -0.1661
 8666SOL    HW137457   1.133   2.565  16.424  0.4137  0.8909  0.6638
 8666SOL    HW237458   1.017   2.641  16.371 -1.8865 -1.0272 -0.4515
 8667SOL     OW37459   0.404   2.078   4.615 -0.1747  0.5431 -0.0318
 8667SOL    HW137460   0.391   2.034   4.699 -0.2105 -0.1246 -0.3905
 8667SOL    HW237461   0.471   2.140   4.643  1.2298 -0.5988 -0.8683
 8668SOL     OW37462   3.149   3.482  14.017 -0.0829  0.1798 -0.4123
 8668SOL    HW137463   3.189   3.568  14.031  2.0878 -0.8235 -0.4398
 8668SOL    HW237464   3.065   3.513  13.981 -0.6664 -0.2510  0.5858
 8669SOL     OW37465   2.957   4.387   6.928  0.0410  0.0313 -0.1424
 8669SOL    HW137466   2.974   4.476   6.957  0.1601 -0.1928  0.4746
 8669SOL    HW237467   3.021   4.384   6.857 -0.1798 -0.0089 -0.3417
 8670SOL     OW37468   0.078   3.632   1.316 -0.4349  0.2109  0.0268
 8670SOL    HW137469   0.166   3.657   1.290  0.1845 -1.5303  0.3978
 8670SOL    HW237470   0.054   3.577   1.241  0.9154  0.2850 -0.4554
 8671SOL     OW37471   3.647   0.379  10.664  0.3037 -0.0297 -0.0183
 8671SOL    HW137472   3.673   0.467  10.693 -1.9316  1.0958 -1.3879
 8671SOL    HW237473   3.557   0.401  10.638  0.2433  1.7137  1.6181
 8672SOL     OW37474   0.530   1.116  15.737  0.1443  0.1608 -0.3873
 8672SOL    HW137475   0.571   1.031  15.722 -0.1088 -0.0217 -0.0535
 8672SOL    HW237476   0.466   1.075  15.795 -0.3551  0.9536 -0.3784
 8673SOL     OW37477   1.887   1.639   8.387  0.8755 -0.4190 -0.3388
 8673SOL    HW137478   1.944   1.649   8.463 -0.1368 -1.6936  0.5912
 8673SOL    HW237479   1.816   1.583   8.420  1.3592 -1.1668 -0.5798
 8674SOL     OW37480   1.359   2.384   4.093  0.3284 -0.0217  0.2889
 8674SOL    HW137481   1.371   2.434   4.012  1.3445 -0.9229 -0.1213
 8674SOL    HW237482   1.268   2.398   4.119  0.4677 -1.7049  1.7409
 8675SOL     OW37483   1.467   0.156   4.093  0.7587  0.2979  0.1390
 8675SOL    HW137484   1.472   0.144   3.998 -1.9486 -0.5423  0.0889
 8675SOL    HW237485   1.412   0.081   4.114  2.3655 -1.2090 -1.0279
 8676SOL     OW37486   1.250   3.681   3.889  0.1331 -0.0339 -0.2870
 8676SOL    HW137487   1.157   3.662   3.877 -0.0780  0.2487  0.9363
 8676SOL    HW237488   1.263   3.660   3.981 -2.2216  0.6494  0.2094
 8677SOL     OW37489   3.845   3.384   2.077  0.0518  0.0624  0.2453
 8677SOL    HW137490   3.826   3.456   2.137  2.3581 -1.3033  2.6248
 8677SOL    HW237491   3.764   3.333   2.080 -0.0186  0.0991 -0.9821
 8678SOL     OW37492   0.128   1.012   8.836  0.2615 -0.1585  0.1716
 8678SOL    HW137493   0.107   1.099   8.801 -0.2667  0.1134  1.1661
 8678SOL    HW237494   0.180   0.977   8.764 -2.4727 -1.0471 -1.3435
 8679SOL     OW37495   1.525   0.225  11.832  0.0421 -0.1056  0.0666
 8679SOL    HW137496   1.472   0.160  11.878  0.2860  0.1673  0.7266
 8679SOL    HW237497   1.559   0.287  11.896 -1.4067  0.6846  0.0664
 8680SOL     OW37498   2.411   1.482   3.378 -0.1149  0.4243  0.0925
 8680SOL    HW137499   2.325   1.462   3.341 -0.7977  2.8754  0.3554
 8680SOL    HW237500   2.465   1.436   3.314  0.8524 -0.3686  1.4749
 8681SOL     OW37501   1.673   3.416  14.959 -0.1226  0.9138  0.9322
 8681SOL    HW137502   1.671   3.502  15.000  0.9698  0.7923  1.2269
 8681SOL    HW237503   1.620   3.433  14.881  0.3414  2.6880  1.0093
 8682SOL     OW37504   3.971   4.590   2.931 -0.2241 -0.2145  0.3346
 8682SOL    HW137505   3.971   4.610   2.837 -1.6160 -0.7946  0.2217
 8682SOL    HW237506   4.036   4.520   2.934  0.1023 -0.0803 -3.0759
 8683SOL     OW37507   3.756   0.651   7.443  0.3249  0.4902  0.8810
 8683SOL    HW137508   3.838   0.643   7.491 -1.2305 -1.1502  3.2416
 8683SOL    HW237509   3.706   0.705   7.504 -0.2926 -1.1223  1.8179
 8684SOL     OW37510   1.702   0.090  16.447  0.3406  0.1061 -0.4282
 8684SOL    HW137511   1.687   0.117  16.357 -0.4530  3.5067  0.6908
 8684SOL    HW237512   1.637   0.021  16.456  0.3256 -0.0565 -1.8204
 8685SOL     OW37513   3.565   2.328   6.332 -0.4054  0.4125  0.3763
 8685SOL    HW137514   3.658   2.346   6.317  0.0689 -0.3301  2.4374
 8685SOL    HW237515   3.564   2.260   6.400 -0.1432 -0.3741 -0.4048
 8686SOL     OW37516   0.984   0.315   6.168 -0.0392 -0.1087  0.5143
 8686SOL    HW137517   1.039   0.291   6.094  0.0132 -1.7622  1.0889
 8686SOL    HW237518   0.952   0.398   6.132  1.2410 -0.1295 -0.6459
 8687SOL     OW37519   0.560   3.286  17.592 -0.1665  0.5754  0.1496
 8687SOL    HW137520   0.569   3.205  17.542 -2.4115  0.5785 -0.2347
 8687SOL    HW237521   0.601   3.269  17.677  1.3786 -0.2434 -0.7688
 8688SOL     OW37522   3.614   1.898   7.326 -0.4636  0.5034 -0.1717
 8688SOL    HW137523   3.551   1.835   7.359  0.0479  0.3370  0.4882
 8688SOL    HW237524   3.632   1.864   7.239 -0.6488  1.7528 -0.7101
 8689SOL     OW37525   2.338   1.168  11.589  0.7493  0.2881 -0.2564
 8689SOL    HW137526   2.277   1.241  11.600  0.6504  0.3720 -1.3881
 8689SOL    HW237527   2.343   1.162  11.494  0.3474 -1.2594 -0.1830
 8690SOL     OW37528   4.513   2.719   3.568  0.6063  0.3081 -0.1695
 8690SOL    HW137529   4.556   2.800   3.596 -0.2492  0.9583 -0.7400
 8690SOL    HW237530   4.421   2.746   3.569  0.6641  0.5705 -1.3906
 8691SOL     OW37531   2.156   0.469  15.920  0.2171  0.3021  0.1040
 8691SOL    HW137532   2.111   0.389  15.895 -0.5513  0.0341  2.3596
 8691SOL    HW237533   2.233   0.470  15.862  0.8456  1.5800  0.9610
 8692SOL     OW37534   2.044   2.907  14.925  0.3108 -0.1476 -0.4466
 8692SOL    HW137535   1.968   2.957  14.955  1.2337 -0.6320  2.7151
 8692SOL    HW237536   2.021   2.900  14.833 -1.3758  2.1477 -0.1994
 8693SOL     OW37537   4.238   3.965  12.999 -0.4812 -0.4995  0.7484
 8693SOL    HW137538   4.312   3.944  12.942  0.0871  4.2404 -0.3233
 8693SOL    HW237539   4.271   4.043  13.044 -2.9434  1.4142 -0.8049
 8694SOL     OW37540   2.862   1.346   2.843  0.5657  0.1182 -0.5485
 8694SOL    HW137541   2.903   1.260   2.855  2.6426  0.7564 -3.2394
 8694SOL    HW237542   2.776   1.337   2.883  1.7214 -1.1774  1.6553
 8695SOL     OW37543   4.622   2.884   0.296 -0.0368  0.2772  0.1262
 8695SOL    HW137544   4.697   2.832   0.266  0.6020  0.8849  0.6677
 8695SOL    HW237545   4.675   2.938   0.354 -0.6048  0.8805  0.0858
 8696SOL     OW37546   3.698   0.423   7.688 -0.0080  0.1220 -0.0456
 8696SOL    HW137547   3.639   0.447   7.759 -0.8995  0.5038 -0.9189
 8696SOL    HW237548   3.780   0.416   7.738  0.8342  0.4444 -1.3644
 8697SOL     OW37549   4.643   3.351  14.060  0.4438  0.3219  0.6976
 8697SOL    HW137550   4.652   3.257  14.048 -0.4035  0.2242  0.8456
 8697SOL    HW237551   4.705   3.383  13.994  0.8757 -0.3934  0.7561
 8698SOL     OW37552   2.871   1.097   8.362  0.1826  0.1882  0.2634
 8698SOL    HW137553   2.892   1.187   8.338 -0.0592 -0.0119 -0.7089
 8698SOL    HW237554   2.934   1.077   8.432  0.3302 -1.4751 -0.3433
 8699SOL     OW37555   1.097   0.968   7.842  0.0182  0.6655  0.6819
 8699SOL    HW137556   1.097   1.011   7.757  1.3302  1.1086  0.9075
 8699SOL    HW237557   1.171   1.001   7.893  1.6446 -1.2357 -0.4145
 8700SOL     OW37558   4.466   0.976   8.111  0.5599  0.0716  0.2845
 8700SOL    HW137559   4.471   1.069   8.130  2.7798 -0.1703  0.9081
 8700SOL    HW237560   4.486   0.982   8.017  2.2423 -0.7308  0.5877
 8701SOL     OW37561   2.793   4.109   5.464 -0.3025  0.1530 -0.1650
 8701SOL    HW137562   2.831   4.191   5.432  1.3780 -0.6632 -0.2132
 8701SOL    HW237563   2.773   4.065   5.381 -0.1733 -1.2629  0.5538
 8702SOL     OW37564   1.977   2.388   9.401 -0.5199  0.3122 -0.0878
 8702SOL    HW137565   2.011   2.472   9.372  0.5908  0.2874  1.1338
 8702SOL    HW237566   2.058   2.338   9.392  0.2714  1.2047  1.9982
 8703SOL     OW37567   2.627   2.398   3.923  0.1855 -0.2314 -0.3950
 8703SOL    HW137568   2.565   2.426   3.990  1.0374  0.5584  0.0583
 8703SOL    HW237569   2.651   2.480   3.879  1.2663  0.8754  2.2843
 8704SOL     OW37570   2.612   3.056   7.660  0.7470  0.2735  0.8065
 8704SOL    HW137571   2.600   3.032   7.752 -0.5354  3.2174  1.4145
 8704SOL    HW237572   2.604   2.972   7.614  0.0840 -0.3738  2.0985
 8705SOL     OW37573   0.346   1.567  10.223  0.5748  0.4161 -0.2555
 8705SOL    HW137574   0.418   1.598  10.168 -1.7676  2.5173 -2.0641
 8705SOL    HW237575   0.271   1.550  10.167  0.6907  1.7663 -0.8181
 8706SOL     OW37576   3.548   0.508  10.335  0.1098  0.5824 -0.5405
 8706SOL    HW137577   3.505   0.439  10.386  0.7990  0.3210 -0.3202
 8706SOL    HW237578   3.487   0.559  10.281 -1.8575  1.4202  2.4642
 8707SOL     OW37579   4.251   1.759  17.348  0.3514  0.3732 -0.3104
 8707SOL    HW137580   4.196   1.767  17.426  0.4546 -2.8772  0.0538
 8707SOL    HW237581   4.206   1.825  17.294 -1.5250 -0.8376 -0.2107
 8708SOL     OW37582   1.889   1.926   6.437 -0.0087 -0.0103  0.0024
 8708SOL    HW137583   1.980   1.943   6.462 -0.7553  1.9027  1.3261
 8708SOL    HW237584   1.870   1.982   6.361 -0.8774 -1.6052 -0.9603
 8709SOL     OW37585   4.408   0.157   1.758 -0.3848 -0.1400  0.5666
 8709SOL    HW137586   4.346   0.086   1.775 -1.6659  0.9266  0.3244
 8709SOL    HW237587   4.355   0.233   1.779 -1.5732 -0.8662  0.1686
 8710SOL     OW37588   0.050   3.979   8.057 -0.6793 -0.7127 -0.1853
 8710SOL    HW137589   0.045   4.062   8.011  2.0452 -0.3930  0.0926
 8710SOL    HW237590   4.720   3.929   7.997 -0.1451  1.2402 -2.2953
 8711SOL     OW37591   0.045   4.332   1.735  0.1789 -0.0515 -0.0156
 8711SOL    HW137592   0.036   4.238   1.749 -0.3273  0.2577  1.6798
 8711SOL    HW237593   4.683   4.367   1.741 -0.1316 -1.0951  1.6024
 8712SOL     OW37594   1.991   3.708  15.799 -0.4387  0.1869  0.2572
 8712SOL    HW137595   2.060   3.650  15.830  0.9724  1.1727 -1.0190
 8712SOL    HW237596   1.989   3.776  15.867  2.4177 -0.2849  0.7956
 8713SOL     OW37597   0.497   3.908   5.276 -0.1825  0.2665 -0.2933
 8713SOL    HW137598   0.520   3.816   5.262  0.3857  0.4920 -0.9145
 8713SOL    HW237599   0.565   3.953   5.225 -0.9606 -1.3060 -2.7511
 8714SOL     OW37600   1.262   0.215   3.614 -0.6738 -1.0460 -0.4104
 8714SOL    HW137601   1.196   0.249   3.554 -0.7817  0.3971  0.5125
 8714SOL    HW237602   1.306   0.296   3.640 -0.2445 -0.5875 -2.6410
 8715SOL     OW37603   3.900   1.423   0.682  0.0273 -0.1189 -0.5779
 8715SOL    HW137604   3.927   1.399   0.771  0.5288  1.0590 -0.4172
 8715SOL    HW237605   3.963   1.372   0.632  2.0162 -0.8235  2.6620
 8716SOL     OW37606   2.997   3.138   8.506 -0.0591  0.5272 -0.5045
 8716SOL    HW137607   2.971   3.148   8.415  1.7557 -1.0091 -1.1874
 8716SOL    HW237608   2.984   3.045   8.524 -1.9512  0.5273 -1.8187
 8717SOL     OW37609   1.600   0.249   1.527  0.3462  0.1470 -0.0458
 8717SOL    HW137610   1.637   0.337   1.531  0.8859 -0.1131  0.7324
 8717SOL    HW237611   1.639   0.214   1.448  1.7284  0.5722  0.4534
 8718SOL     OW37612   3.917   2.520   0.426  0.2085 -0.1439  0.1589
 8718SOL    HW137613   3.878   2.599   0.463 -2.8415 -2.6923  2.3537
 8718SOL    HW237614   4.008   2.516   0.457  0.2878  0.2582 -0.0168
 8719SOL     OW37615   4.679   4.075  11.836 -0.0903 -0.2805 -0.3229
 8719SOL    HW137616   4.623   4.056  11.912 -0.1333 -1.1277 -0.5646
 8719SOL    HW237617   0.044   4.079  11.866  0.2427  0.1859 -1.4205
 8720SOL     OW37618   1.074   2.457  12.678 -0.6823  0.1392  0.1144
 8720SOL    HW137619   1.046   2.514  12.749 -2.5859  1.2498 -1.5492
 8720SOL    HW237620   1.123   2.521  12.626  0.0149 -1.8189 -1.6619
 8721SOL     OW37621   1.701   2.512  12.704  0.0088  0.5166 -0.0015
 8721SOL    HW137622   1.753   2.437  12.674 -0.9272 -0.4892  0.9080
 8721SOL    HW237623   1.728   2.580  12.643 -1.6099  0.3492 -0.8954
 8722SOL     OW37624   3.553   0.034  10.279 -0.3555 -0.5293 -0.4696
 8722SOL    HW137625   3.578   0.121  10.248 -0.1541  0.5359  2.6883
 8722SOL    HW237626   3.549   0.044  10.374 -2.5595  1.2440 -0.7706
 8723SOL     OW37627   2.244   2.801   2.079  0.0154  0.0986 -0.4758
 8723SOL    HW137628   2.268   2.711   2.054  2.0242  0.9024 -1.3876
 8723SOL    HW237629   2.193   2.832   2.004 -1.1849 -1.4970 -0.3267
 8724SOL     OW37630   1.666   3.383  10.197  0.0779 -0.1698 -0.9137
 8724SOL    HW137631   1.750   3.366  10.153  0.6210  0.6494 -0.2036
 8724SOL    HW237632   1.624   3.425  10.121 -1.1270  0.4376  0.0866
 8725SOL     OW37633   1.904   1.488   1.298 -0.3038 -0.2206  0.3844
 8725SOL    HW137634   1.942   1.400   1.304 -0.4521 -0.3132 -0.0656
 8725SOL    HW237635   1.825   1.469   1.349 -0.5453  2.9063  1.1777
 8726SOL     OW37636   2.178   1.128   0.215  0.0372 -0.1224  0.0300
 8726SOL    HW137637   2.165   1.221   0.197  0.8607 -0.1703 -0.7813
 8726SOL    HW237638   2.245   1.112   0.149 -0.6289  0.9020 -0.8951
 8727SOL     OW37639   4.634   3.885   0.944  0.5894 -0.0578 -0.2022
 8727SOL    HW137640   4.554   3.920   0.905 -1.0049 -1.7607  1.5051
 8727SOL    HW237641   4.692   3.880   0.869 -0.7133 -1.2827 -1.1168
 8728SOL     OW37642   3.139   4.467   8.959  0.0569  0.3696 -0.7315
 8728SOL    HW137643   3.087   4.534   8.916  1.3802 -0.3416 -3.3891
 8728SOL    HW237644   3.208   4.529   8.981 -1.0049  1.0153  0.7598
 8729SOL     OW37645   1.698   2.891   5.006 -0.2428 -0.4463 -0.3721
 8729SOL    HW137646   1.722   2.855   5.091  0.1419  0.3290 -0.1577
 8729SOL    HW237647   1.702   2.812   4.952  0.7476 -0.9725  0.4723
 8730SOL     OW37648   1.270   2.341   8.683 -0.1703  0.0973  0.1233
 8730SOL    HW137649   1.364   2.358   8.693 -0.5633  0.5524  3.0759
 8730SOL    HW237650   1.229   2.427   8.672  2.5868  1.9467  4.1578
 8731SOL     OW37651   3.948   3.370   3.171 -1.3698 -0.5840  0.0166
 8731SOL    HW137652   3.974   3.304   3.107 -0.3283  0.3026 -0.4719
 8731SOL    HW237653   3.863   3.340   3.203 -2.9579  3.8873  0.0025
 8732SOL     OW37654   0.948   4.399  12.411  0.0061 -0.4988  0.2155
 8732SOL    HW137655   0.902   4.320  12.439 -3.9024  1.7147  0.1253
 8732SOL    HW237656   0.914   4.410  12.322 -2.1077 -0.2856  1.0542
 8733SOL     OW37657   1.184   0.443  13.371 -0.1606 -0.4918 -0.0252
 8733SOL    HW137658   1.192   0.348  13.373 -0.6508 -0.5800 -2.2664
 8733SOL    HW237659   1.116   0.445  13.438 -1.7225 -0.8944 -1.6072
 8734SOL     OW37660   2.868   1.570   5.634 -0.2725 -0.1699  0.5621
 8734SOL    HW137661   2.891   1.503   5.570  2.9301  0.9381  0.5827
 8734SOL    HW237662   2.926   1.548   5.706 -1.5267 -0.6873  1.4202
 8735SOL     OW37663   1.779   3.856   1.866 -0.4526  0.3170 -0.3962
 8735SOL    HW137664   1.824   3.911   1.931  0.0676 -0.0619 -0.4394
 8735SOL    HW237665   1.710   3.822   1.924 -0.6564 -1.0883 -1.4690
 8736SOL     OW37666   0.491   1.924   4.415  0.1822 -0.1941 -0.2034
 8736SOL    HW137667   0.572   1.973   4.399  1.3327 -1.3553  2.0054
 8736SOL    HW237668   0.453   1.962   4.494 -0.7985 -2.3017  0.3453
 8737SOL     OW37669   0.658   2.385   9.193  0.2193 -0.1627  0.0219
 8737SOL    HW137670   0.654   2.292   9.219  0.0411 -0.3616 -0.7325
 8737SOL    HW237671   0.739   2.391   9.144 -0.5123 -1.1162 -1.3039
 8738SOL     OW37672   4.332   0.164   1.372  0.8113 -0.7442  0.2996
 8738SOL    HW137673   4.249   0.210   1.373  2.3630  2.0355  0.3810
 8738SOL    HW237674   4.385   0.216   1.433  0.2110  0.6805 -0.3989
 8739SOL     OW37675   2.793   3.500   5.351  0.7864 -0.0111  0.3706
 8739SOL    HW137676   2.876   3.531   5.314  1.4897  0.2027  2.1384
 8739SOL    HW237677   2.754   3.578   5.391 -0.7961 -1.6583  2.0042
 8740SOL     OW37678   3.669   1.880   7.714  0.5434 -0.2394 -0.2705
 8740SOL    HW137679   3.666   1.960   7.767 -2.0102 -0.5998  0.1379
 8740SOL    HW237680   3.710   1.926   7.641  0.8554  1.2569  0.8274
 8741SOL     OW37681   4.396   1.428   1.458 -0.4056  0.1370  0.4922
 8741SOL    HW137682   4.417   1.374   1.382 -1.7472  1.0353 -0.5220
 8741SOL    HW237683   4.329   1.380   1.507 -0.2515 -1.3677 -0.7774
 8742SOL     OW37684   1.416   3.907   4.505  0.2981 -0.2656  0.3393
 8742SOL    HW137685   1.410   3.944   4.593 -0.4756  0.3903  0.0051
 8742SOL    HW237686   1.501   3.947   4.485  0.3867  0.0097  1.2237
 8743SOL     OW37687   4.305   2.932   4.956  0.1023 -0.4292 -0.3759
 8743SOL    HW137688   4.265   2.865   4.900 -0.9011  0.3413 -0.5629
 8743SOL    HW237689   4.227   2.969   4.995  0.3372  0.2793 -0.5832
 8744SOL     OW37690   2.199   2.251   6.863 -0.3590 -0.4938 -0.1441
 8744SOL    HW137691   2.114   2.278   6.829  0.3645  1.8754 -0.1102
 8744SOL    HW237692   2.209   2.159   6.840 -0.0833 -0.8521  1.4128
 8745SOL     OW37693   1.438   4.661  17.346  0.0617  0.1013  0.0614
 8745SOL    HW137694   1.395   4.606  17.411 -0.0945  1.7619  1.3478
 8745SOL    HW237695   1.446   0.015  17.397 -1.7357 -0.7810  1.7663
 8746SOL     OW37696   2.126   3.799   3.776  0.4581 -0.0679 -0.1693
 8746SOL    HW137697   2.103   3.881   3.820  2.0791  0.7672 -0.8854
 8746SOL    HW237698   2.049   3.743   3.789 -0.5302  1.1198 -0.9670
 8747SOL     OW37699   3.914   3.617  13.840 -0.7895 -0.3783 -0.9266
 8747SOL    HW137700   3.983   3.598  13.903 -0.1201  0.6994 -1.3452
 8747SOL    HW237701   3.975   3.632  13.768  0.5731  0.0821  0.3327
 8748SOL     OW37702   3.106   2.614  14.667 -0.1306  0.0757 -0.1503
 8748SOL    HW137703   3.157   2.617  14.748 -0.1399 -0.1966 -0.1329
 8748SOL    HW237704   3.069   2.701  14.670 -1.8202 -0.6412 -0.2640
 8749SOL     OW37705   3.472   0.233   0.981  0.4516 -0.2319 -0.0034
 8749SOL    HW137706   3.412   0.219   1.054  0.0016 -0.1966 -0.3727
 8749SOL    HW237707   3.411   0.284   0.928  2.6992  2.1993 -0.2679
 8750SOL     OW37708   3.466   1.495   7.879 -0.2087  0.1535 -0.3155
 8750SOL    HW137709   3.437   1.453   7.799 -1.0446 -0.7887  0.4761
 8750SOL    HW237710   3.443   1.587   7.865 -0.5654  0.0143 -0.6393
 8751SOL     OW37711   0.879   1.262   8.450  0.4611 -0.3653 -0.4541
 8751SOL    HW137712   0.818   1.229   8.516  1.6307 -1.0438  0.3013
 8751SOL    HW237713   0.908   1.341   8.494 -0.7015  1.0660 -2.2710
 8752SOL     OW37714   1.619   0.658   1.674 -0.4385 -0.0783  0.0295
 8752SOL    HW137715   1.622   0.581   1.616  0.3022  0.6086 -0.8441
 8752SOL    HW237716   1.624   0.618   1.761  0.9817 -1.6609 -0.7793
 8753SOL     OW37717   1.211   4.495   0.691  0.6225 -0.1469 -0.5253
 8753SOL    HW137718   1.240   4.417   0.739  0.0538 -1.2354 -1.9359
 8753SOL    HW237719   1.173   4.449   0.616 -1.4624 -1.8938  1.6032
 8754SOL     OW37720   3.498   1.571  11.764  0.2169  0.5506  0.4782
 8754SOL    HW137721   3.526   1.636  11.700 -1.0059 -2.2358 -2.8673
 8754SOL    HW237722   3.435   1.525  11.709 -1.4807  0.2067  2.7240
 8755SOL     OW37723   0.325   0.254   6.600  0.1590 -0.3256 -0.5560
 8755SOL    HW137724   0.305   0.248   6.694 -1.1395 -0.9506 -0.8703
 8755SOL    HW237725   0.420   0.250   6.612  0.1300 -1.4574 -0.6981
 8756SOL     OW37726   1.834   0.997  10.220  1.1816 -0.0486 -0.1054
 8756SOL    HW137727   1.839   0.947  10.301  1.1031  1.1638  0.6556
 8756SOL    HW237728   1.903   1.062  10.233  1.1931  0.5428 -3.1803
 8757SOL     OW37729   4.428   4.510   1.205  0.0462 -0.3730 -0.6612
 8757SOL    HW137730   4.353   4.457   1.233  0.4516 -1.0915 -0.9202
 8757SOL    HW237731   4.495   4.446   1.181 -0.1049 -0.4411 -0.9083
 8758SOL     OW37732   4.558   4.219   4.978  0.4012 -0.5917  0.0031
 8758SOL    HW137733   4.493   4.276   5.017  2.0339  2.1898 -1.2744
 8758SOL    HW237734   4.542   4.230   4.884  1.3977  1.1788  0.0266
 8759SOL     OW37735   4.022   1.952   2.068  0.3747 -0.3450 -0.4463
 8759SOL    HW137736   4.034   2.047   2.059 -1.2743  0.0365  1.4030
 8759SOL    HW237737   3.928   1.954   2.050 -0.0525 -0.6422  1.7457
 8760SOL     OW37738   2.329   2.506   3.921  0.2293 -0.2344 -0.2576
 8760SOL    HW137739   2.279   2.425   3.918  0.7366 -0.5504 -0.1651
 8760SOL    HW237740   2.334   2.528   3.828  2.1177  1.4115  0.2217
 8761SOL     OW37741   3.203   1.027   2.389 -0.3392  0.1942 -0.6949
 8761SOL    HW137742   3.270   1.096   2.390  0.1437 -0.2880  0.0963
 8761SOL    HW237743   3.215   0.988   2.302  0.4262  2.1734 -1.4753
 8762SOL     OW37744   2.057   2.608  15.768 -0.0111  0.4932  0.2337
 8762SOL    HW137745   2.019   2.540  15.825  0.6676 -1.2351 -1.3540
 8762SOL    HW237746   2.140   2.561  15.765  0.8074  2.0692 -1.4216
 8763SOL     OW37747   1.082   4.637   9.699  0.1417  0.2630  0.1443
 8763SOL    HW137748   1.049   4.717   9.740 -0.6164  0.7494 -1.4134
 8763SOL    HW237749   1.018   4.626   9.630  0.9748 -0.8269 -0.4680
 8764SOL     OW37750   0.696   0.284   4.473 -0.3118 -0.1019 -0.1048
 8764SOL    HW137751   0.786   0.286   4.506 -0.7461  0.8364  1.0278
 8764SOL    HW237752   0.700   0.351   4.404  0.1041  0.9468  0.9413
 8765SOL     OW37753   3.334   1.425   3.355  0.5584  0.5440 -0.0434
 8765SOL    HW137754   3.378   1.387   3.431  0.9024 -3.8281 -2.4085
 8765SOL    HW237755   3.245   1.431   3.390  0.3721  0.3614 -0.4867
 8766SOL     OW37756   0.975   0.425   8.479  0.4705  0.2801  0.2301
 8766SOL    HW137757   0.970   0.451   8.387  0.6552  0.0884  0.1660
 8766SOL    HW237758   0.890   0.454   8.512  0.6049  0.6792  0.2299
 8767SOL     OW37759   1.257   3.351  11.300  0.0016  0.0801 -0.1075
 8767SOL    HW137760   1.250   3.257  11.312 -2.0415  0.2549 -0.0345
 8767SOL    HW237761   1.268   3.374  11.393  0.0257 -2.1637  0.4394
 8768SOL     OW37762   4.430   2.857   4.606  0.3885 -0.1978 -0.6399
 8768SOL    HW137763   4.416   2.788   4.671  3.4525  0.3979  0.6415
 8768SOL    HW237764   4.415   2.944   4.643  1.5538 -0.3529  0.1785
 8769SOL     OW37765   0.726   1.455  10.147 -0.2428 -0.1173 -0.0613
 8769SOL    HW137766   0.773   1.528  10.108 -0.6126  0.2592  0.2035
 8769SOL    HW237767   0.634   1.479  10.142 -1.2322 -3.3355  2.5510
 8770SOL     OW37768   2.336   3.160   7.937  0.2151  0.1185 -0.7317
 8770SOL    HW137769   2.424   3.145   7.970 -0.8427 -0.4205  1.8461
 8770SOL    HW237770   2.274   3.161   8.010 -1.8042  1.2923 -2.4733
 8771SOL     OW37771   3.523   4.000   2.404 -0.0084  0.4336  0.5527
 8771SOL    HW137772   3.614   3.972   2.389  0.1004  0.7479  0.6379
 8771SOL    HW237773   3.472   3.919   2.393  2.1798 -0.9685  0.7035
 8772SOL     OW37774   4.065   0.722   3.738 -0.3510  0.1628 -0.3592
 8772SOL    HW137775   4.122   0.793   3.707 -0.4845  0.3704 -0.1282
 8772SOL    HW237776   4.118   0.642   3.732 -1.5138 -0.6911  0.9438
 8773SOL     OW37777   2.374   4.289   5.813 -0.1874  0.2721 -0.0434
 8773SOL    HW137778   2.322   4.356   5.857 -1.8282 -0.0346 -1.4950
 8773SOL    HW237779   2.442   4.274   5.878 -0.2518  0.3254  0.0357
 8774SOL     OW37780   1.779   0.425  12.510 -0.2876 -0.1121  0.2433
 8774SOL    HW137781   1.730   0.353  12.549 -0.2711  0.6750  1.7045
 8774SOL    HW237782   1.864   0.402  12.548 -0.6947  0.7282  1.6638
 8775SOL     OW37783   4.213   1.104   1.815  0.2515 -0.4132  0.4045
 8775SOL    HW137784   4.280   1.132   1.878 -1.0749 -0.9948  2.0849
 8775SOL    HW237785   4.254   1.132   1.733 -1.8966 -1.9369 -1.1723
 8776SOL     OW37786   4.274   4.288   7.103 -0.0575  0.0760 -0.1472
 8776SOL    HW137787   4.283   4.356   7.036  2.7980 -0.1321  0.0328
 8776SOL    HW237788   4.332   4.226   7.059  0.3402  0.3432 -0.0044
 8777SOL     OW37789   1.547   2.254   4.946 -0.5249  0.4858  0.4656
 8777SOL    HW137790   1.469   2.229   4.996 -1.4843  1.0680 -0.7391
 8777SOL    HW237791   1.500   2.322   4.897 -1.1070 -0.2355  0.0302
 8778SOL     OW37792   3.649   2.530   7.329 -0.1417  0.5201 -0.0702
 8778SOL    HW137793   3.633   2.454   7.274 -0.6631  0.3024  0.3774
 8778SOL    HW237794   3.616   2.499   7.413  0.9341 -0.4855 -0.0303
 8779SOL     OW37795   3.274   4.593   7.716  0.3950 -0.1006 -0.7277
 8779SOL    HW137796   3.280   4.532   7.789  0.4948  1.7943  0.8625
 8779SOL    HW237797   3.357   4.637   7.731  0.2958  0.4765 -1.8865
 8780SOL     OW37798   2.344   4.228   8.398 -0.6177 -0.3077 -0.3711
 8780SOL    HW137799   2.344   4.258   8.308 -0.5090 -1.2870 -0.7031
 8780SOL    HW237800   2.345   4.134   8.380  1.6004 -0.9261  2.9294
 8781SOL     OW37801   2.697   2.731   3.380 -0.1396 -0.4083 -0.5895
 8781SOL    HW137802   2.609   2.695   3.380  0.2120 -1.2684 -1.1916
 8781SOL    HW237803   2.678   2.823   3.358  1.1716  0.0252  0.0674
 8782SOL     OW37804   1.048   4.182   7.726  0.2105  0.0899  0.3550
 8782SOL    HW137805   1.018   4.238   7.798 -1.8077 -1.4812  0.7303
 8782SOL    HW237806   1.140   4.208   7.729  0.1049  0.6264 -1.3475
 8783SOL     OW37807   2.180   2.461  14.022 -0.4151 -0.4665  0.1615
 8783SOL    HW137808   2.220   2.390  14.072  0.0040 -1.6172 -1.8091
 8783SOL    HW237809   2.220   2.444  13.937 -0.8501 -0.4871 -0.0352
 8784SOL     OW37810   1.765   4.695   8.255  0.9321 -0.0560 -0.1793
 8784SOL    HW137811   1.814   0.051   8.261 -1.2650  1.2397 -0.1724
 8784SOL    HW237812   1.795   4.661   8.339 -1.1188 -1.1124  0.1056
 8785SOL     OW37813   4.694   3.459   2.415 -0.8629  0.5795  0.1765
 8785SOL    HW137814   0.052   3.413   2.416 -0.8792  0.5839  1.4854
 8785SOL    HW237815   4.686   3.495   2.504 -1.7571 -1.3821  0.8885
 8786SOL     OW37816   2.965   1.909   4.253 -0.4075 -0.0932 -0.0882
 8786SOL    HW137817   2.949   1.916   4.159  0.1668  0.5028 -0.1354
 8786SOL    HW237818   2.928   1.822   4.272  0.1926 -0.3790 -0.2008
 8787SOL     OW37819   2.806   3.049   3.764  0.1292 -0.0496 -0.4153
 8787SOL    HW137820   2.860   3.128   3.754 -0.5430  0.4060 -0.3865
 8787SOL    HW237821   2.860   2.986   3.715 -1.3654 -1.4320 -0.2963
 8788SOL     OW37822   4.635   2.558   3.384 -0.7155  0.3108  0.8714
 8788SOL    HW137823   4.549   2.537   3.346 -0.3656  0.0092  0.2420
 8788SOL    HW237824   4.605   2.618   3.452 -0.4962  1.3458  0.0716
 8789SOL     OW37825   0.634   0.673   6.082  0.8272 -0.0420 -0.1733
 8789SOL    HW137826   0.671   0.760   6.097  0.0808  0.3848 -0.8218
 8789SOL    HW237827   0.560   0.701   6.028 -1.0341 -0.8278  1.9705
 8790SOL     OW37828   4.555   2.276  12.798  0.1781  0.6007  0.1435
 8790SOL    HW137829   4.611   2.202  12.823  2.7376  2.3720 -0.3667
 8790SOL    HW237830   4.492   2.270  12.870  1.2604 -2.5563  0.8264
 8791SOL     OW37831   3.851   2.291   6.334  0.6644 -0.1408 -0.5356
 8791SOL    HW137832   3.876   2.379   6.363 -1.8338  0.0684  0.9772
 8791SOL    HW237833   3.894   2.250   6.410  0.3115 -0.8912 -0.7500
 8792SOL     OW37834   0.883   4.531   8.267 -0.2139 -0.3700  0.4195
 8792SOL    HW137835   0.953   4.546   8.204 -1.6723 -1.5959 -1.4804
 8792SOL    HW237836   0.813   4.581   8.225  1.4880  0.9637 -0.8075
 8793SOL     OW37837   2.132   4.714   3.568  0.0778  0.5291 -0.0588
 8793SOL    HW137838   2.110   4.657   3.495 -0.6502 -0.8284  1.2069
 8793SOL    HW237839   2.075   0.060   3.542  0.3686  0.5251 -0.7085
 8794SOL     OW37840   2.283   1.507   9.172 -0.1094  0.5182 -0.1446
 8794SOL    HW137841   2.220   1.543   9.234  1.3308  4.0895 -0.7014
 8794SOL    HW237842   2.341   1.584   9.161 -1.3669  1.4543 -0.1989
 8795SOL     OW37843   0.256   1.164   3.983 -0.3946  0.0647 -0.4020
 8795SOL    HW137844   0.304   1.126   4.056 -0.2440  1.6053  0.2998
 8795SOL    HW237845   0.166   1.155   4.014 -0.5974  1.1319 -0.6761
 8796SOL     OW37846   1.843   4.538   8.910  0.7714  0.1681  0.1872
 8796SOL    HW137847   1.927   4.553   8.866  0.6277  1.1927  0.2686
 8796SOL    HW237848   1.786   4.613   8.897 -0.4319 -1.0305 -1.4085
 8797SOL     OW37849   2.384   2.780   8.686  0.0539 -0.3481  0.2706
 8797SOL    HW137850   2.468   2.747   8.655  0.0977 -0.8448  0.9257
 8797SOL    HW237851   2.393   2.849   8.752 -0.0698 -0.8382  0.8016
 8798SOL     OW37852   0.028   4.020   2.686  0.0735 -0.0391 -0.4086
 8798SOL    HW137853   4.658   4.018   2.684  0.1154 -0.8714 -1.9248
 8798SOL    HW237854   0.037   3.939   2.635  0.7168  0.7308 -1.5153
 8799SOL     OW37855   1.630   3.864  17.692 -0.4149 -0.1623  0.6177
 8799SOL    HW137856   1.697   3.811   0.029 -0.5902  0.3636  1.5325
 8799SOL    HW237857   1.561   3.798  17.689 -0.5428 -0.0560  1.3681
 8800SOL     OW37858   3.994   4.507   8.541 -0.4150  0.4154 -0.0040
 8800SOL    HW137859   3.940   4.436   8.508 -1.0814  1.5256 -1.3413
 8800SOL    HW237860   3.924   4.572   8.552 -1.8518 -0.7380 -2.3269
 8801SOL     OW37861   1.904   2.756   3.935 -0.2672 -0.7137  0.1180
 8801SOL    HW137862   1.861   2.688   3.988  0.1128 -0.5017  0.6945
 8801SOL    HW237863   1.837   2.824   3.946 -0.0825 -0.4595 -0.3476
 8802SOL     OW37864   2.254   1.573   7.235 -0.4683 -0.0867  0.4837
 8802SOL    HW137865   2.211   1.575   7.321  0.8500  1.7023  1.1191
 8802SOL    HW237866   2.261   1.480   7.214  1.6008  0.5791 -1.7934
 8803SOL     OW37867   0.939   1.328   4.362  0.1031  0.2871 -0.0411
 8803SOL    HW137868   0.900   1.395   4.306  0.7079  0.0214 -0.7700
 8803SOL    HW237869   1.024   1.369   4.375  0.8625 -1.1237 -0.4794
 8804SOL     OW37870   4.041   0.642  13.979  0.0759  0.3477 -0.5005
 8804SOL    HW137871   4.069   0.679  13.895  1.2770  0.8230  0.1070
 8804SOL    HW237872   4.122   0.669  14.022 -2.6086  1.5721  3.7042
 8805SOL     OW37873   0.366   3.848   6.145 -0.3650  0.1257 -0.6586
 8805SOL    HW137874   0.278   3.883   6.155 -1.0646 -0.8694 -3.3496
 8805SOL    HW237875   0.420   3.926   6.152  1.1628 -0.9232 -0.8159
 8806SOL     OW37876   0.461   4.180   8.916 -0.5393  0.2759 -0.3495
 8806SOL    HW137877   0.458   4.268   8.880  0.0949 -0.7632 -2.8849
 8806SOL    HW237878   0.374   4.162   8.951  0.0723 -0.5653  0.7482
 8807SOL     OW37879   3.972   0.893   8.262 -0.0384 -0.1326  0.2935
 8807SOL    HW137880   3.902   0.838   8.226  1.1944 -0.9398 -0.8966
 8807SOL    HW237881   3.916   0.969   8.277  1.3277  0.6196  1.6032
 8808SOL     OW37882   2.744   1.774   6.063 -0.0926 -0.6234  0.2588
 8808SOL    HW137883   2.770   1.794   6.153  0.1997 -3.3076  0.7519
 8808SOL    HW237884   2.694   1.693   6.072 -1.5401  0.0188 -1.9518
 8809SOL     OW37885   0.200   0.305   3.151 -0.0610  0.5255 -0.1535
 8809SOL    HW137886   0.137   0.322   3.220 -0.4312  2.0030 -0.8479
 8809SOL    HW237887   0.277   0.291   3.205 -0.7249 -0.0186  0.6531
 8810SOL     OW37888   2.278   0.398   3.282  0.2172  0.0093  0.0022
 8810SOL    HW137889   2.256   0.489   3.302 -1.6339 -0.0929 -1.4799
 8810SOL    HW237890   2.203   0.352   3.320  1.1283  1.0194  2.9918
 8811SOL     OW37891   3.250   1.633   5.437 -0.2929 -0.0029 -0.1201
 8811SOL    HW137892   3.270   1.703   5.374 -0.4628  0.3919  0.2636
 8811SOL    HW237893   3.226   1.559   5.381  4.5006 -0.0692 -2.0962
 8812SOL     OW37894   2.007   3.156   0.721  0.9846 -0.4765 -0.2642
 8812SOL    HW137895   2.035   3.232   0.670  1.1754 -1.1757 -1.2024
 8812SOL    HW237896   1.915   3.165   0.743  1.6526 -1.7004  2.9894
 8813SOL     OW37897   0.344   3.185   6.797 -0.1184  0.2358 -0.1860
 8813SOL    HW137898   0.412   3.125   6.766  0.2454  0.2131  0.6715
 8813SOL    HW237899   0.377   3.263   6.753  2.8010 -0.8075  0.2032
 8814SOL     OW37900   1.924   2.980   7.955  0.1628  0.3780 -0.4371
 8814SOL    HW137901   1.844   2.985   8.007 -0.2806  1.9725 -1.2581
 8814SOL    HW237902   1.935   3.072   7.931  0.8573 -0.1140 -2.0215
 8815SOL     OW37903   4.195   0.863  10.764  0.6706  0.0863  0.6115
 8815SOL    HW137904   4.135   0.831  10.697 -0.9381  0.8728  1.6699
 8815SOL    HW237905   4.136   0.928  10.803 -0.2128 -0.6988  0.6027
 8816SOL     OW37906   0.043   2.022   4.884  0.2693 -0.2229  0.2461
 8816SOL    HW137907   4.676   2.000   4.887  0.4807 -1.1284  0.2245
 8816SOL    HW237908   0.077   1.933   4.883  0.2338 -0.2344 -0.0336
 8817SOL     OW37909   2.032   0.297   3.331  0.1956  0.2891 -0.1985
 8817SOL    HW137910   2.013   0.205   3.315 -1.2171  1.0529 -2.8412
 8817SOL    HW237911   2.040   0.328   3.241 -0.3371  0.5831 -0.1412
 8818SOL     OW37912   3.480   4.364   0.455  0.6835 -0.2994 -0.1522
 8818SOL    HW137913   3.410   4.391   0.397  0.0017 -0.0658  0.7751
 8818SOL    HW237914   3.539   4.440   0.448  0.9646 -0.5619 -0.5977
 8819SOL     OW37915   0.810   2.054   8.606  0.0201 -0.3008 -0.2126
 8819SOL    HW137916   0.766   2.090   8.529 -2.0081 -0.1606  1.0090
 8819SOL    HW237917   0.900   2.064   8.575  0.1195 -0.4428  0.0260
 8820SOL     OW37918   0.827   3.866  15.236 -0.5246  0.6158  0.3712
 8820SOL    HW137919   0.909   3.818  15.221 -0.2304  0.1326  3.4763
 8820SOL    HW237920   0.841   3.905  15.322  0.2763 -0.2553  0.6303
 8821SOL     OW37921   3.860   1.659   3.698 -0.6235 -0.6381  0.3485
 8821SOL    HW137922   3.852   1.614   3.614 -1.1011  1.5038 -0.7581
 8821SOL    HW237923   3.803   1.735   3.686  3.2934  2.1068 -0.7814
 8822SOL     OW37924   1.541   0.290   8.661  0.4989  0.0827 -0.7418
 8822SOL    HW137925   1.514   0.247   8.742  3.0998  0.9441  0.6055
 8822SOL    HW237926   1.470   0.265   8.603  0.0578  2.3655 -1.1470
 8823SOL     OW37927   3.940   4.128   6.706  0.5128 -0.1679  0.1243
 8823SOL    HW137928   3.896   4.101   6.787 -0.6967 -1.9415 -1.1382
 8823SOL    HW237929   3.940   4.222   6.721  1.2676 -0.0223 -0.8154
 8824SOL     OW37930   3.677   4.628   4.476 -0.0479 -0.6867  0.1697
 8824SOL    HW137931   3.625   4.679   4.413 -0.5748  0.8692  1.8542
 8824SOL    HW237932   3.712   4.557   4.424  0.7814  0.0294 -0.2557
 8825SOL     OW37933   1.951   1.892   6.937  0.3488 -0.7645 -0.2333
 8825SOL    HW137934   2.007   1.949   6.990 -1.3780  0.3270  0.4261
 8825SOL    HW237935   1.989   1.897   6.850  0.8331  0.2132  0.0328
 8826SOL     OW37936   4.650   3.399   1.194 -0.1786 -0.1513  0.1798
 8826SOL    HW137937   4.714   3.336   1.160  0.4155 -0.1154  1.2320
 8826SOL    HW237938   4.606   3.351   1.264 -1.3561  0.8792  0.1541
 8827SOL     OW37939   3.697   4.139   0.887 -0.0435 -0.3314 -0.0548
 8827SOL    HW137940   3.652   4.142   0.971 -1.4241  1.1065 -0.8535
 8827SOL    HW237941   3.789   4.154   0.910  0.4876 -0.1041 -2.3003
 8828SOL     OW37942   2.815   1.561   6.718  1.0036 -0.0519  0.2121
 8828SOL    HW137943   2.904   1.595   6.727  0.2589  2.5652 -2.2740
 8828SOL    HW237944   2.835   1.471   6.692  2.3662 -0.1341  1.5253
 8829SOL     OW37945   0.705   0.350   8.147  0.0112 -0.4414  0.4998
 8829SOL    HW137946   0.614   0.352   8.118 -0.1901 -2.6212  0.9920
 8829SOL    HW237947   0.692   0.293   8.222 -1.9325  0.9211  1.1732
 8830SOL     OW37948   2.701   1.817   5.561  0.6839  0.2754 -0.3590
 8830SOL    HW137949   2.769   1.750   5.548  0.2455 -0.4885  1.3391
 8830SOL    HW237950   2.759   1.890   5.584 -1.3996  1.9778 -0.5962
 8831SOL     OW37951   0.666   1.291   4.625 -0.2625 -0.6306  0.1012
 8831SOL    HW137952   0.576   1.262   4.611 -0.4478 -0.1213  0.2603
 8831SOL    HW237953   0.671   1.383   4.597  0.8265 -1.6580 -3.1793
 8832SOL     OW37954   0.184   2.976   2.832 -0.3834  0.4525  0.1078
 8832SOL    HW137955   0.147   3.063   2.847 -0.9186  0.2198  0.1394
 8832SOL    HW237956   0.275   3.002   2.815 -0.7452  0.7768 -1.3021
 8833SOL     OW37957   4.155   1.351  12.408 -0.0945 -0.1522  0.1977
 8833SOL    HW137958   4.239   1.305  12.403  1.1968  2.1525  0.9751
 8833SOL    HW237959   4.140   1.370  12.500  0.8276 -0.5143  0.4149
 8834SOL     OW37960   0.653   0.538  15.828 -0.0225  0.5352 -0.1904
 8834SOL    HW137961   0.595   0.563  15.899 -0.7424 -0.7155 -0.3362
 8834SOL    HW237962   0.699   0.622  15.818 -0.7319  0.8386 -0.9307
 8835SOL     OW37963   0.709   0.834   4.443  0.1226 -0.0024 -0.4862
 8835SOL    HW137964   0.797   0.862   4.470 -0.0628  0.2830 -0.1789
 8835SOL    HW237965   0.650   0.871   4.509 -1.9203  1.1910 -2.9886
 8836SOL     OW37966   0.612   0.131  16.568 -0.1449 -0.3174 -0.1679
 8836SOL    HW137967   0.606   0.210  16.515  1.3597 -0.5345 -0.6507
 8836SOL    HW237968   0.683   0.099  16.512  1.7382 -1.4712  2.8725
 8837SOL     OW37969   3.745   3.322   6.473 -0.5829 -0.0074 -0.2744
 8837SOL    HW137970   3.658   3.362   6.464 -0.3404  1.2893  3.2226
 8837SOL    HW237971   3.737   3.231   6.444 -1.9019 -0.9517  3.1758
 8838SOL     OW37972   4.510   2.879   8.598 -0.4960 -0.2501  0.3827
 8838SOL    HW137973   4.523   2.786   8.614  1.7238 -0.1690 -1.0258
 8838SOL    HW237974   4.585   2.911   8.648 -0.1835 -0.3944  0.0090
 8839SOL     OW37975   1.864   0.405   9.151 -0.1110 -0.1930 -0.4851
 8839SOL    HW137976   1.799   0.470   9.123  0.6622  0.1719 -1.4613
 8839SOL    HW237977   1.910   0.449   9.223  1.4006 -1.4328 -0.7020
 8840SOL     OW37978   0.818   3.869   9.311  1.0315 -0.1507 -0.4260
 8840SOL    HW137979   0.822   3.888   9.405  0.1370 -0.4898 -0.3214
 8840SOL    HW237980   0.779   3.949   9.276  1.1858  0.1068 -0.0210
 8841SOL     OW37981   0.593   1.204   6.485  0.1483 -0.2258  0.4535
 8841SOL    HW137982   0.572   1.283   6.535 -0.2864  0.0150 -0.1070
 8841SOL    HW237983   0.670   1.225   6.433  0.8426 -2.4402  0.6008
 8842SOL     OW37984   4.372   4.057   6.016 -0.4019  0.4937  0.0862
 8842SOL    HW137985   4.298   4.010   6.055 -0.1041  1.3300  1.6737
 8842SOL    HW237986   4.411   4.113   6.084  0.5918 -0.1257  0.0175
 8843SOL     OW37987   1.253   3.722  16.245  0.0107 -0.0384  0.3636
 8843SOL    HW137988   1.311   3.683  16.180 -0.5543 -0.7924  0.3241
 8843SOL    HW237989   1.312   3.787  16.285  0.4127 -0.5349  0.5711
 8844SOL     OW37990   2.792   3.409  15.494  0.1218  0.0439  0.0602
 8844SOL    HW137991   2.788   3.456  15.411 -1.6739 -1.4467 -0.7058
 8844SOL    HW237992   2.748   3.328  15.466 -0.7449  0.7807 -0.6888
 8845SOL     OW37993   0.320   4.526   8.709  0.5448  0.1735  0.3814
 8845SOL    HW137994   0.369   4.608   8.715 -0.9949  0.8921  2.9666
 8845SOL    HW237995   0.343   4.492   8.795  0.6163  1.5893  0.9239
 8846SOL     OW37996   2.286   3.970   5.826  0.2029 -0.3727 -0.0653
 8846SOL    HW137997   2.334   4.046   5.857 -0.0575  1.0605 -3.1687
 8846SOL    HW237998   2.352   3.903   5.806 -0.9570 -1.2292 -1.0085
 8847SOL     OW37999   1.638   1.706   0.792 -0.1501 -0.1465 -0.2963
 8847SOL    HW138000   1.574   1.636   0.779  0.7271 -1.3313  1.7623
 8847SOL    HW238001   1.591   1.789   0.785 -1.3972 -0.9171 -1.1924
 8848SOL     OW38002   1.706   0.158  11.590 -0.2675  0.7810  0.0083
 8848SOL    HW138003   1.784   0.133  11.639 -0.4066  0.1146 -0.1123
 8848SOL    HW238004   1.664   0.198  11.666 -1.3033 -1.6463  0.7053
 8849SOL     OW38005   0.918   4.066  14.920 -0.4613 -0.6814 -0.0974
 8849SOL    HW138006   0.970   4.008  14.975  0.4881  0.5431  0.3043
 8849SOL    HW238007   0.902   3.998  14.855  0.0081  0.2660 -1.2176
 8850SOL     OW38008   3.584   1.581   2.839  0.3880 -0.0726 -0.4625
 8850SOL    HW138009   3.559   1.622   2.922  1.9857  0.1284 -0.0730
 8850SOL    HW238010   3.668   1.541   2.861  0.7442  0.3468 -1.0696
 8851SOL     OW38011   1.721   3.250  15.360 -0.2925  0.1197  0.2921
 8851SOL    HW138012   1.658   3.274  15.292 -0.6148  1.6918  1.1330
 8851SOL    HW238013   1.800   3.296  15.330 -0.2076 -1.4761 -1.9095
 8852SOL     OW38014   2.754   3.074  15.603 -0.1133 -0.4230  0.1247
 8852SOL    HW138015   2.763   2.999  15.544  2.6395  2.0724 -2.6676
 8852SOL    HW238016   2.697   3.117  15.539  0.8028  0.7999  0.1158
 8853SOL     OW38017   4.389   0.640   7.716 -0.0239  0.4715  0.5767
 8853SOL    HW138018   4.357   0.721   7.676 -2.2208  1.0222  3.4498
 8853SOL    HW238019   4.484   0.649   7.708 -0.2449 -0.4489 -3.1517
 8854SOL     OW38020   2.278   3.432   7.862 -0.4244  0.0502 -0.6436
 8854SOL    HW138021   2.269   3.471   7.949 -1.2329  0.2787 -0.8309
 8854SOL    HW238022   2.302   3.343   7.886  0.0427 -0.0055 -1.3065
 8855SOL     OW38023   0.733   4.702   8.115  0.4311 -0.5682 -0.2024
 8855SOL    HW138024   0.708   4.685   8.024  1.3295  1.4566 -0.8285
 8855SOL    HW238025   0.652   4.701   8.167  0.9036  1.0236  0.5518
 8856SOL     OW38026   3.611   0.384  16.130 -0.8099 -0.0799  0.1285
 8856SOL    HW138027   3.565   0.450  16.181  0.0755  1.4855 -1.0671
 8856SOL    HW238028   3.692   0.380  16.180 -1.3573 -1.0661  0.9267
 8857SOL     OW38029   1.505   3.210   3.029 -0.1954 -0.0892 -0.9899
 8857SOL    HW138030   1.450   3.134   3.046 -1.5485  1.2023  0.3209
 8857SOL    HW238031   1.437   3.276   3.014  0.0016  0.4717  0.5947
 8858SOL     OW38032   0.910   1.287   3.711  0.3235 -0.2125  0.1235
 8858SOL    HW138033   0.967   1.353   3.671 -0.4535 -1.2997 -2.7663
 8858SOL    HW238034   0.897   1.320   3.800 -1.5154 -0.9505  0.1364
 8859SOL     OW38035   3.338   0.877   5.403 -0.0040 -0.3490  0.5786
 8859SOL    HW138036   3.364   0.966   5.426 -1.7657  0.6265 -1.1742
 8859SOL    HW238037   3.315   0.879   5.310  0.4245 -0.6299  0.4654
 8860SOL     OW38038   1.418   3.448   8.352  0.2745 -0.0045  0.0116
 8860SOL    HW138039   1.439   3.541   8.354  2.6519 -0.5360 -0.0004
 8860SOL    HW238040   1.449   3.425   8.265 -0.6770 -4.1407  0.7841
 8861SOL     OW38041   1.996   1.439   4.426 -0.2973  0.1607  0.1364
 8861SOL    HW138042   1.963   1.519   4.468 -0.6110  0.8407 -1.3750
 8861SOL    HW238043   1.925   1.405   4.371  0.3197  0.6354 -0.9590
 8862SOL     OW38044   4.655   2.330   4.930  0.0648  0.4348 -0.3921
 8862SOL    HW138045   0.011   2.290   4.901  0.8345  1.9200 -0.2543
 8862SOL    HW238046   4.664   2.423   4.909 -2.0690  0.7700  0.1420
 8863SOL     OW38047   1.381   0.248   5.866  0.1693 -0.7537  0.0709
 8863SOL    HW138048   1.477   0.244   5.876  0.2907  0.6754 -0.4857
 8863SOL    HW238049   1.361   0.342   5.868  1.5191 -0.4388 -0.8779
 8864SOL     OW38050   2.466   3.436   9.247  0.2245 -0.8292 -0.1740
 8864SOL    HW138051   2.391   3.438   9.306  0.1440  0.7529 -0.3240
 8864SOL    HW238052   2.452   3.524   9.213  1.4512 -0.5142  0.1152
 8865SOL     OW38053   0.972   2.295   4.232  0.3205  0.0863  0.0901
 8865SOL    HW138054   0.899   2.346   4.268  1.0679  0.8877  0.4562
 8865SOL    HW238055   1.018   2.371   4.196  2.2595 -1.1233  0.0225
 8866SOL     OW38056   2.156   2.699   3.220 -0.1515 -0.3257 -0.4190
 8866SOL    HW138057   2.205   2.621   3.193 -1.6677 -0.5375 -2.6022
 8866SOL    HW238058   2.149   2.698   3.315 -0.7408  0.1216 -0.4568
 8867SOL     OW38059   3.689   3.292  15.885  0.0643 -0.3304  0.0975
 8867SOL    HW138060   3.643   3.222  15.839  1.7767 -1.9553  0.8949
 8867SOL    HW238061   3.772   3.283  15.840  0.2010  1.0442  0.0805
 8868SOL     OW38062   0.894   4.666   3.942 -0.5327 -0.3384  0.3194
 8868SOL    HW138063   0.933   4.696   3.859  0.0719  1.5403  1.2766
 8868SOL    HW238064   0.821   0.002   3.951 -0.1756 -0.0901  1.4359
 8869SOL     OW38065   0.887   2.581   2.089 -0.3759  0.4332  0.2758
 8869SOL    HW138066   0.942   2.546   2.019  1.8432  3.4163  0.5149
 8869SOL    HW238067   0.805   2.592   2.040 -0.2857  0.5025  0.1393
 8870SOL     OW38068   2.436   1.980   8.547  0.3044 -0.2822 -0.4072
 8870SOL    HW138069   2.341   1.970   8.542  0.7958 -3.9871 -1.9360
 8870SOL    HW238070   2.448   2.027   8.630  1.3798  0.4724 -0.9842
 8871SOL     OW38071   2.971   2.727  12.391  0.0676  0.2921 -0.1236
 8871SOL    HW138072   3.030   2.793  12.355  0.8342 -1.3285 -1.8063
 8871SOL    HW238073   2.942   2.780  12.466 -1.4260  0.7394 -1.0227
 8872SOL     OW38074   3.690   3.073   7.962  0.4168  0.5179 -0.0709
 8872SOL    HW138075   3.640   3.039   8.036  0.9076 -0.2537 -0.0889
 8872SOL    HW238076   3.641   3.154   7.946 -2.3373 -0.6356  2.6717
 8873SOL     OW38077   3.355   3.208   8.305  0.0912  0.0578 -0.1280
 8873SOL    HW138078   3.325   3.276   8.245  0.9464  1.8287  1.4144
 8873SOL    HW238079   3.405   3.148   8.250 -0.2256  1.5005 -1.9719
 8874SOL     OW38080   4.299   3.105   3.551  0.0340 -0.3696  0.2054
 8874SOL    HW138081   4.227   3.109   3.487  1.7614 -0.1715 -1.7270
 8874SOL    HW238082   4.338   3.192   3.552  2.5306 -1.4626 -1.6285
 8875SOL     OW38083   3.271   0.373   5.140  0.1887 -0.2494  0.6794
 8875SOL    HW138084   3.321   0.376   5.058 -0.2126 -3.1801  0.3413
 8875SOL    HW238085   3.254   0.282   5.161 -0.0056 -0.8776 -2.1380
 8876SOL     OW38086   2.732   4.694   4.622 -0.0962  0.2817 -0.3836
 8876SOL    HW138087   2.765   4.653   4.542 -0.9103  0.2715 -0.7156
 8876SOL    HW238088   2.807   0.021   4.646  0.7452 -0.4532 -1.4045
 8877SOL     OW38089   2.226   2.256  16.016 -0.1941 -1.0387  0.2395
 8877SOL    HW138090   2.283   2.328  16.042  0.1909 -0.6407 -1.7354
 8877SOL    HW238091   2.216   2.292  15.927  0.3234 -0.6933  0.3208
 8878SOL     OW38092   4.430   1.639   2.784 -0.1825  0.1081  0.7197
 8878SOL    HW138093   4.473   1.590   2.854  2.1224  3.1929  1.4684
 8878SOL    HW238094   4.380   1.701   2.838 -0.5399  0.3635  0.0908
 8879SOL     OW38095   1.218   3.828  16.620 -0.2096  0.3065  0.5151
 8879SOL    HW138096   1.171   3.842  16.703 -1.3384 -1.5988  0.1985
 8879SOL    HW238097   1.180   3.900  16.570 -1.1460 -1.2682 -1.0309
 8880SOL     OW38098   2.656   2.302   0.034  0.6920 -0.3395 -0.2915
 8880SOL    HW138099   2.592   2.368   0.009 -1.0007 -1.1904  1.7852
 8880SOL    HW238100   2.721   2.357   0.078 -1.2943 -0.2716  2.5598
 8881SOL     OW38101   3.149   0.476  13.416 -0.8721  0.8969 -0.1858
 8881SOL    HW138102   3.139   0.464  13.511 -1.6113  3.3523  0.0297
 8881SOL    HW238103   3.074   0.533  13.403 -1.6590 -0.2303 -0.6187
 8882SOL     OW38104   3.672   1.015   6.556  0.3228  0.0931  0.1081
 8882SOL    HW138105   3.666   1.071   6.633  1.5135 -1.0969  1.0674
 8882SOL    HW238106   3.674   1.081   6.487 -0.1196 -0.4410 -0.4074
 8883SOL     OW38107   4.349   3.002   5.330  0.3964 -0.1006  0.1300
 8883SOL    HW138108   4.299   3.062   5.273 -1.5231 -0.6712  1.2301
 8883SOL    HW238109   4.335   3.027   5.421 -1.7342  1.8263 -0.7120
 8884SOL     OW38110   0.317   2.826   7.242 -0.1509 -0.5327  0.3326
 8884SOL    HW138111   0.293   2.791   7.156  1.9061 -0.5741 -0.2358
 8884SOL    HW238112   0.377   2.755   7.267  0.6673  0.5506  1.4195
 8885SOL     OW38113   3.105   4.657   0.445 -0.0163 -0.0405  0.3456
 8885SOL    HW138114   3.150   4.689   0.523 -0.8555 -1.5956  1.4612
 8885SOL    HW238115   3.117   0.002   0.382  0.7691 -0.3151  0.1869
 8886SOL     OW38116   2.201   0.186   7.415  0.1212 -0.2479 -0.3763
 8886SOL    HW138117   2.255   0.224   7.484 -0.3911  1.7871 -1.0805
 8886SOL    HW238118   2.230   0.095   7.421  0.4473 -0.1607 -0.6228
 8887SOL     OW38119   4.299   3.432   7.912  0.4042 -0.0318 -0.0676
 8887SOL    HW138120   4.319   3.346   7.874  0.1865  0.1973 -0.7071
 8887SOL    HW238121   4.372   3.439   7.974 -0.8370  1.1748  1.2486
 8888SOL     OW38122   1.989   2.109   5.382 -0.4032  0.0486  0.2645
 8888SOL    HW138123   1.905   2.075   5.413 -1.8650  1.4876 -2.0436
 8888SOL    HW238124   2.012   2.038   5.322  0.8731  0.0986  0.6937
 8889SOL     OW38125   0.099   4.701   0.445 -0.2267  0.2272 -0.0727
 8889SOL    HW138126   0.012   0.001   0.477 -0.2709  1.1987 -0.9687
 8889SOL    HW238127   0.158   0.004   0.514  1.8796 -2.2524 -0.8361
 8890SOL     OW38128   0.835   2.224  16.541  0.3809  0.1396 -0.0625
 8890SOL    HW138129   0.751   2.252  16.578  1.8836  3.0792  1.1582
 8890SOL    HW238130   0.886   2.206  16.620  0.5874  0.5076 -0.1136
 8891SOL     OW38131   1.741   0.430   8.545 -0.0016  0.4702  0.4735
 8891SOL    HW138132   1.689   0.511   8.544 -0.7410 -0.0148 -0.2149
 8891SOL    HW238133   1.673   0.382   8.593  0.4235 -0.2667  0.3368
 8892SOL     OW38134   2.660   1.823  13.638 -0.5249  0.4526  0.1044
 8892SOL    HW138135   2.677   1.728  13.642 -1.6171  0.2478 -0.0718
 8892SOL    HW238136   2.749   1.854  13.651  0.5387 -2.0748 -1.0324
 8893SOL     OW38137   4.580   3.015   7.666  0.0728  0.0302 -0.0227
 8893SOL    HW138138   4.541   2.956   7.602 -0.3340 -1.4626  1.6063
 8893SOL    HW238139   4.603   2.953   7.735  3.8152  1.7157  0.2300
 8894SOL     OW38140   4.594   0.748   7.422  0.0750  0.3932  0.4865
 8894SOL    HW138141   4.591   0.837   7.458 -1.2710  0.6529 -0.2880
 8894SOL    HW238142   4.676   0.719   7.464 -0.2135 -1.3046 -0.1252
 8895SOL     OW38143   2.095   4.603   7.713 -0.1060 -0.4270 -0.1849
 8895SOL    HW138144   2.184   4.633   7.728 -0.6211  0.3247  1.3983
 8895SOL    HW238145   2.105   4.508   7.707  0.5497 -0.3512 -0.2184
 8896SOL     OW38146   0.407   1.313   6.138 -0.5385 -0.1460 -0.0496
 8896SOL    HW138147   0.330   1.330   6.192  0.3734  1.1424  0.8634
 8896SOL    HW238148   0.382   1.354   6.055 -0.6698  0.8981  0.5008
 8897SOL     OW38149   2.412   0.906   4.795 -0.6474 -0.0406  0.5746
 8897SOL    HW138150   2.328   0.905   4.748 -0.8289 -1.1404  0.9288
 8897SOL    HW238151   2.462   0.933   4.718 -1.0251 -1.1693 -0.0646
 8898SOL     OW38152   1.977   4.625   5.885  0.0681 -0.2140  0.5714
 8898SOL    HW138153   1.912   4.675   5.934  0.0243  0.5475 -0.2623
 8898SOL    HW238154   2.063   4.666   5.899  0.8047 -0.8118 -2.2508
 8899SOL     OW38155   1.744   4.265  14.712  0.4884 -0.2327  0.5387
 8899SOL    HW138156   1.698   4.237  14.633  0.8853 -1.4900  0.7464
 8899SOL    HW238157   1.787   4.346  14.684 -0.0555  0.0443  0.5055
 8900SOL     OW38158   4.230   1.735  16.289 -0.5057 -0.5730  0.0081
 8900SOL    HW138159   4.196   1.817  16.327 -0.0498 -0.4282  0.1008
 8900SOL    HW238160   4.285   1.718  16.366 -0.4424 -1.5769 -0.2586
 8901SOL     OW38161   2.670   0.210   5.091  0.0848  0.1975  0.0019
 8901SOL    HW138162   2.617   0.289   5.102  3.1898  2.7414 -3.1267
 8901SOL    HW238163   2.642   0.187   5.003 -0.2975  1.3171 -0.1638
 8902SOL     OW38164   1.551   4.146   5.052 -0.0859  0.6096  0.1852
 8902SOL    HW138165   1.493   4.220   5.064 -2.5643 -1.2198 -0.3983
 8902SOL    HW238166   1.635   4.190   5.064  0.4520 -0.9274  2.1478
 8903SOL     OW38167   1.285   4.693  10.610  0.3489 -0.7236 -0.1618
 8903SOL    HW138168   1.228   4.664  10.681  0.9901  1.2571  1.1489
 8903SOL    HW238169   1.217   4.710  10.546  0.0333 -1.4167 -0.0139
 8904SOL     OW38170   0.732   1.371  14.123  0.2020  0.2411 -0.2258
 8904SOL    HW138171   0.817   1.344  14.088  0.7500  3.6286 -1.4866
 8904SOL    HW238172   0.671   1.299  14.108 -1.9631  1.9585  0.3094
 8905SOL     OW38173   2.078   1.756   1.251  0.3061  0.6055 -0.8198
 8905SOL    HW138174   2.098   1.783   1.161  2.4980  1.5298 -0.0370
 8905SOL    HW238175   1.986   1.731   1.236  0.7114 -2.0288  1.0109
 8906SOL     OW38176   4.134   2.588   3.157 -0.0474 -0.1100  0.6042
 8906SOL    HW138177   4.135   2.521   3.088  0.1175 -1.5403  1.9973
 8906SOL    HW238178   4.108   2.666   3.108 -1.7839 -0.5807  0.7662
 8907SOL     OW38179   1.644   2.672   0.842  0.6732  0.2857  0.0075
 8907SOL    HW138180   1.578   2.717   0.895 -2.0759 -0.2469 -3.0427
 8907SOL    HW238181   1.712   2.735   0.865 -0.0890  0.3064  2.2104
 8908SOL     OW38182   3.829   3.031   7.178 -0.0501  0.5192  0.5569
 8908SOL    HW138183   3.898   3.054   7.240  1.8539 -0.0096 -1.3571
 8908SOL    HW238184   3.829   3.110   7.123 -3.5541  0.5749  0.6383
 8909SOL     OW38185   0.949   2.894  14.927 -0.5974  0.2409 -0.3386
 8909SOL    HW138186   1.031   2.874  14.971 -1.7389  0.1277  1.7477
 8909SOL    HW238187   0.965   2.865  14.837 -0.3152  0.9052 -0.5027
 8910SOL     OW38188   1.098   4.493   7.770 -0.5007  0.1765  0.0282
 8910SOL    HW138189   1.145   4.531   7.844 -0.6781  0.2389  0.1093
 8910SOL    HW238190   1.071   4.570   7.720 -1.9552  2.3444  4.1561
 8911SOL     OW38191   2.060   0.884   8.653  0.1201 -1.0008 -0.0462
 8911SOL    HW138192   2.145   0.902   8.694 -0.4167 -1.6760  1.3317
 8911SOL    HW238193   2.005   0.873   8.730 -1.9447  0.9572 -1.2467
 8912SOL     OW38194   2.452   1.028   5.055 -0.1921 -0.5671 -0.1454
 8912SOL    HW138195   2.368   0.998   5.089  0.2752 -2.5368 -0.7571
 8912SOL    HW238196   2.446   1.018   4.960 -2.7315 -1.1652  0.0821
 8913SOL     OW38197   4.039   3.644   2.571 -0.2825  0.5642 -0.2719
 8913SOL    HW138198   4.016   3.622   2.481  0.6506 -1.2830 -0.0473
 8913SOL    HW238199   4.069   3.561   2.607 -0.1542  0.0416 -1.5900
 8914SOL     OW38200   3.715   3.709   5.102 -0.7672 -0.1875 -0.6410
 8914SOL    HW138201   3.770   3.720   5.180 -1.8545  0.1069  0.0764
 8914SOL    HW238202   3.672   3.626   5.119  3.0453 -2.1601 -0.5438
 8915SOL     OW38203   2.328   1.249   0.515 -0.2224  0.2294 -0.0753
 8915SOL    HW138204   2.254   1.308   0.497  0.3447  0.7216 -0.7553
 8915SOL    HW238205   2.290   1.189   0.579  1.7091  0.2248  1.0423
 8916SOL     OW38206   4.411   4.357   8.418  0.4709 -0.6179 -0.1050
 8916SOL    HW138207   4.386   4.440   8.459  0.6047  0.3890 -2.0751
 8916SOL    HW238208   4.431   4.296   8.489 -0.3309  0.5546  1.1424
 8917SOL     OW38209   1.629   2.778   0.318 -0.4599 -0.3422 -0.1561
 8917SOL    HW138210   1.701   2.833   0.287 -1.3249  0.4524 -0.7464
 8917SOL    HW238211   1.552   2.809   0.271 -0.8945 -1.4070 -0.1452
 8918SOL     OW38212   2.471   3.836  14.896  0.5973 -0.4620  0.0667
 8918SOL    HW138213   2.515   3.867  14.817 -1.3450 -1.6736 -1.5199
 8918SOL    HW238214   2.500   3.902  14.959 -0.2394 -1.7253  1.8033
 8919SOL     OW38215   4.206   0.550  17.327  0.3952  0.3971 -0.4746
 8919SOL    HW138216   4.117   0.565  17.294 -0.7203 -2.0112  1.4239
 8919SOL    HW238217   4.201   0.454  17.322 -0.5868  0.4202 -0.0577
 8920SOL     OW38218   4.439   0.467   2.939  0.1484  0.0255  0.0629
 8920SOL    HW138219   4.414   0.494   3.028  0.0195  1.2324 -0.3353
 8920SOL    HW238220   4.533   0.457   2.955 -0.4317 -0.9632  2.9485
 8921SOL     OW38221   2.900   0.911   6.436  0.1958 -0.9955 -0.2523
 8921SOL    HW138222   2.978   0.906   6.492 -0.7066 -3.9886  0.7089
 8921SOL    HW238223   2.831   0.901   6.501  2.0422  0.6517  1.9736
 8922SOL     OW38224   3.135   3.820  10.437 -0.1411  0.7736  0.4395
 8922SOL    HW138225   3.180   3.743  10.471  0.9421  0.8851 -0.7457
 8922SOL    HW238226   3.096   3.791  10.355  1.4118 -1.0916  0.3680
 8923SOL     OW38227   1.518   1.982  10.413 -1.4068 -0.0592 -0.6798
 8923SOL    HW138228   1.519   2.072  10.447  0.9606 -0.8751  1.3870
 8923SOL    HW238229   1.494   1.936  10.494 -1.6774  1.6913  0.2602
 8924SOL     OW38230   3.565   2.112   6.860 -0.4324  1.1273 -0.3502
 8924SOL    HW138231   3.500   2.046   6.837 -0.4142  1.9152 -2.7474
 8924SOL    HW238232   3.619   2.056   6.916 -0.3675 -0.2475 -1.7679
 8925SOL     OW38233   3.562   4.094   4.589 -0.1981  0.1985  0.0615
 8925SOL    HW138234   3.522   4.098   4.676 -0.8286  0.5508 -0.2478
 8925SOL    HW238235   3.517   4.021   4.546  1.0414 -0.6288  0.1681
 8926SOL     OW38236   4.600   3.504  10.503 -0.0426 -0.0343  0.0972
 8926SOL    HW138237   4.551   3.569  10.453 -0.8613 -0.2424  0.6213
 8926SOL    HW238238   4.541   3.430  10.519  0.7107 -1.0404 -1.7258
 8927SOL     OW38239   1.409   1.449   2.810  0.1551  0.1438 -0.3681
 8927SOL    HW138240   1.436   1.536   2.780 -2.7606  1.0970 -0.2393
 8927SOL    HW238241   1.318   1.443   2.782 -0.0207  0.2723  0.1732
 8928SOL     OW38242   1.391   1.937   0.036 -0.2219 -0.1383 -0.2046
 8928SOL    HW138243   1.339   1.995   0.092  2.0563  0.9803  0.7275
 8928SOL    HW238244   1.482   1.966   0.042 -1.0099  2.1197  0.7263
 8929SOL     OW38245   1.983   0.965   1.095  0.6262  0.1736  0.4120
 8929SOL    HW138246   1.919   0.962   1.165  0.9387 -0.3605  0.6774
 8929SOL    HW238247   2.038   0.901   1.141  0.7428 -1.0050 -1.3544
 8930SOL     OW38248   1.190   3.971  14.971 -0.3227  0.1255 -0.1286
 8930SOL    HW138249   1.196   4.037  15.040 -0.8747  1.5052 -1.3895
 8930SOL    HW238250   1.253   4.005  14.907  0.2299  0.7381  0.7484
 8931SOL     OW38251   2.518   4.460   7.622 -0.1523 -0.0901 -0.3269
 8931SOL    HW138252   2.546   4.409   7.698  2.0639  1.6919  0.0272
 8931SOL    HW238253   2.596   4.450   7.568  0.6054  1.9320  0.3975
 8932SOL     OW38254   3.240   2.323   7.509 -0.1357  0.2667 -0.3841
 8932SOL    HW138255   3.248   2.401   7.454 -2.2780 -0.8877 -2.3400
 8932SOL    HW238256   3.296   2.353   7.581 -0.8669  1.7451 -0.4341
 8933SOL     OW38257   0.012   3.536  10.234  1.0916  0.3642  0.1110
 8933SOL    HW138258   0.080   3.587  10.277  0.2710  0.7295  0.9714
 8933SOL    HW238259   4.683   3.505  10.306 -0.1587 -0.8752 -1.3669
 8934SOL     OW38260   3.287   4.593   8.297  0.0427  0.3396  0.0942
 8934SOL    HW138261   3.295   4.541   8.217 -0.7986  1.4856 -0.7350
 8934SOL    HW238262   3.367   4.567   8.342  0.4353  2.2294  0.5019
 8935SOL     OW38263   0.097   3.719  16.742 -0.1265  0.4449  0.1656
 8935SOL    HW138264   0.054   3.718  16.656  1.4921 -2.1392 -0.5999
 8935SOL    HW238265   0.035   3.670  16.796 -0.5588 -1.0509 -1.7049
 8936SOL     OW38266   0.154   1.566  11.023  0.7720  0.6685 -0.2085
 8936SOL    HW138267   0.145   1.656  11.053  0.5856  0.9314 -1.0556
 8936SOL    HW238268   0.142   1.519  11.105 -0.6622 -3.0362 -2.5251
 8937SOL     OW38269   4.370   1.893   6.680 -0.0066  0.0687  0.2973
 8937SOL    HW138270   4.287   1.939   6.692 -1.0068 -1.4605 -0.8066
 8937SOL    HW238271   4.347   1.814   6.632 -0.9088  0.4872  0.0351
 8938SOL     OW38272   1.413   1.494  13.412 -0.1927  0.3642  0.5559
 8938SOL    HW138273   1.352   1.542  13.356 -0.3983 -0.7659 -0.1910
 8938SOL    HW238274   1.481   1.464  13.351 -0.8798  1.9525 -1.0029
 8939SOL     OW38275   2.240   2.890   0.060 -0.5658  0.0485  0.0776
 8939SOL    HW138276   2.158   2.861   0.100 -0.6638 -2.7659 -2.2345
 8939SOL    HW238277   2.241   2.983   0.082  0.0577  0.0915 -0.1399
 8940SOL     OW38278   1.840   4.432  17.539  0.1439 -0.0905 -0.0194
 8940SOL    HW138279   1.821   4.396  17.626  0.7586 -1.5335 -0.4843
 8940SOL    HW238280   1.791   4.380  17.475  1.3467  1.9233 -2.5900
 8941SOL     OW38281   2.778   2.512   7.080  0.3676 -1.3095  0.0541
 8941SOL    HW138282   2.720   2.503   7.156 -0.6248  0.2371 -0.5216
 8941SOL    HW238283   2.867   2.514   7.116  0.4958  1.5337 -0.4469
 8942SOL     OW38284   2.163   1.988   8.999 -0.5271  0.1350 -0.1010
 8942SOL    HW138285   2.176   2.078   8.969  0.8251  0.2838  0.9436
 8942SOL    HW238286   2.243   1.976   9.050 -0.2615 -0.6340 -0.7150
 8943SOL     OW38287   2.323   2.863   8.320 -0.0400 -0.4636 -0.3688
 8943SOL    HW138288   2.318   2.777   8.278 -1.1645  0.2800 -1.7559
 8943SOL    HW238289   2.417   2.878   8.323 -0.0060 -0.8245  0.5390
 8944SOL     OW38290   4.179   4.339   1.316 -0.2902 -0.4355 -0.0516
 8944SOL    HW138291   4.133   4.255   1.320 -1.0593  0.0099  0.2016
 8944SOL    HW238292   4.122   4.394   1.368 -0.6893 -0.1163 -0.8202
 8945SOL     OW38293   4.587   1.594  13.249  0.3975  0.4181  0.3848
 8945SOL    HW138294   4.514   1.610  13.188  2.3568  2.4468 -1.4559
 8945SOL    HW238295   4.535   1.588  13.329 -1.8692 -0.3504 -1.1235
 8946SOL     OW38296   4.159   0.013   6.451  0.6742  0.5471  0.4738
 8946SOL    HW138297   4.135   0.082   6.512 -0.9305  0.0342  0.4390
 8946SOL    HW238298   4.133   4.661   6.500  1.5840 -0.1428 -0.1447
 8947SOL     OW38299   4.606   1.217   2.735 -0.2203 -0.0896  0.4566
 8947SOL    HW138300   4.610   1.172   2.650  0.1737 -0.5616  0.7201
 8947SOL    HW238301   4.692   1.259   2.729 -1.6105  2.9555  2.2972
 8948SOL     OW38302   4.585   1.973   6.524 -0.3743  0.2194 -0.1521
 8948SOL    HW138303   4.619   1.885   6.511  1.2364  0.8530 -0.2375
 8948SOL    HW238304   4.511   1.949   6.579 -0.5845  0.3803 -0.3623
 8949SOL     OW38305   1.711   0.299   0.854  0.0863 -0.2697 -0.1785
 8949SOL    HW138306   1.708   0.395   0.852 -2.0621 -0.3892 -2.3513
 8949SOL    HW238307   1.618   0.277   0.851  0.4231 -1.6845  0.2136
 8950SOL     OW38308   3.110   2.212   4.502 -0.5724  0.2616  0.1487
 8950SOL    HW138309   3.054   2.195   4.578 -1.2578 -0.5006 -0.5368
 8950SOL    HW238310   3.136   2.125   4.474 -0.3145 -0.0654  1.4389
 8951SOL     OW38311   2.856   3.226   6.640 -0.1310  0.3069 -0.1851
 8951SOL    HW138312   2.788   3.279   6.598 -1.7054  0.0706  2.0546
 8951SOL    HW238313   2.818   3.139   6.626  2.4588 -1.1154  1.6580
 8952SOL     OW38314   2.224   2.647   2.785 -0.2940 -0.4652 -0.0811
 8952SOL    HW138315   2.234   2.720   2.845  1.6061 -1.2250  0.5247
 8952SOL    HW238316   2.287   2.683   2.722 -1.5582  2.8634  0.5590
 8953SOL     OW38317   0.225   4.367   2.069  0.2795  0.2266 -0.2196
 8953SOL    HW138318   0.208   4.308   1.995  1.6821  0.4311 -0.7002
 8953SOL    HW238319   0.310   4.398   2.038  0.7622 -0.3803  0.5107
 8954SOL     OW38320   1.775   4.241   4.493 -0.0553 -0.7526  0.5483
 8954SOL    HW138321   1.712   4.172   4.515 -2.4950  0.7256 -1.8350
 8954SOL    HW238322   1.716   4.309   4.461  0.4173 -0.5909  0.0240
 8955SOL     OW38323   2.034   0.144   4.530 -0.1469  0.2729  0.5053
 8955SOL    HW138324   2.020   0.190   4.447  0.7779 -0.3696 -0.0116
 8955SOL    HW238325   2.092   0.196   4.586  0.6115 -0.4078  0.3511
 8956SOL     OW38326   2.776   0.935   4.584  0.5898  0.2152  1.0715
 8956SOL    HW138327   2.801   0.895   4.667 -1.4438 -2.2301  0.5073
 8956SOL    HW238328   2.839   0.887   4.532  1.6724  2.2967  0.4639
 8957SOL     OW38329   0.297   3.635   7.101  0.1460  0.1034  0.2066
 8957SOL    HW138330   0.315   3.578   7.176 -1.1922  0.4331  0.7804
 8957SOL    HW238331   0.359   3.707   7.114  1.7116 -1.0717 -0.7548
 8958SOL     OW38332   2.606   0.666   9.521 -0.0225 -0.7535  0.1051
 8958SOL    HW138333   2.698   0.681   9.498 -0.6114 -0.0207 -1.7630
 8958SOL    HW238334   2.561   0.739   9.478  0.3085 -0.3429  0.4555
 8959SOL     OW38335   0.974   1.623   9.278  0.1966  0.1906  0.2028
 8959SOL    HW138336   0.905   1.594   9.218  0.5273  1.7589 -0.9605
 8959SOL    HW238337   0.932   1.707   9.296  0.4955  0.0992  1.3297
 8960SOL     OW38338   2.181   4.388   3.224 -0.1918  0.1562  0.0474
 8960SOL    HW138339   2.132   4.459   3.266  0.9833  2.7803 -3.0420
 8960SOL    HW238340   2.104   4.333   3.211 -0.1751 -0.0012  0.6204
 8961SOL     OW38341   4.293   3.967   8.666 -0.9207 -0.2683 -0.0301
 8961SOL    HW138342   4.205   3.937   8.688 -0.8049  0.5423  1.5367
 8961SOL    HW238343   4.342   3.894   8.704 -1.2621 -1.0585 -1.0942
 8962SOL     OW38344   4.312   3.953  11.188  0.1859  0.2590 -0.5123
 8962SOL    HW138345   4.397   3.970  11.147  0.2162  0.6829 -0.2826
 8962SOL    HW238346   4.308   3.859  11.171 -0.8914 -0.2198  2.3853
 8963SOL     OW38347   4.205   2.844   4.113  0.1875 -0.3666 -0.1104
 8963SOL    HW138348   4.230   2.831   4.205 -2.0650 -1.1036  0.3950
 8963SOL    HW238349   4.200   2.940   4.107 -0.0346 -0.3686  0.0643
 8964SOL     OW38350   1.316   4.335   2.254  0.0105  0.1372 -0.0458
 8964SOL    HW138351   1.244   4.273   2.266  0.1403  0.1838  0.9650
 8964SOL    HW238352   1.299   4.384   2.335 -1.1146  1.0167 -0.8156
 8965SOL     OW38353   4.302   4.672   5.835 -0.2895 -0.0478  0.4824
 8965SOL    HW138354   4.304   0.037   5.865  0.3866  0.5332 -1.3431
 8965SOL    HW238355   4.282   4.635   5.921  0.2253  0.4720  0.8337
 8966SOL     OW38356   2.999   2.333  11.215 -0.3053  0.1453  0.7306
 8966SOL    HW138357   2.994   2.327  11.119  1.5709 -1.7157  0.7474
 8966SOL    HW238358   3.039   2.419  11.225 -1.3037  0.6753  0.1326
 8967SOL     OW38359   4.477   1.071   7.112 -0.3031  0.0919 -0.1724
 8967SOL    HW138360   4.459   0.982   7.081 -1.3192  1.2150 -2.7687
 8967SOL    HW238361   4.573   1.071   7.116 -0.2471 -1.3916 -1.6084
 8968SOL     OW38362   3.264   0.053   0.635 -0.0168 -0.2480 -0.0716
 8968SOL    HW138363   3.312   0.005   0.702  0.8572  0.9105  0.1115
 8968SOL    HW238364   3.300   0.141   0.638 -0.0291 -0.3571  3.7095
 8969SOL     OW38365   0.166   1.792   7.328  0.6118 -0.1660 -0.2252
 8969SOL    HW138366   0.129   1.802   7.416 -2.6398  1.0036 -1.7545
 8969SOL    HW238367   0.257   1.801   7.356  0.9249  0.6160 -1.5330
 8970SOL     OW38368   1.658   3.585  17.485 -0.2568  0.0770  0.3695
 8970SOL    HW138369   1.743   3.593  17.529  0.8577 -2.0020 -1.3744
 8970SOL    HW238370   1.600   3.643  17.533  0.6678  0.9951  0.3820
 8971SOL     OW38371   0.147   4.708   3.689 -0.1235  0.8399 -0.0986
 8971SOL    HW138372   0.116   4.705   3.598  4.9216 -0.3318 -1.7670
 8971SOL    HW238373   0.090   0.049   3.728 -4.7596 -2.1970 -1.6223
 8972SOL     OW38374   0.216   0.837   6.417  0.1599 -0.1931 -0.3594
 8972SOL    HW138375   0.298   0.881   6.398  0.5751 -1.2433 -1.0291
 8972SOL    HW238376   0.154   0.907   6.396  2.8097  1.2354 -3.4496
 8973SOL     OW38377   1.203   2.050   4.143  0.1348  0.3635 -0.0772
 8973SOL    HW138378   1.116   2.049   4.101 -0.1759 -0.4004  0.5717
 8973SOL    HW238379   1.222   2.143   4.133  1.3765 -0.0959 -1.8666
 8974SOL     OW38380   0.911   3.492   6.853  0.7431  0.1069  0.0657
 8974SOL    HW138381   0.951   3.558   6.909 -0.8882  0.9081  0.2777
 8974SOL    HW238382   0.927   3.410   6.901 -0.9752 -0.8315 -0.9571
 8975SOL     OW38383   1.800   0.011   6.082 -0.2668  0.0798 -0.0369
 8975SOL    HW138384   1.806   4.675   6.155 -1.4304 -0.8503 -0.7379
 8975SOL    HW238385   1.705   0.017   6.081 -0.4188 -2.2295  0.4213
 8976SOL     OW38386   3.999   3.897  10.758 -0.0886 -0.1014  0.1613
 8976SOL    HW138387   3.960   3.962  10.816 -0.8596  0.5462 -1.0901
 8976SOL    HW238388   4.089   3.929  10.764  0.3216 -1.2206  0.0336
 8977SOL     OW38389   3.881   1.691  12.269 -0.2044 -0.1283 -0.7177
 8977SOL    HW138390   3.797   1.651  12.247  0.6632 -3.2046  1.4458
 8977SOL    HW238391   3.880   1.764  12.208  2.2909  0.1800 -0.4192
 8978SOL     OW38392   3.653   0.357   6.897  0.0432  0.4658  0.6434
 8978SOL    HW138393   3.736   0.370   6.944  0.4822 -2.9221  0.7590
 8978SOL    HW238394   3.600   0.326   6.969 -1.9616 -3.2137 -2.4329
 8979SOL     OW38395   4.204   1.665  12.279  0.2331  0.2984  0.0470
 8979SOL    HW138396   4.297   1.687  12.272  0.7469 -2.9472 -3.1256
 8979SOL    HW238397   4.156   1.746  12.261  0.5450  1.0206  2.5373
 8980SOL     OW38398   0.957   1.701   3.120 -0.1753 -0.0148  0.4247
 8980SOL    HW138399   0.996   1.727   3.037 -0.3287 -2.4638 -0.4192
 8980SOL    HW238400   1.024   1.734   3.180 -2.7132  2.3891  1.9684
 8981SOL     OW38401   2.962   0.721   2.560 -0.0631  0.6173 -0.6468
 8981SOL    HW138402   2.880   0.718   2.609  0.0556  1.0561 -0.4249
 8981SOL    HW238403   2.937   0.782   2.490 -0.4982  2.5617  1.2135
 8982SOL     OW38404   2.526   0.533   1.465 -0.1317  0.0251 -0.0605
 8982SOL    HW138405   2.568   0.465   1.413  0.2264 -0.7046  1.1826
 8982SOL    HW238406   2.453   0.483   1.501  0.2188 -1.8060 -1.9371
 8983SOL     OW38407   4.485   4.002   2.663 -0.3247 -0.1821  0.0664
 8983SOL    HW138408   4.499   4.082   2.613 -0.3270  0.1820  0.6544
 8983SOL    HW238409   4.437   3.949   2.599 -1.0766  0.3619  0.1744
 8984SOL     OW38410   4.537   1.533  10.264 -0.3322  0.3370  0.3550
 8984SOL    HW138411   4.479   1.461  10.290 -1.5876  1.0808 -0.3643
 8984SOL    HW238412   4.471   1.589  10.223  0.9562  3.0720  2.0497
 8985SOL     OW38413   1.342   0.893   3.636  0.3121 -0.1762 -0.1377
 8985SOL    HW138414   1.302   0.818   3.590 -0.7670  0.1502  0.2628
 8985SOL    HW238415   1.382   0.845   3.709 -0.4947  1.7161  1.5418
 8986SOL     OW38416   0.766   4.435   0.844 -0.1988 -0.0889  0.3596
 8986SOL    HW138417   0.851   4.393   0.854 -1.0327 -2.3450 -1.8090
 8986SOL    HW238418   0.750   4.421   0.750 -1.3467  0.3535  0.4878
 8987SOL     OW38419   0.136   3.025  11.491 -0.3721  0.2308  0.1306
 8987SOL    HW138420   0.111   3.003  11.402 -0.3580  1.0429 -0.0731
 8987SOL    HW238421   0.220   3.058  11.458 -1.8857  2.5126 -1.4273
 8988SOL     OW38422   2.779   3.536  17.127 -0.0893 -0.3621 -0.1635
 8988SOL    HW138423   2.789   3.503  17.216  0.3175 -1.7391 -0.7266
 8988SOL    HW238424   2.705   3.595  17.143  0.4807 -0.2050  1.9679
 8989SOL     OW38425   4.136   4.562   7.273 -0.1831 -0.0279 -0.8140
 8989SOL    HW138426   4.080   4.486   7.286 -1.3530  1.4456  2.6885
 8989SOL    HW238427   4.079   4.630   7.309  0.4414  1.4373 -2.5561
 8990SOL     OW38428   0.465   0.142   4.936 -0.2406 -0.4608  0.2004
 8990SOL    HW138429   0.486   0.154   5.029 -1.6604 -0.6819  0.5376
 8990SOL    HW238430   0.469   0.229   4.896 -1.9638  0.1214  1.2755
 8991SOL     OW38431   0.887   0.968  12.070 -0.1215 -0.1372  0.5594
 8991SOL    HW138432   0.977   0.940  12.081  0.1808  1.0954  1.2900
 8991SOL    HW238433   0.898   1.040  12.008 -1.4099 -1.2630 -0.9552
 8992SOL     OW38434   3.722   3.273  10.240 -0.6236 -0.2498  0.2699
 8992SOL    HW138435   3.750   3.363  10.220 -1.4718 -0.0665 -0.0541
 8992SOL    HW238436   3.748   3.243  10.153 -2.1525 -0.8163  0.0279
 8993SOL     OW38437   1.486   2.246  10.504  0.0931  0.0464 -0.4235
 8993SOL    HW138438   1.417   2.310  10.486  0.5864  0.4142 -1.0313
 8993SOL    HW238439   1.509   2.278  10.591 -0.0446  0.1662 -0.4309
 8994SOL     OW38440   3.648   1.987   5.571 -0.2174 -0.3922 -0.1566
 8994SOL    HW138441   3.553   2.000   5.570 -0.4609 -2.2188 -1.4200
 8994SOL    HW238442   3.674   1.977   5.662 -2.4799  1.1582  0.6554
 8995SOL     OW38443   4.230   0.024   2.948  0.2823 -0.4656  0.0498
 8995SOL    HW138444   4.137   0.005   2.952  0.1569  0.8001  3.3455
 8995SOL    HW238445   4.242   0.081   3.024  3.0439 -2.6860  1.2767
 8996SOL     OW38446   0.802   4.042   3.693 -0.2960  0.4507 -0.1259
 8996SOL    HW138447   0.830   4.133   3.701  1.3856  0.4204 -5.1890
 8996SOL    HW238448   0.876   4.002   3.739 -0.5522  0.4670  0.3017
 8997SOL     OW38449   0.513   2.572   8.869 -0.2498 -0.0737 -0.0879
 8997SOL    HW138450   0.480   2.506   8.930  1.4319 -1.9129 -1.1678
 8997SOL    HW238451   0.530   2.637   8.937  1.2165 -0.3805 -0.1635
 8998SOL     OW38452   2.551   3.339   8.341 -0.4543 -0.3921 -0.3215
 8998SOL    HW138453   2.555   3.270   8.275  1.0514 -2.0631  1.5581
 8998SOL    HW238454   2.528   3.420   8.295  0.8661 -0.6706 -1.4773
 8999SOL     OW38455   0.876   3.292  10.187 -0.0655  0.2861 -0.5452
 8999SOL    HW138456   0.922   3.364  10.230 -1.0146  0.7871 -0.3740
 8999SOL    HW238457   0.784   3.308  10.209 -0.0722 -0.6199  0.0999
 9000SOL     OW38458   4.405   4.598  16.107  0.8488  0.3816 -0.1448
 9000SOL    HW138459   4.453   4.576  16.187 -1.8923 -0.8979  1.1317
 9000SOL    HW238460   4.320   4.583  16.149  0.3940  2.2012 -0.4073
 9001SOL     OW38461   1.915   0.376  11.750  0.6772 -0.4472 -0.1356
 9001SOL    HW138462   1.923   0.453  11.805 -1.0972 -0.3944  0.0342
 9001SOL    HW238463   2.007   0.350  11.759  0.4318 -1.0454  0.6405
 9002SOL     OW38464   0.531   3.612   6.790  0.3478 -0.4470 -0.0288
 9002SOL    HW138465   0.528   3.707   6.804  0.0849 -0.0537 -2.7558
 9002SOL    HW238466   0.560   3.587   6.878 -2.3712 -0.9847  0.6979
 9003SOL     OW38467   4.101   4.379   3.852  0.2174 -0.3031 -0.0043
 9003SOL    HW138468   4.170   4.342   3.796  1.2824  0.5679  0.7294
 9003SOL    HW238469   4.149   4.435   3.913 -0.2855 -0.9736  1.0153
 9004SOL     OW38470   1.065   1.574   8.356  0.3218 -0.0897  0.5008
 9004SOL    HW138471   1.022   1.655   8.385 -0.1217  0.2305 -1.0384
 9004SOL    HW238472   1.030   1.522   8.428 -0.6638 -0.0489  0.0459
 9005SOL     OW38473   1.824   1.108  15.477  0.4998  0.5951  0.3474
 9005SOL    HW138474   1.896   1.063  15.432 -0.7899 -0.2502 -0.8634
 9005SOL    HW238475   1.780   1.125  15.394  0.9390 -2.2417 -0.4873
 9006SOL     OW38476   1.200   3.026   9.394 -0.1360 -0.0784  0.3360
 9006SOL    HW138477   1.219   3.093   9.328  1.0094 -1.6026 -0.8588
 9006SOL    HW238478   1.193   2.954   9.332 -1.5723  0.5363 -0.2368
 9007SOL     OW38479   4.259   2.274   2.464 -0.0813  0.0945 -0.5901
 9007SOL    HW138480   4.317   2.206   2.428  3.5190  2.5938  0.5276
 9007SOL    HW238481   4.199   2.291   2.391 -2.7267  3.2689  2.3481
 9008SOL     OW38482   0.073   2.477   3.020  0.1447  0.7164  0.1331
 9008SOL    HW138483   0.015   2.522   2.958 -0.3964  2.2062  1.6913
 9008SOL    HW238484   0.012   2.412   3.055  1.6751 -1.4908 -1.3024
 9009SOL     OW38485   4.239   2.479  10.529  0.4676 -0.0755  0.4863
 9009SOL    HW138486   4.196   2.529  10.460  1.3876 -0.4036 -0.3226
 9009SOL    HW238487   4.196   2.513  10.607  0.0703  0.4064  0.0601
 9010SOL     OW38488   2.563   0.300  10.244 -0.2869 -0.6623  0.3167
 9010SOL    HW138489   2.566   0.395  10.230 -1.0559 -0.7590 -0.4671
 9010SOL    HW238490   2.479   0.268  10.214 -1.0141 -0.8192  2.4806
 9011SOL     OW38491   4.691   3.278   6.409  0.2560  1.0028 -0.1710
 9011SOL    HW138492   4.651   3.340   6.470 -0.4039  0.7664 -0.3571
 9011SOL    HW238493   0.033   3.245   6.468  1.4576  0.8599 -1.6479
 9012SOL     OW38494   3.201   2.401  15.775  0.6740 -0.0526 -0.2653
 9012SOL    HW138495   3.229   2.313  15.801 -2.2986 -1.1072 -0.6993
 9012SOL    HW238496   3.226   2.456  15.849  1.9603 -0.2046 -0.5908
 9013SOL     OW38497   0.362   3.473  16.748 -0.2050  0.1167  0.2569
 9013SOL    HW138498   0.354   3.397  16.805 -0.8723  0.4577  0.6150
 9013SOL    HW238499   0.294   3.526  16.790  1.5543  2.7352 -0.2069
 9014SOL     OW38500   3.327   2.979  13.449 -0.6000  0.2652 -0.3111
 9014SOL    HW138501   3.294   3.005  13.363  3.1397  1.1020 -1.4883
 9014SOL    HW238502   3.257   2.928  13.489  0.9087 -1.6510 -0.1534
 9015SOL     OW38503   2.756   1.225  10.395 -0.3944  0.4584  0.6868
 9015SOL    HW138504   2.776   1.222  10.488  1.5240  1.2345  0.3153
 9015SOL    HW238505   2.828   1.282  10.365  0.7586 -0.6737  1.3101
 9016SOL     OW38506   3.834   4.054   6.147 -0.3513  0.1259 -0.7145
 9016SOL    HW138507   3.839   3.959   6.140 -1.0026  0.1352 -1.3365
 9016SOL    HW238508   3.772   4.075   6.077 -0.8859  0.4847 -0.1346
 9017SOL     OW38509   0.974   0.551  13.714 -0.3827  0.0592  0.3410
 9017SOL    HW138510   0.957   0.498  13.637  0.8301  2.1633 -1.3560
 9017SOL    HW238511   0.911   0.509  13.773  1.8168 -2.0282  1.2028
 9018SOL     OW38512   2.582   3.664   6.197  0.2110  0.1901  0.4290
 9018SOL    HW138513   2.498   3.623   6.216  0.2212 -1.2148 -2.5662
 9018SOL    HW238514   2.551   3.746   6.159  4.8190  1.1136 -1.4185
 9019SOL     OW38515   1.020   1.651  10.150 -0.1895 -0.6459 -0.4214
 9019SOL    HW138516   0.987   1.660  10.240  0.6858 -1.7106  0.0069
 9019SOL    HW238517   1.107   1.687  10.168 -0.7764  0.4791  0.2216
 9020SOL     OW38518   4.343   4.390   0.703  0.1921  0.1600  0.1372
 9020SOL    HW138519   4.334   4.314   0.646 -0.8007  0.6665 -0.3741
 9020SOL    HW238520   4.383   4.447   0.637  3.1677  0.6380  2.3699
 9021SOL     OW38521   0.834   4.609  10.396  0.6713  0.0450 -0.1621
 9021SOL    HW138522   0.842   4.594  10.490  1.2619 -2.8531 -0.6805
 9021SOL    HW238523   0.869   4.535  10.348  0.9737 -0.3989  0.7414
 9022SOL     OW38524   2.596   4.447   9.042  0.1027 -0.0375  0.3873
 9022SOL    HW138525   2.680   4.471   9.080  0.3877  1.2378 -1.0227
 9022SOL    HW238526   2.604   4.352   9.037 -0.9501 -0.0320 -1.4937
 9023SOL     OW38527   1.991   1.372   8.944 -0.2860  0.1406 -0.5642
 9023SOL    HW138528   2.046   1.298   8.971 -2.7343 -1.3912  0.2300
 9023SOL    HW238529   1.949   1.395   9.026  3.4659 -0.2960  1.4902
 9024SOL     OW38530   4.261   2.863   8.686 -0.0196  0.7728  0.1247
 9024SOL    HW138531   4.269   2.906   8.770  2.5520  2.0654 -0.8037
 9024SOL    HW238532   4.352   2.869   8.657 -0.4170 -0.4996 -1.4280
 9025SOL     OW38533   0.496   4.300  16.410  0.4233 -0.0602 -0.0681
 9025SOL    HW138534   0.403   4.278  16.408  0.6129 -0.6010 -3.0571
 9025SOL    HW238535   0.533   4.269  16.492 -1.5457 -0.1618  0.7995
 9026SOL     OW38536   3.299   1.137   2.750 -0.3702 -0.1268  0.2838
 9026SOL    HW138537   3.360   1.200   2.788  3.2354 -3.6161  0.3223
 9026SOL    HW238538   3.366   1.090   2.700 -1.1481 -0.7656 -0.1603
 9027SOL     OW38539   3.175   1.741  11.725 -0.1985  0.8771 -0.4450
 9027SOL    HW138540   3.190   1.721  11.632 -0.7044  2.1516 -0.7981
 9027SOL    HW238541   3.129   1.825  11.723  0.0847  1.0595  1.1121
 9028SOL     OW38542   2.296   2.213   2.826  0.2534  0.1653  0.2552
 9028SOL    HW138543   2.204   2.234   2.814  0.7662  0.9323 -2.2853
 9028SOL    HW238544   2.346   2.244   2.750  0.0179 -0.1342 -0.0168
 9029SOL     OW38545   2.235   3.090  11.113  0.3674 -0.1014  0.0373
 9029SOL    HW138546   2.295   3.103  11.040 -1.3455 -0.5952 -1.4742
 9029SOL    HW238547   2.147   3.111  11.079  0.7076 -1.9456 -1.9811
 9030SOL     OW38548   2.964   3.144   2.851  0.1606  0.1087 -0.0383
 9030SOL    HW138549   3.039   3.090   2.825  0.3294  0.0909  0.4846
 9030SOL    HW238550   3.016   3.197   2.911 -2.8769  0.0752  2.6068
 9031SOL     OW38551   1.111   4.341   4.685 -0.1145 -0.4758 -0.1966
 9031SOL    HW138552   1.046   4.362   4.618  0.3528 -0.0195 -0.5149
 9031SOL    HW238553   1.065   4.370   4.764  0.0465  0.8770 -0.5947
 9032SOL     OW38554   3.254   1.497   8.850 -0.0717  0.0587  0.2561
 9032SOL    HW138555   3.296   1.428   8.798  1.0307  1.5177 -0.8100
 9032SOL    HW238556   3.173   1.504   8.801 -0.0409  2.2698  0.4877
 9033SOL     OW38557   1.961   1.212   5.814  0.1410  0.6063 -0.5455
 9033SOL    HW138558   1.878   1.190   5.857  0.3183  0.0015 -0.5067
 9033SOL    HW238559   1.930   1.221   5.724  1.9228 -0.4116 -1.2786
 9034SOL     OW38560   4.105   0.580   1.241 -0.0456  1.0140 -0.6703
 9034SOL    HW138561   4.080   0.573   1.149  0.1312 -1.1731 -0.5570
 9034SOL    HW238562   4.025   0.605   1.287 -0.1686  2.0792 -1.4803
 9035SOL     OW38563   0.687   0.005   9.602  0.2850  0.0530 -0.7007
 9035SOL    HW138564   0.766   0.056   9.620  1.2356 -2.2833  1.6036
 9035SOL    HW238565   0.643   0.003   9.686 -0.7415  1.1206 -1.2125
 9036SOL     OW38566   3.506   2.388   4.076  0.1532  0.0426  0.0742
 9036SOL    HW138567   3.488   2.410   4.167  3.5114  0.7910  0.5736
 9036SOL    HW238568   3.425   2.371   4.028  0.7943  0.4340 -1.1651
 9037SOL     OW38569   4.698   1.836   0.608  0.1997  0.0710 -0.3925
 9037SOL    HW138570   4.718   1.919   0.651 -2.1012 -0.1425  1.0855
 9037SOL    HW238571   4.721   1.848   0.516  0.5794  0.3241 -0.2643
 9038SOL     OW38572   4.158   3.537   5.196  0.5838 -1.1750  0.2602
 9038SOL    HW138573   4.077   3.523   5.246  0.1711 -0.7629 -0.3038
 9038SOL    HW238574   4.137   3.623   5.161  1.1094 -1.7417 -1.4137
 9039SOL     OW38575   4.464   4.003   2.939  0.2521 -0.0738 -0.2306
 9039SOL    HW138576   4.475   3.989   2.845  1.4202 -0.4326 -0.0374
 9039SOL    HW238577   4.529   3.941   2.973 -0.3177 -0.0732  0.8521
 9040SOL     OW38578   3.764   3.358   5.715 -0.3454  0.1250 -0.0904
 9040SOL    HW138579   3.856   3.357   5.687 -0.5297  0.1302 -0.6877
 9040SOL    HW238580   3.768   3.286   5.777 -2.9936 -0.0481 -0.1310
 9041SOL     OW38581   1.691   2.548   5.814  0.0014  0.6102  0.5918
 9041SOL    HW138582   1.598   2.527   5.816  0.2754 -0.6599 -0.7956
 9041SOL    HW238583   1.718   2.545   5.723  0.3403 -1.6005  0.7833
 9042SOL     OW38584   4.027   3.140   4.794  0.7990 -0.0611 -0.7004
 9042SOL    HW138585   4.118   3.142   4.764  1.2864  0.5767  0.8249
 9042SOL    HW238586   4.040   3.097   4.879  0.5082 -1.2472 -1.2510
 9043SOL     OW38587   1.995   0.981   6.579 -0.3208 -0.2151  0.2144
 9043SOL    HW138588   2.089   0.971   6.565 -0.5483 -1.5983 -0.3007
 9043SOL    HW238589   1.963   0.981   6.489 -0.6807  0.6042  0.3448
 9044SOL     OW38590   0.642   2.975   5.595  0.4517  0.0285  0.6345
 9044SOL    HW138591   0.669   3.060   5.561  0.8194  0.2462  1.4757
 9044SOL    HW238592   0.588   3.004   5.668 -1.6718  0.6997 -1.2109
 9045SOL     OW38593   0.365   3.357   7.694  0.2230 -0.3571 -0.3421
 9045SOL    HW138594   0.435   3.343   7.631 -0.2403 -0.5692 -0.8157
 9045SOL    HW238595   0.344   3.268   7.724 -1.4873 -0.3754 -1.5633
 9046SOL     OW38596   1.095   4.262   8.939  0.2784  0.5769 -0.2223
 9046SOL    HW138597   1.017   4.236   8.987  0.9145 -0.4909  0.2233
 9046SOL    HW238598   1.114   4.344   8.986 -0.5340  0.5744  0.1023
 9047SOL     OW38599   2.123   3.537   6.572  0.2844  0.6160  0.2247
 9047SOL    HW138600   2.095   3.513   6.484 -0.5028  0.9508  0.3856
 9047SOL    HW238601   2.213   3.504   6.568 -0.0416 -0.4475  1.4580
 9048SOL     OW38602   4.058   3.017  11.351  0.0178  0.0940  0.3995
 9048SOL    HW138603   4.050   3.017  11.256 -1.4973  2.6495  0.5244
 9048SOL    HW238604   4.067   3.110  11.376 -0.6494  0.7696 -1.8980
 9049SOL     OW38605   2.813   0.812   6.194 -0.5925 -0.0999  1.3393
 9049SOL    HW138606   2.766   0.734   6.226  0.9862 -1.3235  0.6728
 9049SOL    HW238607   2.835   0.855   6.277  0.5933  0.7283  0.5760
 9050SOL     OW38608   2.863   2.782   6.753  0.1087 -0.5559 -0.2219
 9050SOL    HW138609   2.789   2.799   6.695  1.5247  2.1577 -1.2411
 9050SOL    HW238610   2.937   2.803   6.696  0.1167  1.6274  0.5703
 9051SOL     OW38611   0.302   3.776  12.852 -0.1626 -0.1106 -0.3166
 9051SOL    HW138612   0.375   3.787  12.912  1.1949 -0.1543 -1.9897
 9051SOL    HW238613   0.287   3.870  12.849  4.1928  0.4803 -3.1292
 9052SOL     OW38614   1.452   3.447  11.800 -0.2967  1.0486 -0.1464
 9052SOL    HW138615   1.461   3.366  11.850 -0.1697  0.3714 -1.2776
 9052SOL    HW238616   1.441   3.424  11.708  0.9863 -2.6276  0.6186
 9053SOL     OW38617   2.707   1.510  15.261  0.0526 -0.0708  0.0756
 9053SOL    HW138618   2.663   1.443  15.313 -0.5710  0.5366  0.3269
 9053SOL    HW238619   2.724   1.587  15.316  0.4863 -0.2110  0.1417
 9054SOL     OW38620   2.363   2.063   4.866 -0.5791 -0.3285 -0.3984
 9054SOL    HW138621   2.419   2.098   4.797  0.4915 -0.2550  0.5076
 9054SOL    HW238622   2.324   2.145   4.898 -0.1935 -0.7487  1.1888
 9055SOL     OW38623   4.402   0.028   8.389  0.5226  0.5284  0.0284
 9055SOL    HW138624   4.488   0.004   8.421  0.9147  1.8390 -0.0205
 9055SOL    HW238625   4.357   4.676   8.422  0.1346  0.6134 -0.2912
 9056SOL     OW38626   3.176   0.497  10.636 -0.6358 -0.3471  0.4600
 9056SOL    HW138627   3.094   0.475  10.592 -0.0866 -0.0390 -0.7377
 9056SOL    HW238628   3.227   0.520  10.558  2.0380  0.0401  2.3116
 9057SOL     OW38629   1.236   4.450  14.898  0.0169 -0.6544  0.0879
 9057SOL    HW138630   1.286   4.406  14.966 -0.1121 -2.4354 -0.9785
 9057SOL    HW238631   1.201   4.373  14.854 -1.5631  0.9802 -1.5687
 9058SOL     OW38632   0.440   1.713   3.637 -0.8815  0.2694 -0.1930
 9058SOL    HW138633   0.413   1.800   3.666 -0.4062 -0.2583  1.8161
 9058SOL    HW238634   0.487   1.740   3.558  0.2981  0.1047  0.4511
 9059SOL     OW38635   3.152   3.802   2.937 -0.0055  0.5500 -0.1404
 9059SOL    HW138636   3.248   3.795   2.940  0.1466  3.2133  1.3080
 9059SOL    HW238637   3.133   3.742   2.865  1.4180  1.8235 -1.5858
 9060SOL     OW38638   2.481   0.519   4.502  0.2402 -0.1054  0.4812
 9060SOL    HW138639   2.480   0.438   4.451  1.5284  0.3709 -0.2959
 9060SOL    HW238640   2.570   0.553   4.493 -0.0201  0.1925 -0.9827
 9061SOL     OW38641   2.658   3.897   7.955  0.5663 -0.4699  0.2582
 9061SOL    HW138642   2.618   3.982   7.976 -1.4795 -0.4291 -3.8440
 9061SOL    HW238643   2.649   3.905   7.860  3.4378 -1.9303 -0.1231
 9062SOL     OW38644   2.195   2.013  10.364 -0.0303  0.0299  0.0645
 9062SOL    HW138645   2.140   1.935  10.355 -0.0819  0.0940 -0.1898
 9062SOL    HW238646   2.202   2.017  10.459 -0.7807  0.3875  0.1047
 9063SOL     OW38647   2.588   3.936   8.928  0.4060  0.4408  0.3403
 9063SOL    HW138648   2.641   3.907   9.003  0.1446  0.8296  0.6757
 9063SOL    HW238649   2.498   3.933   8.959  0.4030  1.3536  0.4173
 9064SOL     OW38650   0.585   3.497  11.968 -0.0253  0.2402 -0.4501
 9064SOL    HW138651   0.589   3.590  11.946 -0.8775  0.7545  1.5332
 9064SOL    HW238652   0.612   3.498  12.060 -2.3257  0.8207  0.2287
 9065SOL     OW38653   0.809   2.766   8.901 -0.2558  0.0002 -0.5889
 9065SOL    HW138654   0.901   2.753   8.878 -0.0165  0.7988 -0.0949
 9065SOL    HW238655   0.782   2.738   8.814  0.1578  0.6021 -0.9131
 9066SOL     OW38656   2.933   0.903   2.331  0.3455  0.5606 -0.0430
 9066SOL    HW138657   2.862   0.962   2.306  1.4761  1.5263 -0.9371
 9066SOL    HW238658   3.004   0.963   2.353  0.1773  0.7378  0.0238
 9067SOL     OW38659   3.305   0.843   8.440 -0.5036 -0.0808 -0.2649
 9067SOL    HW138660   3.373   0.802   8.385  0.6081 -1.4967  2.1685
 9067SOL    HW238661   3.342   0.842   8.528  0.3732 -0.7016 -0.6300
 9068SOL     OW38662   3.613   4.620   3.163 -0.6914  0.4218 -0.3741
 9068SOL    HW138663   3.703   4.647   3.144 -0.1938 -0.4179  0.8083
 9068SOL    HW238664   3.583   4.678   3.232  1.1996  1.6903 -0.6238
 9069SOL     OW38665   0.828   4.630   6.003 -1.4214 -0.1694  0.5976
 9069SOL    HW138666   0.800   4.677   6.081 -0.4014 -3.3342  2.8449
 9069SOL    HW238667   0.864   4.552   6.045 -0.9773 -0.7014 -0.7496
 9070SOL     OW38668   1.362   4.648   3.469 -0.0267  0.1817 -0.1386
 9070SOL    HW138669   1.384   4.703   3.393  2.0613  0.2888  0.5569
 9070SOL    HW238670   1.412   4.688   3.539 -0.8942 -0.4553  0.8358
 9071SOL     OW38671   4.054   2.286  16.171 -0.6211 -0.1369  0.1555
 9071SOL    HW138672   4.109   2.234  16.112  0.5684 -0.6284  1.6971
 9071SOL    HW238673   4.124   2.343  16.205 -2.0832  1.6145  0.2508
 9072SOL     OW38674   0.801   1.470  12.803 -0.2696 -0.2558 -0.1300
 9072SOL    HW138675   0.794   1.559  12.837 -0.8706 -0.6231  0.7072
 9072SOL    HW238676   0.712   1.457  12.770 -0.4751  0.3965  0.1662
 9073SOL     OW38677   1.437   1.594  11.985 -0.0249  0.3598 -0.3707
 9073SOL    HW138678   1.388   1.572  12.065  0.9999  0.3376  0.2426
 9073SOL    HW238679   1.477   1.509  11.967  0.5910  0.5829 -0.0205
 9074SOL     OW38680   4.207   0.221   5.165  0.1364 -0.0398  0.4405
 9074SOL    HW138681   4.150   0.168   5.221  0.0265 -1.3359 -0.8819
 9074SOL    HW238682   4.219   0.296   5.223  0.3015  0.2746 -0.0018
 9075SOL     OW38683   0.181   2.157   3.743 -0.1361 -0.4524  0.1547
 9075SOL    HW138684   0.111   2.094   3.724  0.6192 -1.3217  0.2425
 9075SOL    HW238685   0.125   2.216   3.793  2.8704  0.7003  2.1412
 9076SOL     OW38686   4.495   2.422   6.145 -0.4330 -0.4737  0.2151
 9076SOL    HW138687   4.413   2.378   6.171 -1.4465  0.1427 -1.9624
 9076SOL    HW238688   4.545   2.341   6.158  0.3875  0.2171  1.3626
 9077SOL     OW38689   1.356   0.519  12.099  0.0580  0.3263  0.0702
 9077SOL    HW138690   1.343   0.480  12.185 -0.5316  0.9122  0.2484
 9077SOL    HW238691   1.324   0.444  12.047 -1.3271  1.9805 -1.4615
 9078SOL     OW38692   3.178   0.391   2.608  0.2073 -0.0225  0.2609
 9078SOL    HW138693   3.268   0.385   2.640 -0.3464 -0.1808  1.7623
 9078SOL    HW238694   3.163   0.298   2.592  1.1102  0.4781 -3.5592
 9079SOL     OW38695   1.924   3.773   6.342  0.2820  0.1738  0.5847
 9079SOL    HW138696   1.962   3.794   6.257  0.3725  1.2803  0.9049
 9079SOL    HW238697   1.949   3.681   6.353  1.0456  0.5423  1.9527
 9080SOL     OW38698   0.515   3.072   7.565  0.0860  0.3096  0.1414
 9080SOL    HW138699   0.447   3.042   7.504  0.8584 -1.4427  0.1380
 9080SOL    HW238700   0.526   3.165   7.544  0.2870  0.1969 -0.2508
 9081SOL     OW38701   2.744   2.412   4.923 -0.4197  0.5852  0.5355
 9081SOL    HW138702   2.721   2.465   4.999 -1.3625  0.8878  0.0472
 9081SOL    HW238703   2.801   2.347   4.964 -0.9354 -1.8519 -2.5666
 9082SOL     OW38704   4.208   2.360  13.223 -0.1225  0.3891 -0.4348
 9082SOL    HW138705   4.253   2.305  13.288 -0.9759 -1.7572 -1.6898
 9082SOL    HW238706   4.137   2.395  13.276  2.0471 -0.4802  3.1252
 9083SOL     OW38707   3.567   4.445   9.616  0.2156  0.0321 -0.0094
 9083SOL    HW138708   3.586   4.503   9.542  0.4915  1.7913  1.4543
 9083SOL    HW238709   3.616   4.367   9.591 -1.9549 -0.8243 -1.6024
 9084SOL     OW38710   0.248   3.615   0.512 -0.3444 -0.1619  0.0582
 9084SOL    HW138711   0.157   3.594   0.493 -0.8954  1.1323  1.3597
 9084SOL    HW238712   0.270   3.544   0.573  1.4757  1.5857  1.4205
 9085SOL     OW38713   3.891   3.123   1.608  0.0704  0.0241 -0.1587
 9085SOL    HW138714   3.891   3.167   1.693 -1.1376 -1.1922  0.4683
 9085SOL    HW238715   3.924   3.192   1.551 -1.5537  0.2222 -0.8642
 9086SOL     OW38716   1.830   3.249  17.023  0.2351  0.2886 -0.3944
 9086SOL    HW138717   1.856   3.278  17.110 -1.0325  0.3957 -0.0498
 9086SOL    HW238718   1.824   3.154  17.030 -1.6375  0.3112 -1.5407
 9087SOL     OW38719   4.364   3.538   2.990 -0.7731  0.1929  0.2284
 9087SOL    HW138720   4.323   3.452   2.983  0.4008 -0.3936  0.4970
 9087SOL    HW238721   4.374   3.560   2.898  0.0052 -1.7767 -0.1621
 9088SOL     OW38722   0.720   0.681   3.546  0.2473  0.0191  0.1499
 9088SOL    HW138723   0.720   0.685   3.450 -2.4320  0.6380  0.1943
 9088SOL    HW238724   0.639   0.636   3.567 -0.4382  0.4380 -1.5759
 9089SOL     OW38725   1.224   2.571   9.897  0.2793  0.0211 -0.4255
 9089SOL    HW138726   1.206   2.526   9.980 -0.4231 -0.4772 -0.8467
 9089SOL    HW238727   1.285   2.512   9.852 -0.4023 -0.8490 -0.1947
 9090SOL     OW38728   0.122   1.504  14.401  0.4075 -0.3821 -0.9051
 9090SOL    HW138729   0.132   1.567  14.329  1.1393  1.0187  0.4365
 9090SOL    HW238730   0.038   1.466  14.375  0.4775 -0.9691 -0.2791
 9091SOL     OW38731   3.938   1.529  12.538  0.0419  0.0885 -0.7617
 9091SOL    HW138732   3.904   1.614  12.566 -1.6923  0.0582 -2.7605
 9091SOL    HW238733   3.953   1.489  12.624 -2.3911 -0.7533 -0.7204
 9092SOL     OW38734   1.155   3.576   8.522 -1.0222  0.0030  0.1331
 9092SOL    HW138735   1.085   3.522   8.488  0.0422 -1.4070  0.1826
 9092SOL    HW238736   1.234   3.533   8.490  0.1503  1.0755  1.5563
 9093SOL     OW38737   0.684   3.649  10.034  0.5407 -0.3387 -0.4182
 9093SOL    HW138738   0.614   3.587  10.013  1.4993 -1.6043  0.1657
 9093SOL    HW238739   0.729   3.653   9.949  0.4749  1.1970 -0.3919
 9094SOL     OW38740   3.832   0.084   4.874 -0.0979 -0.1175 -0.0859
 9094SOL    HW138741   3.784   0.071   4.956  0.0860  1.9151  0.3513
 9094SOL    HW238742   3.852   0.178   4.867 -2.5999  0.4786  0.6152
 9095SOL     OW38743   4.581   1.092  14.932  0.0180  0.2343 -0.0221
 9095SOL    HW138744   4.523   1.086  15.008 -0.1253 -0.8420 -0.2118
 9095SOL    HW238745   4.646   1.156  14.958 -0.1670  0.3221  0.2268
 9096SOL     OW38746   4.217   1.500   3.808  0.1744  0.4373 -0.3032
 9096SOL    HW138747   4.178   1.414   3.791 -3.9344  1.6896  2.5330
 9096SOL    HW238748   4.136   1.537   3.844  0.4560 -0.8044  1.5913
 9097SOL     OW38749   3.593   4.007   1.673  0.3146  0.8812  0.1709
 9097SOL    HW138750   3.630   4.095   1.667  0.6293  0.6846 -0.7581
 9097SOL    HW238751   3.539   4.013   1.752 -0.1526 -0.2006 -0.0665
 9098SOL     OW38752   0.666   2.000   6.525 -0.0244 -0.3459  0.1299
 9098SOL    HW138753   0.695   1.989   6.434 -0.2593 -3.2163  0.3983
 9098SOL    HW238754   0.724   2.073   6.544  0.2460  0.1408 -2.5035
 9099SOL     OW38755   0.774   2.261   4.864  0.3317  0.0713  0.0826
 9099SOL    HW138756   0.815   2.343   4.893  0.7946  0.1509 -0.7885
 9099SOL    HW238757   0.841   2.194   4.853  0.1818 -0.4061  2.2112
 9100SOL     OW38758   1.546   1.233   2.588  0.8187  0.6012 -0.2018
 9100SOL    HW138759   1.589   1.248   2.504 -0.7714 -1.0723 -1.3248
 9100SOL    HW238760   1.487   1.308   2.583 -2.1417 -1.6115  1.2058
 9101SOL     OW38761   1.043   2.754   3.658 -0.1979  0.5129  0.0182
 9101SOL    HW138762   1.134   2.733   3.675 -0.4067 -0.4498 -0.0375
 9101SOL    HW238763   1.041   2.836   3.708 -0.6957  0.1637  0.5840
 9102SOL     OW38764   1.863   0.802   3.005 -0.7737  0.1008  0.0902
 9102SOL    HW138765   1.806   0.776   2.932 -2.7070 -0.8553  1.9612
 9102SOL    HW238766   1.884   0.894   2.986 -0.2200 -0.3812 -1.6570
 9103SOL     OW38767   1.526   4.052   4.207 -0.2106 -0.0771  0.1419
 9103SOL    HW138768   1.465   4.091   4.269 -1.3910  0.8810 -1.6120
 9103SOL    HW238769   1.607   4.097   4.235 -0.1226  0.2048 -0.5696
 9104SOL     OW38770   0.709   0.568   7.588 -0.4170  0.2635 -0.6451
 9104SOL    HW138771   0.797   0.585   7.623 -0.6553 -1.1468  0.6097
 9104SOL    HW238772   0.680   0.484   7.623  0.3752  1.4194  2.8031
 9105SOL     OW38773   0.438   4.334   6.730 -0.4606  0.1544 -0.3273
 9105SOL    HW138774   0.432   4.239   6.730 -2.6103  0.2694  0.9154
 9105SOL    HW238775   0.502   4.349   6.660 -0.4178  0.1599 -0.2871
 9106SOL     OW38776   4.356   1.020   4.249 -0.7954 -0.2943 -0.1613
 9106SOL    HW138777   4.435   1.009   4.301 -0.1369 -0.2296 -1.1394
 9106SOL    HW238778   4.290   0.970   4.296 -1.6205 -0.0899 -1.0976
 9107SOL     OW38779   2.553   3.222  16.594 -0.7650 -0.4637  0.0170
 9107SOL    HW138780   2.549   3.161  16.521  0.1365 -1.7103  1.0020
 9107SOL    HW238781   2.464   3.218  16.629 -1.3729 -0.3415 -1.5189
 9108SOL     OW38782   4.156   0.752   8.406  0.1550  0.7756 -0.3129
 9108SOL    HW138783   4.097   0.716   8.472  2.7779 -0.2736  1.4447
 9108SOL    HW238784   4.100   0.812   8.357  1.3678  0.6881 -1.8056
 9109SOL     OW38785   0.728   3.164   2.624 -0.1385  0.5376  0.1587
 9109SOL    HW138786   0.798   3.226   2.602  0.0904  0.5001  0.7851
 9109SOL    HW238787   0.665   3.225   2.661 -0.6743  0.0468  0.0592
 9110SOL     OW38788   0.533   0.996   4.604 -0.1500  0.5112 -0.1605
 9110SOL    HW138789   0.487   1.080   4.609  0.5574  1.0040 -1.8900
 9110SOL    HW238790   0.461   0.947   4.564  0.8002 -0.2430 -0.9336
 9111SOL     OW38791   3.758   4.284   6.918  0.1162 -0.0116  0.8053
 9111SOL    HW138792   3.670   4.288   6.955 -0.2624 -1.4311  0.0919
 9111SOL    HW238793   3.791   4.197   6.941 -0.7625 -0.2428  1.2298
 9112SOL     OW38794   1.088   2.776   2.140 -0.4591 -0.2262 -0.0383
 9112SOL    HW138795   1.022   2.708   2.149 -2.2562  1.1845 -2.5112
 9112SOL    HW238796   1.163   2.719   2.126  0.4190  0.5664  1.4334
 9113SOL     OW38797   1.434   1.142   8.836 -0.1965 -0.4536 -0.3077
 9113SOL    HW138798   1.384   1.190   8.771 -1.6159 -1.0220  0.3659
 9113SOL    HW238799   1.437   1.056   8.793 -0.1001 -1.1999  1.1637
 9114SOL     OW38800   4.366   2.948  11.335  0.2987  0.0154 -0.1958
 9114SOL    HW138801   4.272   2.929  11.337  0.9696 -3.2539  0.1685
 9114SOL    HW238802   4.360   3.036  11.371 -0.2381 -0.7074  1.4774
 9115SOL     OW38803   2.911   3.817   8.020 -0.2814  0.6378 -0.1805
 9115SOL    HW138804   2.821   3.849   8.034 -0.4691  0.5213 -1.1116
 9115SOL    HW238805   2.933   3.852   7.934 -2.2995  1.2437 -0.4607
 9116SOL     OW38806   3.059   0.520  13.046  0.1559 -0.1832 -0.1078
 9116SOL    HW138807   3.015   0.602  13.070  0.3010 -0.4805  1.1258
 9116SOL    HW238808   3.150   0.530  13.072 -0.1428  0.8656  0.5557
 9117SOL     OW38809   4.183   2.442  15.365  0.3313  0.7151 -0.1443
 9117SOL    HW138810   4.153   2.515  15.420 -1.5556 -0.7375  0.7621
 9117SOL    HW238811   4.230   2.387  15.427  0.6639 -1.3880 -2.2912
 9118SOL     OW38812   2.982   2.309   7.451 -0.3016  0.5210 -0.0308
 9118SOL    HW138813   3.068   2.319   7.492  1.1500  1.5955 -3.3197
 9118SOL    HW238814   2.947   2.234   7.499 -2.7350  1.8655  0.3181
 9119SOL     OW38815   3.412   1.245   3.171  0.3229  0.4944 -0.1296
 9119SOL    HW138816   3.502   1.278   3.174  0.8371 -1.0681  1.9550
 9119SOL    HW238817   3.371   1.301   3.236  1.4156 -0.8923  1.7804
 9120SOL     OW38818   0.464   3.616   6.199  0.5606 -0.1539 -0.2506
 9120SOL    HW138819   0.425   3.702   6.184  0.4839 -0.2577 -0.6344
 9120SOL    HW238820   0.402   3.564   6.250 -1.5260  2.8282  0.2206
 9121SOL     OW38821   1.833   4.449  13.189  0.2370 -0.6851 -0.1550
 9121SOL    HW138822   1.907   4.476  13.244  0.4578  1.2144 -1.3677
 9121SOL    HW238823   1.860   4.496  13.110 -0.8980 -1.2207 -0.8493
 9122SOL     OW38824   4.042   2.853   3.057  0.2663 -0.0676 -0.1097
 9122SOL    HW138825   4.048   2.888   2.968  0.1967 -1.0680 -0.5075
 9122SOL    HW238826   4.133   2.862   3.084  0.7011 -2.5423 -0.7545
 9123SOL     OW38827   3.691   4.314   3.561 -0.3594 -0.1774 -0.2850
 9123SOL    HW138828   3.767   4.347   3.513 -2.0222  0.2865 -2.6424
 9123SOL    HW238829   3.675   4.228   3.524 -0.1594 -0.9595  1.4637
 9124SOL     OW38830   4.368   2.765   1.960 -0.4452 -0.1142  0.4124
 9124SOL    HW138831   4.288   2.805   1.926 -1.4517  0.1752  3.1069
 9124SOL    HW238832   4.412   2.846   1.986 -1.8981  1.2876 -1.5249
 9125SOL     OW38833   2.579   2.125   4.694 -0.2010 -0.0331  1.4595
 9125SOL    HW138834   2.648   2.068   4.729  0.5037  0.9676  1.7116
 9125SOL    HW238835   2.626   2.155   4.616  0.9292  0.0536  2.1739
 9126SOL     OW38836   1.936   0.375   7.828 -0.0941  0.3661 -0.6307
 9126SOL    HW138837   1.941   0.443   7.895  0.7715 -0.5350  0.2075
 9126SOL    HW238838   2.027   0.371   7.798  0.3012 -2.1395  0.9015
 9127SOL     OW38839   1.250   2.877   7.773  0.1480  0.0626 -0.3227
 9127SOL    HW138840   1.279   2.883   7.682  2.2278  0.0849  0.3408
 9127SOL    HW238841   1.206   2.792   7.783  0.7158 -0.3941 -1.7698
 9128SOL     OW38842   2.248   1.675   0.079  0.9485  0.5901  0.0960
 9128SOL    HW138843   2.308   1.733   0.032  1.5811 -0.3891 -0.2961
 9128SOL    HW238844   2.202   1.634   0.006 -0.4271  0.0426  1.2767
 9129SOL     OW38845   1.856   2.208   3.210  0.0827  0.5216  0.0620
 9129SOL    HW138846   1.920   2.241   3.272  1.5170  0.9539 -1.6474
 9129SOL    HW238847   1.895   2.131   3.168  1.3377  0.8290  0.6787
 9130SOL     OW38848   0.467   3.044   3.425 -0.3425  0.0051  0.0531
 9130SOL    HW138849   0.398   3.110   3.424  0.4517  0.8481  1.3018
 9130SOL    HW238850   0.487   3.036   3.518 -0.0992 -0.7576 -0.0616
 9131SOL     OW38851   3.606   3.695  12.097  0.0599  0.7451  0.5054
 9131SOL    HW138852   3.637   3.647  12.174  3.9830  0.3632 -1.3093
 9131SOL    HW238853   3.686   3.745  12.083 -0.4696  1.3021 -0.5055
 9132SOL     OW38854   3.656   2.036  14.707 -0.2350  0.0985  0.1981
 9132SOL    HW138855   3.688   2.102  14.646 -3.2228  1.6338  0.2463
 9132SOL    HW238856   3.572   2.080  14.725 -0.3188 -0.8074  2.0083
 9133SOL     OW38857   3.681   2.415  16.799  0.0676  0.1434 -0.0602
 9133SOL    HW138858   3.612   2.399  16.734  1.0594  0.1431 -1.1306
 9133SOL    HW238859   3.623   2.436  16.872  0.0476 -0.2044  0.0237
 9134SOL     OW38860   4.087   2.730   2.083 -0.1207  0.2382  0.0170
 9134SOL    HW138861   4.123   2.642   2.095 -0.1818 -0.1362 -2.6805
 9134SOL    HW238862   4.151   2.777   2.137 -1.8164  2.7004 -0.1376
 9135SOL     OW38863   1.261   0.653   0.547 -0.1620 -1.1078  0.1562
 9135SOL    HW138864   1.303   0.695   0.472 -2.5853 -0.2274 -0.7243
 9135SOL    HW238865   1.337   0.619   0.594 -1.2067 -0.7476  2.1375
 9136SOL     OW38866   3.447   2.395  16.976 -0.5688  0.5603 -0.1739
 9136SOL    HW138867   3.423   2.351  17.057  0.8020 -1.4656 -0.8869
 9136SOL    HW238868   3.371   2.384  16.920 -1.3051 -0.0792  0.9435
 9137SOL     OW38869   0.580   0.202   6.031 -0.3604  0.8187  0.0088
 9137SOL    HW138870   0.669   0.219   6.061 -0.5891  0.4381  0.8917
 9137SOL    HW238871   0.612   0.182   5.943 -1.8830 -0.0528 -0.3411
 9138SOL     OW38872   0.892   1.903   7.850  0.1703  0.4331  0.0390
 9138SOL    HW138873   0.919   1.842   7.781 -1.3903 -2.1362  1.7026
 9138SOL    HW238874   0.797   1.891   7.860 -0.2930  2.5088 -1.6562
 9139SOL     OW38875   1.404   0.695   5.036 -0.3347  0.4547  0.3688
 9139SOL    HW138876   1.329   0.636   5.038  0.1735 -0.2831 -3.3057
 9139SOL    HW238877   1.395   0.742   5.119  0.5288 -0.8000  1.1751
 9140SOL     OW38878   0.511   4.063   7.334  0.1832  0.0729 -0.4795
 9140SOL    HW138879   0.482   4.146   7.297 -3.8468 -0.7256  0.8613
 9140SOL    HW238880   0.474   4.002   7.270 -1.5241  0.4359  0.1578
 9141SOL     OW38881   2.223   1.585   2.325 -0.0152 -0.0353 -0.1635
 9141SOL    HW138882   2.301   1.531   2.335 -0.9102 -1.2802  0.2798
 9141SOL    HW238883   2.168   1.558   2.399 -0.6807  1.9466  0.0532
 9142SOL     OW38884   4.686   2.604  11.416 -0.6447  0.0277  0.5967
 9142SOL    HW138885   4.688   2.609  11.511 -0.3043  0.0366  0.5891
 9142SOL    HW238886   4.701   2.512  11.397  1.8261  1.3033 -3.5995
 9143SOL     OW38887   0.718   2.871   3.558 -0.4499 -0.2129 -0.2055
 9143SOL    HW138888   0.740   2.787   3.599 -0.1386  1.2542  2.6395
 9143SOL    HW238889   0.647   2.897   3.617  0.8771  2.6258  0.1377
 9144SOL     OW38890   0.741   0.769  11.688  0.1914 -0.1362  0.4164
 9144SOL    HW138891   0.710   0.736  11.773 -1.7502  0.0501 -0.2265
 9144SOL    HW238892   0.826   0.809  11.705  0.0199  0.2749  0.3117
 9145SOL     OW38893   3.933   4.120  10.889  0.0107 -0.0441  0.1374
 9145SOL    HW138894   3.857   4.078  10.930  0.3378 -0.2235  0.5547
 9145SOL    HW238895   3.889   4.178  10.827 -1.0208 -0.9011  0.0477
 9146SOL     OW38896   1.767   1.996   0.687  0.4188 -0.4240  0.1027
 9146SOL    HW138897   1.736   2.045   0.764  0.2633 -0.8371  0.3026
 9146SOL    HW238898   1.697   2.007   0.622  0.2038 -0.8339  0.2711
 9147SOL     OW38899   0.034   3.400   3.431  0.5604  0.2749  0.7699
 9147SOL    HW138900   0.110   3.459   3.424 -1.5438  3.0185  0.9252
 9147SOL    HW238901   4.701   3.463   3.390  1.0304  1.1557  1.4214
 9148SOL     OW38902   2.582   3.748   0.202 -0.1660 -0.0191 -0.3289
 9148SOL    HW138903   2.614   3.657   0.202  0.8466  0.3458  2.2852
 9148SOL    HW238904   2.488   3.730   0.196 -0.4399  0.8262  1.3284
 9149SOL     OW38905   0.600   2.742   3.001 -0.3775  0.4746  0.2339
 9149SOL    HW138906   0.646   2.717   3.081  2.8162  2.4678 -0.9464
 9149SOL    HW238907   0.520   2.754   3.052 -0.1582 -0.2515  0.7469
 9150SOL     OW38908   0.157   2.561   3.279 -0.3012 -0.4531 -1.0329
 9150SOL    HW138909   0.070   2.565   3.318  0.8222  2.2465  1.2914
 9150SOL    HW238910   0.129   2.558   3.188 -2.8462  0.5740 -0.2901
 9151SOL     OW38911   2.392   4.273   2.959 -0.2303  0.2634 -0.2835
 9151SOL    HW138912   2.410   4.202   3.020  1.7114  0.5909 -0.4879
 9151SOL    HW238913   2.298   4.260   2.942 -0.5598  1.8642  0.2729
 9152SOL     OW38914   3.534   0.151   6.200 -1.1730  0.0542  0.3676
 9152SOL    HW138915   3.502   0.193   6.280  1.3038  2.4797  0.0773
 9152SOL    HW238916   3.620   0.192   6.193 -0.6617 -0.9329  0.7812
 9153SOL     OW38917   2.782   1.105  13.562 -0.4780 -0.4283 -0.0097
 9153SOL    HW138918   2.836   1.111  13.483  0.9240 -1.2227  0.8831
 9153SOL    HW238919   2.711   1.047  13.534 -2.4193  1.0792  1.7590
 9154SOL     OW38920   4.522   0.273   7.211  0.2136 -0.2120  0.2275
 9154SOL    HW138921   4.467   0.318   7.275  0.3584  0.7039 -0.2909
 9154SOL    HW238922   4.466   0.210   7.167 -1.8782  0.2316  2.2934
 9155SOL     OW38923   1.692   3.618   2.411  0.6249 -0.0523  0.4174
 9155SOL    HW138924   1.770   3.666   2.436  2.0090 -1.7826 -0.5760
 9155SOL    HW238925   1.731   3.551   2.355  0.3194  1.5216 -1.7045
 9156SOL     OW38926   0.605   0.046   8.632 -0.1444 -0.2184  0.5930
 9156SOL    HW138927   0.651   0.091   8.703  0.5038 -0.7167  0.4840
 9156SOL    HW238928   0.637   4.683   8.648 -0.9132 -0.2472  1.9783
 9157SOL     OW38929   0.323   1.561   3.028  0.6449  0.3728  0.1561
 9157SOL    HW138930   0.336   1.474   3.065 -1.4090  0.2937  0.6896
 9157SOL    HW238931   0.414   1.575   3.004  0.8707  0.7693  1.2538
 9158SOL     OW38932   3.553   2.130   0.478  0.2372 -0.2739  0.2261
 9158SOL    HW138933   3.621   2.192   0.451 -1.5191  1.5595 -0.0120
 9158SOL    HW238934   3.570   2.118   0.571  0.7993 -0.6198  0.0760
 9159SOL     OW38935   0.791   1.940  16.419 -0.3385  0.9019  0.0737
 9159SOL    HW138936   0.845   2.019  16.420 -1.0479  1.3564  2.5441
 9159SOL    HW238937   0.831   1.902  16.341 -0.1667  2.3338 -0.5277
 9160SOL     OW38938   2.844   0.384   6.984 -1.0215 -0.1129  0.4936
 9160SOL    HW138939   2.793   0.402   6.905 -0.0943  0.6568  0.0637
 9160SOL    HW238940   2.919   0.335   6.951 -1.9008 -1.6511  0.7966
 9161SOL     OW38941   0.529   2.977   2.108  0.2394 -0.0943  0.0092
 9161SOL    HW138942   0.475   2.953   2.183  1.2221  1.8972  1.3598
 9161SOL    HW238943   0.537   2.894   2.063  2.7393 -0.3034  0.8146
 9162SOL     OW38944   4.587   1.470   1.009  0.0762  0.4286 -0.3871
 9162SOL    HW138945   4.667   1.422   1.028 -0.0897 -0.0987 -1.0339
 9162SOL    HW238946   4.611   1.539   0.946 -0.0883 -0.2515 -1.1942
 9163SOL     OW38947   0.342   3.915   4.501 -0.2021  0.6982 -0.5504
 9163SOL    HW138948   0.296   3.955   4.575 -1.4502  0.9384 -1.4662
 9163SOL    HW238949   0.333   3.984   4.435  3.1054  1.6875  0.0417
 9164SOL     OW38950   3.760   2.527  11.469  0.0583  0.0676 -0.0919
 9164SOL    HW138951   3.744   2.433  11.461 -0.0641  0.0980 -0.2060
 9164SOL    HW238952   3.737   2.560  11.382 -3.6478 -2.7542 -0.1531
 9165SOL     OW38953   0.201   2.782   9.204  0.0263 -0.1419  0.2019
 9165SOL    HW138954   0.210   2.690   9.179  0.6457 -0.1650  0.5271
 9165SOL    HW238955   0.230   2.816   9.119 -1.4282  0.5082 -0.0385
 9166SOL     OW38956   3.098   4.466   6.531  0.0109 -0.2699 -0.1503
 9166SOL    HW138957   3.092   4.548   6.483 -0.7727  0.0581  0.5150
 9166SOL    HW238958   3.040   4.408   6.481 -0.2522  0.6157 -0.8620
 9167SOL     OW38959   0.471   2.735   6.015  0.1050  0.0687 -0.5502
 9167SOL    HW138960   0.501   2.751   6.105  0.3426  0.7794 -0.7575
 9167SOL    HW238961   0.448   2.824   5.987  0.9811 -0.3980 -2.7223
 9168SOL     OW38962   4.638   2.740   1.782 -0.1744 -0.0280 -0.2485
 9168SOL    HW138963   4.708   2.790   1.825 -1.1273 -0.9406  2.3515
 9168SOL    HW238964   4.582   2.711   1.853  1.9652 -0.6179  1.2106
 9169SOL     OW38965   1.459   0.584   7.301  0.1539 -0.5911 -0.3762
 9169SOL    HW138966   1.478   0.494   7.330 -0.1460 -0.2986  0.7543
 9169SOL    HW238967   1.541   0.604   7.255 -1.4703  2.0841 -2.0466
 9170SOL     OW38968   2.670   0.156   2.247 -0.1834  0.7780  0.3012
 9170SOL    HW138969   2.699   0.161   2.157  0.8176  0.1196  0.5932
 9170SOL    HW238970   2.736   0.091   2.272 -0.3926  0.1099 -0.9044
 9171SOL     OW38971   1.786   4.029   7.724  0.2597  0.2893 -0.5911
 9171SOL    HW138972   1.743   3.944   7.733 -0.4022  0.4531 -2.3429
 9171SOL    HW238973   1.821   4.029   7.813 -0.7974 -0.5891 -0.1649
 9172SOL     OW38974   3.750   3.280   3.488 -0.6439  0.1010  0.0549
 9172SOL    HW138975   3.728   3.365   3.527  1.9145  0.0112  1.7009
 9172SOL    HW238976   3.751   3.309   3.396 -1.5787  1.4046  0.4458
 9173SOL     OW38977   2.468   4.314   4.591  0.9035 -0.3282  0.5541
 9173SOL    HW138978   2.429   4.386   4.640 -3.4050 -1.6009 -0.9841
 9173SOL    HW238979   2.484   4.354   4.505 -0.2455  0.5142  0.7368
 9174SOL     OW38980   2.338   1.098   5.542 -0.0301 -0.5191 -1.0221
 9174SOL    HW138981   2.345   1.139   5.629 -1.0070  0.1102 -1.2402
 9174SOL    HW238982   2.254   1.123   5.504 -0.2255  2.8641  1.6651
 9175SOL     OW38983   4.202   3.746   3.089 -0.2774 -0.1440  0.7681
 9175SOL    HW138984   4.116   3.706   3.082 -1.2441  2.0321  0.1701
 9175SOL    HW238985   4.258   3.678   3.051 -0.5008  1.6275 -2.7482
 9176SOL     OW38986   0.334   2.144   7.476 -0.0814 -0.3657  0.1524
 9176SOL    HW138987   0.406   2.163   7.536  1.3835 -2.2300 -1.0187
 9176SOL    HW238988   0.378   2.069   7.436 -1.1563 -1.1398  0.4313
 9177SOL     OW38989   0.513   0.508  15.556 -0.4979  0.0971  0.1768
 9177SOL    HW138990   0.514   0.569  15.482 -1.6928 -0.7783 -0.5567
 9177SOL    HW238991   0.428   0.530  15.594 -0.5278  1.2805 -0.5721
 9178SOL     OW38992   0.645   3.778   2.655 -0.0179  0.2918  0.4788
 9178SOL    HW138993   0.664   3.870   2.635  0.0273  0.8234  2.9630
 9178SOL    HW238994   0.729   3.743   2.684 -0.3006  0.8194  1.9403
 9179SOL     OW38995   2.436   4.067  11.760 -0.1071 -0.1331 -0.0090
 9179SOL    HW138996   2.434   3.972  11.775  2.2154 -0.5402 -2.3478
 9179SOL    HW238997   2.419   4.090  11.851 -0.1241 -2.4099  0.5830
 9180SOL     OW38998   3.118   2.945  17.431 -0.0149 -0.1555 -0.5627
 9180SOL    HW138999   3.111   3.009  17.360  0.1638 -2.2594 -2.4794
 9180SOL    HW239000   3.102   3.005  17.504  0.4843  0.3783 -0.8887
 9181SOL     OW39001   1.216   0.314   6.844 -0.2235 -0.5319  0.5547
 9181SOL    HW139002   1.275   0.240   6.856 -1.9301 -2.6344 -3.9233
 9181SOL    HW239003   1.145   0.284   6.901 -1.3114  0.7779 -0.0998
 9182SOL     OW39004   2.272   3.608   2.847  0.0668 -0.1399  0.3036
 9182SOL    HW139005   2.346   3.606   2.785  1.2277  0.1703  1.6940
 9182SOL    HW239006   2.196   3.588   2.792 -0.9308 -2.2644  2.5028
 9183SOL     OW39007   3.772   3.273   5.330 -0.1028 -0.2705 -0.4003
 9183SOL    HW139008   3.766   3.195   5.275  0.4446 -1.5225  1.3196
 9183SOL    HW239009   3.695   3.257   5.384 -0.5191  0.2057 -0.8484
 9184SOL     OW39010   1.868   1.808   5.922 -0.7848 -0.3463  0.4984
 9184SOL    HW139011   1.776   1.799   5.899 -0.3874 -1.0339 -0.8640
 9184SOL    HW239012   1.884   1.718   5.953  0.5102 -0.6736 -1.1181
 9185SOL     OW39013   0.931   0.897   9.668 -0.0220  0.0946 -0.2251
 9185SOL    HW139014   1.018   0.880   9.633  1.3217  1.8868  2.2877
 9185SOL    HW239015   0.925   0.992   9.662 -0.1930  0.1430  0.7556
 9186SOL     OW39016   3.716   3.086  14.242  0.5065  0.0995  0.0199
 9186SOL    HW139017   3.695   3.105  14.150 -1.2957 -0.0692  0.3848
 9186SOL    HW239018   3.756   3.000  14.233 -1.6830 -1.0416  1.0739
 9187SOL     OW39019   1.585   3.537   7.755 -0.1003 -0.3696 -0.2641
 9187SOL    HW139020   1.642   3.465   7.729  0.7234  0.2383 -0.1493
 9187SOL    HW239021   1.500   3.493   7.757  0.1948 -0.9404 -0.4760
 9188SOL     OW39022   0.448   3.081   2.736 -0.2902 -0.0402 -0.5490
 9188SOL    HW139023   0.483   2.992   2.725  1.3948  0.4440  0.7764
 9188SOL    HW239024   0.445   3.106   2.644 -0.4616 -2.3076 -1.1539
 9189SOL     OW39025   4.288   2.470  15.947  0.2640 -0.0400  0.1188
 9189SOL    HW139026   4.296   2.376  15.931  0.4306 -0.0650  0.3606
 9189SOL    HW239027   4.202   2.481  15.987 -0.5152 -0.1477 -1.5128
 9190SOL     OW39028   4.669   4.184   2.203  0.4150 -0.7209  0.2732
 9190SOL    HW139029   0.018   4.136   2.169  0.5000  0.4137 -1.1416
 9190SOL    HW239030   4.598   4.144   2.154 -0.9731  2.0742 -0.0076
 9191SOL     OW39031   2.290   0.252  16.774  0.5039 -0.5794 -0.5981
 9191SOL    HW139032   2.197   0.228  16.768 -0.3674  2.4619  0.2635
 9191SOL    HW239033   2.324   0.202  16.700  2.9765 -0.9740  0.8243
 9192SOL     OW39034   0.171   1.369   6.280 -0.5947 -0.0365 -0.4300
 9192SOL    HW139035   0.084   1.332   6.294 -0.0477 -0.9292  0.6074
 9192SOL    HW239036   0.177   1.426   6.356  0.9228 -0.7627  0.0021
 9193SOL     OW39037   2.354   2.568   2.018  0.1958  0.4513 -0.1361
 9193SOL    HW139038   2.407   2.571   1.939 -1.8915 -0.1160 -1.5578
 9193SOL    HW239039   2.321   2.478   2.020 -0.2290  0.6249  0.6126
 9194SOL     OW39040   1.693   0.751  13.838  0.5101 -0.0980 -0.5447
 9194SOL    HW139041   1.772   0.769  13.786 -1.1467  1.9960 -2.3255
 9194SOL    HW239042   1.722   0.776  13.926 -0.7426  0.6972 -0.3653
 9195SOL     OW39043   0.726   3.618   3.650 -0.4151  0.4341  0.3622
 9195SOL    HW139044   0.666   3.690   3.628  1.0482  1.6750  0.4579
 9195SOL    HW239045   0.804   3.664   3.620 -0.4784  0.0679 -0.3901
 9196SOL     OW39046   1.351   2.132   0.247 -0.6562 -0.0098  0.1839
 9196SOL    HW139047   1.316   2.177   0.324 -0.3465 -0.6781  0.7150
 9196SOL    HW239048   1.441   2.162   0.239 -1.3337  1.2409 -3.0028
 9197SOL     OW39049   3.043   3.282   3.780 -0.1381  0.4756 -0.2672
 9197SOL    HW139050   3.126   3.291   3.734 -0.8007  0.9495 -1.3754
 9197SOL    HW239051   3.011   3.371   3.791  0.3785  0.4967  1.1097
 9198SOL     OW39052   1.910   0.918   6.323  0.0115 -0.1655  0.4921
 9198SOL    HW139053   1.875   0.834   6.291 -0.8072  0.1301  0.6070
 9198SOL    HW239054   1.914   0.967   6.241  0.2946  1.1589  1.3096
 9199SOL     OW39055   0.353   2.489  11.058  0.6300  0.1872 -0.7122
 9199SOL    HW139056   0.365   2.584  11.060  1.1568  0.1060 -0.2118
 9199SOL    HW239057   0.269   2.480  11.103  1.0673 -0.0113  0.0489
 9200SOL     OW39058   3.784   0.951   3.787  0.0374  0.6365  0.0661
 9200SOL    HW139059   3.824   1.006   3.855  0.4243 -0.6616  0.8832
 9200SOL    HW239060   3.695   0.986   3.781 -0.1397  0.2178  0.3126
 9201SOL     OW39061   0.348   0.758  11.544 -0.3129 -0.0379  0.0608
 9201SOL    HW139062   0.329   0.675  11.589 -0.3917 -1.1309 -1.9765
 9201SOL    HW239063   0.444   0.754  11.543 -0.3280 -0.3378 -0.0917
 9202SOL     OW39064   3.041   0.275   5.432  0.2580 -0.0160 -0.1190
 9202SOL    HW139065   3.017   0.208   5.368 -0.1065  1.4891 -1.5626
 9202SOL    HW239066   3.125   0.234   5.450  0.2142 -0.6706 -1.3893
 9203SOL     OW39067   2.197   2.816  17.500 -0.0921 -0.4217  0.0008
 9203SOL    HW139068   2.292   2.815  17.493  0.0141  2.5007  0.9724
 9203SOL    HW239069   2.181   2.859  17.584  0.1296 -1.1650  0.4236
 9204SOL     OW39070   3.741   0.944   5.976  0.1829 -0.1992  0.2709
 9204SOL    HW139071   3.691   0.912   6.052  1.2570 -0.8239  0.7055
 9204SOL    HW239072   3.827   0.905   5.990  0.0266  0.0789  2.0455
 9205SOL     OW39073   0.474   0.939   5.443  0.6296 -0.4473  0.3032
 9205SOL    HW139074   0.497   1.024   5.408  1.8776 -1.1999 -0.6736
 9205SOL    HW239075   0.550   0.907   5.492 -0.3783 -2.0026  0.8425
 9206SOL     OW39076   0.329   0.543  15.153 -0.7578 -0.5374  0.0552
 9206SOL    HW139077   0.322   0.486  15.076 -0.2145 -0.7321  0.1496
 9206SOL    HW239078   0.237   0.551  15.178 -0.0747  1.4553  1.9659
 9207SOL     OW39079   2.195   4.219   7.787  0.4597  0.6723 -0.0889
 9207SOL    HW139080   2.230   4.132   7.768  3.0213  1.6678 -0.0119
 9207SOL    HW239081   2.133   4.232   7.715 -1.7417  1.3420  1.9634
 9208SOL     OW39082   0.720   1.729   5.453 -0.3139  0.2576  0.2081
 9208SOL    HW139083   0.656   1.774   5.398 -0.9116 -1.8924 -0.8489
 9208SOL    HW239084   0.680   1.743   5.539  1.5868 -2.8290  1.6073
 9209SOL     OW39085   3.262   2.539   7.340  0.2337  0.0260  0.3834
 9209SOL    HW139086   3.235   2.594   7.413 -1.3021  0.4465 -0.5033
 9209SOL    HW239087   3.254   2.608   7.274 -1.2657  0.8807  1.4670
 9210SOL     OW39088   0.530   1.240   2.162 -0.0120 -0.6541 -0.3431
 9210SOL    HW139089   0.510   1.280   2.247  0.3943  1.3627 -1.1916
 9210SOL    HW239090   0.448   1.257   2.116 -0.1199 -2.4006 -0.7698
 9211SOL     OW39091   1.887   1.017   6.831 -0.3415 -0.4837 -0.0866
 9211SOL    HW139092   1.915   1.002   6.741  2.2335  0.5212  0.5392
 9211SOL    HW239093   1.954   0.966   6.877  1.2362  0.0402 -1.8106
 9212SOL     OW39094   3.864   2.774   0.548  0.0077 -0.5069 -0.0953
 9212SOL    HW139095   3.901   2.855   0.582  0.3222 -0.3229 -0.8694
 9212SOL    HW239096   3.853   2.730   0.632 -1.5096  0.4455  0.2215
 9213SOL     OW39097   1.620   3.231   2.432  0.2216 -0.1236  0.2881
 9213SOL    HW139098   1.605   3.261   2.521  1.5681 -1.1690  0.8793
 9213SOL    HW239099   1.534   3.199   2.405  0.2933 -0.3066  0.2763
 9214SOL     OW39100   2.217   1.327  13.422  0.6805 -0.4536  0.2955
 9214SOL    HW139101   2.276   1.391  13.381  1.4497 -0.0483  2.0516
 9214SOL    HW239102   2.174   1.392  13.477  0.1829  1.9389 -2.9472
 9215SOL     OW39103   1.094   4.626   1.133 -0.0829  0.1594  0.3997
 9215SOL    HW139104   1.044   4.684   1.189  0.2264  2.1813 -1.4200
 9215SOL    HW239105   1.100   4.678   1.053 -1.7169  1.1027  0.8954
 9216SOL     OW39106   0.054   2.070  16.898 -0.0716 -0.4396  0.2941
 9216SOL    HW139107   0.071   2.129  16.824  0.0776 -0.0898  0.6098
 9216SOL    HW239108   4.712   2.121  16.941  0.9294 -1.4716  3.0475
 9217SOL     OW39109   1.972   1.680   6.293 -0.3705  0.3474 -0.3070
 9217SOL    HW139110   1.940   1.750   6.351 -1.1217  0.0035 -0.3159
 9217SOL    HW239111   2.064   1.672   6.318 -1.2996 -1.5693  2.5857
 9218SOL     OW39112   2.506   0.713   6.681  0.2272  0.3741  0.1852
 9218SOL    HW139113   2.499   0.620   6.661 -0.6497  1.0648 -2.7193
 9218SOL    HW239114   2.435   0.713   6.746  0.6432  1.3585  0.6374
 9219SOL     OW39115   1.743   1.872   8.622 -0.2454 -0.4226 -0.4995
 9219SOL    HW139116   1.779   1.960   8.632  1.6613 -0.9024 -3.3019
 9219SOL    HW239117   1.775   1.843   8.707  1.9387  0.8750 -0.8888
 9220SOL     OW39118   4.003   1.987   3.607 -0.0569  0.4284 -0.5666
 9220SOL    HW139119   3.993   2.016   3.698 -2.1551  0.2993 -0.7444
 9220SOL    HW239120   3.921   1.945   3.581 -1.2997  1.4139  1.7392
 9221SOL     OW39121   0.960   3.789  14.826  0.8307 -0.2649 -0.2579
 9221SOL    HW139122   1.040   3.771  14.875 -0.7955  1.3974  3.0093
 9221SOL    HW239123   0.997   3.847  14.759  0.1896  2.2521  1.5659
 9222SOL     OW39124   3.799   2.765   7.447  0.2492  0.7824  0.5681
 9222SOL    HW139125   3.761   2.677   7.451  3.8620 -0.7342  1.5369
 9222SOL    HW239126   3.777   2.788   7.356  0.1581 -0.4005  0.2845
 9223SOL     OW39127   2.298   0.079  16.544  0.4319 -0.1666 -0.6440
 9223SOL    HW139128   2.385   0.062  16.579 -0.5806 -1.6160  1.1562
 9223SOL    HW239129   2.256   0.003  16.584  0.1186  0.4223  0.1603
 9224SOL     OW39130   4.669   3.247  10.752  0.0343 -0.1080 -0.2060
 9224SOL    HW139131   4.693   3.155  10.745  0.1139 -0.2220  1.4775
 9224SOL    HW239132   4.614   3.267  10.677  0.1687 -0.0012 -0.2760
 9225SOL     OW39133   0.189   4.003   2.167  0.2300  0.0561 -0.4149
 9225SOL    HW139134   0.239   3.994   2.085  1.3309  0.3948  0.2142
 9225SOL    HW239135   0.158   3.915   2.189  0.6757  0.5193  2.0939
 9226SOL     OW39136   2.460   1.515   7.023 -0.0730 -0.4777  0.5226
 9226SOL    HW139137   2.389   1.578   7.009  1.0566  0.8810  0.8903
 9226SOL    HW239138   2.539   1.568   7.035  0.4144 -1.2393  0.6888
 9227SOL     OW39139   4.308   4.082  11.621 -0.2541  0.0681  0.0163
 9227SOL    HW139140   4.385   4.064  11.675 -2.6285 -0.3073  3.2860
 9227SOL    HW239141   4.253   4.136  11.678  0.5526  0.3154  0.5510
 9228SOL     OW39142   1.117   2.019   7.326 -0.8923 -0.2247  0.1736
 9228SOL    HW139143   1.135   2.071   7.248  0.4316  0.7261  1.1329
 9228SOL    HW239144   1.184   1.951   7.325  0.2719  0.9425 -1.3831
 9229SOL     OW39145   0.763   3.199   3.117  0.4454  0.5609  0.2253
 9229SOL    HW139146   0.802   3.139   3.054 -1.2973  0.1378 -0.4570
 9229SOL    HW239147   0.783   3.139   3.188  2.4194  1.3658  0.3566
 9230SOL     OW39148   3.689   2.761   3.845  0.2335  0.3465  0.5885
 9230SOL    HW139149   3.721   2.681   3.886 -0.0519  1.0808  2.2608
 9230SOL    HW239150   3.663   2.715   3.765  0.5694  1.0941  0.0552
 9231SOL     OW39151   0.470   1.920   8.551 -0.2029  0.2551  0.2229
 9231SOL    HW139152   0.521   1.839   8.554  0.7055  0.8073 -0.4408
 9231SOL    HW239153   0.527   1.979   8.502 -1.6981  0.4792 -1.2144
 9232SOL     OW39154   3.661   3.998   5.266  0.4675  0.1283 -0.3856
 9232SOL    HW139155   3.689   3.906   5.263  2.0195  0.5774  0.1302
 9232SOL    HW239156   3.567   3.990   5.250  0.2867 -0.4418  0.9862
 9233SOL     OW39157   3.136   4.377   7.587 -0.1844  0.2707  0.5540
 9233SOL    HW139158   3.142   4.460   7.634 -0.0998  0.5575  0.0310
 9233SOL    HW239159   3.129   4.407   7.496 -1.6253 -2.2906 -0.1716
 9234SOL     OW39160   2.785   3.871   8.719 -0.0364 -0.4649  0.4076
 9234SOL    HW139161   2.815   3.864   8.628  1.2948 -0.5327  0.8525
 9234SOL    HW239162   2.726   3.946   8.707 -0.2150 -0.4318  1.4695
 9235SOL     OW39163   1.032   3.637  12.241  0.4057 -0.0900 -0.0020
 9235SOL    HW139164   1.082   3.557  12.262 -2.2707 -2.2253 -1.7189
 9235SOL    HW239165   0.991   3.658  12.325 -3.7573 -0.9749 -1.8038
 9236SOL     OW39166   3.232   3.885  16.114 -0.0131 -0.0814  0.2295
 9236SOL    HW139167   3.314   3.835  16.114 -0.5182 -0.9046  2.6122
 9236SOL    HW239168   3.175   3.809  16.105 -0.9675  0.5730  0.7001
 9237SOL     OW39169   0.635   4.448  12.364 -0.0565  0.2402 -0.3060
 9237SOL    HW139170   0.594   4.446  12.451 -0.8016 -1.5511 -0.7038
 9237SOL    HW239171   0.572   4.503  12.316 -0.0354 -1.9911 -2.8915
 9238SOL     OW39172   2.043   2.792   6.595  0.1777  0.7089  0.1667
 9238SOL    HW139173   2.085   2.717   6.637 -0.5251  1.0562  1.5095
 9238SOL    HW239174   2.030   2.850   6.670 -2.8572  0.9084 -0.4990
 9239SOL     OW39175   4.549   0.799  17.131 -0.3136  0.1223  0.2064
 9239SOL    HW139176   4.482   0.812  17.199  2.0466  3.2115  1.9245
 9239SOL    HW239177   4.529   0.716  17.087 -2.0190  0.6064  0.0847
 9240SOL     OW39178   3.385   0.482   2.908  0.4843  0.4486  0.3283
 9240SOL    HW139179   3.293   0.506   2.912  0.3260  0.1305 -1.2066
 9240SOL    HW239180   3.389   0.434   2.825 -3.1833 -0.7429  0.8344
 9241SOL     OW39181   2.326   3.333   3.384  0.3857  0.2210 -0.3112
 9241SOL    HW139182   2.420   3.348   3.372  0.2670  0.3785 -1.0954
 9241SOL    HW239183   2.314   3.241   3.409 -0.8415  0.4803  0.0503
 9242SOL     OW39184   0.164   4.703   1.388  0.1811 -0.1449  0.0343
 9242SOL    HW139185   0.138   4.668   1.303  1.2664  1.5441 -1.0034
 9242SOL    HW239186   0.255   4.672   1.385  0.0510 -0.7160  1.8987
 9243SOL     OW39187   4.489   1.873   8.593  0.3337 -0.2648 -0.1023
 9243SOL    HW139188   4.405   1.906   8.562  1.7455  1.7426 -1.8359
 9243SOL    HW239189   4.502   1.940   8.660  0.2345 -0.8590  0.5137
 9244SOL     OW39190   1.826   4.724   2.504  0.2717 -0.5291 -0.5001
 9244SOL    HW139191   1.907   4.711   2.454  1.8114  2.1742  1.2500
 9244SOL    HW239192   1.758   0.027   2.443 -0.5489 -0.8624  0.2535
 9245SOL     OW39193   0.102   1.548  13.344 -0.3963  1.0109  0.2329
 9245SOL    HW139194   0.146   1.485  13.286 -1.0885 -0.0573  0.8631
 9245SOL    HW239195   0.022   1.563  13.293 -1.3674  0.3899  1.5769
 9246SOL     OW39196   2.690   3.082   5.088 -0.4881 -0.1654 -0.5735
 9246SOL    HW139197   2.741   3.016   5.134 -1.4782  0.3910  1.2987
 9246SOL    HW239198   2.762   3.135   5.053  0.6157 -1.5105 -0.3248
 9247SOL     OW39199   3.954   1.485  15.563  0.3488 -0.3135  0.4032
 9247SOL    HW139200   3.964   1.484  15.658 -1.1338 -3.0397  0.5135
 9247SOL    HW239201   3.862   1.460  15.556 -0.0145  0.4136  2.7564
 9248SOL     OW39202   1.920   3.463   8.023 -0.3079 -0.4518  1.0188
 9248SOL    HW139203   1.928   3.558   8.026 -0.6141 -0.4315  1.1163
 9248SOL    HW239204   1.907   3.443   8.115 -0.3481 -0.6219  0.9763
 9249SOL     OW39205   1.494   1.799  13.162 -0.1687 -0.0791  0.5707
 9249SOL    HW139206   1.467   1.745  13.088  2.9725 -0.3657 -0.3564
 9249SOL    HW239207   1.490   1.889  13.129  0.2768  0.3014  1.5615
 9250SOL     OW39208   1.363   3.617   7.043  0.5229 -0.0109  0.0782
 9250SOL    HW139209   1.276   3.649   7.020  0.7697 -0.7943 -2.0017
 9250SOL    HW239210   1.412   3.700   7.046  0.4563  0.0506 -0.5069
 9251SOL     OW39211   2.708   1.635  16.604 -0.2858  0.3347 -0.0086
 9251SOL    HW139212   2.738   1.704  16.663  0.4081 -1.1450  1.3517
 9251SOL    HW239213   2.621   1.609  16.635 -0.2492 -0.6404 -0.7360
 9252SOL     OW39214   1.040   2.767  14.111 -0.4081 -0.4133  0.3699
 9252SOL    HW139215   1.115   2.820  14.084  0.0092 -0.0427  2.2914
 9252SOL    HW239216   1.056   2.740  14.202 -1.0341  0.2359  0.6716
 9253SOL     OW39217   2.817   0.431   3.422  0.3721  0.6143 -0.5772
 9253SOL    HW139218   2.854   0.487   3.491  1.6024  0.0701 -0.7923
 9253SOL    HW239219   2.845   0.476   3.342  0.4287 -1.6934 -1.8526
 9254SOL     OW39220   2.409   3.227   1.924  0.7168  0.6082  0.3287
 9254SOL    HW139221   2.462   3.289   1.874  0.6630  0.0751 -0.4047
 9254SOL    HW239222   2.452   3.225   2.009  0.4429 -1.2273  0.4327
 9255SOL     OW39223   2.071   4.373   8.757  0.4301 -0.1103  0.0006
 9255SOL    HW139224   2.094   4.466   8.755 -0.4421  0.1070  0.1886
 9255SOL    HW239225   2.090   4.345   8.667  0.0034  2.2589 -0.8351
 9256SOL     OW39226   4.390   2.551   4.339 -0.2069 -0.0705  0.3469
 9256SOL    HW139227   4.357   2.641   4.342 -0.1478 -0.0536  0.5245
 9256SOL    HW239228   4.334   2.508   4.403  0.2490  0.6313  1.2173
 9257SOL     OW39229   2.002   0.338  12.864  0.1773 -0.0777 -0.3867
 9257SOL    HW139230   2.001   0.328  12.769 -0.6777 -0.1578 -0.3633
 9257SOL    HW239231   1.910   0.318  12.880  0.2413 -0.5720 -0.6381
 9258SOL     OW39232   1.193   0.108   4.361  0.1821 -0.1224 -0.3927
 9258SOL    HW139233   1.149   0.078   4.282 -1.3051 -0.7118  0.6542
 9258SOL    HW239234   1.288   0.099   4.355  0.5367  1.9033  1.9820
 9259SOL     OW39235   4.379   3.840  10.148  0.2715  0.2684  0.1544
 9259SOL    HW139236   4.393   3.770  10.212 -1.7047  0.2403  0.5584
 9259SOL    HW239237   4.357   3.786  10.072 -0.3954 -0.3858  0.8090
 9260SOL     OW39238   0.626   3.090  13.758 -0.1305 -0.6451 -0.2578
 9260SOL    HW139239   0.707   3.089  13.808 -0.1479 -2.7154 -0.2740
 9260SOL    HW239240   0.628   3.184  13.741 -3.1880 -0.4976  0.2357
 9261SOL     OW39241   3.019   3.514   5.964 -0.3957 -0.4119 -0.4416
 9261SOL    HW139242   3.059   3.512   6.051  1.2208  1.3849 -1.1414
 9261SOL    HW239243   2.992   3.606   5.972  0.5096 -0.1849  0.1724
 9262SOL     OW39244   1.907   3.063   8.321 -0.5460 -0.1890 -0.3476
 9262SOL    HW139245   1.962   3.022   8.387 -3.1031 -1.5368  0.9613
 9262SOL    HW239246   1.860   2.982   8.302  2.7614 -1.4935 -2.9762
 9263SOL     OW39247   0.032   3.741   6.530 -0.0485  0.3953 -0.0473
 9263SOL    HW139248   0.119   3.708   6.553  0.0899  0.6386 -0.2177
 9263SOL    HW239249   4.699   3.677   6.568  0.1898 -0.8019 -1.6729
 9264SOL     OW39250   1.816   2.802  15.624  0.4214  0.3565  0.1775
 9264SOL    HW139251   1.857   2.728  15.670 -3.2190 -1.8567 -0.0688
 9264SOL    HW239252   1.818   2.773  15.533 -0.9065 -2.1781  0.9230
 9265SOL     OW39253   1.143   4.675  16.191  0.3928  0.5678  0.0651
 9265SOL    HW139254   1.200   4.598  16.188 -2.2066 -1.3776  1.4148
 9265SOL    HW239255   1.055   4.640  16.198  0.5052  0.6241  1.7937
 9266SOL     OW39256   1.611   0.624   5.441 -0.1737  0.0503  0.2115
 9266SOL    HW139257   1.704   0.602   5.449 -0.5812 -0.5071  3.2968
 9266SOL    HW239258   1.609   0.718   5.460  0.1395 -0.0796  0.8883
 9267SOL     OW39259   0.184   3.268  17.395  0.3034 -0.0109 -0.2033
 9267SOL    HW139260   0.122   3.272  17.467  0.4101  1.4350 -0.1824
 9267SOL    HW239261   0.255   3.322  17.431 -0.2959  0.1011  0.8101
 9268SOL     OW39262   0.125   3.906   7.150  0.2842 -0.3363 -0.0582
 9268SOL    HW139263   0.161   3.924   7.064  0.6049  0.6489  0.2760
 9268SOL    HW239264   0.205   3.866   7.182  0.0816 -0.5742  0.1547
 9269SOL     OW39265   0.094   0.771  15.323  0.1558  0.3885 -0.3556
 9269SOL    HW139266   0.169   0.772  15.263  0.4112  1.2204 -0.0300
 9269SOL    HW239267   0.103   0.863  15.348 -1.4104  0.1991  0.9285
 9270SOL     OW39268   1.831   1.185   8.361  0.4740  0.1423 -0.2973
 9270SOL    HW139269   1.749   1.234   8.369  0.6128  0.5139 -1.0834
 9270SOL    HW239270   1.865   1.209   8.446  1.6584 -0.7834 -0.5146
 9271SOL     OW39271   1.923   1.550   7.228 -0.0708 -0.3817 -0.1174
 9271SOL    HW139272   1.951   1.479   7.169 -1.5952  0.1451 -1.4802
 9271SOL    HW239273   1.996   1.553   7.290 -0.5156 -2.6071  0.5324
 9272SOL     OW39274   3.768   1.741   8.618  0.3936  0.1241 -0.3904
 9272SOL    HW139275   3.684   1.786   8.630  0.3008  0.4086 -2.0602
 9272SOL    HW239276   3.828   1.779   8.681  0.7152  0.2537 -0.7714
 9273SOL     OW39277   0.097   1.810   9.177  0.4550  0.1027 -0.3809
 9273SOL    HW139278   0.040   1.850   9.243  2.4807  1.7324  0.3561
 9273SOL    HW239279   0.063   1.847   9.096  1.7661  2.0715 -0.0317
 9274SOL     OW39280   0.848   2.458   5.282 -0.5111 -0.1931  0.1124
 9274SOL    HW139281   0.924   2.403   5.263 -1.4739 -1.0987 -1.0965
 9274SOL    HW239282   0.805   2.442   5.199 -0.9717  1.7613 -0.0249
 9275SOL     OW39283   3.160   1.928   4.452  0.3584  0.1917  0.3852
 9275SOL    HW139284   3.162   1.842   4.495  0.0762  0.4934  1.0053
 9275SOL    HW239285   3.096   1.911   4.383  1.5349  1.1658 -0.9380
 9276SOL     OW39286   0.418   4.223  12.450 -0.0504 -0.3207  0.2593
 9276SOL    HW139287   0.434   4.263  12.535  1.5203 -0.3719 -0.0054
 9276SOL    HW239288   0.399   4.302  12.400  5.8396 -0.4166 -2.1899
 9277SOL     OW39289   3.661   2.621   8.392  0.1387 -0.1310  0.5339
 9277SOL    HW139290   3.578   2.575   8.405 -0.0177 -0.2394 -0.7740
 9277SOL    HW239291   3.649   2.709   8.428 -1.4599 -1.2254  2.6990
 9278SOL     OW39292   0.628   0.863  16.221 -0.0106 -0.1336 -0.3170
 9278SOL    HW139293   0.662   0.833  16.306 -2.6179 -0.2302  0.6899
 9278SOL    HW239294   0.567   0.927  16.256 -0.1049  0.9650 -2.5157
 9279SOL     OW39295   2.731   4.547   4.985  0.3722 -0.2270  0.0837
 9279SOL    HW139296   2.660   4.593   5.031 -1.2603 -0.3937 -2.2318
 9279SOL    HW239297   2.753   4.463   5.024  0.2685 -0.0092  0.6168
 9280SOL     OW39298   3.641   2.116  10.131  0.2131  0.5639  0.2123
 9280SOL    HW139299   3.609   2.124  10.220 -1.5611 -0.2954 -0.3575
 9280SOL    HW239300   3.566   2.145  10.080 -2.4797 -0.8467  3.4296
 9281SOL     OW39301   1.787   2.561   3.767  0.0451  0.2782  0.2968
 9281SOL    HW139302   1.852   2.627   3.793 -0.7191  1.4082 -0.6599
 9281SOL    HW239303   1.739   2.601   3.695  0.4706 -0.3684 -0.3488
 9282SOL     OW39304   0.543   4.433   3.123  0.3863  0.1318 -0.3515
 9282SOL    HW139305   0.562   4.339   3.126  1.0524  0.3038  0.8197
 9282SOL    HW239306   0.554   4.440   3.029 -1.4977 -1.4426 -0.7135
 9283SOL     OW39307   2.947   0.560   4.308  0.2786 -0.1142  0.1961
 9283SOL    HW139308   2.905   0.527   4.229 -1.4114  0.3029  0.9068
 9283SOL    HW239309   3.029   0.590   4.270 -0.3546  1.8434  0.3288
 9284SOL     OW39310   1.719   3.526   6.007  0.4904  0.3000  0.0667
 9284SOL    HW139311   1.733   3.491   6.095  1.7821  1.2307  0.2334
 9284SOL    HW239312   1.790   3.590   6.001 -0.2609  1.2400  1.1780
 9285SOL     OW39313   0.741   2.603   6.817  0.1066  0.0658 -0.3059
 9285SOL    HW139314   0.707   2.677   6.768  2.6640  0.6768 -1.1787
 9285SOL    HW239315   0.688   2.531   6.784 -1.0228  0.1163  1.4052
 9286SOL     OW39316   1.789   4.220   0.411  0.1821  0.4187 -0.3503
 9286SOL    HW139317   1.753   4.162   0.344  0.6984 -1.0611  0.6515
 9286SOL    HW239318   1.713   4.247   0.462  0.1963  0.6146 -0.4330
 9287SOL     OW39319   3.353   4.328  15.600  0.2274  0.3430 -0.4657
 9287SOL    HW139320   3.337   4.313  15.506  1.2738  0.1710 -0.6161
 9287SOL    HW239321   3.307   4.411  15.607 -0.5453 -0.2380  1.3477
 9288SOL     OW39322   1.946   3.243   7.851  0.3310  0.1822  0.0418
 9288SOL    HW139323   1.945   3.321   7.906  1.8977 -1.9996  3.1968
 9288SOL    HW239324   1.920   3.276   7.765 -0.3487 -1.4339 -0.3862
 9289SOL     OW39325   1.307   0.294   6.177 -0.1425  0.1017 -0.5873
 9289SOL    HW139326   1.359   0.370   6.202  0.5309 -0.9630  1.2576
 9289SOL    HW239327   1.290   0.312   6.085 -1.2525  0.9441 -0.2147
 9290SOL     OW39328   3.797   1.062   7.908  0.4371 -0.1660  0.1655
 9290SOL    HW139329   3.808   1.055   7.813  1.9008  1.1944  0.2465
 9290SOL    HW239330   3.727   1.128   7.914  0.1233 -0.3416 -1.4784
 9291SOL     OW39331   4.137   0.204   7.343 -0.3617  0.3475  0.5011
 9291SOL    HW139332   4.200   0.172   7.408 -1.5977  1.0499  2.0487
 9291SOL    HW239333   4.103   0.272   7.401  0.4676  0.0285  1.3566
 9292SOL     OW39334   2.346   3.594   1.229  0.0317 -0.3115  0.6880
 9292SOL    HW139335   2.434   3.558   1.220 -0.6500 -2.1434  1.5116
 9292SOL    HW239336   2.347   3.662   1.161 -0.7963  0.2367  1.2165
 9293SOL     OW39337   0.699   4.393  13.737  0.0196  0.6108  0.0709
 9293SOL    HW139338   0.637   4.450  13.692  1.2184  0.0209 -2.3428
 9293SOL    HW239339   0.727   4.459  13.800 -2.8258  0.7320  1.2133
 9294SOL     OW39340   1.850   2.006  16.080  0.4232 -0.0287  0.5312
 9294SOL    HW139341   1.822   1.918  16.051  1.6098  0.3209 -1.6420
 9294SOL    HW239342   1.818   2.056  16.005  0.8243 -1.4854 -0.6274
 9295SOL     OW39343   0.252   4.696   8.489  0.0949  0.2534 -0.5860
 9295SOL    HW139344   0.274   4.629   8.553  0.9682  2.6117  1.5827
 9295SOL    HW239345   0.232   4.641   8.413  0.5159 -0.9318  0.1663
 9296SOL     OW39346   0.187   3.988  17.184  0.2593  0.4183  0.6944
 9296SOL    HW139347   0.132   3.989  17.106  1.5173 -0.5598 -0.2073
 9296SOL    HW239348   0.117   3.954  17.240  0.9022 -0.1512  1.1610
 9297SOL     OW39349   2.906   2.867   7.861 -0.0395  0.5011 -0.0633
 9297SOL    HW139350   2.880   2.811   7.788  1.2841  0.2357 -0.3196
 9297SOL    HW239351   3.000   2.854   7.857 -0.3988 -1.4563 -2.4827
 9298SOL     OW39352   3.959   4.178   0.957  0.8099  0.3685 -0.4303
 9298SOL    HW139353   4.027   4.141   0.901 -0.9425 -0.5185 -1.9794
 9298SOL    HW239354   4.012   4.240   1.007 -0.2124  0.7952  0.1176
 9299SOL     OW39355   4.244   2.655  13.456 -0.4579 -0.3761  0.1701
 9299SOL    HW139356   4.317   2.597  13.434  0.3199  0.1358  1.4292
 9299SOL    HW239357   4.165   2.610  13.425 -2.3461  4.0911 -1.4152
 9300SOL     OW39358   1.301   0.682   7.499 -0.2657  0.0326 -0.6839
 9300SOL    HW139359   1.373   0.696   7.561 -0.5247 -2.0295  0.0885
 9300SOL    HW239360   1.349   0.635   7.431 -0.9630 -0.9284 -0.5054
 9301SOL     OW39361   3.047   1.200   5.778  0.2768 -0.4720 -0.0658
 9301SOL    HW139362   3.068   1.193   5.685  0.8666 -0.7733  0.0884
 9301SOL    HW239363   2.991   1.123   5.784  0.3416 -0.6877 -2.0056
 9302SOL     OW39364   3.773   1.872   3.517  0.7713 -0.1791  0.1920
 9302SOL    HW139365   3.755   1.949   3.463  1.0420  1.7487  2.8106
 9302SOL    HW239366   3.702   1.882   3.580  1.1684 -0.2789  0.6621
 9303SOL     OW39367   1.306   0.478   3.694  0.0640 -1.0251  0.4232
 9303SOL    HW139368   1.298   0.547   3.628  0.9706 -1.4205 -0.0957
 9303SOL    HW239369   1.215   0.470   3.725 -0.4525 -1.7900 -1.2632
 9304SOL     OW39370   0.943   0.498   9.162  0.2531 -0.3493  0.2709
 9304SOL    HW139371   1.002   0.451   9.221  1.1081  0.6002  0.1717
 9304SOL    HW239372   0.952   0.574   9.219 -0.0927 -2.4486  3.1326
 9305SOL     OW39373   4.389   0.235   4.709 -0.5215 -0.2185  0.0249
 9305SOL    HW139374   4.333   0.268   4.779  1.7406 -0.7698  2.0652
 9305SOL    HW239375   4.359   0.144   4.708 -0.9574 -0.0780 -1.2373
 9306SOL     OW39376   4.518   3.851  15.627 -0.3861 -0.7927 -0.0024
 9306SOL    HW139377   4.549   3.922  15.684 -1.3855 -1.2871  1.1648
 9306SOL    HW239378   4.437   3.897  15.605 -0.4214  0.5962  3.0290
 9307SOL     OW39379   1.918   0.505   5.836  0.3032 -0.6319  0.7777
 9307SOL    HW139380   1.949   0.416   5.818  0.0542 -0.4362 -0.6241
 9307SOL    HW239381   1.988   0.557   5.798 -2.0065  2.3400  0.6028
 9308SOL     OW39382   0.566   3.524  13.508 -0.1574 -0.0327 -0.3239
 9308SOL    HW139383   0.493   3.583  13.523  0.5982  0.9304 -0.4698
 9308SOL    HW239384   0.507   3.464  13.462 -0.6104  1.0022 -1.1063
 9309SOL     OW39385   4.160   1.554  11.919 -0.5431  0.3310 -0.1235
 9309SOL    HW139386   4.242   1.575  11.964 -1.6558  1.3302  1.4106
 9309SOL    HW239387   4.197   1.523  11.836 -2.6761  0.7141 -1.2210
 9310SOL     OW39388   2.049   4.146   5.261 -0.3125 -0.1994 -0.6615
 9310SOL    HW139389   2.133   4.161   5.304 -0.8061 -2.0216  0.9328
 9310SOL    HW239390   2.050   4.051   5.273  1.7974  0.2892  3.1686
 9311SOL     OW39391   4.689   1.046   2.541  0.0433  0.0052  0.2301
 9311SOL    HW139392   0.014   0.997   2.477  2.2924  2.6796 -0.0207
 9311SOL    HW239393   4.688   0.985   2.615  0.3314 -1.4902 -0.9883
 9312SOL     OW39394   0.060   1.095   5.783 -0.0867 -0.1551  0.0985
 9312SOL    HW139395   0.072   1.127   5.693  0.4004 -0.7692 -0.0537
 9312SOL    HW239396   4.723   1.023   5.776 -0.4635  0.2145 -0.3328
 9313SOL     OW39397   2.043   3.590  17.374 -0.6425  0.1828  0.0049
 9313SOL    HW139398   2.000   3.593  17.459  2.4554 -1.0887  1.6248
 9313SOL    HW239399   2.101   3.666  17.383 -0.3906  0.0546 -0.5567
 9314SOL     OW39400   1.049   0.316   1.031  0.5389  0.0506  0.6004
 9314SOL    HW139401   1.025   0.406   1.054 -1.7605 -0.6876  1.0547
 9314SOL    HW239402   0.988   0.278   1.093  0.0900 -1.7980 -0.9719
 9315SOL     OW39403   4.197   3.315   5.819  0.2878  0.3304 -0.3685
 9315SOL    HW139404   4.254   3.272   5.882 -2.5553 -0.5307  1.5922
 9315SOL    HW239405   4.253   3.320   5.741 -0.1302 -1.6810 -0.7810
 9316SOL     OW39406   1.821   0.992   7.808  0.3107 -0.3706 -0.4735
 9316SOL    HW139407   1.771   1.070   7.830  0.5125 -0.4695  0.3432
 9316SOL    HW239408   1.855   0.962   7.892  2.6366  0.3743 -1.1549
 9317SOL     OW39409   2.304   2.434   8.393  0.1322  0.7324  0.4565
 9317SOL    HW139410   2.352   2.477   8.321 -1.0279 -2.4202 -2.2094
 9317SOL    HW239411   2.371   2.397   8.451 -0.1670 -1.1153 -0.3684
 9318SOL     OW39412   1.436   1.892   7.696  0.1805 -0.3199  1.0152
 9318SOL    HW139413   1.345   1.914   7.678  1.2435  3.4709  0.3215
 9318SOL    HW239414   1.466   1.968   7.746  1.4005 -0.8562  1.0922
 9319SOL     OW39415   0.025   1.071   4.126  0.6689  0.0085 -0.1661
 9319SOL    HW139416   4.724   0.982   4.145 -0.7056  0.9208  2.1603
 9319SOL    HW239417   4.724   1.108   4.210 -2.8426 -0.9424 -0.8770
 9320SOL     OW39418   2.485   3.895   4.168  0.3402  0.1396 -0.2103
 9320SOL    HW139419   2.405   3.841   4.166  0.5930 -0.2821  1.3374
 9320SOL    HW239420   2.481   3.937   4.254 -0.1272 -0.2981 -0.0149
 9321SOL     OW39421   3.727   4.132   8.049 -0.1283 -0.4155  0.4146
 9321SOL    HW139422   3.682   4.194   7.993 -0.1620 -1.6274 -0.8937
 9321SOL    HW239423   3.816   4.166   8.047  0.0778 -1.1414 -2.5569
 9322SOL     OW39424   0.951   2.638  12.438 -0.2182 -0.2509  0.0365
 9322SOL    HW139425   0.961   2.661  12.346 -1.2439 -0.3448 -0.0972
 9322SOL    HW239426   1.039   2.668  12.462  0.4648 -1.8825 -0.4141
 9323SOL     OW39427   1.941   2.348   3.996 -0.3459  0.0874 -0.6714
 9323SOL    HW139428   2.017   2.299   4.027  0.2571  0.6341 -1.2820
 9323SOL    HW239429   1.949   2.425   4.052  2.1316 -0.6514 -0.0312
 9324SOL     OW39430   3.615   0.923   4.132 -0.4937  0.1734  0.0083
 9324SOL    HW139431   3.660   0.854   4.083 -1.0637 -0.8099  0.8511
 9324SOL    HW239432   3.560   0.951   4.060 -1.6237  0.6112  1.0500
 9325SOL     OW39433   1.410   2.674   6.547 -0.1125 -0.3473  0.0546
 9325SOL    HW139434   1.495   2.668   6.504 -0.1305  1.7752 -0.2944
 9325SOL    HW239435   1.403   2.764   6.579  0.6901 -0.1640 -0.2662
 9326SOL     OW39436   4.075   0.786   7.430  0.1274  0.2690  1.0221
 9326SOL    HW139437   4.034   0.849   7.372 -3.3294 -1.5827  1.4970
 9326SOL    HW239438   4.014   0.734   7.482  1.9908 -1.2304  1.7513
 9327SOL     OW39439   0.393   3.871   7.186 -0.1510  0.2306  0.3792
 9327SOL    HW139440   0.443   3.825   7.252 -1.1165 -2.4297 -0.7546
 9327SOL    HW239441   0.438   3.860   7.102 -0.4804  0.4112  0.1803
 9328SOL     OW39442   0.958   3.342   7.889  0.2647 -0.4369  0.1312
 9328SOL    HW139443   0.995   3.302   7.810  0.5807  0.5061 -0.1969
 9328SOL    HW239444   1.000   3.303   7.966  1.4292 -1.8733 -1.2125
 9329SOL     OW39445   1.116   3.771  11.980  0.0021 -0.3647  0.3623
 9329SOL    HW139446   1.037   3.822  12.001  0.2783  1.1159 -2.1647
 9329SOL    HW239447   1.122   3.729  12.066  1.8223  1.7198  1.2689
 9330SOL     OW39448   4.159   3.249  10.715 -0.1808  0.0034 -0.4489
 9330SOL    HW139449   4.179   3.193  10.640  0.5520  1.5816 -1.4286
 9330SOL    HW239450   4.064   3.252  10.710 -0.3400 -3.8813  0.1641
 9331SOL     OW39451   1.986   3.977  15.624  0.0985  0.7128  0.5319
 9331SOL    HW139452   1.969   3.891  15.662 -2.4611  1.8223  1.8871
 9331SOL    HW239453   1.980   3.967  15.529 -0.9036  0.6539  0.6027
 9332SOL     OW39454   0.483   0.318  16.821  0.4996  0.4245  1.0080
 9332SOL    HW139455   0.521   0.406  16.814 -0.9258  0.8927 -0.6985
 9332SOL    HW239456   0.421   0.331  16.893 -0.6213  1.9282 -0.2396
 9333SOL     OW39457   0.290   2.985   8.702  0.8769  0.0324 -0.2809
 9333SOL    HW139458   0.271   3.076   8.680  0.2806 -0.4613 -1.8061
 9333SOL    HW239459   0.358   2.963   8.638  1.0243  0.3031 -0.2200
 9334SOL     OW39460   3.456   0.305   2.373 -0.2782 -0.0718  0.5641
 9334SOL    HW139461   3.396   0.313   2.298 -1.9702  2.5623  2.1847
 9334SOL    HW239462   3.503   0.225   2.349 -1.3554 -1.1014  1.8924
 9335SOL     OW39463   1.113   1.771   4.833  0.0303 -0.0723  0.1429
 9335SOL    HW139464   1.059   1.763   4.754 -0.7424  0.8598  0.5740
 9335SOL    HW239465   1.156   1.687   4.844  2.8282  1.4728  0.7918
 9336SOL     OW39466   2.747   0.480   7.235  0.0044  0.0347 -0.3286
 9336SOL    HW139467   2.683   0.522   7.176 -1.7659 -0.9169  0.9154
 9336SOL    HW239468   2.803   0.426   7.179  0.7517 -1.1538  1.5746
 9337SOL     OW39469   2.043   3.174   3.981 -0.2476  0.0144 -0.5150
 9337SOL    HW139470   2.043   3.269   3.969  0.7558  0.3062  1.9039
 9337SOL    HW239471   1.971   3.164   4.043 -0.5610 -2.0299 -1.2028
 9338SOL     OW39472   3.745   3.359   3.804  0.2204 -0.3918  0.5869
 9338SOL    HW139473   3.825   3.306   3.813  0.5220 -0.5789 -3.1481
 9338SOL    HW239474   3.688   3.298   3.850 -1.0175 -0.0692 -0.5275
 9339SOL     OW39475   1.235   0.488   2.745 -0.5494 -0.0275  0.3740
 9339SOL    HW139476   1.143   0.461   2.742 -0.2620 -0.8679 -0.7181
 9339SOL    HW239477   1.273   0.409   2.783  0.8038  1.2987  1.7769
 9340SOL     OW39478   3.545   1.719  13.338 -0.0196  0.0384 -0.1110
 9340SOL    HW139479   3.569   1.783  13.271  0.9415 -0.3752 -0.1585
 9340SOL    HW239480   3.553   1.640  13.284  1.2775 -0.0591  0.2197
 9341SOL     OW39481   2.319   3.097   7.677 -0.3642  0.1691 -0.3879
 9341SOL    HW139482   2.403   3.111   7.632 -0.8219 -1.8855 -1.9099
 9341SOL    HW239483   2.316   3.161   7.748  1.8279 -0.3288  0.1553
 9342SOL     OW39484   1.084   4.556   8.101  0.8672 -0.4177 -0.1748
 9342SOL    HW139485   1.166   4.577   8.146  1.4050 -2.0250 -0.4080
 9342SOL    HW239486   1.062   4.632   8.047  1.2101  0.4688  0.9310
 9343SOL     OW39487   2.986   3.019   1.756 -0.0697  0.2839  0.4595
 9343SOL    HW139488   3.029   2.990   1.836 -1.8813  0.3744  1.4688
 9343SOL    HW239489   2.894   3.016   1.783 -0.9614  0.6151 -2.5178
 9344SOL     OW39490   1.593   1.032   1.971 -0.2912  0.2523 -0.7132
 9344SOL    HW139491   1.676   1.078   1.981  0.0053 -0.7177  1.3507
 9344SOL    HW239492   1.595   1.022   1.876 -0.7329  1.0817 -0.8135
 9345SOL     OW39493   0.740   4.511   7.797  0.2652 -0.5033 -0.8758
 9345SOL    HW139494   0.830   4.514   7.830  0.1926  2.8411 -0.9845
 9345SOL    HW239495   0.709   4.437   7.849 -1.5005  0.0208 -1.1989
 9346SOL     OW39496   4.079   3.361   8.090 -0.0177  0.2157  0.4272
 9346SOL    HW139497   4.145   3.370   8.022 -1.2925  0.0851 -0.8222
 9346SOL    HW239498   4.002   3.398   8.048  0.3889  0.1621 -0.3641
 9347SOL     OW39499   1.925   3.628   3.224  0.1612  0.0466  0.1517
 9347SOL    HW139500   2.018   3.616   3.245 -0.3712 -1.1248  1.8648
 9347SOL    HW239501   1.905   3.543   3.187 -1.2713  0.9176 -1.0495
 9348SOL     OW39502   1.191   2.946   7.250 -0.0012 -0.6251 -0.1316
 9348SOL    HW139503   1.141   2.866   7.262  0.7882 -1.2338 -0.9495
 9348SOL    HW239504   1.140   2.989   7.181 -0.0667 -1.0028 -0.3193
 9349SOL     OW39505   1.570   3.180   6.278 -0.1455  0.1434 -0.1960
 9349SOL    HW139506   1.528   3.262   6.302  1.9965  1.8665 -2.2943
 9349SOL    HW239507   1.548   3.131   6.357 -2.3481  0.8616 -0.3797
 9350SOL     OW39508   3.021   4.256   7.154  0.4086  0.2335  0.0655
 9350SOL    HW139509   2.934   4.232   7.186  0.2476 -0.0649 -0.5944
 9350SOL    HW239510   3.008   4.292   7.066 -1.3790  0.7208  0.5196
 9351SOL     OW39511   3.752   4.241  13.245  0.1453 -0.2205  0.3481
 9351SOL    HW139512   3.822   4.176  13.246 -0.2760 -0.6816 -0.0705
 9351SOL    HW239513   3.783   4.318  13.294 -3.6979  0.8941  1.0869
 9352SOL     OW39514   2.890   1.966  16.079  0.3059  0.3288 -0.2045
 9352SOL    HW139515   2.913   1.902  16.146  2.5578  2.8975  1.4474
 9352SOL    HW239516   2.813   1.920  16.045  1.0100 -0.0429 -1.2967
 9353SOL     OW39517   1.222   2.996   0.550  0.1428 -0.3938 -0.4758
 9353SOL    HW139518   1.249   3.057   0.482 -0.8840  0.4441 -0.1400
 9353SOL    HW239519   1.196   2.921   0.497 -4.4971  0.3945  0.6429
 9354SOL     OW39520   1.515   2.153   5.343 -0.3855 -0.4181 -0.1324
 9354SOL    HW139521   1.525   2.120   5.432 -2.2672  0.3468  0.3556
 9354SOL    HW239522   1.522   2.071   5.293  0.7509 -0.6611  0.4246
 9355SOL     OW39523   3.044   1.674   6.737 -0.6676  0.5580 -0.3201
 9355SOL    HW139524   3.064   1.737   6.668  0.8032 -0.6791 -1.0166
 9355SOL    HW239525   3.131   1.634   6.745 -0.6407  0.2822 -1.9696
 9356SOL     OW39526   0.941   2.962   7.452  0.0787 -0.0101 -0.5397
 9356SOL    HW139527   0.951   2.950   7.547  0.0125 -0.1685 -0.5541
 9356SOL    HW239528   0.906   2.876   7.432  1.6627 -0.7879  0.0345
 9357SOL     OW39529   0.196   0.682  14.678 -0.2952 -0.3003  0.0663
 9357SOL    HW139530   0.256   0.712  14.610  1.4933 -0.8736  1.3968
 9357SOL    HW239531   0.243   0.707  14.758 -0.0637  0.0344 -0.1758
 9358SOL     OW39532   2.934   3.438   8.993 -0.1426  1.0587 -0.2996
 9358SOL    HW139533   2.874   3.421   8.921 -0.3984  2.4080 -0.3878
 9358SOL    HW239534   2.889   3.406   9.071 -0.6018 -1.1306 -1.4640
 9359SOL     OW39535   0.030   2.192   0.639 -0.5917  0.2942  0.3655
 9359SOL    HW139536   0.008   2.273   0.593 -0.9426  0.5264  0.9283
 9359SOL    HW239537   0.113   2.165   0.602 -0.7268  1.8121 -1.0136
 9360SOL     OW39538   0.109   0.902   2.374  0.7474  0.2703  0.1613
 9360SOL    HW139539   0.070   0.815   2.385  1.5066 -0.3235 -1.8875
 9360SOL    HW239540   0.070   0.932   2.292  0.5200 -3.1393 -0.9673
 9361SOL     OW39541   1.487   2.061   7.955  0.6624  0.4448  0.0193
 9361SOL    HW139542   1.566   2.113   7.972  2.3716 -1.9512 -0.5558
 9361SOL    HW239543   1.524   1.973   7.952 -1.2651 -0.3297 -0.7006
 9362SOL     OW39544   2.250   1.620  12.103  0.2633  0.3577  0.4319
 9362SOL    HW139545   2.339   1.653  12.090  0.5864 -1.1772 -1.2589
 9362SOL    HW239546   2.231   1.654  12.190  1.8903  3.3702 -0.4068
 9363SOL     OW39547   4.062   1.083   4.720  0.4919  0.3525 -0.3429
 9363SOL    HW139548   4.009   1.098   4.642  0.8162 -1.1937 -0.8639
 9363SOL    HW239549   3.991   1.070   4.783  0.9516  2.5580  0.6198
 9364SOL     OW39550   4.410   3.444   1.872 -0.0723  0.0123 -0.0628
 9364SOL    HW139551   4.453   3.482   1.796  0.2131  1.7118  0.9497
 9364SOL    HW239552   4.480   3.386   1.901  1.0955  1.0995 -0.7033
 9365SOL     OW39553   2.812   4.055   4.253  0.3145  0.2704 -0.3294
 9365SOL    HW139554   2.726   4.022   4.281 -0.4883  1.6066 -1.2057
 9365SOL    HW239555   2.805   4.150   4.267  0.4945  0.0349  1.3739
 9366SOL     OW39556   2.991   3.794   9.375 -0.4116 -0.1247  0.1413
 9366SOL    HW139557   2.947   3.875   9.402  1.1971  0.9743 -0.5493
 9366SOL    HW239558   3.082   3.823   9.372 -0.4578 -0.0298 -0.4516
 9367SOL     OW39559   1.012   4.085  15.336  0.5922 -0.6282 -0.6221
 9367SOL    HW139560   1.049   4.001  15.360  0.2071  0.5216  4.0086
 9367SOL    HW239561   1.077   4.129  15.281  1.7581 -0.3588  0.9643
 9368SOL     OW39562   0.879   2.709   7.374  0.0252 -0.1212 -0.0581
 9368SOL    HW139563   0.816   2.643   7.345  0.0342 -0.3928  0.5571
 9368SOL    HW239564   0.910   2.672   7.456  1.3086  0.4142 -0.2998
 9369SOL     OW39565   2.072   1.716  15.486 -0.3995  0.3845 -0.7262
 9369SOL    HW139566   2.009   1.676  15.426 -0.8393  2.5284 -1.6639
 9369SOL    HW239567   2.019   1.762  15.552 -1.7155 -0.8825 -0.8872
 9370SOL     OW39568   1.621   4.491  15.455 -0.2537 -0.2465  0.0901
 9370SOL    HW139569   1.595   4.426  15.521 -2.7265  1.0699  0.4075
 9370SOL    HW239570   1.655   4.559  15.513 -0.4481  0.8597 -1.0922
 9371SOL     OW39571   2.875   1.427  12.360  0.1503 -0.6066 -0.4295
 9371SOL    HW139572   2.924   1.464  12.286  1.3027 -1.0441  0.1025
 9371SOL    HW239573   2.810   1.496  12.371  0.0574 -0.8224  0.3401
 9372SOL     OW39574   0.184   1.648  14.632 -0.1529 -0.2689  0.2434
 9372SOL    HW139575   0.159   1.578  14.571  1.0669  0.4689 -1.1183
 9372SOL    HW239576   0.260   1.688  14.590  0.2798  0.5585  1.8194
 9373SOL     OW39577   0.762   2.012  13.506  0.0634  0.8192 -0.0190
 9373SOL    HW139578   0.685   2.012  13.564  0.0197  0.9297 -0.0763
 9373SOL    HW239579   0.741   2.084  13.446  1.9977  0.6608 -0.8669
 9374SOL     OW39580   1.656   0.369   8.895  0.3072 -0.2066  0.0908
 9374SOL    HW139581   1.747   0.352   8.871  1.4167  4.1343  1.1632
 9374SOL    HW239582   1.623   0.380   8.805 -0.8274 -0.8620  0.4217
 9375SOL     OW39583   3.266   3.587  17.673 -0.1520  0.0236 -0.2694
 9375SOL    HW139584   3.276   3.624   0.054  1.0710 -0.8861 -0.0291
 9375SOL    HW239585   3.172   3.571  17.687 -0.3558  0.4458 -1.1166
 9376SOL     OW39586   1.944   4.078   9.199 -0.6507 -0.0455  0.3162
 9376SOL    HW139587   1.851   4.056   9.194 -0.1923 -2.1300  0.7978
 9376SOL    HW239588   1.960   4.100   9.107 -1.4458 -0.9220 -0.0421
 9377SOL     OW39589   2.467   1.146   4.400 -0.0459 -0.1240  0.1982
 9377SOL    HW139590   2.491   1.127   4.310 -3.1320 -0.8742 -0.4462
 9377SOL    HW239591   2.434   1.236   4.393 -0.5639 -0.3170  0.2429
 9378SOL     OW39592   2.976   2.480   3.706  0.3682 -0.1841  0.6179
 9378SOL    HW139593   3.068   2.506   3.717 -0.1082  1.4723  0.6287
 9378SOL    HW239594   2.932   2.563   3.720 -1.2392 -1.1900  1.5461
 9379SOL     OW39595   0.200   0.240   4.662  0.1135 -0.2249 -0.3901
 9379SOL    HW139596   0.223   0.331   4.678 -1.4402 -0.1716  1.5368
 9379SOL    HW239597   0.254   0.220   4.586  0.5161  0.5394 -0.2992
 9380SOL     OW39598   4.135   3.674   6.633  0.5446 -0.2218 -0.4689
 9380SOL    HW139599   4.144   3.740   6.563  5.5030 -0.5273 -0.1377
 9380SOL    HW239600   4.217   3.628   6.617 -0.2200 -2.5048  2.2172
 9381SOL     OW39601   3.493   4.012   1.405 -0.3922 -0.0536  0.5602
 9381SOL    HW139602   3.487   4.035   1.498 -1.2602 -1.9618  0.9843
 9381SOL    HW239603   3.531   3.924   1.415 -0.1532  0.1827  1.7421
 9382SOL     OW39604   4.668   0.062  17.012  0.6558 -0.8167 -0.1103
 9382SOL    HW139605   4.643   0.141  16.963  0.0956 -1.3681 -0.7082
 9382SOL    HW239606   4.590   0.063  17.067 -0.3716  0.0830 -1.5963
 9383SOL     OW39607   3.983   4.685   0.250  0.4678 -0.3244  0.0776
 9383SOL    HW139608   3.887   4.690   0.247  0.5783  1.4329 -0.4759
 9383SOL    HW239609   3.997   4.610   0.307 -0.1405  0.3684  1.1360
 9384SOL     OW39610   1.412   0.839   5.292 -0.1449 -0.6949 -0.2777
 9384SOL    HW139611   1.380   0.917   5.338 -0.8500 -1.0907 -0.1064
 9384SOL    HW239612   1.376   0.768   5.344 -2.1122  0.3054 -0.2891
 9385SOL     OW39613   0.385   1.160   7.579  0.1496 -0.0720 -0.5403
 9385SOL    HW139614   0.429   1.144   7.662  0.2781  0.6422 -0.4719
 9385SOL    HW239615   0.293   1.167   7.604  0.3871 -2.0369  0.8460
 9386SOL     OW39616   1.638   1.345  12.454  0.0675 -0.3325 -0.1561
 9386SOL    HW139617   1.682   1.279  12.400  1.3073  0.6533 -0.3340
 9386SOL    HW239618   1.553   1.353  12.410  0.2806  0.1515 -0.4725
 9387SOL     OW39619   1.155   3.624  10.681  0.8331  0.5575 -0.1890
 9387SOL    HW139620   1.195   3.666  10.756  0.1517  1.1321 -0.1384
 9387SOL    HW239621   1.146   3.696  10.618 -0.8251  1.8261  1.5046
 9388SOL     OW39622   4.703   3.506   0.470  0.2245 -0.0237 -0.0925
 9388SOL    HW139623   4.647   3.515   0.547  0.1798  0.5135 -0.1951
 9388SOL    HW239624   4.640   3.486   0.400 -1.0983  1.4296  0.7051
 9389SOL     OW39625   2.470   3.757   5.848  0.8820 -0.9694  0.5746
 9389SOL    HW139626   2.555   3.731   5.812  0.7848  1.3194 -1.3352
 9389SOL    HW239627   2.452   3.671   5.887  0.2443 -2.1681 -2.3430
 9390SOL     OW39628   1.734   1.754   6.923 -0.6451  0.0255 -0.7419
 9390SOL    HW139629   1.710   1.792   6.839 -2.5283 -1.6603 -0.9393
 9390SOL    HW239630   1.815   1.804   6.939  0.4160 -1.5615 -1.0981
 9391SOL     OW39631   3.309   3.742  11.247  0.2758 -0.1641  0.3745
 9391SOL    HW139632   3.229   3.793  11.230  0.3354 -0.8568 -1.9601
 9391SOL    HW239633   3.293   3.714  11.337 -0.6725 -0.9927 -0.0494
 9392SOL     OW39634   4.082   0.772   5.653 -0.5733  0.2497 -0.1903
 9392SOL    HW139635   4.010   0.834   5.662  0.1196  0.9948  0.1471
 9392SOL    HW239636   4.151   0.828   5.618  0.7637 -2.0803 -1.2902
 9393SOL     OW39637   1.773   3.674   8.257  0.6175  0.1764 -0.0236
 9393SOL    HW139638   1.793   3.582   8.242  1.8330  0.3781  0.3227
 9393SOL    HW239639   1.831   3.723   8.199 -1.0819  1.5217 -0.5921
 9394SOL     OW39640   0.452   4.172   3.075 -0.2946 -0.1313  0.0631
 9394SOL    HW139641   0.459   4.118   2.996 -1.1464  0.1476 -0.2002
 9394SOL    HW239642   0.469   4.118   3.153 -1.5538 -1.7579 -0.8082
 9395SOL     OW39643   3.594   0.954   7.048  0.1053 -0.1727  0.0183
 9395SOL    HW139644   3.549   1.021   6.996  0.0203 -1.6614 -1.7972
 9395SOL    HW239645   3.614   0.998   7.131  2.0449 -1.6830  0.3477
 9396SOL     OW39646   1.569   2.761   1.963 -0.3660  0.3069  0.0803
 9396SOL    HW139647   1.610   2.703   2.027  1.2361  1.2374 -0.1149
 9396SOL    HW239648   1.626   2.837   1.962  0.0325  0.0169  1.2374
 9397SOL     OW39649   4.704   4.626   2.421  0.7757 -0.1632 -0.2068
 9397SOL    HW139650   4.633   4.676   2.382  1.0509  1.5452  1.4833
 9397SOL    HW239651   0.003   4.567   2.350  0.7027  1.2994 -1.4324
 9398SOL     OW39652   0.840   4.287   0.406 -0.1222 -0.0147 -0.2349
 9398SOL    HW139653   0.859   4.216   0.345  0.7150 -1.5374  1.7818
 9398SOL    HW239654   0.827   4.243   0.490 -0.4645 -0.8595 -0.7302
 9399SOL     OW39655   3.244   2.350   7.068  0.0028  0.5033  0.3314
 9399SOL    HW139656   3.196   2.406   7.129 -0.2399 -1.2082  1.7103
 9399SOL    HW239657   3.299   2.300   7.128 -1.1410 -2.3713 -1.0133
 9400SOL     OW39658   0.660   1.698   6.273 -0.6835 -0.7251  0.1421
 9400SOL    HW139659   0.608   1.663   6.201 -1.0737  1.2971 -0.5765
 9400SOL    HW239660   0.668   1.793   6.259  0.5862 -0.5953  1.7258
 9401SOL     OW39661   2.239   4.596   6.861  0.2697 -0.4927  0.8284
 9401SOL    HW139662   2.165   4.623   6.807  1.0345  0.7947  0.4211
 9401SOL    HW239663   2.199   4.542   6.930 -0.4983  1.3093  1.7922
 9402SOL     OW39664   1.022   3.275   3.837 -1.0202 -0.8807 -0.3024
 9402SOL    HW139665   0.940   3.315   3.868 -0.9200 -0.2739 -0.8202
 9402SOL    HW239666   1.048   3.346   3.779  1.1975 -0.9342  0.6313
 9403SOL     OW39667   0.289   0.570   3.597 -0.0782 -0.2318  0.4389
 9403SOL    HW139668   0.324   0.651   3.560 -0.2468  0.7482  2.3901
 9403SOL    HW239669   0.368   0.521   3.618 -1.4444 -1.8659  1.7357
 9404SOL     OW39670   3.929   3.244   1.863  0.1248  0.2947 -0.2581
 9404SOL    HW139671   3.935   3.161   1.910  3.6782  0.5719 -0.2154
 9404SOL    HW239672   3.924   3.307   1.934  0.2090  1.2849 -1.1267
 9405SOL     OW39673   0.955   2.635   9.817 -0.0092  0.1546  0.2651
 9405SOL    HW139674   0.987   2.619   9.728  1.8677 -1.4726  1.2509
 9405SOL    HW239675   1.034   2.637   9.871 -0.0304  0.9043  0.2651
 9406SOL     OW39676   0.786   2.896   8.428 -0.3720  0.1939 -0.1791
 9406SOL    HW139677   0.777   2.968   8.367 -0.5026 -0.8529 -1.3988
 9406SOL    HW239678   0.852   2.933   8.487 -2.0555  1.8104  0.7072
 9407SOL     OW39679   2.742   3.631   6.593 -0.1362  0.2463  0.1330
 9407SOL    HW139680   2.689   3.575   6.536 -1.3945 -0.1090  1.6769
 9407SOL    HW239681   2.676   3.648   6.660 -0.4001 -0.5550  0.0813
 9408SOL     OW39682   4.636   1.317   1.925 -0.1881  0.4400  0.2158
 9408SOL    HW139683   4.579   1.250   1.886  1.2807 -1.0168  0.5607
 9408SOL    HW239684   4.723   1.279   1.917 -0.6350 -0.4242 -0.6501
 9409SOL     OW39685   1.081   1.841   3.546 -0.0103  0.8953  0.0987
 9409SOL    HW139686   1.028   1.920   3.543 -2.2037 -0.6225 -1.1052
 9409SOL    HW239687   1.147   1.869   3.609  2.4021 -1.8290 -1.1690
 9410SOL     OW39688   0.391   3.745  13.262  0.5305  0.2849  0.1853
 9410SOL    HW139689   0.411   3.724  13.353  1.3448 -2.3257 -0.6005
 9410SOL    HW239690   0.302   3.708  13.256  0.2810  0.7368  1.0709
 9411SOL     OW39691   3.333   3.781   7.427 -0.1735  0.7592 -0.1378
 9411SOL    HW139692   3.319   3.870   7.458  0.7942  0.9624 -0.2787
 9411SOL    HW239693   3.357   3.785   7.335 -0.2862 -0.4002 -0.2188
 9412SOL     OW39694   4.675   4.117   5.333  0.0578  0.3037 -0.7799
 9412SOL    HW139695   4.580   4.127   5.331 -0.0258  0.1814  1.7460
 9412SOL    HW239696   4.699   4.171   5.408  0.4505  0.4807 -1.0333
 9413SOL     OW39697   4.345   3.352   1.493 -0.4704 -0.4228  0.2286
 9413SOL    HW139698   4.373   3.430   1.540  0.0890 -1.5490  1.7635
 9413SOL    HW239699   4.427   3.311   1.466  0.7618  0.2676  2.9242
 9414SOL     OW39700   2.995   3.276  10.041 -0.1883 -0.3732 -0.3648
 9414SOL    HW139701   3.033   3.334  10.106 -1.9668 -0.6281  0.9162
 9414SOL    HW239702   2.905   3.287  10.071 -0.1981  1.1008 -0.9658
 9415SOL     OW39703   2.391   3.908   7.128  0.6356  0.9406 -0.0641
 9415SOL    HW139704   2.414   3.924   7.036 -0.5158 -0.1486 -0.5451
 9415SOL    HW239705   2.309   3.957   7.133 -1.1227 -2.0793  0.4952
 9416SOL     OW39706   2.016   4.228  11.272 -0.3311  0.5150 -0.5475
 9416SOL    HW139707   2.076   4.153  11.271 -0.2829  0.5393  1.1427
 9416SOL    HW239708   1.939   4.191  11.315 -0.8582  0.0409 -1.9069
 9417SOL     OW39709   1.310   0.037  11.907 -0.1131  0.0225 -0.5381
 9417SOL    HW139710   1.278   4.710  11.980  2.9782  0.1473  0.9020
 9417SOL    HW239711   1.233   0.040  11.851  0.2866  0.4728 -1.0529
 9418SOL     OW39712   1.730   2.535   0.327 -0.3475 -0.0153 -0.3055
 9418SOL    HW139713   1.723   2.627   0.302 -2.2531 -0.2511 -0.6470
 9418SOL    HW239714   1.728   2.547   0.422  1.0487 -0.4307 -0.2168
 9419SOL     OW39715   3.715   0.881   3.218 -0.0088  0.0497  0.0936
 9419SOL    HW139716   3.678   0.949   3.162 -0.0711  0.0959  0.1900
 9419SOL    HW239717   3.740   0.810   3.159  2.4798  2.6946 -2.0485
 9420SOL     OW39718   1.698   0.483  13.368  0.2637  0.1795 -0.2983
 9420SOL    HW139719   1.662   0.566  13.397  2.7500  1.8853 -2.1180
 9420SOL    HW239720   1.677   0.425  13.442  1.7629 -0.1524 -0.1273
 9421SOL     OW39721   3.083   2.556   3.971 -0.2169 -0.3102  0.2385
 9421SOL    HW139722   3.003   2.506   3.985 -0.1870 -0.2914  0.4846
 9421SOL    HW239723   3.141   2.486   3.942  1.0257 -0.7889  3.8957
 9422SOL     OW39724   0.414   1.385   8.462 -0.1883  0.2284  0.0075
 9422SOL    HW139725   0.479   1.405   8.395 -0.5733  1.0934 -0.1114
 9422SOL    HW239726   0.337   1.429   8.425 -0.9029  0.4756  1.7895
 9423SOL     OW39727   3.128   3.729   6.534 -0.0827  0.3605  0.6282
 9423SOL    HW139728   3.170   3.643   6.524  0.7463  0.8161  0.2460
 9423SOL    HW239729   3.096   3.723   6.624  1.6733  1.4318  1.3044
 9424SOL     OW39730   0.371   3.081  16.708 -0.0841 -0.1187  0.2789
 9424SOL    HW139731   0.453   3.032  16.705  0.3263  0.6278 -0.9147
 9424SOL    HW239732   0.349   3.077  16.801  1.4642  0.2293  0.6481
 9425SOL     OW39733   3.761   4.181   2.333  0.0721  0.3453 -0.3296
 9425SOL    HW139734   3.820   4.111   2.307  0.9934  0.6308  1.0041
 9425SOL    HW239735   3.684   4.150   2.284 -1.5435  1.7618  1.2863
 9426SOL     OW39736   2.339   4.413   5.547  0.0233  0.0228 -0.0941
 9426SOL    HW139737   2.337   4.358   5.625 -0.0479  2.2395  1.4523
 9426SOL    HW239738   2.245   4.413   5.526  0.1141 -1.4285 -0.5013
 9427SOL     OW39739   1.513   3.191   1.407  0.4493  0.5755  0.3144
 9427SOL    HW139740   1.538   3.103   1.380 -1.9179  0.3680 -1.2324
 9427SOL    HW239741   1.536   3.250   1.335  0.9248  0.9008  0.7273
 9428SOL     OW39742   3.162   0.923   4.763 -0.3112 -0.0449  0.0736
 9428SOL    HW139743   3.228   0.933   4.694 -0.5458 -1.8285 -0.4095
 9428SOL    HW239744   3.132   0.833   4.752  0.2569 -0.1554 -0.6413
 9429SOL     OW39745   3.777   2.806  13.096 -0.3285 -0.8373  0.4025
 9429SOL    HW139746   3.733   2.843  13.019  0.7424  0.1710  0.2692
 9429SOL    HW239747   3.825   2.884  13.124 -0.3542 -0.7969  0.3353
 9430SOL     OW39748   2.418   1.941   7.065 -0.2546 -0.2152  0.0273
 9430SOL    HW139749   2.396   1.881   7.136  0.2180 -0.1432  0.2316
 9430SOL    HW239750   2.513   1.936   7.071 -0.4473 -1.0695  2.2225
 9431SOL     OW39751   3.104   3.069   1.228 -0.1537 -0.1679  0.3983
 9431SOL    HW139752   3.026   3.026   1.264  0.6703 -2.1159 -0.1839
 9431SOL    HW239753   3.079   3.074   1.136  0.6004 -2.3111  0.0870
 9432SOL     OW39754   0.891   2.180   6.571 -0.1555 -0.3270  0.6120
 9432SOL    HW139755   0.864   2.263   6.531  1.9445  1.1962  2.2851
 9432SOL    HW239756   0.974   2.166   6.526  0.4642  1.7278  1.0992
 9433SOL     OW39757   0.806   4.414   2.090 -0.0612 -0.0690 -0.5192
 9433SOL    HW139758   0.809   4.336   2.035  0.7393 -0.5496  0.2021
 9433SOL    HW239759   0.719   4.452   2.077 -0.8476 -1.8011 -0.2896
 9434SOL     OW39760   2.305   4.019  12.076  0.0729 -0.0074  0.1206
 9434SOL    HW139761   2.237   4.080  12.106 -0.8347 -0.7563 -0.4270
 9434SOL    HW239762   2.380   4.032  12.133 -1.3400 -0.2863  2.0660
 9435SOL     OW39763   1.149   1.856   2.979 -0.1133 -0.4299  0.3440
 9435SOL    HW139764   1.207   1.922   2.942  1.0763 -1.4906  0.3221
 9435SOL    HW239765   1.184   1.852   3.068 -1.7435 -0.9270  0.9569
 9436SOL     OW39766   2.785   4.140  11.313 -0.5653  0.4493  0.1492
 9436SOL    HW139767   2.816   4.187  11.236 -0.5131 -1.7711 -1.1944
 9436SOL    HW239768   2.778   4.046  11.292 -1.5380  0.5303  0.0841
 9437SOL     OW39769   3.532   1.742   4.454 -0.2487 -0.2568 -0.2582
 9437SOL    HW139770   3.514   1.664   4.507 -2.8003  0.9729  0.6895
 9437SOL    HW239771   3.624   1.725   4.436 -0.5158 -0.1635 -1.6671
 9438SOL     OW39772   1.469   0.517   6.244  0.2704 -0.0748 -0.4112
 9438SOL    HW139773   1.419   0.584   6.291  1.3664  1.3422 -1.2655
 9438SOL    HW239774   1.550   0.515   6.295 -0.1251  2.2580  0.3053
 9439SOL     OW39775   3.526   0.403   5.333 -0.3758 -0.1295  0.2928
 9439SOL    HW139776   3.570   0.318   5.341 -1.1682 -0.4430  1.2999
 9439SOL    HW239777   3.469   0.379   5.260 -0.2994 -1.1815  0.5748
 9440SOL     OW39778   4.230   4.003  10.893  0.1352  0.6306 -0.0194
 9440SOL    HW139779   4.294   4.074  10.879  0.2464  0.3336 -1.0693
 9440SOL    HW239780   4.293   3.931  10.888  2.2370  2.4347  0.1562
 9441SOL     OW39781   2.254   1.754   4.452  0.1296  0.1413 -0.1994
 9441SOL    HW139782   2.186   1.820   4.466 -0.4890  0.2029 -3.4605
 9441SOL    HW239783   2.219   1.685   4.396  1.1022  1.2821 -2.2267
 9442SOL     OW39784   3.689   0.531   0.685  0.2798 -0.5516  0.0364
 9442SOL    HW139785   3.637   0.567   0.613  0.5067  1.5989  0.9373
 9442SOL    HW239786   3.779   0.550   0.657 -0.0968 -1.6532 -1.9186
 9443SOL     OW39787   0.871   4.524  10.641  0.0037 -0.0378  0.4260
 9443SOL    HW139788   0.927   4.482  10.706  1.6470  3.8550  1.5146
 9443SOL    HW239789   0.805   4.551  10.705  1.5915  3.5612  0.5458
 9444SOL     OW39790   2.148   0.381  17.181 -0.4769 -0.0204 -0.2533
 9444SOL    HW139791   2.089   0.372  17.106 -0.1814 -0.7282 -0.3961
 9444SOL    HW239792   2.211   0.451  17.162  0.7517 -1.3900 -1.2034
 9445SOL     OW39793   1.039   3.829   4.515 -0.0034 -0.3527  0.5066
 9445SOL    HW139794   0.951   3.857   4.489  0.3647  0.3103 -0.0277
 9445SOL    HW239795   1.093   3.892   4.467 -0.6983  1.3516  1.9415
 9446SOL     OW39796   0.950   4.393  11.129  0.5907  0.4025  0.1268
 9446SOL    HW139797   0.936   4.379  11.223  1.4791  0.9929  0.3483
 9446SOL    HW239798   1.023   4.335  11.108 -0.3698 -0.3644 -1.1174
 9447SOL     OW39799   3.667   2.103   7.909  0.1524  0.1461  0.4064
 9447SOL    HW139800   3.611   2.046   7.961  0.5674 -1.2117 -0.6499
 9447SOL    HW239801   3.623   2.188   7.919 -2.3399 -1.1460  0.3533
 9448SOL     OW39802   4.505   2.633   5.961  0.2408  0.7838 -0.5010
 9448SOL    HW139803   4.588   2.663   5.999 -0.6322 -0.1962  2.1614
 9448SOL    HW239804   4.490   2.552   6.009  0.5250  0.3971 -1.0594
 9449SOL     OW39805   3.884   2.869   2.359 -0.1419  0.0833 -0.1656
 9449SOL    HW139806   3.888   2.852   2.453 -1.1945  2.3612  0.2903
 9449SOL    HW239807   3.978   2.871   2.339  0.3147 -0.7837  1.9439
 9450SOL     OW39808   4.409   1.830   4.648  0.4527  0.1922 -0.4496
 9450SOL    HW139809   4.426   1.740   4.620  0.2348  0.3989 -1.2345
 9450SOL    HW239810   4.349   1.864   4.582 -0.5961  1.8991  1.3650
 9451SOL     OW39811   1.842   3.897   6.637  0.2617 -0.3999  0.2331
 9451SOL    HW139812   1.923   3.874   6.590  1.0285  1.5602  0.5980
 9451SOL    HW239813   1.805   3.960   6.576 -0.6055 -0.7104  0.4415
 9452SOL     OW39814   0.304   1.388  15.384  0.3395  0.2001  0.1204
 9452SOL    HW139815   0.350   1.467  15.412  1.7831 -0.4810 -0.3299
 9452SOL    HW239816   0.240   1.423  15.322 -0.6841 -1.5622  0.1687
 9453SOL     OW39817   3.126   3.630   7.538 -0.0294 -0.0180  0.4111
 9453SOL    HW139818   3.175   3.702   7.499 -0.1981  0.4959  1.1361
 9453SOL    HW239819   3.041   3.651   7.500  0.2551  0.9069  0.2837
 9454SOL     OW39820   3.773   3.253  14.674 -1.1080  0.0494 -0.2177
 9454SOL    HW139821   3.851   3.197  14.671 -1.6511 -0.5417 -3.3528
 9454SOL    HW239822   3.725   3.197  14.735 -2.2220  0.5017 -0.6899
 9455SOL     OW39823   1.878   1.854   3.317  0.7275  0.4804  0.0730
 9455SOL    HW139824   1.918   1.909   3.250  0.6497 -1.6472 -1.6894
 9455SOL    HW239825   1.788   1.859   3.285  1.0512  0.5506 -0.8267
 9456SOL     OW39826   4.293   3.256   1.159  0.3470  0.1359 -0.2102
 9456SOL    HW139827   4.237   3.324   1.121 -1.4386 -0.9950  0.3694
 9456SOL    HW239828   4.352   3.302   1.218 -0.9112 -0.6902  1.6703
 9457SOL     OW39829   2.246   3.123   8.201  0.1124  0.3723 -0.2391
 9457SOL    HW139830   2.278   3.059   8.264 -1.3372 -1.3384 -1.2616
 9457SOL    HW239831   2.200   3.181   8.262 -0.3052 -0.1424 -0.0635
 9458SOL     OW39832   4.664   2.253   8.958 -0.2233 -0.0323  0.3803
 9458SOL    HW139833   4.707   2.335   8.938  1.4452 -0.5317  1.9538
 9458SOL    HW239834   4.712   2.205   9.026  0.4270  1.3600  0.8834
 9459SOL     OW39835   3.233   3.579  10.552  0.2305  0.3353 -0.4571
 9459SOL    HW139836   3.196   3.492  10.538  0.2102 -0.2665  3.2834
 9459SOL    HW239837   3.156   3.621  10.592  0.7819  1.0846 -0.1755
 9460SOL     OW39838   4.014   1.523   6.344  0.2049 -0.5019 -0.7200
 9460SOL    HW139839   3.922   1.528   6.369  0.3208  0.7959 -0.5572
 9460SOL    HW239840   4.023   1.514   6.249  1.2087 -0.5875 -0.6161
 9461SOL     OW39841   1.327   1.474   5.768 -0.4320  0.0404 -0.2559
 9461SOL    HW139842   1.382   1.441   5.840  0.9468 -0.6525 -1.6156
 9461SOL    HW239843   1.383   1.442   5.697 -1.2857  0.2576 -1.0244
 9462SOL     OW39844   4.031   2.094   9.984 -0.2225 -0.6984 -0.1282
 9462SOL    HW139845   3.974   2.017   9.983 -0.3591 -0.5972 -0.1271
 9462SOL    HW239846   4.017   2.128  10.073  1.9789  1.2748 -0.5381
 9463SOL     OW39847   3.897   4.062   6.995  0.3916  0.7659 -0.4687
 9463SOL    HW139848   3.962   3.998   7.025  0.0686  0.2080 -0.9438
 9463SOL    HW239849   3.833   4.046   7.064  3.4052  1.0108  2.3797
 9464SOL     OW39850   2.057   2.291   6.405 -0.4050 -0.6545 -0.0952
 9464SOL    HW139851   2.064   2.387   6.409 -1.6864 -0.5658  0.0099
 9464SOL    HW239852   2.025   2.274   6.493 -0.1178  0.3474  0.2144
 9465SOL     OW39853   1.879   2.425   1.444 -0.2529 -0.4148 -0.3835
 9465SOL    HW139854   1.834   2.433   1.360 -0.4181 -2.0484 -0.4318
 9465SOL    HW239855   1.924   2.510   1.442 -0.4774 -0.2512  1.3505
 9466SOL     OW39856   3.355   1.857   4.246 -0.2311  0.2227 -0.2384
 9466SOL    HW139857   3.412   1.841   4.321 -0.8032  2.7882  0.7712
 9466SOL    HW239858   3.281   1.799   4.260  2.2186 -2.7803  0.2153
 9467SOL     OW39859   1.164   1.803   3.272  0.5230  0.5147 -0.2126
 9467SOL    HW139860   1.234   1.739   3.281  1.5015  1.5076 -0.7091
 9467SOL    HW239861   1.150   1.836   3.361 -2.4866 -2.0748  0.2717
 9468SOL     OW39862   2.213   3.509   4.811  0.1871  0.4172  0.4774
 9468SOL    HW139863   2.297   3.514   4.855 -0.5605 -2.3874  2.2459
 9468SOL    HW239864   2.221   3.582   4.749  0.5688  0.1345  0.1875
 9469SOL     OW39865   2.527   2.850   5.106 -0.1840 -0.2372  0.0213
 9469SOL    HW139866   2.581   2.914   5.060 -2.5989  1.5919 -0.3035
 9469SOL    HW239867   2.574   2.777   5.067  0.6745  0.3545 -0.0593
 9470SOL     OW39868   2.083   3.497   7.682 -0.3626 -0.5519  0.3236
 9470SOL    HW139869   2.138   3.463   7.752  1.7130  2.7625  0.3367
 9470SOL    HW239870   2.145   3.533   7.618 -0.7718 -2.2730 -1.0400
 9471SOL     OW39871   3.111   3.649   8.747 -0.5287 -0.1891  0.5160
 9471SOL    HW139872   3.053   3.628   8.674 -1.0542  1.6942  0.3810
 9471SOL    HW239873   3.114   3.744   8.756 -1.6224 -0.0475 -0.5878
 9472SOL     OW39874   0.850   0.084   8.424  0.2117 -0.0743  0.2591
 9472SOL    HW139875   0.791   0.157   8.406 -0.3255 -0.6181 -0.1795
 9472SOL    HW239876   0.787   0.014   8.441 -0.8364  0.5234 -1.1650
 9473SOL     OW39877   2.291   3.633   1.799  0.0172 -0.0273 -0.1841
 9473SOL    HW139878   2.279   3.640   1.705  0.5704 -1.9037 -0.3885
 9473SOL    HW239879   2.232   3.702   1.828 -0.7466 -1.3334  1.4018
 9474SOL     OW39880   1.812   2.025   1.942  0.3728  0.8094 -0.1871
 9474SOL    HW139881   1.792   1.931   1.947 -0.2995  0.9292 -0.6775
 9474SOL    HW239882   1.906   2.012   1.952  0.1273 -1.2858 -0.5340
 9475SOL     OW39883   3.417   2.253   7.977 -0.7781  0.3573 -0.4382
 9475SOL    HW139884   3.434   2.316   8.047 -1.9625 -0.2369  0.3891
 9475SOL    HW239885   3.361   2.186   8.017  1.2384 -0.9128  0.2055
 9476SOL     OW39886   1.402   0.352   4.677  0.4653  0.2240  0.1735
 9476SOL    HW139887   1.483   0.395   4.651  0.6817  1.2996  2.6300
 9476SOL    HW239888   1.347   0.424   4.649  0.1585  0.0329  0.2879
 9477SOL     OW39889   3.902   2.152   7.785  0.4132  0.1688 -0.0748
 9477SOL    HW139890   3.870   2.122   7.700  1.8821  1.5711 -1.1273
 9477SOL    HW239891   3.829   2.128   7.842  0.5491  0.7745  0.3580
 9478SOL     OW39892   0.527   1.446   7.313  0.4415  0.2012 -0.4599
 9478SOL    HW139893   0.598   1.479   7.368  0.1733 -0.8136  0.4991
 9478SOL    HW239894   0.575   1.449   7.230 -0.6753 -2.4964 -1.1952
 9479SOL     OW39895   4.096   1.537   4.557 -0.1185 -0.1035  0.2110
 9479SOL    HW139896   4.020   1.533   4.615 -1.0092  0.3343 -0.9167
 9479SOL    HW239897   4.070   1.609   4.500  0.6868  0.9749  1.2134
 9480SOL     OW39898   1.906   3.933   3.422 -0.4952 -0.1010 -0.1488
 9480SOL    HW139899   1.879   3.860   3.478  0.0682  1.1512  1.7402
 9480SOL    HW239900   1.941   3.901   3.339  3.3947  1.6071  0.8346
 9481SOL     OW39901   3.954   3.211   8.315  0.0149 -0.3264 -0.0748
 9481SOL    HW139902   4.021   3.259   8.265 -0.4230  0.8980  0.4916
 9481SOL    HW239903   3.876   3.256   8.283  0.4793  0.0158 -0.7342
 9482SOL     OW39904   2.576   2.798   7.522 -0.4140  0.4056 -0.0216
 9482SOL    HW139905   2.641   2.736   7.489  0.6963  1.4466  0.1920
 9482SOL    HW239906   2.500   2.746   7.547  0.5786 -0.9987  0.1003
 9483SOL     OW39907   0.622   0.224   4.133 -0.6947 -0.2995 -0.1744
 9483SOL    HW139908   0.669   0.266   4.061 -0.0719 -0.4815  0.1254
 9483SOL    HW239909   0.565   0.159   4.093 -3.2656  1.2222  0.9786
 9484SOL     OW39910   0.694   3.504  12.207  0.2089  0.3361 -0.6680
 9484SOL    HW139911   0.677   3.586  12.253  2.3435 -0.2216  1.1193
 9484SOL    HW239912   0.755   3.465  12.270 -0.3982  0.7700  0.1803
 9485SOL     OW39913   3.895   2.954   8.385  0.1973  0.2337  0.5493
 9485SOL    HW139914   3.839   2.952   8.463 -1.0433 -0.1091 -0.3651
 9485SOL    HW239915   3.891   3.046   8.360  2.3921  0.1701 -0.0962
 9486SOL     OW39916   0.444   3.648   7.699 -0.4118  0.0339 -0.0406
 9486SOL    HW139917   0.522   3.700   7.680 -0.6445  1.3135  2.5238
 9486SOL    HW239918   0.482   3.560   7.713 -3.0531 -0.9737  0.7030
 9487SOL     OW39919   3.133   0.331   3.481 -0.2803  0.4437  0.5245
 9487SOL    HW139920   3.208   0.274   3.459 -1.3350 -0.0509 -1.8180
 9487SOL    HW239921   3.132   0.364   3.391 -0.1342 -0.6651  0.1094
 9488SOL     OW39922   2.781   0.157   2.939  0.6229 -0.5320  0.5101
 9488SOL    HW139923   2.720   0.227   2.917  1.8714 -0.0355 -1.4060
 9488SOL    HW239924   2.729   0.086   2.976  0.7544 -1.2575 -0.7016
 9489SOL     OW39925   2.417   0.644  10.975 -0.0654  0.2999 -0.3290
 9489SOL    HW139926   2.477   0.698  11.026  1.6844  1.8477 -4.0437
 9489SOL    HW239927   2.373   0.708  10.918 -0.8754 -0.4245 -0.5073
 9490SOL     OW39928   0.711   1.302   7.934 -0.5248  0.2278 -0.1159
 9490SOL    HW139929   0.782   1.366   7.934 -1.7375  1.5807  0.4499
 9490SOL    HW239930   0.758   1.220   7.923 -1.3772 -0.4041  0.9314
 9491SOL     OW39931   4.705   2.204   6.416  0.1509  0.4291 -0.5955
 9491SOL    HW139932   4.648   2.136   6.453  3.0120 -1.2158  0.8553
 9491SOL    HW239933   0.060   2.178   6.460 -0.8853  1.6350  2.0442
 9492SOL     OW39934   0.145   0.807   6.958  1.2889  0.6542 -0.6306
 9492SOL    HW139935   0.095   0.728   6.980  1.0574  0.4887 -1.7581
 9492SOL    HW239936   0.168   0.801   6.865 -0.5798 -2.7916 -0.8572
 9493SOL     OW39937   1.431   0.617   6.798 -0.9359  0.5818  0.1669
 9493SOL    HW139938   1.509   0.672   6.791 -0.1917 -0.2885  1.5682
 9493SOL    HW239939   1.468   0.549   6.855  1.8945  3.1663  1.4213
 9494SOL     OW39940   3.721   1.978  15.045 -0.1223  0.1432  0.1951
 9494SOL    HW139941   3.757   1.931  14.969  2.1950  1.7602  0.2970
 9494SOL    HW239942   3.734   1.912  15.113 -1.3889  0.5069  0.7978
 9495SOL     OW39943   3.630   1.410   4.365 -0.5118 -0.6661  0.2107
 9495SOL    HW139944   3.643   1.351   4.291 -4.2306  0.0614 -1.0307
 9495SOL    HW239945   3.652   1.495   4.326  0.7347 -1.1163 -0.0434
 9496SOL     OW39946   1.086   4.586   6.378  0.0504 -0.9644  0.3604
 9496SOL    HW139947   1.005   4.630   6.353  0.7849 -0.5856 -1.4243
 9496SOL    HW239948   1.116   4.559   6.291  0.4082 -0.7931  0.4312
 9497SOL     OW39949   1.768   0.496   3.187 -0.1120  0.5937  0.2343
 9497SOL    HW139950   1.726   0.573   3.150 -0.4565  1.0157  1.5008
 9497SOL    HW239951   1.778   0.428   3.121  1.2098  0.6576  0.3591
 9498SOL     OW39952   0.552   4.520   1.996  0.2047  0.3304  0.2946
 9498SOL    HW139953   0.513   4.545   1.912  0.7965 -1.0589 -0.3892
 9498SOL    HW239954   0.573   4.430   1.971  1.6105  0.3827  1.2734
 9499SOL     OW39955   4.525   2.837   2.652  0.2488 -0.1509  0.6581
 9499SOL    HW139956   4.504   2.872   2.739  2.6156  1.3376  0.6175
 9499SOL    HW239957   4.449   2.781   2.636 -1.3342  2.2618 -0.1493
 9500SOL     OW39958   2.094   3.008  15.663  0.9651 -0.1657  0.8158
 9500SOL    HW139959   2.036   2.967  15.727  1.2567 -1.3906  0.2861
 9500SOL    HW239960   2.100   3.098  15.694 -2.4136  0.8029 -1.3535
 9501SOL     OW39961   2.532   0.557   7.081 -0.3722  0.6505  0.9395
 9501SOL    HW139962   2.483   0.549   6.999 -0.3164  0.9648  0.8740
 9501SOL    HW239963   2.497   0.644   7.101  0.9083  2.1058 -3.0456
 9502SOL     OW39964   1.003   0.010   7.906 -1.1660 -0.1319  0.8392
 9502SOL    HW139965   0.938   0.077   7.928  0.7213  1.6803  0.9930
 9502SOL    HW239966   1.069   0.073   7.875 -0.0877 -2.3031 -1.2815
 9503SOL     OW39967   0.892   0.955   3.729  0.5350  0.3511 -0.3795
 9503SOL    HW139968   0.935   0.871   3.716  0.4611  0.4663 -1.3907
 9503SOL    HW239969   0.821   0.930   3.788  2.5230  0.8522  2.2481
 9504SOL     OW39970   3.423   2.357   6.860  0.5821  0.3374 -0.2042
 9504SOL    HW139971   3.350   2.357   6.922 -0.2689  1.3524 -1.2033
 9504SOL    HW239972   3.453   2.268   6.881  0.3145  0.3328  0.1689
 9505SOL     OW39973   0.493   0.992  11.682 -0.2793  0.3750 -0.2285
 9505SOL    HW139974   0.555   1.065  11.686 -2.2062  1.9825  0.7787
 9505SOL    HW239975   0.529   0.944  11.757 -0.7990 -1.1259 -0.9433
 9506SOL     OW39976   1.546   0.236   9.923 -0.4134  0.8643 -0.1753
 9506SOL    HW139977   1.518   0.168   9.862  0.0370 -1.8768  2.6793
 9506SOL    HW239978   1.535   0.314   9.868  1.7917  0.6879 -0.8635
 9507SOL     OW39979   4.289   1.312   5.271  0.5891 -0.8149  0.2521
 9507SOL    HW139980   4.364   1.299   5.213 -0.5124  1.7241 -1.7757
 9507SOL    HW239981   4.311   1.400   5.302 -1.9774  0.2976 -1.0720
 9508SOL     OW39982   3.702   0.116   2.661  0.1403  0.6475 -0.8410
 9508SOL    HW139983   3.665   0.030   2.680  1.0232  0.4970  0.1675
 9508SOL    HW239984   3.715   0.150   2.749 -1.8639 -0.0178 -0.2931
 9509SOL     OW39985   4.493   1.870  15.836  0.1647  0.1496 -0.1236
 9509SOL    HW139986   4.446   1.791  15.811  2.4650 -1.8184  1.7731
 9509SOL    HW239987   4.466   1.862  15.927 -1.8650  0.7130 -0.6777
 9510SOL     OW39988   4.336   1.146  12.399  0.1429  0.3736  0.5015
 9510SOL    HW139989   4.406   1.085  12.376 -0.5269 -0.6080  1.0285
 9510SOL    HW239990   4.277   1.077  12.430 -2.1160  2.4569  0.8725
 9511SOL     OW39991   1.859   0.298   8.175 -0.4908 -0.5939  0.2620
 9511SOL    HW139992   1.931   0.357   8.151 -0.3745 -0.8702 -0.0671
 9511SOL    HW239993   1.862   0.295   8.271 -2.7319  1.1111  0.4001
 9512SOL     OW39994   3.397   0.077   9.226  0.4150  0.4564  0.1928
 9512SOL    HW139995   3.483   0.075   9.269  1.2743 -0.6233 -1.6119
 9512SOL    HW239996   3.432   0.085   9.138 -2.0059 -1.6608 -0.9644
 9513SOL     OW39997   3.698   4.531   8.154 -0.0668  0.0959 -0.0104
 9513SOL    HW139998   3.677   4.621   8.178 -0.4612 -0.3793  1.3840
 9513SOL    HW239999   3.777   4.517   8.205  1.2459  2.6152 -1.3379
 9514SOL     OW40000   4.449   4.062  13.636 -0.3580 -0.0017 -0.0682
 9514SOL    HW140001   4.510   4.007  13.588  2.7124  2.6653  0.8010
 9514SOL    HW240002   4.405   3.989  13.680 -1.6990  2.3964  2.5816
 9515SOL     OW40003   4.499   2.796  14.663 -0.4286 -0.2118 -0.7085
 9515SOL    HW140004   4.482   2.887  14.640  0.1770  0.4262  1.3674
 9515SOL    HW240005   4.583   2.776  14.622 -1.0883 -0.7479 -1.7952
 9516SOL     OW40006   4.380   3.347   0.133  0.4742 -0.2193  0.6706
 9516SOL    HW140007   4.399   3.384   0.047  2.3498 -0.7864  0.8389
 9516SOL    HW240008   4.301   3.395   0.158  0.6751  0.0604  0.7689
 9517SOL     OW40009   3.877   3.196   2.923 -0.1818 -1.1296  0.2045
 9517SOL    HW140010   3.794   3.163   2.957 -0.0811  0.8632  2.4123
 9517SOL    HW240011   3.844   3.241   2.845  0.4031 -0.8684  0.1028
 9518SOL     OW40012   0.223   2.330   2.527 -0.1424  0.4554  0.1211
 9518SOL    HW140013   0.179   2.284   2.455 -0.8161  1.3749 -0.0625
 9518SOL    HW240014   0.157   2.392   2.558 -0.5392  0.2069 -0.2307
 9519SOL     OW40015   0.431   4.362   4.027  0.3230  0.0665 -0.1641
 9519SOL    HW140016   0.415   4.424   4.099 -1.9637 -1.1349  0.3354
 9519SOL    HW240017   0.521   4.393   4.013 -0.0041  0.3470 -1.5989
 9520SOL     OW40018   1.649   4.716  15.616 -0.2922  0.3397 -0.0815
 9520SOL    HW140019   1.561   0.013  15.646 -0.5875 -1.8212  0.6944
 9520SOL    HW240020   1.699   4.720  15.698  1.3350 -0.8016 -1.0141
 9521SOL     OW40021   0.042   3.746  11.351 -0.3177 -0.0248 -0.3208
 9521SOL    HW140022   0.072   3.833  11.378  0.7880  0.3320 -2.6468
 9521SOL    HW240023   0.114   3.690  11.382 -0.1403 -1.0826 -2.6559
 9522SOL     OW40024   2.576   2.058   3.534  0.4700  0.0936 -0.3439
 9522SOL    HW140025   2.605   1.976   3.495 -0.8996  0.2270 -1.6515
 9522SOL    HW240026   2.533   2.034   3.615  0.9377  1.1172  0.2153
 9523SOL     OW40027   1.520   2.493   6.797 -0.1897  0.0132  0.0226
 9523SOL    HW140028   1.482   2.580   6.787  1.0928  0.3936 -1.5190
 9523SOL    HW240029   1.467   2.447   6.731 -0.0216 -1.4281  0.8901
 9524SOL     OW40030   3.706   3.699   8.218 -0.3269 -0.3475  0.0984
 9524SOL    HW140031   3.632   3.670   8.271 -0.4194 -0.3460 -0.0311
 9524SOL    HW240032   3.662   3.757   8.157  0.9636 -1.8182 -2.2203
 9525SOL     OW40033   0.743   4.702   2.354 -0.4787 -0.4455 -0.2738
 9525SOL    HW140034   0.758   0.060   2.397 -1.8019  0.0354 -0.7280
 9525SOL    HW240035   0.689   4.725   2.278 -1.7988  1.4217  1.2110
 9526SOL     OW40036   3.216   0.467   4.639  0.0179  0.6019  0.4114
 9526SOL    HW140037   3.230   0.375   4.615 -1.4511 -0.0876  2.1596
 9526SOL    HW240038   3.262   0.508   4.565  0.0556 -1.9043 -0.9608
 9527SOL     OW40039   0.826   2.981   2.931  0.3894  0.5615  0.0161
 9527SOL    HW140040   0.735   2.969   2.958  0.8294 -1.9539  0.3653
 9527SOL    HW240041   0.863   2.897   2.906 -0.6493  0.3178 -0.7005
 9528SOL     OW40042   4.204   3.163   3.799  0.1384  0.2043  0.2080
 9528SOL    HW140043   4.283   3.218   3.795  1.0058 -1.0749 -0.4671
 9528SOL    HW240044   4.222   3.089   3.741 -1.3712 -0.0471  0.0692
 9529SOL     OW40045   3.034   3.396  12.864 -0.8951  0.3147  0.0659
 9529SOL    HW140046   3.046   3.429  12.775  1.0723 -2.2064 -0.5746
 9529SOL    HW240047   3.103   3.333  12.880 -0.8259  0.3743  0.0009
 9530SOL     OW40048   2.886   1.593   0.616 -0.1389 -0.4557 -0.4553
 9530SOL    HW140049   2.962   1.548   0.578 -0.1325 -0.7113 -0.1508
 9530SOL    HW240050   2.883   1.537   0.694 -0.8268 -0.3609 -0.4204
 9531SOL     OW40051   2.634   4.358   1.388 -0.0817  0.3694 -0.6796
 9531SOL    HW140052   2.570   4.426   1.410  0.5673  1.2197 -1.4322
 9531SOL    HW240053   2.589   4.277   1.413 -0.5509  0.9181  0.2633
 9532SOL     OW40054   0.338   0.808   0.629  0.3478 -0.8418 -0.5276
 9532SOL    HW140055   0.407   0.808   0.695 -0.3584 -1.8131  0.2165
 9532SOL    HW240056   0.304   0.719   0.637 -1.7268 -0.0258 -0.1920
 9533SOL     OW40057   0.257   3.545   8.635 -0.3075 -0.8717 -0.4472
 9533SOL    HW140058   0.297   3.565   8.551  0.2145 -0.3176 -0.0688
 9533SOL    HW240059   0.165   3.561   8.616 -0.2429 -0.7642 -0.6704
 9534SOL     OW40060   4.535   3.256   3.015  0.3556  0.2896  0.0231
 9534SOL    HW140061   4.509   3.208   3.094 -2.1593  2.9721  0.7957
 9534SOL    HW240062   4.452   3.290   2.982  0.7037  0.7178 -0.4120
 9535SOL     OW40063   3.975   2.234   4.889  0.1290 -0.0573 -0.3047
 9535SOL    HW140064   3.948   2.247   4.798  0.3274 -0.8475 -0.4708
 9535SOL    HW240065   4.052   2.178   4.896 -0.0207  0.0909  2.4675
 9536SOL     OW40066   1.311   1.060   9.576 -0.5653 -0.3749  0.0467
 9536SOL    HW140067   1.354   1.144   9.559 -1.5413 -0.5348 -3.2139
 9536SOL    HW240068   1.390   1.007   9.587  0.7625  1.4740 -0.6125
 9537SOL     OW40069   3.906   2.382  11.717 -0.1207  0.4525 -0.3045
 9537SOL    HW140070   3.946   2.295  11.714 -0.3257  0.2078  3.0806
 9537SOL    HW240071   3.848   2.383  11.641  1.2998  0.2564 -1.3840
 9538SOL     OW40072   3.164   4.465   1.230  0.4130 -0.4282 -0.5419
 9538SOL    HW140073   3.249   4.454   1.187  0.0609  2.3355 -1.9201
 9538SOL    HW240074   3.122   4.385   1.196 -0.3117 -0.4618  0.4516
 9539SOL     OW40075   1.329   2.631   2.119 -0.5008  0.8317  1.2666
 9539SOL    HW140076   1.381   2.704   2.151  1.9067  0.3621 -1.5351
 9539SOL    HW240077   1.324   2.576   2.198 -0.4921 -1.2038 -0.1530
 9540SOL     OW40078   1.910   1.634   2.456  0.3165  0.4488  0.0203
 9540SOL    HW140079   1.925   1.695   2.384  0.2959  0.1962 -0.1977
 9540SOL    HW240080   1.831   1.678   2.487  0.3014  0.0341  0.5735
 9541SOL     OW40081   1.805   3.104   4.165 -0.1254 -0.2241 -0.1298
 9541SOL    HW140082   1.721   3.107   4.119  0.1558 -0.0249 -0.6253
 9541SOL    HW240083   1.785   3.027   4.218 -0.6318  1.3381  1.9510
 9542SOL     OW40084   1.224   1.458   9.259  0.2936  0.1655 -0.0534
 9542SOL    HW140085   1.198   1.433   9.347 -0.0742 -1.0977 -0.5164
 9542SOL    HW240086   1.167   1.535   9.255  0.6443  0.3136 -2.2127
 9543SOL     OW40087   4.604   3.992   7.321 -0.2115  0.1292 -0.2918
 9543SOL    HW140088   4.549   4.069   7.309 -0.2145  0.1820  0.0518
 9543SOL    HW240089   4.685   4.028   7.286  0.1097  0.3910  0.7061
 9544SOL     OW40090   0.779   2.336  10.327  0.3341 -0.0067 -0.0296
 9544SOL    HW140091   0.708   2.359  10.268 -0.1546  1.6023  1.1717
 9544SOL    HW240092   0.746   2.255  10.365 -0.0822  1.5145  2.9379
 9545SOL     OW40093   0.542   3.763  11.000  0.3572  0.0664  0.1599
 9545SOL    HW140094   0.572   3.682  11.040  0.5012 -0.1491 -0.3815
 9545SOL    HW240095   0.601   3.824  11.045 -0.5815  0.8976  0.2625
 9546SOL     OW40096   3.660   1.673   1.856 -0.3220  0.1298 -0.0722
 9546SOL    HW140097   3.630   1.644   1.942  1.5181 -1.6373 -0.0145
 9546SOL    HW240098   3.580   1.640   1.815 -0.3153 -0.7317  0.6090
 9547SOL     OW40099   0.796   2.311   1.974 -0.4285  0.2289  0.2269
 9547SOL    HW140100   0.763   2.400   1.963  1.7066  1.0197  0.1340
 9547SOL    HW240101   0.837   2.288   1.890  0.1074 -0.2437  0.6152
 9548SOL     OW40102   0.442   4.271   3.738 -0.4115 -0.3503 -0.2384
 9548SOL    HW140103   0.369   4.326   3.712  0.2219  0.9282  0.6765
 9548SOL    HW240104   0.436   4.268   3.833 -1.6580 -0.7940 -0.3396
 9549SOL     OW40105   3.389   1.605   1.383  0.1244 -0.4243  0.5536
 9549SOL    HW140106   3.393   1.579   1.475 -1.1192 -1.2011  0.3903
 9549SOL    HW240107   3.473   1.650   1.378  0.0815 -0.5966 -1.7005
 9550SOL     OW40108   0.044   0.785   1.974 -0.4081 -0.1265 -0.2304
 9550SOL    HW140109   0.101   0.774   1.898 -0.0803  0.4396 -0.0681
 9550SOL    HW240110   0.082   0.733   2.045 -2.1549 -0.1715  0.6555
 9551SOL     OW40111   3.471   4.500   4.307  0.4133  0.5187 -0.5237
 9551SOL    HW140112   3.448   4.414   4.341 -1.2963  0.3648 -2.0307
 9551SOL    HW240113   3.388   4.519   4.263  0.8973  0.4940 -1.4505
 9552SOL     OW40114   0.559   1.526   1.955  0.7719 -0.0093  0.3588
 9552SOL    HW140115   0.490   1.548   2.017 -0.0633 -0.9809 -0.2431
 9552SOL    HW240116   0.505   1.505   1.879  1.2831  2.3677 -0.6282
 9553SOL     OW40117   0.200   0.805   7.730  0.5301 -0.0526 -0.1412
 9553SOL    HW140118   0.279   0.794   7.678 -0.2292 -1.0866 -1.0848
 9553SOL    HW240119   0.142   0.862   7.679  0.7183 -0.2750 -0.5970
 9554SOL     OW40120   4.078   1.041   1.163  0.3079 -0.5006  0.1757
 9554SOL    HW140121   4.019   0.975   1.128  0.0494 -0.4232  0.4611
 9554SOL    HW240122   4.118   1.076   1.084  3.3062 -0.5551  1.6643
 9555SOL     OW40123   3.488   3.412   6.445  0.4378  0.1711  0.1817
 9555SOL    HW140124   3.462   3.499   6.414 -1.0773  0.3618  1.9738
 9555SOL    HW240125   3.431   3.386   6.517  0.3013 -2.3166 -0.8221
 9556SOL     OW40126   4.572   0.575  16.921  0.0261  0.3791  0.2736
 9556SOL    HW140127   4.481   0.562  16.950  0.2916  0.7059  1.2484
 9556SOL    HW240128   4.560   0.564  16.827 -0.1535 -0.7947  0.4339
 9557SOL     OW40129   4.370   3.751  15.022 -0.2478  0.1193  0.4502
 9557SOL    HW140130   4.364   3.733  15.116 -1.3655  1.0509  0.5528
 9557SOL    HW240131   4.462   3.731  15.004  0.2970  1.2017  2.0582
 9558SOL     OW40132   2.286   3.649   1.537 -0.1676  0.1379 -0.3934
 9558SOL    HW140133   2.366   3.598   1.527 -0.9025 -1.4244  1.6404
 9558SOL    HW240134   2.222   3.585   1.508 -0.0416  0.3866 -1.2122
 9559SOL     OW40135   3.267   4.432   7.926 -0.2074 -0.2853  0.4286
 9559SOL    HW140136   3.233   4.367   7.987  0.8923 -0.8515  0.4269
 9559SOL    HW240137   3.362   4.428   7.937 -0.2714  2.0895  1.7768
 9560SOL     OW40138   0.386   1.192  16.516  0.2157 -0.5192  0.4727
 9560SOL    HW140139   0.320   1.252  16.482 -1.6638 -2.3939  0.8104
 9560SOL    HW240140   0.327   1.142  16.573 -0.1393 -1.0686 -0.3743
 9561SOL     OW40141   0.095   0.402   0.075 -0.3451 -0.3626 -0.1809
 9561SOL    HW140142   0.024   0.404   0.012 -0.7674 -1.3041  0.2627
 9561SOL    HW240143   0.081   0.316   0.114  1.8958 -0.7466 -0.2249
 9562SOL     OW40144   0.047   1.871   7.574 -0.3560 -0.1977  0.1183
 9562SOL    HW140145   0.080   1.929   7.642 -0.1191  0.8257 -0.8648
 9562SOL    HW240146   4.678   1.878   7.582 -0.2514  0.4636  0.8063
 9563SOL     OW40147   2.297   0.229   4.282 -0.3160 -0.0990  0.3571
 9563SOL    HW140148   2.393   0.235   4.282 -0.3353  0.2643 -0.2444
 9563SOL    HW240149   2.271   0.321   4.292  0.1207 -0.2614  2.8688
 9564SOL     OW40150   2.516   3.889   3.319 -0.6450 -0.3450 -0.5493
 9564SOL    HW140151   2.424   3.895   3.344 -0.0910 -2.2727  1.9101
 9564SOL    HW240152   2.533   3.795   3.315  0.0935 -0.2791  0.9714
 9565SOL     OW40153   0.263   1.630   6.816  0.1147  0.0596  0.4918
 9565SOL    HW140154   0.228   1.630   6.906 -0.6503  0.6110  0.1888
 9565SOL    HW240155   0.347   1.586   6.831  0.3680  0.1697 -0.6323
   4.72620   4.72620  17.70592
