Membrane in water
40155
    1TCq1    O1    1   3.199   3.843  10.498  0.2121 -0.1871 -0.5294
    1TCq1    C1    2   3.103   3.844  10.589  0.3907  0.0692 -0.6105
    1TCq1    O2    3   3.095   3.779  10.692  0.1140  0.5437  0.2292
    1TCq1    C2    4   3.003   3.938  10.546 -0.7285  0.3775  0.5635
    1TCq1    C3    5   3.008   3.988  10.419  0.2289  0.7150 -0.4769
    1TCq1    C4    6   2.947   4.114  10.396 -0.5551  0.2010  0.3547
    1TCq1    C5    7   2.872   4.173  10.495  0.0788 -0.3577  0.2016
    1TCq1    C6    8   2.866   4.114  10.614  0.5940  0.5964 -0.4114
    1TCq1    C7    9   2.926   3.996  10.640  0.6945  0.0705  0.4434
    1TCq1    C8   10   2.780   4.168  10.717  0.1471  1.0751  0.0956
    1TCq1    O4   11   2.816   4.136  10.830  0.7694  0.4686 -0.4214
    1TCq1    C9   12   2.969   4.184  10.269  0.0410 -0.3701  0.5374
    1TCq1    O5   13   2.945   4.308  10.275  0.2363 -0.0951 -0.0453
    1TCq1    O6   14   3.017   4.116  10.177  0.7343  0.2767 -0.5966
    1TCq1    H1   15   3.182   3.912  10.431  2.6405  0.6283 -0.2923
    1TCq1    H2   16   3.057   3.939  10.336  1.7789 -1.0871  1.5294
    1TCq1    H3   17   2.816   4.261  10.469 -0.9451 -0.8416  0.7771
    1TCq1    H4   18   2.923   3.947  10.736  0.8696 -0.6240  0.0998
    2MPD2     C   19   2.368   4.416  10.904 -0.3004 -0.1221 -0.0757
    2MPD2    C1   20   2.477   4.364  10.967 -0.2188  0.1548  0.2300
    2MPD2    C2   21   2.578   4.301  10.895  0.0267 -0.1433 -0.7776
    2MPD2    C3   22   2.578   4.306  10.757 -0.3053 -0.0039  0.2880
    2MPD2    C4   23   2.471   4.363  10.697 -0.1089  0.2062 -0.1156
    2MPD2    C5   24   2.364   4.411  10.769 -0.4005  0.1796 -0.1466
    2MPD2     H   25   2.653   4.236  10.939  0.6277  1.3613  0.4137
    2MPD2    H1   26   2.473   4.370  10.589 -0.7202 -2.8493 -0.3377
    2MPD2    H2   27   2.281   4.462  10.951 -1.6167 -0.8611 -1.8125
    2MPD2    H3   28   2.284   4.459  10.714 -0.9732  0.4197  0.9015
    2MPD2     N   29   2.674   4.249  10.679 -0.5724  0.0634  0.2350
    2MPD2    H5   30   2.662   4.257  10.579 -0.4873 -2.3731  0.0265
    2MPD2    N1   31   2.494   4.368  11.112  0.2346  0.4185 -0.5924
    2MPD2    H7   32   2.580   4.331  11.152  0.4043 -0.3162 -1.6101
    3TCq1    O1   33   2.416   1.228  10.011 -0.8401 -0.5464  0.0760
    3TCq1    C1   34   2.470   1.353   9.993  0.5678  0.7517  0.7419
    3TCq1    O2   35   2.588   1.380   9.983 -0.2603  0.2851 -0.2456
    3TCq1    C2   36   2.372   1.453  10.041 -0.2830 -0.5761  0.7273
    3TCq1    C3   37   2.402   1.582  10.008  0.0270 -0.8853  0.8764
    3TCq1    C4   38   2.317   1.680  10.046 -0.3109 -0.2313 -0.8394
    3TCq1    C5   39   2.214   1.658  10.138  0.0523 -0.3089 -0.5985
    3TCq1    C6   40   2.183   1.521  10.164 -0.2375  0.3825  0.3318
    3TCq1    C7   41   2.259   1.420  10.117  0.2178  0.2643  0.3280
    3TCq1    C8   42   2.073   1.478  10.256 -0.1574  0.0043  0.1865
    3TCq1    O4   43   2.048   1.361  10.256 -0.4627  0.1979  0.1133
    3TCq1    C9   44   2.330   1.805   9.979 -0.4830 -0.2571  0.3742
    3TCq1    O5   45   2.434   1.819   9.916  0.0289 -0.2860  0.3570
    3TCq1    O6   46   2.220   1.860   9.953 -0.2714 -0.0581 -0.0764
    3TCq1    H1   47   2.472   1.147  10.009  0.6880  0.4629  1.6143
    3TCq1    H2   48   2.484   1.595   9.938  0.2688 -0.3080  1.2726
    3TCq1    H3   49   2.153   1.744  10.162  0.5907 -0.2302  0.4695
    3TCq1    H4   50   2.219   1.319  10.110  2.6283 -0.6237 -0.7720
    4MPD2     C   51   1.698   1.558  10.580 -0.2425 -0.5409  0.9206
    4MPD2    C1   52   1.744   1.678  10.541 -0.3739 -0.0910 -0.3886
    4MPD2    C2   53   1.852   1.686  10.454  0.5606 -0.3685  0.0347
    4MPD2    C3   54   1.904   1.573  10.409 -0.3994 -0.1919  0.5030
    4MPD2    C4   55   1.857   1.450  10.448 -0.1145 -0.5435 -0.1611
    4MPD2    C5   56   1.755   1.443  10.535 -0.6352  0.0105  0.4542
    4MPD2     H   57   1.891   1.782  10.420  1.6044 -0.5821  0.6328
    4MPD2    H1   58   1.902   1.357  10.417  2.3377  1.2989 -2.1639
    4MPD2    H2   59   1.627   1.542  10.660 -1.2490  0.2850  0.2012
    4MPD2    H3   60   1.710   1.355  10.579 -1.3068  0.9327  1.6111
    4MPD2     N   61   2.013   1.589  10.317  0.1154  0.7231  0.1290
    4MPD2    H5   62   2.046   1.682  10.295  1.8349 -0.2276 -1.2759
    4MPD2    N1   63   1.685   1.802  10.576  0.6197  0.8551  0.3186
    4MPD2    H7   64   1.721   1.891  10.544  4.5440 -0.6246  0.5739
    5TCq1    O1   65   3.570   2.667  11.271  0.5280  0.4078 -0.2020
    5TCq1    C1   66   3.541   2.567  11.362  0.3134 -0.5358  0.5444
    5TCq1    O2   67   3.601   2.463  11.379  0.3300  0.7679 -0.0960
    5TCq1    C2   68   3.392   2.562  11.372  0.1013 -0.4166  0.4967
    5TCq1    C3   69   3.332   2.527  11.493 -0.4168 -0.4502 -0.0069
    5TCq1    C4   70   3.200   2.530  11.514  0.9734 -0.1413 -0.3702
    5TCq1    C5   71   3.123   2.582  11.410 -0.0070  0.0369 -0.6418
    5TCq1    C6   72   3.176   2.604  11.287 -0.1494  0.0417 -0.2505
    5TCq1    C7   73   3.314   2.596  11.262 -1.2613 -0.4211  0.3249
    5TCq1    C8   74   3.086   2.593  11.171 -0.4471 -0.0021  0.0029
    5TCq1    O4   75   3.158   2.576  11.071 -0.2150 -0.3021 -0.0040
    5TCq1    C9   76   3.162   2.510  11.648 -0.4036 -0.1962 -0.5450
    5TCq1    O5   77   3.045   2.543  11.686  0.0947  0.0217 -0.0200
    5TCq1    O6   78   3.231   2.432  11.719 -0.3169  0.5030 -0.0207
    5TCq1    H1   79   3.507   2.737  11.299  0.1416  0.0734 -0.2324
    5TCq1    H2   80   3.399   2.487  11.569 -1.2478  0.6124  1.2740
    5TCq1    H3   81   3.018   2.593  11.433 -0.1243 -0.5930 -0.8687
    5TCq1    H4   82   3.369   2.613  11.170  0.5508 -0.1628  1.4497
    6MPD2     C   83   2.716   2.665  11.117  0.4629  0.0748  0.0536
    6MPD2    C1   84   2.842   2.603  11.093 -0.4813 -0.9742 -0.0835
    6MPD2    C2   85   2.858   2.539  10.976 -0.1521 -0.2173  0.6929
    6MPD2    C3   86   2.766   2.539  10.874 -0.1790 -0.0839  0.5267
    6MPD2    C4   87   2.649   2.613  10.892  0.5311  0.3437  0.4115
    6MPD2    C5   88   2.627   2.668  11.012 -0.0402 -0.4521 -0.4488
    6MPD2     H   89   2.946   2.477  10.962 -0.2250 -0.4222  1.1524
    6MPD2    H1   90   2.578   2.626  10.811  1.4985  1.8329 -0.1923
    6MPD2    H2   91   2.691   2.724  11.205  0.4137  0.5897 -0.3039
    6MPD2    H3   92   2.536   2.726  11.019 -1.0689 -2.1641  0.3415
    6MPD2     N   93   2.800   2.467  10.745  0.7162 -0.4069 -0.3660
    6MPD2    H5   94   2.888   2.418  10.740  0.9178 -0.0336 -0.5098
    6MPD2    N1   95   2.950   2.619  11.191  0.4651 -0.8067 -0.2977
    6MPD2    H7   96   2.922   2.652  11.283 -1.2455 -3.2327  0.0422
    7TCq1    O1   97   4.431   2.581  12.949  0.0707  0.4065 -0.1376
    7TCq1    C1   98   4.376   2.477  12.884 -0.0721 -0.0275  0.0667
    7TCq1    O2   99   4.345   2.479  12.764 -0.2316  0.1516 -0.1181
    7TCq1    C2  100   4.398   2.358  12.968  0.3424  0.0428 -0.2867
    7TCq1    C3  101   4.304   2.259  12.952 -0.3354  0.6601  0.3697
    7TCq1    C4  102   4.340   2.131  12.978 -0.3754 -0.2184  0.1833
    7TCq1    C5  103   4.467   2.102  13.026  0.0488 -0.4752 -0.2032
    7TCq1    C6  104   4.550   2.204  13.046  0.1317  0.2537 -0.4139
    7TCq1    C7  105   4.526   2.331  13.011 -0.5441  0.0104  0.8630
    7TCq1    C8  106   4.681   2.178  13.110 -0.3041  0.0488  0.4550
    7TCq1    O4  107   4.709   2.065  13.128 -0.3814 -0.4023 -0.0911
    7TCq1    C9  108   4.239   2.028  12.973  0.7867 -0.1398  0.4218
    7TCq1    O5  109   4.278   1.911  12.975  0.7023  0.3192 -0.3316
    7TCq1    O6  110   4.120   2.064  12.942  0.0776  0.4752  0.6030
    7TCq1    H1  111   4.438   2.551  13.042  1.1141  0.2126 -0.2759
    7TCq1    H2  112   4.201   2.289  12.935 -0.6059 -0.2867  0.3542
    7TCq1    H3  113   4.499   2.001  13.049  1.8687  0.1476 -0.0124
    7TCq1    H4  114   4.597   2.412  13.014 -3.0173  2.2554 -0.7166
    8MPD2     C  115   0.394   2.293  13.348 -0.2723  0.3068 -0.1916
    8MPD2    C1  116   0.350   2.173  13.295 -0.1375 -0.0138  0.7022
    8MPD2    C2  117   0.227   2.164  13.234 -0.2317 -0.6266  0.5036
    8MPD2    C3  118   0.143   2.281  13.229  0.0543  0.3294 -0.3703
    8MPD2    C4  119   0.194   2.398  13.281  0.1468  0.4391 -1.0138
    8MPD2    C5  120   0.316   2.403  13.343 -0.6369 -0.3884 -0.0913
    8MPD2     H  121   0.202   2.063  13.202  1.1527 -0.9100  0.3409
    8MPD2    H1  122   0.136   2.489  13.279  1.2668  1.0816 -3.0111
    8MPD2    H2  123   0.482   2.299  13.410 -0.5375  2.4127 -0.0029
    8MPD2    H3  124   0.343   2.505  13.370 -0.2410 -0.9320  1.5689
    8MPD2     N  125   0.013   2.289  13.176  0.3799 -0.3144  0.1245
    8MPD2    H5  126   4.693   2.378  13.191  0.6055 -0.3685  1.1792
    8MPD2    N1  127   0.440   2.066  13.291  0.4246 -0.0793  0.0213
    8MPD2    H7  128   0.528   2.069  13.343 -0.2923 -1.2559  1.3084
    9TCq1    O1  129   3.068   0.530  10.754 -0.1003  0.0163 -0.0895
    9TCq1    C1  130   3.066   0.458  10.639 -0.5035  0.4360 -0.4112
    9TCq1    O2  131   3.163   0.415  10.581  0.0630  0.1955  0.7033
    9TCq1    C2  132   2.929   0.472  10.579  0.8430  0.3002 -0.0048
    9TCq1    C3  133   2.897   0.395  10.473  0.0470 -0.1689  0.3013
    9TCq1    C4  134   2.782   0.420  10.408  0.2278 -0.4714 -0.3547
    9TCq1    C5  135   2.690   0.511  10.449  0.1889  0.6060  0.4826
    9TCq1    C6  136   2.729   0.590  10.546 -0.4871  0.3015  0.3496
    9TCq1    C7  137   2.850   0.583  10.605 -0.1146  0.3714  0.1143
    9TCq1    C8  138   2.619   0.667  10.605 -1.0295  0.1907 -0.5317
    9TCq1    O4  139   2.519   0.693  10.544  0.3214  0.1327 -0.5512
    9TCq1    C9  140   2.747   0.336  10.293  0.0502  1.0975 -0.2168
    9TCq1    O5  141   2.823   0.246  10.260  0.5320  0.0695  0.1817
    9TCq1    O6  142   2.633   0.346  10.247 -0.2129 -0.5173 -0.1473
    9TCq1    H1  143   2.984   0.562  10.792 -0.3400  0.3981 -0.9489
    9TCq1    H2  144   2.967   0.315  10.452  0.6944 -0.1377  2.3745
    9TCq1    H3  145   2.587   0.508  10.414  0.4392  1.4138 -0.3157
    9TCq1    H4  146   2.884   0.659  10.674 -0.8222 -0.0595  0.9391
   10MPD2     C  147   2.489   0.888  10.760 -0.4208 -0.8684 -0.0886
   10MPD2    C1  148   2.560   0.786  10.813 -0.0256  0.2587  0.4396
   10MPD2    C2  149   2.558   0.767  10.948 -0.1797 -1.2733  0.4207
   10MPD2    C3  150   2.481   0.851  11.030  0.4420  0.2351  0.1755
   10MPD2    C4  151   2.410   0.951  10.973 -0.3298  1.1797  0.2060
   10MPD2    C5  152   2.418   0.967  10.842 -0.3612  0.1324  0.2828
   10MPD2     H  153   2.615   0.687  10.992  3.5734  0.4841 -1.2702
   10MPD2    H1  154   2.349   1.021  11.028 -0.6803  0.0129  1.2929
   10MPD2    H2  155   2.490   0.903  10.652 -2.0582 -0.5260 -0.0642
   10MPD2    H3  156   2.367   1.057  10.807 -2.1759 -0.4112  1.5478
   10MPD2     N  157   2.481   0.854  11.176  0.2221  0.4086 -0.1873
   10MPD2    H5  158   2.441   0.935  11.222 -2.2706  0.7121 -2.8702
   10MPD2    N1  159   2.641   0.696  10.735  0.5018  0.0276  0.3578
   10MPD2    H7  160   2.710   0.634  10.777 -0.3027  0.1196  1.7948
   11TCq1    O1  161   4.361   0.779  14.269  0.0319  0.5305  0.1827
   11TCq1    C1  162   4.259   0.692  14.278  0.4406 -0.1784 -0.4118
   11TCq1    O2  163   4.176   0.689  14.370 -0.9616  0.6682  0.1315
   11TCq1    C2  164   4.220   0.671  14.139 -0.4839 -0.5307  0.7744
   11TCq1    C3  165   4.314   0.620  14.050  0.3537  0.5075 -0.4105
   11TCq1    C4  166   4.259   0.560  13.936  0.5151  0.0339  0.1088
   11TCq1    C5  167   4.128   0.560  13.909  0.0117 -0.1675  0.3040
   11TCq1    C6  168   4.037   0.610  14.002  0.0383  0.4782  0.0041
   11TCq1    C7  169   4.085   0.665  14.121 -0.4487 -0.1976 -0.0686
   11TCq1    C8  170   3.893   0.602  13.971  0.2909  0.3825  0.9862
   11TCq1    O4  171   3.818   0.670  14.033 -0.5460 -0.1369  0.3911
   11TCq1    C9  172   4.343   0.496  13.836  0.1918 -0.4770 -1.1019
   11TCq1    O5  173   4.288   0.430  13.742  0.1471 -0.0487  0.1871
   11TCq1    O6  174   4.463   0.488  13.866  0.0120  0.2444  0.5283
   11TCq1    H1  175   4.408   0.792  14.184 -0.6956  3.5153  0.2312
   11TCq1    H2  176   4.420   0.615  14.070  0.3674 -1.0537 -0.8452
   11TCq1    H3  177   4.097   0.525  13.812 -0.8470  0.6671  0.2746
   11TCq1    H4  178   4.018   0.697  14.200 -0.5395  0.7984 -0.5492
   12MPD2     C  179   3.634   0.527  13.863 -0.1489  0.3779  0.8058
   12MPD2    C1  180   3.747   0.455  13.837 -1.0876 -0.5964  0.1612
   12MPD2    C2  181   3.755   0.355  13.747 -1.1000  0.7883 -0.0572
   12MPD2    C3  182   3.638   0.327  13.683  0.7767  0.8714  0.0035
   12MPD2    C4  183   3.520   0.393  13.703  0.4690  0.0282 -0.0618
   12MPD2    C5  184   3.519   0.494  13.794 -0.0947  0.8002  0.8844
   12MPD2     H  185   3.851   0.305  13.744 -1.9870 -0.8181 -1.3943
   12MPD2    H1  186   3.432   0.379  13.642 -0.0493  0.4412  0.5875
   12MPD2    H2  187   3.621   0.596  13.946 -0.5905  1.8915 -0.5208
   12MPD2    H3  188   3.429   0.550  13.816 -1.9675 -0.7966 -2.7567
   12MPD2     N  189   3.634   0.225  13.584  0.1564  0.2048 -0.5575
   12MPD2    H5  190   3.543   0.210  13.543  0.8341 -1.5425 -1.4293
   12MPD2    N1  191   3.871   0.499  13.890 -0.1355  0.0558 -0.4301
   12MPD2    H7  192   3.957   0.453  13.864  0.6259  1.2688 -0.0622
   13TCq1    O1  193   3.150   4.677  11.228  0.3756 -0.2115  0.0051
   13TCq1    C1  194   3.195   0.023  11.331 -0.0564  0.2420  0.1354
   13TCq1    O2  195   3.233   4.700  11.436  0.8663 -0.5347  0.1117
   13TCq1    C2  196   3.155   0.159  11.322  0.9156  0.2502 -0.0207
   13TCq1    C3  197   3.228   0.250  11.395 -0.0764 -0.1653  0.2682
   13TCq1    C4  198   3.201   0.382  11.383  0.0644  0.2198 -0.1450
   13TCq1    C5  199   3.103   0.425  11.297  0.0624  0.4080 -0.4355
   13TCq1    C6  200   3.029   0.330  11.228 -0.0707 -0.4554 -0.5828
   13TCq1    C7  201   3.049   0.199  11.244  0.3412 -0.6077  0.5461
   13TCq1    C8  202   2.922   0.380  11.140 -0.2074  0.7254  0.2539
   13TCq1    O4  203   2.869   0.486  11.161  0.6348  0.0403 -0.8215
   13TCq1    C9  204   3.272   0.480  11.466 -0.7694 -1.0133  0.8977
   13TCq1    O5  205   3.340   0.428  11.559 -0.1697 -0.2653  0.3872
   13TCq1    O6  206   3.219   0.590  11.455 -0.0362 -0.4315 -0.1911
   13TCq1    H1  207   3.136   0.004  11.147  0.4202  3.2040  2.2410
   13TCq1    H2  208   3.312   0.204  11.446 -0.9628 -0.2617  1.6469
   13TCq1    H3  209   3.077   0.530  11.292  2.7554  1.1239  0.6487
   13TCq1    H4  210   2.994   0.132  11.178  0.5158  1.8493 -2.1021
   14MPD2     C  211   2.798   0.255  10.813  0.8714 -0.2327 -0.1249
   14MPD2    C1  212   2.790   0.311  10.940 -0.0800 -0.0150  0.5808
   14MPD2    C2  213   2.678   0.378  10.979  0.0983 -0.9583 -0.1357
   14MPD2    C3  214   2.567   0.376  10.901 -0.5731  0.7013 -0.0679
   14MPD2    C4  215   2.568   0.321  10.772  0.2715 -0.3203 -0.0377
   14MPD2    C5  216   2.688   0.259  10.731  0.5685  0.1403  0.4536
   14MPD2     H  217   2.668   0.422  11.078 -2.1157 -1.6336 -0.0765
   14MPD2    H1  218   2.483   0.316  10.705  0.6252  0.8090 -0.5632
   14MPD2    H2  219   2.885   0.196  10.787  0.5475 -0.7122 -0.1208
   14MPD2    H3  220   2.689   0.204  10.637  3.0652  0.5706  0.2277
   14MPD2     N  221   2.455   0.445  10.965  0.2810 -0.1258  0.5370
   14MPD2    H5  222   2.475   0.485  11.056  0.0127 -1.6711  1.2703
   14MPD2    N1  223   2.899   0.304  11.030  0.0272  0.3938  0.7153
   14MPD2    H7  224   2.981   0.252  10.998 -0.2481  0.8738 -0.7689
   15TCq1    O1  225   4.011   0.381   1.264  0.4258 -1.0937  0.0715
   15TCq1    C1  226   4.024   0.516   1.252 -0.6314  0.8509  0.3365
   15TCq1    O2  227   3.932   0.601   1.247  0.0456  0.2514 -0.7061
   15TCq1    C2  228   4.162   0.560   1.258  0.8360 -0.4715  0.8424
   15TCq1    C3  229   4.210   0.608   1.374  0.3435  0.0903  0.3553
   15TCq1    C4  230   4.342   0.586   1.407 -0.6712  0.4704  0.4598
   15TCq1    C5  231   4.423   0.537   1.314 -0.9346 -0.3602  0.1063
   15TCq1    C6  232   4.378   0.490   1.194  0.1814  0.1293  0.3971
   15TCq1    C7  233   4.248   0.496   1.169 -0.4793 -0.1663 -0.1621
   15TCq1    C8  234   4.464   0.416   1.110 -0.8349 -0.3298  0.5459
   15TCq1    O4  235   4.563   0.374   1.172 -0.2417  0.1950  0.3134
   15TCq1    C9  236   4.393   0.636   1.531 -0.1111  0.0921 -0.5522
   15TCq1    O5  237   4.520   0.654   1.550  0.2757 -0.7414 -0.0583
   15TCq1    O6  238   4.305   0.682   1.610  0.4520  0.2573 -0.1703
   15TCq1    H1  239   4.096   0.342   1.294  0.2655 -0.4137  1.4105
   15TCq1    H2  240   4.141   0.646   1.448 -1.1734 -2.5367  0.3010
   15TCq1    H3  241   4.528   0.521   1.339 -0.7855 -0.5965 -0.6683
   15TCq1    H4  242   4.204   0.459   1.077  0.4170  0.5497 -0.8686
   16MPD2     C  243   4.410   0.270   0.778 -0.2059 -0.3071  0.1513
   16MPD2    C1  244   4.482   0.300   0.892  0.2111  0.6249 -0.0505
   16MPD2    C2  245   4.605   0.241   0.907 -0.9100  0.0855  0.0403
   16MPD2    C3  246   4.650   0.159   0.805 -0.2044 -0.8581  0.1704
   16MPD2    C4  247   4.584   0.153   0.684 -0.8197 -0.4909  0.1180
   16MPD2    C5  248   4.466   0.206   0.672 -0.4332  0.4476  0.6692
   16MPD2     H  249   4.665   0.259   0.996  0.5638  0.7136 -1.0929
   16MPD2    H1  250   4.610   0.089   0.600  0.7257  2.3678 -1.5950
   16MPD2    H2  251   4.311   0.309   0.758 -0.5510 -0.3274  1.8554
   16MPD2    H3  252   4.407   0.196   0.581 -0.0495 -3.1848  0.8437
   16MPD2     N  253   0.057   0.107   0.816  0.8142 -0.6025  0.2517
   16MPD2    H5  254   0.105   0.116   0.905  1.3608 -0.4033 -0.0598
   16MPD2    N1  255   4.420   0.385   0.987  0.5078  0.1373 -0.3804
   16MPD2    H7  256   4.336   0.431   0.953  0.7366  0.6015 -0.3187
   17TCq1    O1  257   2.119   4.332   9.248 -0.0703  0.1964  0.0259
   17TCq1    C1  258   2.200   4.424   9.186 -0.2833 -0.6113  0.9152
   17TCq1    O2  259   2.179   4.459   9.069 -0.0030 -0.4740 -0.2416
   17TCq1    C2  260   2.286   4.491   9.276 -0.1395 -0.1323 -0.3657
   17TCq1    C3  261   2.345   4.612   9.242  0.2392 -0.4474 -0.5596
   17TCq1    C4  262   2.442   4.658   9.321 -0.8427  0.3985  0.5611
   17TCq1    C5  263   2.479   4.596   9.437 -0.0002  0.0431  0.1246
   17TCq1    C6  264   2.426   4.476   9.467 -0.3435  0.5430  0.1431
   17TCq1    C7  265   2.327   4.419   9.386  1.0534  0.1985  0.2600
   17TCq1    C8  266   2.471   4.404   9.584 -0.2061 -0.6728  1.5552
   17TCq1    O4  267   2.424   4.291   9.596  0.5312  0.3335 -0.1235
   17TCq1    C9  268   2.487   0.069   9.301 -0.3550  0.2731  0.1158
   17TCq1    O5  269   2.513   0.133   9.407  0.9365 -0.2082  0.0445
   17TCq1    O6  270   2.535   0.095   9.188  0.0705 -0.4170 -0.2675
   17TCq1    H1  271   2.110   4.330   9.345 -3.6413 -1.6878 -0.3378
   17TCq1    H2  272   2.300   4.687   9.178  2.5192  0.6295 -0.8941
   17TCq1    H3  273   2.548   4.651   9.500  0.2363  0.8863 -0.8636
   17TCq1    H4  274   2.301   4.314   9.400  0.2090  0.7005  2.5096
   18MPD2     C  275   2.582   4.262   9.826 -0.2835 -0.2242 -0.0708
   18MPD2    C1  276   2.639   4.376   9.771  0.3031 -0.6253 -0.3966
   18MPD2    C2  277   2.748   4.438   9.832  0.8466  0.2688  0.4822
   18MPD2    C3  278   2.805   4.361   9.943  0.7740  0.9466 -0.4255
   18MPD2    C4  279   2.740   4.251   9.994  0.0109 -0.5339 -0.4809
   18MPD2    C5  280   2.625   4.207   9.940  0.4623  0.3410  0.0999
   18MPD2     H  281   2.785   4.530   9.789  1.2342 -0.8189 -1.5070
   18MPD2    H1  282   2.779   4.190  10.074  1.8433 -1.4490 -2.0816
   18MPD2    H2  283   2.489   4.218   9.790 -1.5903  1.1399  1.6552
   18MPD2    H3  284   2.577   4.114   9.967  1.2313  0.2090  1.0189
   18MPD2     N  285   2.935   4.387  10.006  0.2143 -0.4089 -0.9223
   18MPD2    H5  286   2.965   4.324  10.079 -1.4855  0.3363  0.4292
   18MPD2    N1  287   2.576   4.448   9.661 -0.2128  0.1484  0.0390
   18MPD2    H7  288   2.617   4.540   9.646  0.5890 -0.2763 -0.4033
   19TMC2    C1  289   4.653   0.685  13.295  0.7301 -0.2409 -0.0034
   19TMC2    C2  290   4.597   0.711  13.168 -0.6628  0.6372  1.0131
   19TMC2    C3  291   4.497   0.631  13.127 -0.2768 -0.0651  0.3057
   19TMC2    C4  292   4.625   0.563  13.355 -0.0825 -0.4559 -0.2628
   19TMC2    C5  293   4.519   0.486  13.306  0.2550  0.4983  0.9221
   19TMC2    C6  294   4.453   0.518  13.195 -0.5674  0.0334 -0.3380
   19TMC2     C  295   0.058   0.747  13.314  0.2971  0.2658  0.3433
   19TMC2     O  296   0.115   0.803  13.221 -0.4783 -0.0290 -0.0132
   19TMC2     H  297   4.626   0.804  13.121 -1.8788 -0.1642 -1.3214
   19TMC2    H1  298   4.679   0.529  13.442  1.6019 -0.9651 -1.5055
   19TMC2    H2  299   4.393   0.446  13.141 -1.6369  1.1797 -0.6646
   19TMC2    C7  300   4.478   0.362  13.370 -0.1303  0.3766 -0.9006
   19TMC2    C8  301   4.435   0.681  13.006  0.8849  0.1337 -0.0951
   19TMC2    O1  302   4.543   0.332  13.472 -0.1299  0.1227  0.0837
   19TMC2    O2  303   4.484   0.762  12.927 -0.1905  0.2362 -0.3977
   19TMC2    O5  304   4.308   0.643  13.002  0.3423  0.2783  0.0433
   19TMC2    H5  305   4.283   0.593  13.082 -0.0025  1.5405  0.7313
   20MPD2     C  306   0.327   0.820  13.437  0.3775 -0.3504  0.2958
   20MPD2    C1  307   0.220   0.760  13.502  0.4058 -0.6588  0.2511
   20MPD2    C2  308   0.234   0.720  13.635 -0.1136 -0.1018  0.7637
   20MPD2    C3  309   0.355   0.737  13.711 -0.3946 -0.0564  0.1074
   20MPD2    C4  310   0.459   0.798  13.643  0.1543  0.2498 -0.1196
   20MPD2    C5  311   0.443   0.835  13.511  0.6305  0.6549 -0.1773
   20MPD2     H  312   0.148   0.674  13.683 -0.7398  1.2858  0.9492
   20MPD2    H1  313   0.554   0.814  13.693 -0.9835  1.5931  1.5960
   20MPD2    H2  314   0.316   0.864  13.338  1.6956 -0.7524 -0.0211
   20MPD2    H3  315   0.529   0.882  13.465  0.6170  0.9603  0.1041
   20MPD2     N  316   0.375   0.695  13.845 -0.0813  0.8324  0.3851
   20MPD2    H5  317   0.467   0.705  13.886  0.1888  1.6055 -0.4152
   20MPD2    N1  318   0.097   0.732  13.449 -0.2912  0.0533 -0.0319
   20MPD2    H7  319   0.024   0.700  13.511 -1.3712  1.3571 -0.6240
   21MPD2     C  320   2.656   1.285  13.921 -0.7791  0.0290  0.1761
   21MPD2    C1  321   2.681   1.179  14.003  0.0669  1.4738 -0.1814
   21MPD2    C2  322   2.571   1.132  14.081 -0.8460  0.3063  0.1344
   21MPD2    C3  323   2.438   1.175  14.063 -0.0797  0.0361 -0.2802
   21MPD2    C4  324   2.425   1.284  13.985  0.0997 -0.1322  0.3781
   21MPD2    C5  325   2.531   1.339  13.917  0.2038 -0.1430  0.0462
   21MPD2     H  326   2.582   1.043  14.143 -1.6231  0.9463  1.1926
   21MPD2    H1  327   2.331   1.337  13.973 -0.0415 -0.3423  0.5768
   21MPD2    H2  328   2.729   1.338  13.861 -0.8491  1.2456  1.1739
   21MPD2    H3  329   2.516   1.431  13.862 -0.6840 -0.7475 -0.7186
   21MPD2     N  330   2.324   1.104  14.100 -0.2384 -0.8487 -0.2409
   21MPD2    H5  331   2.246   1.125  14.038 -0.0922  0.2387 -0.0561
   21MPD2    N1  332   2.802   1.117  14.009 -0.2529 -0.1582 -0.2450
   21MPD2    H7  333   2.811   1.042  14.077  2.8243 -0.4531 -0.9530
   22TCq2    C1  334   2.314   0.992  14.187  0.3477 -0.5555  0.0120
   22TCq2    O2  335   2.401   0.944  14.262  0.3296 -0.1962  0.2632
   22TCq2    C2  336   2.189   0.917  14.178 -0.0600 -0.5895 -0.5549
   22TCq2    C3  337   2.198   0.782  14.195  0.4791 -0.6601  0.4363
   22TCq2    C4  338   2.090   0.711  14.228  0.0477 -0.0268  0.3973
   22TCq2    C5  339   1.970   0.768  14.250 -0.0110 -0.6412  0.2636
   22TCq2    C6  340   1.962   0.898  14.241  0.0544 -0.2085 -0.4057
   22TCq2    C7  341   2.068   0.977  14.204 -0.1880  0.4189  0.1661
   22TCq2    C8  342   1.867   0.968  14.322  0.7681  0.0173  0.7003
   22TCq2    O4  343   1.839   0.916  14.432 -0.1616  0.2359 -0.0680
   22TCq2    C9  344   2.097   0.566  14.261  0.5574 -0.3485  0.4045
   22TCq2    O5  345   1.993   0.503  14.292 -0.8595 -0.4823  0.6110
   22TCq2    O6  346   2.216   0.510  14.263  0.3799 -0.2125  0.5714
   22TCq2    H2  347   2.289   0.731  14.165  0.7886  1.1646 -1.7501
   22TCq2    H3  348   1.886   0.706  14.283 -1.1064  1.4289  1.3390
   22TCq2    H4  349   2.058   1.085  14.213 -0.0979  0.2890  1.8714
   23MPD2     C  350   3.628   1.489  14.156 -0.2713  0.4301  0.0416
   23MPD2    C1  351   3.550   1.567  14.241  0.0031  0.3884  0.1158
   23MPD2    C2  352   3.449   1.640  14.181  0.2555 -0.5223  0.2317
   23MPD2    C3  353   3.426   1.626  14.042  0.2776 -0.5284 -0.0043
   23MPD2    C4  354   3.502   1.545  13.963  0.2213 -0.1368 -0.6030
   23MPD2    C5  355   3.602   1.476  14.022  0.1439  0.1963  0.3890
   23MPD2     H  356   3.411   1.729  14.230 -3.4997 -2.1229  0.2399
   23MPD2    H1  357   3.495   1.541  13.855 -2.2364  0.3645 -0.4545
   23MPD2    H2  358   3.722   1.447  14.190 -1.1972 -1.2977  0.4874
   23MPD2    H3  359   3.661   1.414  13.955 -2.2265  0.1135 -1.5928
   23MPD2     N  360   3.329   1.701  13.975  0.4572  0.1375  0.2545
   23MPD2    H5  361   3.336   1.709  13.874 -3.6106  1.4710  0.0635
   23MPD2    N1  362   3.575   1.586  14.382 -0.0485  0.2071  0.0208
   23MPD2    H7  363   3.512   1.653  14.425  2.6947  2.2558  0.8463
   24TCq2    C1  364   3.229   1.776  14.033  0.7419 -0.4403  0.0574
   24TCq2    O2  365   3.193   1.781  14.151 -0.1497  0.4041 -0.2053
   24TCq2    C2  366   3.159   1.860  13.932 -0.6462  0.3358 -0.7839
   24TCq2    C3  367   3.124   1.984  13.970  0.1386 -0.3494  0.2819
   24TCq2    C4  368   3.021   2.046  13.905  0.4206  0.5031 -0.1856
   24TCq2    C5  369   2.958   1.981  13.795  0.4993  0.1495 -0.8668
   24TCq2    C6  370   2.995   1.852  13.770 -0.4169  0.5598 -0.3485
   24TCq2    C7  371   3.093   1.788  13.838  0.1303 -0.6709  0.2219
   24TCq2    C8  372   2.911   1.761  13.693  0.3246 -0.0526  0.1673
   24TCq2    O4  373   2.959   1.659  13.655 -0.1545  0.0340  0.3664
   24TCq2    C9  374   2.970   2.175  13.942  0.2437 -0.6557  0.5948
   24TCq2    O5  375   3.049   2.249  14.007  0.1751  0.2344  0.1162
   24TCq2    O6  376   2.865   2.216  13.890 -0.3823  0.2568 -0.2683
   24TCq2    H2  377   3.171   2.043  14.047 -0.2891 -0.9172  0.9802
   24TCq2    H3  378   2.885   2.034  13.735 -2.2297 -2.6217 -0.0115
   24TCq2    H4  379   3.114   1.684  13.816  2.5500 -0.3113  0.7911
   25TMC2    C1  380   2.537   3.950  10.727 -0.7227 -0.1730  0.5983
   25TMC2    C2  381   2.626   3.844  10.742  0.5645 -1.6000  0.2289
   25TMC2    C3  382   2.653   3.799  10.869 -0.0361  0.0597  0.3076
   25TMC2    C4  383   2.461   3.995  10.837 -0.4783 -0.2420  0.9403
   25TMC2    C5  384   2.498   3.946  10.958  0.1596  1.2749 -0.4314
   25TMC2    C6  385   2.585   3.845  10.976 -0.5616  0.0868  0.3770
   25TMC2     C  386   2.487   3.976  10.597 -0.4238 -0.1775 -0.1707
   25TMC2     O  387   2.569   3.982  10.506 -0.2683  0.3668 -0.0664
   25TMC2     H  388   2.663   3.792  10.654 -1.6553 -0.8588 -1.1382
   25TMC2    H1  389   2.399   4.082  10.818 -0.2949  0.0106  1.4863
   25TMC2    H2  390   2.602   3.806  11.075 -2.4970 -0.2328  0.5864
   25TMC2    C7  391   2.446   4.013  11.078  0.2852 -0.5323 -0.3631
   25TMC2    C8  392   2.699   3.655  10.876  0.5936  0.8224  0.2156
   25TMC2    O1  393   2.505   3.999  11.188 -0.3648 -0.2344 -0.5408
   25TMC2    O2  394   2.783   3.610  10.798  0.7769  0.2563  0.1150
   25TMC2    O5  395   2.640   3.595  10.980 -0.7651 -0.3290  0.0561
   25TMC2    H5  396   2.602   3.662  11.041  1.4092  0.5783  0.4477
   26MPD2     C  397   2.132   4.010  10.242 -0.5446  0.3420 -0.1965
   26MPD2    C1  398   2.086   3.915  10.334  0.1623  0.5593  0.1462
   26MPD2    C2  399   2.153   3.904  10.458  0.0062 -0.0520  0.2882
   26MPD2    C3  400   2.280   3.967  10.475 -0.4988 -0.1105  0.3171
   26MPD2    C4  401   2.322   4.057  10.381 -1.2831 -0.3835  0.0297
   26MPD2    C5  402   2.247   4.082  10.266 -0.8447 -0.4929  0.0970
   26MPD2     H  403   2.120   3.834  10.534 -0.2585 -1.3323 -1.0032
   26MPD2    H1  404   2.417   4.108  10.389 -1.5680  0.8110 -4.0111
   26MPD2    H2  405   2.072   4.041  10.157 -2.1886  1.7327  1.4794
   26MPD2    H3  406   2.282   4.148  10.188  2.5483 -3.9515 -1.2646
   26MPD2     N  407   2.350   3.962  10.598  0.2508 -0.0947 -0.0080
   26MPD2    H5  408   2.299   3.944  10.683  0.2109  3.4114  0.6878
   26MPD2    N1  409   1.971   3.838  10.302 -0.7332 -0.2228  0.7026
   26MPD2    H7  410   1.934   3.859  10.210 -1.6550 -2.3340  0.5931
   27TMC2    C1  411   1.138   1.481  11.609 -0.1745 -0.8263 -0.5616
   27TMC2    C2  412   1.209   1.459  11.498 -0.0272  0.3137  0.1096
   27TMC2    C3  413   1.227   1.567  11.415  0.3077 -0.3227  0.5200
   27TMC2    C4  414   1.101   1.606  11.653 -0.2325  0.0894 -0.3822
   27TMC2    C5  415   1.122   1.709  11.563 -0.2094 -0.3115 -0.0888
   27TMC2    C6  416   1.189   1.697  11.439  0.6652  0.0536 -0.2904
   27TMC2     C  417   1.100   1.356  11.685 -0.0813  0.2253  0.1952
   27TMC2     O  418   1.176   1.259  11.681 -0.6757  0.1683  0.0646
   27TMC2     H  419   1.224   1.361  11.455  0.1948  0.3631  0.0753
   27TMC2    H1  420   1.031   1.610  11.736  0.0477 -1.6139 -0.0648
   27TMC2    H2  421   1.202   1.782  11.374  0.6295  0.5193  0.3054
   27TMC2    C7  422   1.089   1.844  11.612 -0.9862  0.5845 -0.4742
   27TMC2    C8  423   1.267   1.540  11.275  0.5818  0.4242 -0.6923
   27TMC2    O1  424   1.077   1.938  11.534  0.6511 -0.1375 -0.1520
   27TMC2    O2  425   1.222   1.606  11.180  0.0831 -0.2741 -0.2563
   27TMC2    O5  426   1.374   1.458  11.270  0.4295 -0.2082 -0.6432
   27TMC2    H5  427   1.406   1.431  11.360  1.0137  0.5215 -0.6308
   28MPD2     C  428   0.903   1.139  12.116 -0.0439 -0.0494  0.0175
   28MPD2    C1  429   0.838   1.263  12.094  0.5933 -0.2210  0.0544
   28MPD2    C2  430   0.869   1.332  11.976 -0.0049 -0.1060  1.1567
   28MPD2    C3  431   0.964   1.288  11.884 -0.1740  0.0473  0.1248
   28MPD2    C4  432   1.009   1.157  11.898 -0.1920 -0.1191 -0.4019
   28MPD2    C5  433   0.979   1.087  12.019 -0.9604 -0.5521  0.2653
   28MPD2     H  434   0.837   1.434  11.963 -0.7437 -0.7941 -2.4949
   28MPD2    H1  435   1.077   1.120  11.822 -0.9096  1.4059 -1.7855
   28MPD2    H2  436   0.899   1.094  12.215 -0.9111 -2.3501 -1.0585
   28MPD2    H3  437   1.027   0.991  12.033 -0.5420 -0.2647  0.8344
   28MPD2     N  438   0.997   1.374  11.776 -0.1272  0.1443  0.2800
   28MPD2    H5  439   0.939   1.457  11.779  0.2958  0.4100  1.0623
   28MPD2    N1  440   0.752   1.312  12.192  0.3316  1.0306  0.3500
   28MPD2    H7  441   0.739   1.246  12.268 -0.4130 -0.8266 -1.4111
   29MPD2     C  442   0.615   4.057  13.939  0.3102  0.0835 -0.0420
   29MPD2    C1  443   0.724   4.035  14.026 -0.0901 -0.3965  0.0897
   29MPD2    C2  444   0.789   4.146  14.070  1.1968  0.0150  0.5510
   29MPD2    C3  445   0.737   4.275  14.052 -0.0896  0.4584 -0.5821
   29MPD2    C4  446   0.624   4.296  13.966 -0.2576  0.4331 -0.3215
   29MPD2    C5  447   0.568   4.185  13.907  0.4338  0.2431  0.1238
   29MPD2     H  448   0.874   4.120  14.132  0.9194  0.2628  1.0342
   29MPD2    H1  449   0.586   4.397  13.955 -1.8806 -0.2149 -0.6980
   29MPD2    H2  450   0.561   3.974  13.894 -1.2043  0.9410  0.1976
   29MPD2    H3  451   0.478   4.199  13.848 -1.0299  0.1847  2.3379
   29MPD2     N  452   0.778   4.392  14.121 -0.0724 -0.6493  0.0699
   29MPD2    H5  453   0.738   4.484  14.103 -0.1556 -0.8917 -0.9699
   29MPD2    N1  454   0.751   3.901  14.071  0.3093 -0.0006 -0.5205
   29MPD2    H7  455   0.826   3.882  14.137  2.4138  0.5346 -2.7385
   30TCq2    C1  456   0.892   4.404  14.195 -0.3054 -0.1373 -0.3442
   30TCq2    O2  457   0.985   4.326  14.202 -0.3466  0.7196  0.1333
   30TCq2    C2  458   0.915   4.541  14.247 -0.0318  0.6950  0.0749
   30TCq2    C3  459   0.809   4.623  14.276 -0.0927  0.3359 -0.4855
   30TCq2    C4  460   0.837   0.026  14.329  0.1328  0.0478 -0.0881
   30TCq2    C5  461   0.963   0.060  14.368  0.5318 -0.2025  0.2259
   30TCq2    C6  462   1.063   4.703  14.328 -0.0340  0.4694 -0.2970
   30TCq2    C7  463   1.042   4.580  14.270 -0.5153 -0.6903 -0.2785
   30TCq2    C8  464   1.195   0.033  14.309 -0.0888  0.4600  0.6242
   30TCq2    O4  465   1.248   4.720  14.210 -0.0849 -0.0190  0.0864
   30TCq2    C9  466   0.730   0.126  14.358 -0.1824 -0.1313 -0.1876
   30TCq2    O5  467   0.765   0.219  14.430  0.0093  0.0670 -0.3696
   30TCq2    O6  468   0.610   0.096  14.327  0.0779  0.2953  0.4457
   30TCq2    H2  469   0.707   4.595  14.253 -0.7864  1.9436  0.6188
   30TCq2    H3  470   0.987   0.160  14.403 -1.8976  0.4167  0.1295
   30TCq2    H4  471   1.126   4.511  14.271  0.5735  0.6608  0.8597
   31MPD2     C  472   3.719   3.367  14.504 -0.3992  0.0775  0.4744
   31MPD2    C1  473   3.661   3.266  14.424  0.6883 -0.0254  0.4697
   31MPD2    C2  474   3.681   3.139  14.465  0.3710 -0.3021 -0.1467
   31MPD2    C3  475   3.775   3.113  14.566 -0.4159 -0.8762 -0.4729
   31MPD2    C4  476   3.840   3.210  14.637 -0.5594 -0.4398 -0.0147
   31MPD2    C5  477   3.815   3.339  14.595 -0.5666 -0.3112  0.8530
   31MPD2     H  478   3.636   3.056  14.410 -0.8460 -0.4280  1.0235
   31MPD2    H1  479   3.912   3.196  14.717 -1.3505 -1.4456  0.5213
   31MPD2    H2  480   3.695   3.472  14.494  0.4019  0.3453  1.3110
   31MPD2    H3  481   3.864   3.418  14.651  1.2443 -0.6386 -0.2920
   31MPD2     N  482   3.820   2.986  14.599  0.0992  0.0436 -0.1376
   31MPD2    H5  483   3.907   2.968  14.648  0.1887  3.1408  0.8326
   31MPD2    N1  484   3.585   3.312  14.314 -0.3921  0.0994  0.0770
   31MPD2    H7  485   3.573   3.413  14.309 -1.9883 -0.0775  0.5107
   32TCq2    C1  486   3.756   2.869  14.568  0.7472 -0.1601  0.4445
   32TCq2    O2  487   3.645   2.853  14.515 -0.1489  0.8277 -0.0577
   32TCq2    C2  488   3.826   2.755  14.626 -0.0221  0.0341 -0.4174
   32TCq2    C3  489   3.957   2.737  14.605 -0.7913 -0.2327 -0.2384
   32TCq2    C4  490   4.018   2.646  14.684 -0.3743 -0.3399  0.0220
   32TCq2    C5  491   3.940   2.567  14.766 -0.2698 -0.1281 -0.4989
   32TCq2    C6  492   3.807   2.569  14.766  0.5069 -0.0030 -0.2104
   32TCq2    C7  493   3.745   2.668  14.694 -0.7301 -0.4560 -0.1698
   32TCq2    C8  494   3.737   2.499  14.880 -0.5545 -0.6822  0.2386
   32TCq2    O4  495   3.804   2.438  14.965  0.1390 -0.4040  0.2161
   32TCq2    C9  496   4.160   2.643  14.695  0.5692  0.3352 -0.0731
   32TCq2    O5  497   4.222   2.728  14.626 -0.5846  0.1663  0.7711
   32TCq2    O6  498   4.213   2.551  14.771 -0.3118 -0.1835 -1.0615
   32TCq2    H2  499   3.999   2.797  14.525 -1.2020 -0.0504 -0.3141
   32TCq2    H3  500   3.995   2.491  14.821 -0.4266 -1.1265 -1.7255
   32TCq2    H4  501   3.641   2.699  14.699 -0.3520  0.6327  1.0945
   33MPD2     C  502   3.450   0.306   9.985 -0.6445 -0.5243 -0.0989
   33MPD2    C1  503   3.326   0.249   9.958  0.2909 -0.2262  0.5731
   33MPD2    C2  504   3.243   0.299   9.859  0.6087  0.2646  0.6436
   33MPD2    C3  505   3.279   0.415   9.791 -1.0840 -0.5248  0.4222
   33MPD2    C4  506   3.394   0.473   9.821 -0.5106 -0.5558 -0.5318
   33MPD2    C5  507   3.479   0.424   9.919  0.2857  0.1410 -0.3140
   33MPD2     H  508   3.154   0.239   9.842  2.6701 -2.7314  0.3302
   33MPD2    H1  509   3.425   0.564   9.771 -0.6023 -0.6706 -0.7958
   33MPD2    H2  510   3.518   0.276  10.064 -0.9613 -1.8994 -0.3557
   33MPD2    H3  511   3.567   0.474   9.959  0.5325 -0.7839  0.2895
   33MPD2     N  512   3.210   0.473   9.681  0.2708 -0.5053 -0.0232
   33MPD2    H5  513   3.257   0.553   9.639  1.9418 -1.1221  0.6832
   33MPD2    N1  514   3.278   0.133  10.023  0.1637  0.2964  0.3150
   33MPD2    H7  515   3.182   0.100  10.014  0.6403 -0.5789 -1.4912
   34TCq2    C1  516   3.085   0.431   9.640 -0.1653  0.2331 -0.1242
   34TCq2    O2  517   3.021   0.334   9.675  0.6040 -0.3561  0.3349
   34TCq2    C2  518   3.029   0.487   9.525  0.4945 -0.4149 -0.0515
   34TCq2    C3  519   2.930   0.420   9.456 -0.3796  0.2054  0.1029
   34TCq2    C4  520   2.875   0.475   9.341 -0.3861 -0.9173  0.4113
   34TCq2    C5  521   2.916   0.595   9.297  1.0091  0.1986 -0.4630
   34TCq2    C6  522   3.007   0.663   9.365 -0.1932  0.2522  0.3802
   34TCq2    C7  523   3.074   0.606   9.469  0.2912 -0.1296  0.4541
   34TCq2    C8  524   3.058   0.790   9.316 -0.9637  0.6828 -0.7352
   34TCq2    O4  525   3.163   0.824   9.366  0.0013  0.1833 -0.8466
   34TCq2    C9  526   2.774   0.405   9.269 -0.3365  0.8989  0.1783
   34TCq2    O5  527   2.714   0.455   9.166 -0.1764  1.0568  0.2311
   34TCq2    O6  528   2.728   0.303   9.327  0.2873  0.3054 -0.1361
   34TCq2    H2  529   2.901   0.320   9.485  0.9380  0.5147  2.5019
   34TCq2    H3  530   2.882   0.635   9.203  1.7026 -1.2121 -1.3110
   34TCq2    H4  531   3.135   0.675   9.526  0.4883 -0.7207  0.9517
   35MPD2     C  532   0.159   1.769  11.245 -0.6328  0.3605  0.7943
   35MPD2    C1  533   0.178   1.657  11.322 -0.0015  0.6932  0.0347
   35MPD2    C2  534   0.085   1.559  11.305  0.6596 -0.2757  0.0362
   35MPD2    C3  535   4.700   1.579  11.221  0.1730 -0.2190  0.4893
   35MPD2    C4  536   4.686   1.691  11.138  0.4876  0.0550 -0.1594
   35MPD2    C5  537   0.049   1.794  11.165  0.0907 -0.3123  0.0747
   35MPD2     H  538   0.085   1.460  11.350  0.3010  0.1655  0.9906
   35MPD2    H1  539   4.610   1.708  11.063 -1.0869  0.0471  1.4365
   35MPD2    H2  540   0.238   1.843  11.254  0.0014 -0.3937  1.5199
   35MPD2    H3  541   0.047   1.887  11.110 -0.6365 -0.2212  0.2578
   35MPD2     N  542   4.602   1.477  11.232  0.0176 -0.3254 -0.1625
   35MPD2    H5  543   4.596   1.418  11.314 -0.0042  1.1051  0.8779
   35MPD2    N1  544   0.294   1.637  11.397 -0.1391 -0.4327 -0.1547
   35MPD2    H7  545   0.362   1.712  11.406  0.8240 -1.1176 -1.6558
   36TCq2    C1  546   4.496   1.458  11.145  0.1193  0.4453 -0.0415
   36TCq2    O2  547   4.473   1.510  11.040  0.2781  0.1042  0.1058
   36TCq2    C2  548   4.411   1.353  11.189 -0.1815  0.3179 -0.4997
   36TCq2    C3  549   4.289   1.364  11.142  0.0265 -0.7513 -0.1196
   36TCq2    C4  550   4.192   1.296  11.203 -0.5423  0.6253 -1.0073
   36TCq2    C5  551   4.214   1.218  11.311 -0.1776 -0.3968  0.0649
   36TCq2    C6  552   4.340   1.206  11.360 -0.1649 -0.0201  0.1613
   36TCq2    C7  553   4.444   1.277  11.300  0.7824 -0.2368  0.2522
   36TCq2    C8  554   4.358   1.086  11.436 -0.0124 -0.9733 -0.0656
   36TCq2    O4  555   4.279   0.990  11.419  0.8257 -0.1756 -0.4879
   36TCq2    C9  556   4.058   1.301  11.159  0.5105 -0.1042 -0.0085
   36TCq2    O5  557   3.969   1.250  11.230  0.4707  0.8346 -0.0343
   36TCq2    O6  558   4.039   1.374  11.057  0.2624 -0.3372  0.2234
   36TCq2    H2  559   4.263   1.438  11.067  0.2727 -0.8354 -0.2910
   36TCq2    H3  560   4.132   1.162  11.354 -0.9262 -0.0492 -0.9023
   36TCq2    H4  561   4.545   1.242  11.318  1.3593  0.1791 -2.2341
   37TMC2    C1  562   1.900   2.398  11.040  0.4740 -0.5491 -0.0400
   37TMC2    C2  563   1.865   2.452  10.918 -0.0365 -0.2980  0.7429
   37TMC2    C3  564   1.966   2.462  10.824  0.1409  0.0985 -0.3169
   37TMC2    C4  565   2.026   2.353  11.068  0.0588  0.0438  0.0561
   37TMC2    C5  566   2.121   2.363  10.970 -1.2107  0.0783 -0.4837
   37TMC2    C6  567   2.084   2.408  10.843  0.1531 -0.1891  0.1964
   37TMC2     C  568   1.791   2.376  11.130  1.0286  0.1017  0.4559
   37TMC2     O  569   1.677   2.404  11.093  0.6942 -0.3732 -0.3150
   37TMC2     H  570   1.767   2.494  10.900 -0.1305 -0.4006  1.0168
   37TMC2    H1  571   2.052   2.332  11.171  1.1159 -0.3762 -0.2971
   37TMC2    H2  572   2.155   2.436  10.766 -0.5207  0.8513 -0.0425
   37TMC2    C7  573   2.250   2.299  10.986  0.1539  0.6347 -0.2416
   37TMC2    C8  574   1.963   2.569  10.731 -0.3123 -0.0591 -0.3259
   37TMC2    O1  575   2.275   2.267  11.106  0.2924 -0.1869  0.7689
   37TMC2    O2  576   2.048   2.657  10.738  0.2403  0.2261  0.1012
   37TMC2    O5  577   1.841   2.579  10.675 -0.0418 -0.3333 -0.3236
   37TMC2    H5  578   1.783   2.503  10.698 -0.4376 -0.0762 -0.4850
   38MPD2     C  579   1.595   2.239  11.571  0.5134 -0.0406  0.3039
   38MPD2    C1  580   1.719   2.171  11.556  0.4869 -0.1375 -0.2297
   38MPD2    C2  581   1.795   2.197  11.446  0.5816  0.5160 -0.0026
   38MPD2    C3  582   1.745   2.282  11.350 -0.5082  0.1925  0.4178
   38MPD2    C4  583   1.624   2.349  11.372  1.1768 -0.2620 -0.5010
   38MPD2    C5  584   1.550   2.325  11.483  0.1845 -0.4708  0.0508
   38MPD2     H  585   1.891   2.147  11.435  1.4442  2.5274 -1.6073
   38MPD2    H1  586   1.587   2.420  11.300 -1.1014 -1.2726 -0.3005
   38MPD2    H2  587   1.520   2.222  11.648 -3.0530 -0.7031 -3.3108
   38MPD2    H3  588   1.455   2.377  11.490  0.2361 -0.2650 -0.7927
   38MPD2     N  589   1.826   2.299  11.243 -0.0529  0.3288  0.0053
   38MPD2    H5  590   1.918   2.254  11.246 -1.2892 -2.1434  0.8037
   38MPD2    N1  591   1.769   2.071  11.636 -0.6247 -0.0437 -0.5535
   38MPD2    H7  592   1.846   2.025  11.588 -1.2425 -0.9291 -0.7064
   39MPD2     C  593   1.017   4.188   0.913  0.4605  0.1843  0.2515
   39MPD2    C1  594   0.908   4.128   0.962 -0.1392  0.0698  0.7631
   39MPD2    C2  595   0.783   4.165   0.911  0.8597  0.3099 -0.3937
   39MPD2    C3  596   0.773   4.263   0.813 -0.9143  0.1961  0.1339
   39MPD2    C4  597   0.889   4.323   0.769  0.3111  0.2046 -0.2548
   39MPD2    C5  598   1.011   4.286   0.820 -0.7660  0.0112 -0.2798
   39MPD2     H  599   0.694   4.112   0.943  1.0521  0.5769  0.6065
   39MPD2    H1  600   0.888   4.412   0.706 -1.7655  0.5975  0.3247
   39MPD2    H2  601   1.114   4.164   0.956  0.4625  0.2750  0.2987
   39MPD2    H3  602   1.103   4.331   0.785 -0.3645  0.1667  0.9659
   39MPD2     N  603   0.648   4.303   0.752 -0.6032  0.0443 -0.0769
   39MPD2    H5  604   0.656   4.363   0.671 -0.7421  0.5516  0.2889
   39MPD2    N1  605   0.935   4.046   1.076 -0.0519 -0.6139  0.1178
   39MPD2    H7  606   1.030   4.025   1.106  0.7111 -1.3626 -2.8466
   40TCq2    C1  607   0.842   3.991   1.162 -0.2916 -0.6742  0.6569
   40TCq2    O2  608   0.718   3.998   1.163 -0.0474  0.3507 -0.3037
   40TCq2    C2  609   0.904   3.919   1.278  0.0506  0.1694  0.1801
   40TCq2    C3  610   0.816   3.879   1.381 -0.4392  1.0326  0.6299
   40TCq2    C4  611   0.872   3.822   1.487  0.4339 -0.0597  0.4260
   40TCq2    C5  612   1.009   3.791   1.488  0.9288 -0.1958 -0.3794
   40TCq2    C6  613   1.084   3.815   1.382 -0.8726 -0.1141  0.3128
   40TCq2    C7  614   1.032   3.880   1.276  0.1016 -0.5616 -0.1519
   40TCq2    C8  615   1.225   3.785   1.389  0.2200  0.0080 -0.4405
   40TCq2    O4  616   1.250   3.682   1.451 -0.1057 -0.0018  0.2900
   40TCq2    C9  617   0.795   3.770   1.594 -0.3624 -0.2858  0.0094
   40TCq2    O5  618   0.669   3.772   1.581 -0.1718  0.1855  0.6006
   40TCq2    O6  619   0.851   3.701   1.681 -0.1156  0.3360 -0.1238
   40TCq2    H2  620   0.709   3.898   1.380 -0.2736  2.0012  1.4408
   40TCq2    H3  621   1.054   3.753   1.580  2.2977  1.5598 -0.3297
   40TCq2    H4  622   1.092   3.904   1.189  0.1490  1.7038  0.5017
   41TMC2    C1  623   4.701   1.815  14.094 -0.2110  0.4087  0.0383
   41TMC2    C2  624   0.043   1.695  14.095 -0.1944 -0.4957  0.9344
   41TMC2    C3  625   0.020   1.614  13.993 -0.2248 -0.7675  0.1581
   41TMC2    C4  626   4.622   1.853  13.998  0.3590  0.6358 -0.3170
   41TMC2    C5  627   4.608   1.769  13.890 -0.3254  0.5178 -0.5940
   41TMC2    C6  628   4.664   1.647  13.887 -0.6123 -0.0237 -0.1089
   41TMC2     C  629   4.726   1.905  14.210 -0.2609 -1.1941  0.5263
   41TMC2     O  630   0.089   1.883  14.288 -0.3001  0.5419 -0.0775
   41TMC2     H  631   0.093   1.664  14.186 -0.3940  2.5327  2.0817
   41TMC2    H1  632   4.576   1.951  13.987 -0.2731  0.4359  0.5146
   41TMC2    H2  633   4.641   1.572  13.812  1.5828 -0.1005 -0.7255
   41TMC2    C7  634   4.514   1.813  13.788 -0.3141 -0.1024  0.2990
   41TMC2    C8  635   0.075   1.477  13.999 -0.4507  0.5114  0.5142
   41TMC2    O1  636   4.420   1.883  13.827  0.1202 -0.4173  0.7385
   41TMC2    O2  637   0.149   1.432  14.090  0.9733 -0.9034  0.0181
   41TMC2    O5  638   4.719   1.393  13.939 -0.5763  0.7230 -0.3849
   41TMC2    H5  639   4.646   1.416  13.878 -0.9194  3.1079  0.9425
   42MPD2     C  640   4.725   2.138  14.398 -0.1184  0.1868 -0.4283
   42MPD2    C1  641   4.615   2.099  14.324  0.3483  0.5826  0.2131
   42MPD2    C2  642   4.497   2.174  14.322  0.4127  0.0406 -0.0985
   42MPD2    C3  643   4.492   2.288  14.399  1.5124 -0.4465 -0.4423
   42MPD2    C4  644   4.595   2.331  14.473 -0.4583 -0.0975 -0.4025
   42MPD2    C5  645   4.715   2.259  14.472  0.0384  0.0564 -0.1796
   42MPD2     H  646   4.423   2.149  14.247  0.0706  2.2759 -0.5056
   42MPD2    H1  647   4.596   2.419  14.536 -0.7848  0.6442 -1.4373
   42MPD2    H2  648   0.093   2.085  14.402  1.2025  2.5492 -0.8517
   42MPD2    H3  649   0.072   2.293  14.532  0.4414  0.6652 -1.0760
   42MPD2     N  650   4.379   2.368  14.399  0.1179  1.1435  1.1063
   42MPD2    H5  651   4.392   2.463  14.432  0.0173  1.4470  0.2843
   42MPD2    N1  652   4.619   1.989  14.230  0.1729  0.3101 -0.4186
   42MPD2    H7  653   4.530   1.987  14.181  0.2628  1.2760 -0.6307
   43MPD2     C  654   0.464   0.345   0.776  0.4644 -0.2179 -0.4497
   43MPD2    C1  655   0.553   0.448   0.765 -0.0042  0.1162  0.2430
   43MPD2    C2  656   0.545   0.548   0.850  0.2837  0.0659  0.1990
   43MPD2    C3  657   0.457   0.552   0.957 -0.4796 -0.5552 -0.0078
   43MPD2    C4  658   0.376   0.448   0.977 -0.1461 -0.6097 -0.1914
   43MPD2    C5  659   0.375   0.346   0.887  0.1825  0.1837  0.0204
   43MPD2     H  660   0.614   0.631   0.841 -0.9552  1.0458 -0.2926
   43MPD2    H1  661   0.308   0.447   1.061  0.8075  1.1739  0.6036
   43MPD2    H2  662   0.465   0.257   0.712  3.4938 -0.1322 -0.5261
   43MPD2    H3  663   0.312   0.258   0.895  1.1133 -0.5240 -0.4803
   43MPD2     N  664   0.450   0.658   1.052  0.1491 -0.3826  0.1736
   43MPD2    H5  665   0.405   0.627   1.137 -0.2240  0.1511  0.1685
   43MPD2    N1  666   0.663   0.441   0.676 -0.2531  0.6798 -0.5089
   43MPD2    H7  667   0.729   0.516   0.693  1.8289 -1.5168  1.1896
   44TCq2    C1  668   0.470   1.216   1.229 -0.3900  0.0257  0.0085
   44TCq2    O2  669   0.566   1.245   1.157 -0.3151 -0.3588  0.2524
   44TCq2    C2  670   0.463   1.073   1.242 -0.2361 -0.2292 -0.5032
   44TCq2    C3  671   0.456   1.019   1.371 -0.5392 -0.1136 -0.7805
   44TCq2    C4  672   0.450   0.880   1.387  0.6749  0.4728 -0.3415
   44TCq2    C5  673   0.461   0.801   1.273  0.1169 -0.3533 -0.3767
   44TCq2    C6  674   0.470   0.862   1.147 -0.4956  0.5280 -0.1433
   44TCq2    C7  675   0.462   0.996   1.132  0.7162  0.0053  0.4946
   44TCq2    C8  676   0.493   0.783   1.031  0.1080  0.0609  0.0456
   44TCq2    O4  677   0.514   0.838   0.926 -0.1949 -0.6668  0.1826
   44TCq2    C9  678   0.441   0.820   1.518  0.1559 -0.5497  0.1068
   44TCq2    O5  679   0.458   0.895   1.618 -0.0666  0.3368 -0.2071
   44TCq2    O6  680   0.392   0.701   1.521  0.1547  0.0870  0.4473
   44TCq2    H2  681   0.458   1.084   1.458 -0.3759 -1.2407  0.0516
   44TCq2    H3  682   0.477   0.694   1.286  0.0497 -0.4714 -1.2526
   44TCq2    H4  683   0.469   1.046   1.036  0.3694  0.0584  0.4962
   45TMC2    C1  684   1.046   2.132   8.948  0.0195  0.2577 -0.5342
   45TMC2    C2  685   1.156   2.126   9.038 -0.3489 -0.4600  0.4287
   45TMC2    C3  686   1.196   2.247   9.100  0.1873  0.2584 -0.1689
   45TMC2    C4  687   0.986   2.247   8.917  0.1165 -0.3746 -0.1586
   45TMC2    C5  688   1.028   2.358   8.981  0.2368 -0.2285  0.6640
   45TMC2    C6  689   1.130   2.361   9.072  0.2439 -0.2014  0.0993
   45TMC2     C  690   1.035   2.018   8.852 -0.1447 -0.3166  0.2359
   45TMC2     O  691   1.068   1.909   8.897  0.0591 -0.8391 -0.0381
   45TMC2     H  692   1.217   2.037   9.035  2.1629  1.2666 -0.0518
   45TMC2    H1  693   0.907   2.257   8.844  0.0266 -0.2608 -0.0452
   45TMC2    H2  694   1.180   2.450   9.107  2.8232 -1.7813  0.4944
   45TMC2    C7  695   0.961   2.480   8.948  0.2340 -0.1775 -0.3660
   45TMC2    C8  696   1.332   2.259   9.160  0.7493  0.2535 -0.0195
   45TMC2    O1  697   0.899   2.487   8.842  0.0451 -0.3066 -0.9841
   45TMC2    O2  698   1.385   2.366   9.170 -0.8482  0.2817  0.3968
   45TMC2    O5  699   1.348   2.155   9.246 -0.4876  0.6055  0.1766
   45TMC2    H5  700   1.272   2.093   9.244  0.5065 -0.5515 -2.3789
   46MPD2     C  701   1.001   2.018   8.500 -0.3522 -0.3434 -0.3432
   46MPD2    C1  702   0.986   1.969   8.625 -0.1023 -0.3615  0.8551
   46MPD2    C2  703   0.930   1.842   8.648 -0.0544  0.6938 -0.6461
   46MPD2    C3  704   0.888   1.767   8.540  1.0681 -0.3000 -0.0777
   46MPD2    C4  705   0.910   1.805   8.414 -0.3215  0.4406 -0.0859
   46MPD2    C5  706   0.967   1.934   8.401 -0.1551 -0.5445 -0.0843
   46MPD2     H  707   0.907   1.810   8.749  0.2521 -1.0586 -1.1319
   46MPD2    H1  708   0.896   1.752   8.321  0.1586 -0.5928  0.4227
   46MPD2    H2  709   1.025   2.121   8.476  0.2354 -0.5952 -0.8320
   46MPD2    H3  710   0.975   1.970   8.299 -0.9216  0.1759  0.1145
   46MPD2     N  711   0.805   1.646   8.564  0.0950 -0.0800  0.4845
   46MPD2    H5  712   0.784   1.626   8.661 -0.0901  0.8098  0.6283
   46MPD2    N1  713   1.004   2.060   8.726 -0.4483  0.1541  0.2266
   46MPD2    H7  714   1.015   2.156   8.696 -0.7752  0.4392  1.0182
   47TMC2    C1  715   3.116   3.058   9.600  0.0679 -0.5426  0.1919
   47TMC2    C2  716   3.042   2.940   9.622  0.6254  0.3028 -0.9190
   47TMC2    C3  717   2.909   2.968   9.652  0.5306  0.2320  0.3132
   47TMC2    C4  718   3.053   3.179   9.577  0.5546  0.5088 -0.0317
   47TMC2    C5  719   2.920   3.200   9.599  0.5361  0.6304 -0.3524
   47TMC2    C6  720   2.847   3.092   9.646 -0.0714 -0.1510  0.6805
   47TMC2     C  721   3.261   3.047   9.602  0.3414  0.6144  0.0548
   47TMC2     O  722   3.314   3.139   9.666  0.1825 -0.0681 -0.7499
   47TMC2     H  723   3.091   2.848   9.653  0.1465  0.2561 -0.3025
   47TMC2    H1  724   3.112   3.256   9.529 -0.2100  1.3423  0.3609
   47TMC2    H2  725   2.741   3.097   9.667 -0.0524  0.9597  0.4880
   47TMC2    C7  726   2.874   3.338   9.588 -0.6078  0.1375  0.3247
   47TMC2    C8  727   2.832   2.862   9.716 -0.4702  0.1486 -0.3633
   47TMC2    O1  728   2.952   3.427   9.565 -0.5095 -0.2220  0.6340
   47TMC2    O2  729   2.867   2.745   9.710 -0.6429  0.2755  0.0210
   47TMC2    O5  730   2.767   2.920   9.822 -0.5665  0.0765 -0.3453
   47TMC2    H5  731   2.775   3.018   9.835  1.3416 -0.1958  0.6326
   48MPD2     C  732   3.539   2.965   9.621  0.7995 -0.1417 -0.7006
   48MPD2    C1  733   3.450   2.905   9.534  0.1512  0.0803  0.1778
   48MPD2    C2  734   3.495   2.799   9.468 -0.2925 -0.8433  0.1009
   48MPD2    C3  735   3.637   2.772   9.464 -0.1527 -0.0754 -0.1044
   48MPD2    C4  736   3.727   2.859   9.524  0.5930  0.6022 -0.4793
   48MPD2    C5  737   3.676   2.956   9.610  0.3299  0.2047  0.1320
   48MPD2     H  738   3.423   2.747   9.407 -2.1605  0.5770  1.0903
   48MPD2    H1  739   3.835   2.848   9.531  0.5632  0.5966 -0.0757
   48MPD2    H2  740   3.504   3.023   9.706  0.5758 -0.5062 -0.5455
   48MPD2    H3  741   3.743   3.010   9.677 -3.2496  1.9257  2.3005
   48MPD2     N  742   3.684   2.663   9.388 -0.4582  0.6906 -0.2196
   48MPD2    H5  743   3.603   2.613   9.354  1.5642 -1.3203 -2.1136
   48MPD2    N1  744   3.311   2.938   9.540 -0.0801 -0.0784  0.3086
   48MPD2    H7  745   3.236   2.883   9.499  0.4060 -1.6802  1.5599
   49MPD2     C  746   2.118   0.187   9.147  0.1867  0.1453 -0.0060
   49MPD2    C1  747   2.052   0.080   9.215 -0.2012  0.1786 -0.5243
   49MPD2    C2  748   2.076   0.059   9.347 -0.0993 -1.3908 -0.2045
   49MPD2    C3  749   2.162   0.137   9.420  0.0889 -0.0719 -0.5508
   49MPD2    C4  750   2.221   0.242   9.356  0.2838  0.1121  0.1558
   49MPD2    C5  751   2.210   0.259   9.220 -0.0663  0.1659 -0.2913
   49MPD2     H  752   2.039   4.699   9.401  1.0709 -0.6176  1.8295
   49MPD2    H1  753   2.291   0.303   9.411  0.1431  1.0902 -0.7516
   49MPD2    H2  754   2.094   0.205   9.043  0.6608  0.7074 -0.0159
   49MPD2    H3  755   2.272   0.336   9.177  0.6636 -0.6766 -0.7422
   49MPD2     N  756   2.213   0.103   9.547 -0.2255 -0.6124  0.5693
   49MPD2    H5  757   2.286   0.160   9.588  0.1256 -0.2200 -0.6126
   49MPD2    N1  758   1.959   4.721   9.157 -0.4675  0.2293  0.1012
   49MPD2    H7  759   1.933   4.643   9.216 -1.7670  0.8924  0.4030
   50TCq2    C1  760   1.927   4.723   9.023 -0.1598  0.1763 -0.1362
   50TCq2    O2  761   1.956   0.079   8.933  0.2466  0.0250  0.1242
   50TCq2    C2  762   1.840   4.614   8.983 -0.0375  0.2904 -0.1016
   50TCq2    C3  763   1.767   4.627   8.863 -0.1923 -0.1123  0.3944
   50TCq2    C4  764   1.684   4.523   8.821 -0.4490  0.7675  0.0611
   50TCq2    C5  765   1.677   4.410   8.897 -0.6093  0.6123  0.6640
   50TCq2    C6  766   1.758   4.391   9.008  0.1026  0.0525  0.2075
   50TCq2    C7  767   1.832   4.502   9.056  0.1179 -0.0778  0.0162
   50TCq2    C8  768   1.714   4.301   9.103 -0.0641 -0.3034 -0.2421
   50TCq2    O4  769   1.737   4.329   9.218  0.9509  0.0707  0.3321
   50TCq2    C9  770   1.621   4.536   8.696  0.0613  0.1486 -0.0818
   50TCq2    O5  771   1.616   4.649   8.644 -0.7659  0.1755 -0.6002
   50TCq2    O6  772   1.584   4.424   8.642 -0.1474  0.5621 -0.0501
   50TCq2    H2  773   1.788   4.711   8.798 -2.1379 -0.6559 -0.9350
   50TCq2    H3  774   1.617   4.325   8.865 -0.9312 -0.1164  3.1944
   50TCq2    H4  775   1.897   4.476   9.139 -0.1568 -2.2391 -0.4232
   51MPD2     C  776   2.854   3.888   1.335 -0.0416  0.6141 -0.1652
   51MPD2    C1  777   2.826   3.770   1.295 -0.3318  0.4689  0.3287
   51MPD2    C2  778   2.845   3.657   1.379 -0.1307  0.1434 -0.0629
   51MPD2    C3  779   2.902   3.669   1.502 -0.5627  0.8800  0.0762
   51MPD2    C4  780   2.908   3.794   1.563  0.1016 -0.0171 -0.4187
   51MPD2    C5  781   2.880   3.901   1.474 -0.1900  0.0810  0.1721
   51MPD2     H  782   2.819   3.560   1.338  0.7467  0.1502 -0.6386
   51MPD2    H1  783   2.926   3.807   1.669 -1.6418  0.0683 -0.1389
   51MPD2    H2  784   2.824   3.974   1.276 -0.1239  0.3951 -0.4411
   51MPD2    H3  785   2.887   3.997   1.523 -0.5327  0.6605 -0.9046
   51MPD2     N  786   2.941   3.567   1.596 -0.0753 -0.2606 -0.1909
   51MPD2    H5  787   2.972   3.594   1.688 -0.1011  0.5180 -0.4098
   51MPD2    N1  788   2.785   3.744   1.160  0.5408  0.2236  0.5908
   51MPD2    H7  789   2.790   3.650   1.124  1.5899  0.0978  1.0808
   52TCq2    C1  790   2.947   3.434   1.564  0.3276  0.0598 -0.0340
   52TCq2    O2  791   2.909   3.361   1.475 -0.2286 -0.2621  0.1473
   52TCq2    C2  792   3.008   3.361   1.674  0.2356  0.7291 -0.1168
   52TCq2    C3  793   2.964   3.234   1.698 -0.0570  0.4509  0.2135
   52TCq2    C4  794   3.035   3.149   1.783 -0.0990  0.0642 -0.7252
   52TCq2    C5  795   3.142   3.197   1.841  0.5162  0.3571 -0.0336
   52TCq2    C6  796   3.185   3.322   1.814 -0.4459 -0.4137 -0.1291
   52TCq2    C7  797   3.122   3.403   1.728  0.1587 -0.1681 -0.5770
   52TCq2    C8  798   3.322   3.371   1.852 -0.7729  0.7395 -0.3917
   52TCq2    O4  799   3.366   3.432   1.754  0.4344  0.2529  0.1423
   52TCq2    C9  800   2.985   3.014   1.798  0.1842 -0.9094 -0.0791
   52TCq2    O5  801   3.034   2.954   1.899 -0.2715 -0.2727  0.4092
   52TCq2    O6  802   2.893   2.967   1.723  0.1848 -0.2610 -0.0806
   52TCq2    H2  803   2.878   3.197   1.644  1.5602  0.8656 -2.6735
   52TCq2    H3  804   3.202   3.137   1.909  0.8970 -2.0865 -2.4991
   52TCq2    H4  805   3.151   3.507   1.725 -0.2991 -0.0096  0.5352
   53TMC2    C1  806   2.741   1.878  11.246 -0.1442  1.1219  0.2252
   53TMC2    C2  807   2.868   1.865  11.297  0.3222 -0.5136  0.1195
   53TMC2    C3  808   2.892   1.897  11.428 -0.0637  0.1170  0.5043
   53TMC2    C4  809   2.633   1.892  11.331  0.4786  0.1290  0.4466
   53TMC2    C5  810   2.657   1.918  11.466 -0.1633  0.5238  0.5244
   53TMC2    C6  811   2.788   1.923  11.511  0.6947  0.0664 -0.2367
   53TMC2     C  812   2.721   1.892  11.104  0.0434 -0.3204 -0.0200
   53TMC2     O  813   2.807   1.856  11.020 -0.2662 -0.0714 -0.2717
   53TMC2     H  814   2.954   1.868  11.230 -0.5026  0.4763 -0.8963
   53TMC2    H1  815   2.531   1.895  11.293  0.5664 -0.1021  0.1893
   53TMC2    H2  816   2.807   1.954  11.613  0.5399  0.8929 -0.4627
   53TMC2    C7  817   2.568   2.016  11.533  0.3590  0.3697  0.7941
   53TMC2    C8  818   3.024   1.888  11.489  0.4177 -0.9630  0.5046
   53TMC2    O1  819   2.489   2.075  11.456  0.4237  0.5862 -0.3178
   53TMC2    O2  820   3.045   1.953  11.589  0.2897  0.8245 -0.2114
   53TMC2    O5  821   3.102   1.787  11.440 -0.4355 -0.4838  0.0290
   53TMC2    H5  822   3.069   1.726  11.371  0.6843 -0.6156 -0.3773
   54MPD2     C  823   2.613   1.984  10.840  0.3664  0.1099 -0.0009
   54MPD2    C1  824   2.563   2.016  10.959 -0.3701  0.4923  0.4027
   54MPD2    C2  825   2.462   2.106  10.970 -0.6031 -0.1083 -0.2403
   54MPD2    C3  826   2.414   2.170  10.856 -1.0161  0.0905 -0.3089
   54MPD2    C4  827   2.473   2.148  10.736 -0.0199  0.1320 -1.1136
   54MPD2    C5  828   2.567   2.050  10.729 -0.5827 -0.3481 -0.6510
   54MPD2     H  829   2.423   2.121  11.070  0.6812 -0.5507  0.3269
   54MPD2    H1  830   2.439   2.196  10.645 -2.6489  2.7382  1.2578
   54MPD2    H2  831   2.682   1.902  10.822 -1.5404 -0.8850 -2.7738
   54MPD2    H3  832   2.604   2.031  10.630 -0.5652  1.0781 -0.9139
   54MPD2     N  833   2.309   2.266  10.866  0.3327  0.9187 -0.1595
   54MPD2    H5  834   2.277   2.313  10.782 -0.7933  0.9832  0.3114
   54MPD2    N1  835   2.607   1.956  11.082 -0.2425  0.4794 -0.4419
   54MPD2    H7  836   2.556   1.973  11.169 -0.4328 -1.7728 -0.1264
   55MPD2     C  837   3.550   4.659   0.078  0.5090 -0.5557 -0.6893
   55MPD2    C1  838   3.581   4.672   0.207 -0.7135  0.4542 -0.1966
   55MPD2    C2  839   3.506   0.039   0.276  0.3582  0.8988  0.1744
   55MPD2    C3  840   3.418   0.128   0.225 -0.8369 -0.5603 -0.4293
   55MPD2    C4  841   3.391   0.114   0.090  0.9148  0.6781  0.7703
   55MPD2    C5  842   3.456   0.014   0.019 -0.0061 -0.4751  0.5610
   55MPD2     H  843   3.529   0.046   0.381  0.1789 -2.2292  0.4071
   55MPD2    H1  844   3.319   0.165   0.026 -2.2705 -1.8406  2.4084
   55MPD2    H2  845   3.600   4.584   0.017 -0.7950 -3.0192  1.2664
   55MPD2    H3  846   3.433   0.008  17.621 -1.2527 -0.5618  0.8326
   55MPD2     N  847   3.353   0.221   0.309 -0.5490  0.8714  0.0306
   55MPD2    H5  848   3.382   0.241   0.404  0.8071  0.0352 -0.2109
   55MPD2    N1  849   3.682   4.584   0.266 -0.1148 -0.2828 -0.5419
   55MPD2    H7  850   3.727   4.519   0.203  1.4635  2.3637 -2.1720
   56TCq2    C1  851   3.710   4.572   0.404 -0.4953 -0.7252 -0.8570
   56TCq2    O2  852   3.655   4.627   0.498  0.2302  0.2788  0.5507
   56TCq2    C2  853   3.791   4.454   0.442 -0.4827 -0.4812  0.2454
   56TCq2    C3  854   3.843   4.384   0.338  0.0061 -0.0109  0.1335
   56TCq2    C4  855   3.892   4.261   0.356  0.0377 -1.0772  0.6778
   56TCq2    C5  856   3.870   4.199   0.472  0.1226 -0.1377 -0.2089
   56TCq2    C6  857   3.811   4.261   0.580  0.1126 -0.0554 -0.0624
   56TCq2    C7  858   3.763   4.391   0.562 -0.3301  0.1119 -0.2397
   56TCq2    C8  859   3.785   4.176   0.693  0.2400  0.2620  0.0274
   56TCq2    O4  860   3.852   4.077   0.716  0.4752  0.1461 -0.3660
   56TCq2    C9  861   3.927   4.168   0.242 -0.8795  0.8280 -0.5980
   56TCq2    O5  862   3.939   4.213   0.124  0.3862  0.0665  0.8094
   56TCq2    O6  863   3.927   4.043   0.259 -0.3598 -0.5896  0.2220
   56TCq2    H2  864   3.865   4.420   0.238 -0.0767  2.6137  1.0599
   56TCq2    H3  865   3.888   4.093   0.483 -0.0346  0.0152  1.5957
   56TCq2    H4  866   3.704   4.437   0.640 -2.4109 -0.3833 -1.5171
   57TMC2    C1  867   3.011   0.859  13.299 -0.5034 -0.5053 -0.3138
   57TMC2    C2  868   3.025   0.720  13.316  0.0191  0.5972 -0.1825
   57TMC2    C3  869   3.090   0.639  13.219  1.0478  0.1600  0.0557
   57TMC2    C4  870   3.046   0.901  13.181 -0.2606  0.4355 -0.0190
   57TMC2    C5  871   3.102   0.820  13.089 -0.3849  0.1100 -0.2896
   57TMC2    C6  872   3.135   0.688  13.107  0.0906  0.3024 -0.0743
   57TMC2     C  873   2.904   0.931  13.367 -0.0506 -0.0725  0.1264
   57TMC2     O  874   2.838   0.991  13.292  0.7784 -0.0052  0.4776
   57TMC2     H  875   3.021   0.672  13.413  0.2388 -0.2030 -0.5637
   57TMC2    H1  876   3.046   1.008  13.164  1.9664  0.4019 -0.1531
   57TMC2    H2  877   3.155   0.618  13.027 -0.3804  0.2988 -0.1880
   57TMC2    C7  878   3.117   0.874  12.958  0.7857 -0.0370 -0.0476
   57TMC2    C8  879   3.092   0.505  13.244  0.0370 -1.0948  1.4966
   57TMC2    O1  880   3.062   0.984  12.940  0.3695 -0.7687 -0.2635
   57TMC2    O2  881   3.208   0.456  13.234  0.5321  0.0919  0.5116
   57TMC2    O5  882   2.983   0.450  13.194  0.4663 -0.0578  0.6880
   57TMC2    H5  883   2.916   0.521  13.205  1.2596  0.5295  1.7270
   58MPD2     C  884   2.561   0.970  13.739  0.1061 -0.0547 -0.3733
   58MPD2    C1  885   2.561   1.029  13.621  0.6968 -0.9631  0.5583
   58MPD2    C2  886   2.674   1.012  13.541 -0.5254 -0.3335 -0.2056
   58MPD2    C3  887   2.773   0.925  13.578  0.5339 -0.6036 -0.0896
   58MPD2    C4  888   2.765   0.872  13.704  0.3348  0.8718 -0.2927
   58MPD2    C5  889   2.661   0.888  13.787  0.5699 -0.0697  0.0676
   58MPD2     H  890   2.682   1.066  13.447  0.2055 -1.8774 -1.0126
   58MPD2    H1  891   2.843   0.812  13.751  0.6168  0.5120 -1.2189
   58MPD2    H2  892   2.475   0.981  13.804 -0.3148 -1.6204 -0.6609
   58MPD2    H3  893   2.663   0.839  13.884 -0.1816  0.1507  0.1935
   58MPD2     N  894   2.886   0.901  13.499  0.3064  0.1047  0.0123
   58MPD2    H5  895   2.953   0.837  13.541 -0.3723 -0.0003  0.9414
   58MPD2    N1  896   2.446   1.105  13.577  0.1338  0.5395  0.4451
   58MPD2    H7  897   2.452   1.127  13.478  0.1661 -1.6614 -0.0477
   59MPD2     C  898   0.574   0.974  12.608 -0.2788 -0.7376 -1.2169
   59MPD2    C1  899   0.683   0.898  12.611  0.5414  0.9609  0.0475
   59MPD2    C2  900   0.778   0.924  12.703 -0.1267  0.0934 -0.5960
   59MPD2    C3  901   0.768   1.033  12.789  0.3422  0.2813 -0.2878
   59MPD2    C4  902   0.652   1.107  12.788  0.0614  0.0446 -0.5430
   59MPD2    C5  903   0.551   1.077  12.701 -0.3711 -0.0564 -0.7263
   59MPD2     H  904   0.852   0.845  12.709  0.1550  0.2956 -1.3212
   59MPD2    H1  905   0.642   1.191  12.856  0.0152 -0.5336  0.1632
   59MPD2    H2  906   0.489   0.951  12.544 -0.3491  0.7171 -1.6312
   59MPD2    H3  907   0.453   1.123  12.693 -0.9642 -1.0505  0.7198
   59MPD2     N  908   0.867   1.083  12.879 -0.7055  0.0422  0.6806
   59MPD2    H5  909   0.837   1.168  12.926  1.6416  0.4471  1.4323
   59MPD2    N1  910   0.709   0.804  12.508 -0.4032 -0.1328 -0.2305
   59MPD2    H7  911   0.802   0.766  12.504  0.3094  1.6780 -0.8894
   60TCq2    C1  912   0.631   0.771  12.397  0.7003  0.6063  0.3641
   60TCq2    O2  913   0.519   0.805  12.362  0.3279  0.4285  0.7465
   60TCq2    C2  914   0.708   0.690  12.302 -0.0367 -0.2332 -0.5644
   60TCq2    C3  915   0.823   0.630  12.352  0.1708 -0.3263 -0.0583
   60TCq2    C4  916   0.900   0.564  12.258 -0.4398  0.3736 -0.4278
   60TCq2    C5  917   0.876   0.577  12.128  0.0592 -0.0679  0.4066
   60TCq2    C6  918   0.766   0.647  12.086 -0.4287 -0.1106  0.4816
   60TCq2    C7  919   0.678   0.692  12.173 -0.2692  0.4514  0.2191
   60TCq2    C8  920   0.778   0.702  11.950 -0.4621  0.6202 -0.7025
   60TCq2    O4  921   0.848   0.639  11.872 -0.2419  0.3088  0.3458
   60TCq2    C9  922   1.012   0.485  12.312  0.1018 -0.1220  0.1145
   60TCq2    O5  923   1.079   0.533  12.407 -0.8230  0.3089  0.1312
   60TCq2    O6  924   1.067   0.404  12.234 -0.2202 -0.0351 -0.4193
   60TCq2    H2  925   0.842   0.606  12.456  0.5321  1.5297  0.3012
   60TCq2    H3  926   0.939   0.532  12.052 -0.3662 -0.9141  0.5552
   60TCq2    H4  927   0.581   0.722  12.135 -0.3846  0.0599  0.1989
   61MPD2     C  928   0.368   2.648  15.152 -0.1183  0.1556  0.1315
   61MPD2    C1  929   0.265   2.748  15.146  0.7002  0.1088  0.3572
   61MPD2    C2  930   0.241   2.823  15.034  0.1716  0.6031  0.3313
   61MPD2    C3  931   0.331   2.815  14.926 -0.4187 -0.3756  0.2634
   61MPD2    C4  932   0.434   2.728  14.932  0.4879 -0.7504 -0.4544
   61MPD2    C5  933   0.446   2.648  15.040  0.5537  0.8959  0.1061
   61MPD2     H  934   0.160   2.894  15.045 -0.3654  0.2386 -1.3972
   61MPD2    H1  935   0.504   2.712  14.851  3.0726 -0.3803  1.6880
   61MPD2    H2  936   0.393   2.586  15.237  0.0320  1.2681  0.9094
   61MPD2    H3  937   0.520   2.571  15.027 -2.0455 -1.4392 -0.9131
   61MPD2     N  938   0.316   2.890  14.810  0.2598 -0.6308  0.4417
   61MPD2    H5  939   0.387   2.871  14.740 -1.5493 -0.8906 -1.3226
   61MPD2    N1  940   0.174   2.757  15.255 -0.2057 -0.0871 -0.0229
   61MPD2    H7  941   0.099   2.824  15.247 -0.2829 -0.2472 -0.6381
   62TCq2    C1  942   0.163   2.688  15.363  0.2913  0.1007  0.0101
   62TCq2    O2  943   0.211   2.591  15.406  0.0745  0.5597 -0.1547
   62TCq2    C2  944   0.083   2.767  15.457  0.4636 -0.0564 -0.5028
   62TCq2    C3  945   4.704   2.693  15.515  0.3045  0.1547  0.4796
   62TCq2    C4  946   4.587   2.751  15.538 -0.5319  0.2918 -0.0468
   62TCq2    C5  947   4.563   2.888  15.514 -0.7713 -0.6986  0.5485
   62TCq2    C6  948   4.665   2.959  15.446  0.7735 -0.1239  0.4345
   62TCq2    C7  949   0.062   2.904  15.419  0.1112  0.3499  0.2600
   62TCq2    C8  950   4.649   3.102  15.429 -0.5387 -0.3904  0.0041
   62TCq2    O4  951   0.022   3.169  15.403  0.1208  0.0823 -0.5608
   62TCq2    C9  952   4.485   2.667  15.589 -0.1254 -0.6254 -0.3122
   62TCq2    O5  953   4.524   2.554  15.621  0.0177  0.6775 -0.1779
   62TCq2    O6  954   4.383   2.732  15.628 -0.8788  0.5275  0.0953
   62TCq2    H2  955   4.720   2.588  15.540  1.6025  1.0699  3.4914
   62TCq2    H3  956   4.464   2.926  15.533 -0.9452 -1.6104  1.5201
   62TCq2    H4  957   0.148   2.957  15.379  0.8072  0.1403  1.4990
   63TMC2    C1  958   4.158   2.066  10.553  0.0952 -0.7683 -0.0344
   63TMC2    C2  959   4.270   2.102  10.609  0.1494  0.6667  0.5434
   63TMC2    C3  960   4.353   2.194  10.550 -0.0349 -0.2439  0.8700
   63TMC2    C4  961   4.135   2.096  10.420  0.4220 -0.7309  0.1037
   63TMC2    C5  962   4.226   2.172  10.355  0.5267  0.1933 -0.0966
   63TMC2    C6  963   4.326   2.234  10.425  0.1555 -0.1496  0.5140
   63TMC2     C  964   4.066   1.990  10.631 -0.0450  0.0168 -0.3959
   63TMC2     O  965   4.074   2.000  10.755  0.3330  0.2465 -0.2983
   63TMC2     H  966   4.290   2.076  10.713 -1.4920 -0.1950  0.6321
   63TMC2    H1  967   4.049   2.060  10.365 -0.1586 -1.2389  1.3529
   63TMC2    H2  968   4.398   2.293  10.370 -1.7644  1.0659 -0.7031
   63TMC2    C7  969   4.186   2.229  10.227 -0.3296  0.4171 -0.2430
   63TMC2    C8  970   4.436   2.281  10.624 -0.0847 -0.2653 -0.2141
   63TMC2    O1  971   4.081   2.191  10.179  0.0469 -0.0467  0.2083
   63TMC2    O2  972   4.434   2.402  10.629 -0.5146  0.2530  0.5904
   63TMC2    O5  973   4.534   2.205  10.662 -0.0638  0.1721 -0.3767
   63TMC2    H5  974   4.519   2.117  10.623  2.5490 -1.5154  2.4046
   64MPD2     C  975   3.692   1.644  10.672  0.2534  0.6489 -0.5255
   64MPD2    C1  976   3.727   1.660  10.538 -0.2604 -0.6751 -0.2502
   64MPD2    C2  977   3.813   1.762  10.500  0.3849 -0.3072 -0.1167
   64MPD2    C3  978   3.885   1.830  10.591  0.0377  0.0090  0.3330
   64MPD2    C4  979   3.836   1.838  10.722  0.1871 -0.0038  0.3720
   64MPD2    C5  980   3.743   1.739  10.760 -0.0337 -0.0030 -0.0638
   64MPD2     H  981   3.839   1.766  10.395  1.4099 -0.4250  0.1333
   64MPD2    H1  982   3.868   1.904  10.802 -4.1095  0.8357  1.4248
   64MPD2    H2  983   3.621   1.569  10.707  2.9261 -1.2752  0.7431
   64MPD2    H3  984   3.697   1.740  10.859 -0.2023  0.8425 -0.1469
   64MPD2     N  985   3.987   1.922  10.545 -0.2808  0.0276  0.0636
   64MPD2    H5  986   4.009   1.919  10.446 -0.3569 -0.8666  0.0798
   64MPD2    N1  987   3.690   1.565  10.446  0.3133 -0.1753  0.0833
   64MPD2    H7  988   3.719   1.586  10.351 -1.5382 -3.1141 -1.1455
   65MPD2     C  989   0.709   2.141  15.706 -0.3210  0.4784 -0.1012
   65MPD2    C1  990   0.702   2.132  15.569  0.1231  0.4355  0.4418
   65MPD2    C2  991   0.697   2.009  15.502  0.3930 -0.6549 -0.7097
   65MPD2    C3  992   0.684   1.900  15.581  0.1605  0.4395 -0.1479
   65MPD2    C4  993   0.697   1.899  15.723 -0.8845 -0.5729  0.4531
   65MPD2    C5  994   0.705   2.026  15.782 -0.5086  0.2491 -0.6513
   65MPD2     H  995   0.712   1.990  15.396  1.8287 -3.2119 -0.0720
   65MPD2    H1  996   0.692   1.806  15.778 -2.5079  1.0625  3.1018
   65MPD2    H2  997   0.728   2.228  15.767  3.2022 -0.5866  0.3720
   65MPD2    H3  998   0.710   2.028  15.891  1.4486 -0.2827 -0.7259
   65MPD2     N  999   0.662   1.771  15.528 -0.3422  0.1986 -0.2930
   65MPD2    H5 1000   0.650   1.695  15.594 -3.2526 -0.7416 -1.9280
   65MPD2    N1 1001   0.714   2.244  15.485  1.0134  0.4793  0.3336
   65MPD2    H7 1002   0.714   2.222  15.386  2.0268 -2.0405  0.8721
   66TCq2    C1 1003   0.722   2.376  15.519 -0.2783  0.6540 -0.0263
   66TCq2    O2 1004   0.689   2.428  15.623  0.1726 -0.4135 -0.1812
   66TCq2    C2 1005   0.750   2.463  15.398 -0.5748  0.4624 -0.8265
   66TCq2    C3 1006   0.792   2.408  15.281  0.1016 -0.3325  0.1353
   66TCq2    C4 1007   0.806   2.484  15.171  0.2206  0.5264  0.1411
   66TCq2    C5 1008   0.787   2.618  15.177  0.6011  0.2673 -0.3406
   66TCq2    C6 1009   0.754   2.680  15.296 -0.7967  0.2030  0.3074
   66TCq2    C7 1010   0.736   2.598  15.408  0.0427  0.0107  0.1920
   66TCq2    C8 1011   0.721   2.823  15.296 -0.5557 -0.5145 -0.1196
   66TCq2    O4 1012   0.782   2.901  15.221  0.1442 -0.2758 -0.2721
   66TCq2    C9 1013   0.825   2.429  15.040  0.2500  0.4825 -0.0134
   66TCq2    O5 1014   0.885   2.319  15.036 -0.1570 -0.4232  0.0446
   66TCq2    O6 1015   0.783   2.493  14.939 -0.4150  0.1297  0.0588
   66TCq2    H2 1016   0.801   2.303  15.258  0.3329 -0.9179  2.9181
   66TCq2    H3 1017   0.803   2.679  15.089 -1.2919 -0.6462 -1.3017
   66TCq2    H4 1018   0.714   2.643  15.504  0.8643 -2.1206  1.3830
   67MPD2     C 1019   0.863   1.412  13.847 -0.2384 -0.2408 -0.1551
   67MPD2    C1 1020   0.794   1.391  13.968  0.5209  0.4033  0.3267
   67MPD2    C2 1021   0.674   1.321  13.950 -0.9260  0.0573  0.4922
   67MPD2    C3 1022   0.638   1.260  13.830 -0.1561 -0.1070 -0.5409
   67MPD2    C4 1023   0.724   1.268  13.725  0.0263  0.2509 -0.2491
   67MPD2    C5 1024   0.844   1.341  13.736  0.3088  0.1787  0.3680
   67MPD2     H 1025   0.602   1.305  14.030  1.4408  0.8379  2.7856
   67MPD2    H1 1026   0.708   1.209  13.636  1.1271 -0.3505 -0.0521
   67MPD2    H2 1027   0.944   1.484  13.840 -2.1785  1.9184 -0.2207
   67MPD2    H3 1028   0.903   1.365  13.648  0.8550  0.4716  0.8094
   67MPD2     N 1029   0.508   1.206  13.821 -0.2521  0.2286  0.3445
   67MPD2    H5 1030   0.445   1.220  13.899  0.3659  1.4222  0.6354
   67MPD2    N1 1031   0.825   1.468  14.087 -0.5148  0.6652  0.0278
   67MPD2    H7 1032   0.753   1.470  14.159 -1.2425 -0.8701 -0.6682
   68TCq2    C1 1033   0.948   1.518  14.117 -0.5566 -0.3237  0.1928
   68TCq2    O2 1034   1.050   1.500  14.049  0.5374 -0.1138  0.1421
   68TCq2    C2 1035   0.953   1.584  14.244  0.2801  0.2406  0.2449
   68TCq2    C3 1036   0.862   1.691  14.269  0.5203  0.2319 -0.6073
   68TCq2    C4 1037   0.881   1.761  14.384  0.7893 -0.6185 -0.2315
   68TCq2    C5 1038   0.982   1.729  14.471 -0.6535  0.0090  0.0035
   68TCq2    C6 1039   1.066   1.625  14.439  0.3880  0.0211 -0.1012
   68TCq2    C7 1040   1.061   1.557  14.322 -0.2047  0.8660 -0.4525
   68TCq2    C8 1041   1.177   1.592  14.525  0.1211  0.1381 -0.9052
   68TCq2    O4 1042   1.272   1.527  14.484  0.4025 -0.1448  0.1790
   68TCq2    C9 1043   0.783   1.865  14.414  0.2818  0.2559 -0.5142
   68TCq2    O5 1044   0.765   1.891  14.539  0.3500  0.4605  0.1808
   68TCq2    O6 1045   0.712   1.902  14.316  0.1842 -0.6127 -0.4069
   68TCq2    H2 1046   0.781   1.710  14.200  1.5000  0.2106 -1.7823
   68TCq2    H3 1047   0.997   1.800  14.552 -0.3541 -0.3446  0.2561
   68TCq2    H4 1048   1.122   1.475  14.285  1.5931  2.6813 -1.4946
   69TMC2    C1 1049   2.547   2.457  11.919  0.2122 -0.0393 -0.2635
   69TMC2    C2 1050   2.447   2.526  11.863 -0.0899  0.2647 -0.2805
   69TMC2    C3 1051   2.449   2.536  11.733  0.5687 -0.1037  0.8986
   69TMC2    C4 1052   2.652   2.405  11.844 -0.7064 -0.4863  0.4216
   69TMC2    C5 1053   2.643   2.415  11.707  0.0771 -0.1312  0.3012
   69TMC2    C6 1054   2.541   2.488  11.650 -0.1981  0.5443 -0.4256
   69TMC2     C 1055   2.539   2.427  12.060  0.5695 -0.1268  0.5575
   69TMC2     O 1056   2.432   2.451  12.110  0.2607  0.0669 -0.1634
   69TMC2     H 1057   2.365   2.575  11.913 -0.5128  0.5746 -1.2721
   69TMC2    H1 1058   2.712   2.324  11.882  1.4038  1.7316  1.8466
   69TMC2    H2 1059   2.531   2.509  11.544 -0.7202 -0.4827 -0.5746
   69TMC2    C7 1060   2.744   2.361  11.624 -0.1240 -0.7992 -0.0326
   69TMC2    C8 1061   2.342   2.600  11.665  0.0218  0.0847 -0.0793
   69TMC2    O1 1062   2.850   2.327  11.680 -0.0496  1.2977  0.3485
   69TMC2    O2 1063   2.281   2.546  11.574  0.2835 -0.5132  0.3466
   69TMC2    O5 1064   2.364   2.734  11.690 -0.5503  0.1254  0.1067
   69TMC2    H5 1065   2.444   2.732  11.748  0.5357  1.4191 -1.3432
   70MPD2     C 1066   2.821   2.379  12.280  0.0657 -0.6261 -0.1811
   70MPD2    C1 1067   2.685   2.387  12.252 -0.7548  1.1362 -0.8202
   70MPD2    C2 1068   2.592   2.360  12.349  0.3850  0.1183 -0.0844
   70MPD2    C3 1069   2.625   2.338  12.480 -0.1668  0.2315  0.6986
   70MPD2    C4 1070   2.757   2.343  12.508 -0.5233  0.0553 -0.0974
   70MPD2    C5 1071   2.854   2.362  12.407  0.1414 -0.8193 -0.4760
   70MPD2     H 1072   2.486   2.369  12.331  0.2085 -0.7983  0.4767
   70MPD2    H1 1073   2.786   2.348  12.612  1.0161 -0.5487 -0.5059
   70MPD2    H2 1074   2.898   2.389  12.205 -0.8992 -0.6911 -1.1864
   70MPD2    H3 1075   2.961   2.368  12.423 -0.4497  0.4538  3.1313
   70MPD2     N 1076   2.541   2.306  12.586  0.9536  0.2079 -1.2618
   70MPD2    H5 1077   2.592   2.269  12.666  1.0083  1.1090 -0.8814
   70MPD2    N1 1078   2.655   2.405  12.120  0.2321 -0.7707 -0.5775
   70MPD2    H7 1079   2.733   2.403  12.055 -0.0972 -3.8331 -0.9044
   71TMC2    C1 1080   0.836   3.478   1.328  0.4772 -0.4018 -0.9891
   71TMC2    C2 1081   0.934   3.460   1.420 -0.3482 -0.3964  0.2290
   71TMC2    C3 1082   0.908   3.423   1.549  0.6528  0.4052  0.0602
   71TMC2    C4 1083   0.703   3.451   1.362  0.2052  0.7728 -0.7814
   71TMC2    C5 1084   0.678   3.406   1.493  0.0279  0.6558  0.3323
   71TMC2    C6 1085   0.776   3.392   1.589 -0.1204  0.0487  0.3898
   71TMC2     C 1086   0.850   3.548   1.202 -0.5278 -0.3978  0.1962
   71TMC2     O 1087   0.753   3.574   1.139  0.5144  0.5511 -0.5816
   71TMC2     H 1088   1.041   3.469   1.402 -0.6123  1.0592 -0.6442
   71TMC2    H1 1089   0.625   3.467   1.289  0.1566  1.2246 -0.6305
   71TMC2    H2 1090   0.760   3.366   1.693  0.3820  0.3506  0.5425
   71TMC2    C7 1091   0.543   3.360   1.527  0.0986  0.3698 -0.0691
   71TMC2    C8 1092   1.024   3.423   1.642 -0.0592 -0.1002  0.4878
   71TMC2    O1 1093   0.548   3.290   1.629 -0.3155  0.0058 -0.7577
   71TMC2    O2 1094   1.134   3.385   1.612  0.3101 -0.1225  0.6366
   71TMC2    O5 1095   0.987   3.496   1.750  0.4165  0.3658  0.2577
   71TMC2    H5 1096   0.934   3.571   1.717  1.0319  1.0222  0.7572
   72MPD2     C 1097   1.155   3.744   0.834 -0.1718 -0.2501  0.7106
   72MPD2    C1 1098   1.021   3.741   0.853  0.5507  0.1458  0.2707
   72MPD2    C2 1099   0.963   3.689   0.969  0.2355  0.0806  0.3681
   72MPD2    C3 1100   1.046   3.621   1.055 -0.0635 -0.6435 -0.4840
   72MPD2    C4 1101   1.180   3.619   1.039  0.6370 -0.1120  0.2447
   72MPD2    C5 1102   1.234   3.681   0.929 -0.3831  0.6818  0.0716
   72MPD2     H 1103   0.855   3.695   0.977  0.1920 -0.2376  0.0066
   72MPD2    H1 1104   1.251   3.569   1.104  1.2318 -1.9549 -1.7971
   72MPD2    H2 1105   1.208   3.785   0.749 -0.8457  0.6534  0.7249
   72MPD2    H3 1106   1.340   3.703   0.925 -0.7102  1.6382 -3.5064
   72MPD2     N 1107   0.991   3.550   1.166  0.1784  0.0470 -0.2229
   72MPD2    H5 1108   1.060   3.493   1.214  0.3928  0.3809 -0.1319
   72MPD2    N1 1109   0.934   3.800   0.756 -0.6556  0.1884 -0.6883
   72MPD2    H7 1110   0.835   3.795   0.778 -0.8305  0.4860 -1.3847
   73TMC2    C1 1111   0.171   0.121  13.433  0.1406 -0.6998 -0.1272
   73TMC2    C2 1112   0.099   0.135  13.547 -0.3087  1.0247  0.2814
   73TMC2    C3 1113   0.161   0.188  13.661  0.1245 -0.3221  0.5289
   73TMC2    C4 1114   0.304   0.146  13.438 -0.4580  0.0162  0.2013
   73TMC2    C5 1115   0.363   0.216  13.549  0.1456  0.4193 -0.1753
   73TMC2    C6 1116   0.293   0.232  13.661  0.1326 -0.2096 -0.1619
   73TMC2     C 1117   0.110   0.188  13.324 -0.7292 -0.3953  0.3876
   73TMC2     O 1118   0.186   0.259  13.259 -0.2003  0.7152  1.2882
   73TMC2     H 1119   4.720   0.113  13.556 -0.0154 -1.1693 -1.7217
   73TMC2    H1 1120   0.363   0.156  13.347  0.2332  1.2339  0.7907
   73TMC2    H2 1121   0.329   0.286  13.748 -1.6386  0.9134 -0.1281
   73TMC2    C7 1122   0.449   0.326  13.514 -0.0235 -0.7585  0.2104
   73TMC2    C8 1123   0.069   0.243  13.756 -0.7290 -0.5350  0.0483
   73TMC2    O1 1124   0.529   0.362  13.601  0.3716 -0.0583 -0.5117
   73TMC2    O2 1125   4.701   0.313  13.734 -0.1706 -0.0707 -0.7435
   73TMC2    O5 1126   0.130   0.240  13.877  0.1634 -0.5259  0.0648
   73TMC2    H5 1127   0.206   0.178  13.884 -1.1896 -2.1435  0.3742
   74MPD2     C 1128   4.487   0.258  12.948 -0.0939 -0.0840  0.0477
   74MPD2    C1 1129   4.604   0.319  12.972 -0.2244 -0.5531 -0.4742
   74MPD2    C2 1130   4.675   0.281  13.081  0.2212 -0.0691 -0.0024
   74MPD2    C3 1131   4.640   0.174  13.167 -0.1999  0.6485  0.8632
   74MPD2    C4 1132   4.521   0.110  13.127  0.6041 -0.3828 -0.5491
   74MPD2    C5 1133   4.451   0.146  13.016 -0.3089 -0.3099 -0.5105
   74MPD2     H 1134   0.036   0.338  13.109  0.0075  1.6807 -2.9833
   74MPD2    H1 1135   4.487   0.023  13.181 -2.5281 -0.6068 -2.8379
   74MPD2    H2 1136   4.433   0.288  12.859  0.5435 -0.9592 -0.6342
   74MPD2    H3 1137   4.366   0.085  12.986 -1.0642  1.5768 -2.1885
   74MPD2     N 1138   4.719   0.134  13.283  0.1846  0.3837 -0.4564
   74MPD2    H5 1139   4.674   0.059  13.335  1.4043  0.5873  0.8742
   74MPD2    N1 1140   4.656   0.419  12.876  1.0973  0.3702  0.0408
   74MPD2    H7 1141   4.596   0.445  12.798  0.6329 -0.1571  0.2218
   75TCq2    C1 1142   0.447   1.168  13.702 -0.9460  0.4245  0.1115
   75TCq2    O2 1143   0.486   1.191  13.589 -0.6806  0.3226  0.0810
   75TCq2    C2 1144   0.315   1.117  13.728 -0.3346  0.0123 -0.0769
   75TCq2    C3 1145   0.286   1.087  13.856  1.2943 -0.9468 -0.3198
   75TCq2    C4 1146   0.155   1.066  13.886 -0.2400  0.3345  0.7192
   75TCq2    C5 1147   0.062   1.062  13.791 -0.2338 -0.4328 -0.4288
   75TCq2    C6 1148   0.095   1.093  13.667 -0.7539  0.0375  0.4659
   75TCq2    C7 1149   0.224   1.120  13.628 -0.3537 -0.1172  0.5601
   75TCq2    C8 1150   4.720   1.080  13.562 -0.0551  0.2054  0.6185
   75TCq2    O4 1151   0.008   1.149  13.459 -0.2505  0.0061  0.6552
   75TCq2    C9 1152   0.116   1.035  14.022  0.0515  0.4989 -0.0675
   75TCq2    O5 1153   0.195   1.065  14.113 -0.2346  0.0539 -0.8247
   75TCq2    O6 1154   4.719   1.023  14.052  0.3883  0.6731 -0.1333
   75TCq2    H2 1155   0.358   1.071  13.935  0.2216 -2.7556  0.2898
   75TCq2    H3 1156   4.687   1.053  13.825  0.3346 -2.5381  0.7221
   75TCq2    H4 1157   0.252   1.148  13.528 -0.1367  1.3143  1.0198
   76MPD2     C 1158   3.553   1.551  11.457 -0.0069  0.4441  0.4369
   76MPD2    C1 1159   3.547   1.674  11.521  0.6020  0.0498 -0.3112
   76MPD2    C2 1160   3.578   1.686  11.654 -0.6684  0.4257  0.0630
   76MPD2    C3 1161   3.620   1.581  11.735 -0.8405 -0.6126  0.3858
   76MPD2    C4 1162   3.606   1.459  11.670  0.6425  0.0479 -0.1598
   76MPD2    C5 1163   3.583   1.444  11.540  0.6985 -0.2056  0.0197
   76MPD2     H 1164   3.594   1.788  11.686 -0.1771  0.2252  0.4550
   76MPD2    H1 1165   3.636   1.370  11.724 -0.4622  0.4445  1.1223
   76MPD2    H2 1166   3.549   1.547  11.349 -1.3688 -0.2375  0.5094
   76MPD2    H3 1167   3.585   1.342  11.503 -0.6288 -0.5314  0.8855
   76MPD2     N 1168   3.669   1.590  11.864 -0.6246  0.1262 -0.0362
   76MPD2    H5 1169   3.687   1.501  11.910  0.7791  0.2144 -0.4111
   76MPD2    N1 1170   3.517   1.798  11.452 -0.1823 -0.1296  0.0586
   76MPD2    H7 1171   3.543   1.883  11.501  0.5485 -0.9052  1.0055
   77TCq2    C1 1172   3.687   1.705  11.937  0.0873  0.5525 -0.9059
   77TCq2    O2 1173   3.656   1.819  11.904 -0.1107  0.2122  0.0016
   77TCq2    C2 1174   3.748   1.685  12.064  0.2400 -0.2830 -0.0145
   77TCq2    C3 1175   3.728   1.789  12.157 -0.2912 -0.2582 -0.0183
   77TCq2    C4 1176   3.802   1.783  12.273 -0.2407 -0.1973  0.3617
   77TCq2    C5 1177   3.885   1.678  12.300  0.7855 -0.0882 -0.4898
   77TCq2    C6 1178   3.908   1.587  12.203  0.0955  0.8317  0.0126
   77TCq2    C7 1179   3.842   1.592  12.083 -0.3523  0.9428  0.0451
   77TCq2    C8 1180   4.039   1.516  12.200  0.9042 -0.2559 -0.1106
   77TCq2    O4 1181   4.063   1.456  12.096  1.2984  0.3255 -0.2609
   77TCq2    C9 1182   3.784   1.880  12.370  0.9462 -0.1605 -0.3799
   77TCq2    O5 1183   3.866   1.886  12.468  0.1083  0.0575  0.5697
   77TCq2    O6 1184   3.674   1.948  12.356 -0.2834 -0.3270 -1.1109
   77TCq2    H2 1185   3.658   1.870  12.144 -1.5771 -1.6978 -1.9690
   77TCq2    H3 1186   3.927   1.669  12.399 -0.0650  0.2958 -0.0922
   77TCq2    H4 1187   3.864   1.513  12.013 -0.3110 -1.2794  2.5692
   78MPD1     C 1188   3.989   3.758   0.467 -0.3920  0.9531  0.1026
   78MPD1    C1 1189   3.971   3.735   0.604  0.1631  0.4163  0.1577
   78MPD1    C2 1190   4.049   3.629   0.659  0.3691 -1.1253  0.1963
   78MPD1    C3 1191   4.152   3.566   0.587 -0.6543  0.8611 -0.2916
   78MPD1    C4 1192   4.155   3.583   0.447  0.4080 -0.5809 -0.4783
   78MPD1    C5 1193   4.075   3.679   0.391  0.6376 -0.6730  0.1305
   78MPD1     H 1194   4.022   3.606   0.762  0.2632  0.8131  0.6001
   78MPD1    H1 1195   4.226   3.524   0.391  1.5816  2.1784 -1.8776
   78MPD1    H2 1196   3.934   3.840   0.424  0.1887  1.9981  1.3262
   78MPD1    H3 1197   4.088   3.696   0.284 -0.6872 -1.4209 -0.1452
   78MPD1     N 1198   4.244   3.477   0.655 -0.3543 -0.4700  0.2512
   78MPD1    H5 1199   4.322   3.448   0.597 -1.0504  3.2643 -2.5864
   78MPD1    N1 1200   3.854   3.773   0.664 -0.6695 -0.3484  0.7009
   78MPD1    H6 1201   3.866   3.770   0.765  0.3236 -1.2449  0.5610
   78MPD1    H7 1202   3.831   3.871   0.649  2.6512  0.1663 -1.1248
   79TCq2    C1 1203   4.224   3.424   0.781 -0.6048 -0.4195  1.2225
   79TCq2    O2 1204   4.129   3.433   0.862  0.7473 -0.1845 -0.2853
   79TCq2    C2 1205   4.333   3.333   0.818 -0.7908  0.1793 -0.1542
   79TCq2    C3 1206   4.305   3.243   0.908  0.3873  0.0065 -0.0593
   79TCq2    C4 1207   4.408   3.165   0.947  0.2598 -0.6471  1.2932
   79TCq2    C5 1208   4.536   3.190   0.914 -0.3193 -0.0885 -0.1841
   79TCq2    C6 1209   4.559   3.285   0.823  0.4081  0.1182  0.9303
   79TCq2    C7 1210   4.458   3.361   0.775  0.3362 -0.3402  0.7864
   79TCq2    C8 1211   4.694   3.317   0.781 -0.0418 -0.0442 -0.4900
   79TCq2    O4 1212   0.049   3.227   0.767  0.3199  0.4062  0.4151
   79TCq2    C9 1213   4.383   3.069   1.043  0.7941 -1.0613 -0.0260
   79TCq2    O5 1214   4.479   2.990   1.076 -0.5326 -0.4978 -0.3586
   79TCq2    O6 1215   4.272   3.066   1.098  0.0101 -0.1979 -0.1364
   79TCq2    H2 1216   4.205   3.208   0.934  0.2020  1.3811  1.0304
   79TCq2    H3 1217   4.621   3.130   0.946  0.3303  1.4604  0.9957
   79TCq2    H4 1218   4.473   3.441   0.704 -0.3984 -0.0139  0.9981
   80MPD2     C 1219   2.642   1.694  11.915 -0.0639  0.7524 -0.2622
   80MPD2    C1 1220   2.554   1.672  11.809  0.2973  0.2050  0.1723
   80MPD2    C2 1221   2.427   1.710  11.817  0.6506 -0.1581 -0.5492
   80MPD2    C3 1222   2.376   1.765  11.933  0.1575 -0.6566  0.2716
   80MPD2    C4 1223   2.463   1.784  12.048 -0.1054  0.0622 -0.3274
   80MPD2    C5 1224   2.594   1.743  12.037 -0.3666  0.1626  0.6961
   80MPD2     H 1225   2.365   1.693  11.730 -0.0392 -1.6484  0.2278
   80MPD2    H1 1226   2.428   1.807  12.148  1.0401  1.2831 -0.2164
   80MPD2    H2 1227   2.750   1.682  11.914 -0.1344  0.1168 -0.2830
   80MPD2    H3 1228   2.659   1.742  12.124  1.6183 -1.6517 -0.8077
   80MPD2     N 1229   2.236   1.790  11.952  0.4723  0.3866  0.4509
   80MPD2    H5 1230   2.204   1.825  12.042  3.2026 -0.6158  1.8257
   80MPD2    N1 1231   2.603   1.612  11.688 -0.2626  0.4999  0.6619
   80MPD2    H7 1232   2.545   1.602  11.606  0.2263 -1.2316  0.5361
   81TCq2    C1 1233   2.736   1.582  11.663 -0.4681 -0.3149 -0.2229
   81TCq2    O2 1234   2.842   1.626  11.709 -0.4844  0.1107  0.1861
   81TCq2    C2 1235   2.742   1.499  11.535  0.2768 -0.2826  0.2594
   81TCq2    C3 1236   2.842   1.539  11.450 -0.3326 -0.7680  0.0741
   81TCq2    C4 1237   2.828   1.507  11.317  0.7368 -0.4351 -0.6574
   81TCq2    C5 1238   2.718   1.436  11.279 -0.6119 -0.5732  0.3789
   81TCq2    C6 1239   2.620   1.406  11.365 -0.3760  1.1334  0.1918
   81TCq2    C7 1240   2.631   1.438  11.493  0.4072 -0.7208  0.9756
   81TCq2    C8 1241   2.511   1.317  11.311 -0.5790  0.4196  1.1190
   81TCq2    O4 1242   2.511   1.270  11.200 -0.4493  0.6543  0.2254
   81TCq2    C9 1243   2.930   1.544  11.224 -0.2426  0.3538 -0.7293
   81TCq2    O5 1244   3.034   1.601  11.276  0.4490 -0.1648  0.1905
   81TCq2    O6 1245   2.913   1.520  11.101 -0.2400  0.0612  0.4709
   81TCq2    H2 1246   2.924   1.600  11.488 -1.7761  0.0586  1.8563
   81TCq2    H3 1247   2.712   1.413  11.173 -0.6710  1.8923 -0.1527
   81TCq2    H4 1248   2.562   1.409  11.571  1.7216 -0.7383  2.1199
   82MPD2     C 1249   0.562   1.203  10.136 -0.0665  0.3494 -0.8323
   82MPD2    C1 1250   0.611   1.110  10.045  0.1564  0.8492 -0.2571
   82MPD2    C2 1251   0.728   1.047  10.064  0.2629 -0.1426 -0.0088
   82MPD2    C3 1252   0.798   1.071  10.177 -0.1196  0.5406 -0.4226
   82MPD2    C4 1253   0.759   1.175  10.259  0.1180 -0.0197 -0.7073
   82MPD2    C5 1254   0.638   1.233  10.245  0.1445 -0.4205 -0.3553
   82MPD2     H 1255   0.763   0.968   9.998 -0.3404  0.0268 -0.5350
   82MPD2    H1 1256   0.813   1.203  10.349 -1.3096  1.9221 -0.4716
   82MPD2    H2 1257   0.465   1.248  10.118 -1.3963 -1.8658  0.6394
   82MPD2    H3 1258   0.607   1.306  10.318 -1.6697 -0.4637 -1.0825
   82MPD2     N 1259   0.909   1.002  10.225 -0.6995 -0.0728  0.3501
   82MPD2    H5 1260   0.948   1.038  10.311  2.2838 -1.5581 -0.3910
   82MPD2    N1 1261   0.536   1.099   9.926 -0.4473 -0.6677  0.3601
   82MPD2    H7 1262   0.460   1.165   9.912 -1.4211 -2.0355 -0.7089
   83TCq2    C1 1263   0.966   0.889  10.173  0.7662 -0.1036  0.6639
   83TCq2    O2 1264   0.953   0.835  10.064 -0.2080  0.0860  0.6638
   83TCq2    C2 1265   1.066   0.841  10.267  0.9380  0.4856  0.6094
   83TCq2    C3 1266   1.142   0.917  10.341  0.1561 -0.1499 -0.5956
   83TCq2    C4 1267   1.222   0.875  10.440  0.5452 -0.1504  0.0627
   83TCq2    C5 1268   1.219   0.740  10.473  0.3331  0.3086  0.2179
   83TCq2    C6 1269   1.138   0.656  10.392 -0.3318  0.1028  0.0316
   83TCq2    C7 1270   1.067   0.707  10.287 -0.6480 -0.2192  0.6807
   83TCq2    C8 1271   1.117   0.521  10.438  0.0822 -0.1191 -0.3839
   83TCq2    O4 1272   1.151   0.492  10.553  0.1153 -0.1014  1.4065
   83TCq2    C9 1273   1.309   0.959  10.511 -0.4114  0.8164  0.1716
   83TCq2    O5 1274   1.305   1.084  10.483 -0.7884 -0.1368  0.0323
   83TCq2    O6 1275   1.374   0.916  10.612  0.3068 -0.2679  0.1604
   83TCq2    H2 1276   1.146   1.025  10.327 -0.8051  0.2468  2.2198
   83TCq2    H3 1277   1.284   0.697  10.548 -0.6146 -0.8698  0.3687
   83TCq2    H4 1278   0.981   0.655  10.244 -0.5438 -0.8545  1.2324
   84TCq2    C1 1279   2.175   4.726   9.629  1.2757  0.1321 -0.1124
   84TCq2    O2 1280   2.086   4.644   9.618  0.5503 -0.2791  0.0631
   84TCq2    C2 1281   2.254   0.012   9.748  0.2494 -0.0686 -0.5494
   84TCq2    C3 1282   2.382   0.066   9.731 -0.1745 -0.2652  0.1352
   84TCq2    C4 1283   2.433   0.139   9.832  0.2032  0.1123 -0.4865
   84TCq2    C5 1284   2.370   0.150   9.948 -0.0703  0.2867  0.0473
   84TCq2    C6 1285   2.248   0.091   9.967 -0.7864  0.2195 -0.0905
   84TCq2    C7 1286   2.182   0.020   9.866 -0.0982  0.7159 -0.2288
   84TCq2    C8 1287   2.200   0.103  10.104  0.2517 -0.5492 -0.9275
   84TCq2    O4 1288   2.272   0.153  10.189  0.3237 -0.2038 -0.0694
   84TCq2    C9 1289   2.562   0.201   9.821 -1.0436  0.2474 -0.2007
   84TCq2    O5 1290   2.630   0.190   9.713  0.5177  0.7141  0.3139
   84TCq2    O6 1291   2.609   0.263   9.924  0.3431  0.4023 -0.7775
   84TCq2    H2 1292   2.438   0.063   9.638  0.5395  2.6343  0.4973
   84TCq2    H3 1293   2.405   0.216  10.026  0.5733  0.7273 -0.6189
   84TCq2    H4 1294   2.082   4.707   9.868 -0.4180  1.5444 -0.0064
   85MPD2     C 1295   2.521   2.799  16.186  0.1318 -0.4782  0.1295
   85MPD2    C1 1296   2.588   2.753  16.074  0.5337  0.4710 -0.4812
   85MPD2    C2 1297   2.696   2.835  16.031 -1.0407  0.2396  1.1079
   85MPD2    C3 1298   2.739   2.948  16.103 -0.9359 -0.2598  0.1326
   85MPD2    C4 1299   2.663   2.987  16.211  0.3335 -0.3646  0.1038
   85MPD2    C5 1300   2.560   2.916  16.247 -0.0854 -0.3952 -0.3943
   85MPD2     H 1301   2.742   2.814  15.935 -2.1536  0.8123  0.4455
   85MPD2    H1 1302   2.686   3.081  16.261  3.0276 -0.9691 -0.0225
   85MPD2    H2 1303   2.433   2.748  16.223  1.0636 -1.7094  0.6240
   85MPD2    H3 1304   2.491   2.954  16.321  1.3649  2.3932 -0.4955
   85MPD2     N 1305   2.837   3.033  16.053 -0.3322 -0.3041 -0.6304
   85MPD2    H5 1306   2.863   3.027  15.956 -2.1134 -0.8011 -1.0860
   85MPD2    N1 1307   2.549   2.643  15.996  0.1142  0.4777  0.3738
   85MPD2    H7 1308   2.587   2.633  15.903  1.2096 -0.5392  0.9190
   86TCq2    C1 1309   2.914   3.115  16.133  0.5258 -0.2675  0.6002
   86TCq2    O2 1310   2.910   3.131  16.254 -0.1043 -0.7344 -0.6276
   86TCq2    C2 1311   3.026   3.162  16.058  0.2092 -0.5847 -0.1131
   86TCq2    C3 1312   3.144   3.192  16.132  0.0897 -0.9396 -0.3284
   86TCq2    C4 1313   3.256   3.241  16.069 -0.2106  0.1828 -0.1702
   86TCq2    C5 1314   3.253   3.268  15.938  0.2710 -0.3525 -0.5180
   86TCq2    C6 1315   3.129   3.254  15.874 -0.5812  0.5998 -0.3766
   86TCq2    C7 1316   3.013   3.202  15.932  0.6337 -0.2607 -0.2203
   86TCq2    C8 1317   3.118   3.299  15.740 -0.3699  0.2844  0.0804
   86TCq2    O4 1318   3.228   3.309  15.679  0.1848  0.9213 -0.0422
   86TCq2    C9 1319   3.372   3.263  16.153 -0.6031  0.3424  0.1471
   86TCq2    O5 1320   3.397   3.180  16.246 -0.0731  0.4013  0.1570
   86TCq2    O6 1321   3.453   3.337  16.098  0.2851  0.0154  0.2678
   86TCq2    H2 1322   3.148   3.162  16.236 -0.3115 -1.5263 -0.4846
   86TCq2    H3 1323   3.342   3.308  15.891  0.2906 -0.5287 -0.6315
   86TCq2    H4 1324   2.917   3.202  15.882 -0.5485  0.6661  2.0957
   87MPD2     C 1325   3.763   2.303   0.878 -0.0163  0.7069  0.0351
   87MPD2    C1 1326   3.782   2.215   0.775 -0.0648 -0.2586  0.2369
   87MPD2    C2 1327   3.696   2.217   0.666  0.2455  0.1262  0.5923
   87MPD2    C3 1328   3.593   2.315   0.660 -0.3730  0.0836  0.3985
   87MPD2    C4 1329   3.574   2.389   0.772  0.3427 -0.7879 -0.6519
   87MPD2    C5 1330   3.656   2.384   0.877 -0.1860  0.1705 -0.2037
   87MPD2     H 1331   3.704   2.152   0.579  3.5655 -1.0305  1.7554
   87MPD2    H1 1332   3.496   2.464   0.773  2.4216  1.3566  1.4692
   87MPD2    H2 1333   3.825   2.304   0.967 -0.0218  0.7425  0.0385
   87MPD2    H3 1334   3.636   2.451   0.959 -0.5929 -1.1942  0.8244
   87MPD2     N 1335   3.498   2.338   0.554  0.0382  0.2931 -0.1464
   87MPD2    H5 1336   3.426   2.409   0.566  1.2779  1.4771  0.3274
   87MPD2    N1 1337   3.902   2.143   0.780  0.5767 -0.3431 -0.7850
   87MPD2    H7 1338   3.947   2.148   0.871 -1.4222 -1.2672  0.2432
   88TCq2    C1 1339   3.950   2.073   0.669  0.0503 -0.4317 -0.4350
   88TCq2    O2 1340   3.906   2.051   0.557 -0.2618  0.5247  0.4306
   88TCq2    C2 1341   4.086   2.017   0.692  0.3855 -0.4734 -0.1438
   88TCq2    C3 1342   4.180   2.084   0.766 -0.3229  0.6774  0.8930
   88TCq2    C4 1343   4.305   2.033   0.773 -0.0214  0.4746 -0.1340
   88TCq2    C5 1344   4.340   1.923   0.712 -0.4740 -0.3742 -0.2237
   88TCq2    C6 1345   4.247   1.854   0.639  0.7536  0.7661 -0.6103
   88TCq2    C7 1346   4.118   1.900   0.635 -0.9134 -0.1835 -0.2224
   88TCq2    C8 1347   4.270   1.713   0.606 -0.7192  0.1812  0.4095
   88TCq2    O4 1348   4.178   1.644   0.581  0.2782  0.4403  0.0552
   88TCq2    C9 1349   4.401   2.109   0.845  0.2054 -0.2448 -0.1239
   88TCq2    O5 1350   4.355   2.177   0.941 -0.6538 -0.0839  0.6992
   88TCq2    O6 1351   4.519   2.060   0.840  0.5206  0.0889 -0.0927
   88TCq2    H2 1352   4.148   2.163   0.833 -0.7821  0.3637  1.0481
   88TCq2    H3 1353   4.444   1.895   0.722 -1.2045 -3.1635 -0.6300
   88TCq2    H4 1354   4.046   1.849   0.572 -1.9456  0.9467  0.0377
   89MPD2     C 1355   1.510   3.767   1.383  0.2653 -0.0604 -0.0483
   89MPD2    C1 1356   1.442   3.881   1.357 -0.3993  0.3078 -0.1550
   89MPD2    C2 1357   1.518   3.996   1.342 -0.2223 -0.3672 -0.9500
   89MPD2    C3 1358   1.654   3.996   1.367 -0.2494  0.4855 -0.1682
   89MPD2    C4 1359   1.715   3.880   1.395  0.5785 -0.4345 -0.6530
   89MPD2    C5 1360   1.642   3.763   1.401  0.2584 -0.0855 -0.7618
   89MPD2     H 1361   1.467   4.091   1.331  0.3372 -0.1040 -1.2649
   89MPD2    H1 1362   1.821   3.862   1.413  0.0016 -0.8653  2.3032
   89MPD2    H2 1363   1.461   3.671   1.385  1.4303 -0.6547 -0.2530
   89MPD2    H3 1364   1.691   3.671   1.432  1.5765  1.4470  1.7733
   89MPD2     N 1365   1.722   4.123   1.370  0.0985  0.5430 -0.5980
   89MPD2    H5 1366   1.670   4.206   1.343 -1.4713  0.3480  1.8419
   89MPD2    N1 1367   1.303   3.885   1.338  0.0499  0.2752  0.0130
   89MPD2    H7 1368   1.262   3.973   1.309  0.9007  0.5946 -0.2190
   90TCq2    C1 1369   1.853   4.144   1.394  0.2202  0.4493  0.0788
   90TCq2    O2 1370   1.945   4.062   1.413  0.0054 -0.2638  0.0761
   90TCq2    C2 1371   1.886   4.279   1.416 -0.3339 -0.0240  0.2110
   90TCq2    C3 1372   2.010   4.320   1.376  0.6855 -0.7274  0.8435
   90TCq2    C4 1373   2.041   4.453   1.377  0.2620 -0.2646 -0.6100
   90TCq2    C5 1374   1.962   4.547   1.430 -0.2490 -0.1268  0.0193
   90TCq2    C6 1375   1.832   4.507   1.474 -0.6562  0.7739  0.8041
   90TCq2    C7 1376   1.796   4.376   1.471 -0.3013  0.2735  0.4343
   90TCq2    C8 1377   1.720   4.598   1.481 -0.3031 -0.2175 -0.6568
   90TCq2    O4 1378   1.610   4.561   1.518 -0.2938  0.0560 -0.6543
   90TCq2    C9 1379   2.179   4.494   1.366  0.5161 -0.4236  0.8547
   90TCq2    O5 1380   2.270   4.404   1.371  0.0249 -0.3904 -0.1152
   90TCq2    O6 1381   2.203   4.610   1.328  0.3192  0.3294  0.3667
   90TCq2    H2 1382   2.076   4.250   1.326 -0.3565 -1.2396  0.1841
   90TCq2    H3 1383   2.004   4.646   1.437  1.5735 -1.0136  1.6306
   90TCq2    H4 1384   1.696   4.337   1.488 -0.0789  0.7095  2.7029
   91TMC2    C1 1385   2.522   4.110  16.218  0.3492 -0.1627 -0.9899
   91TMC2    C2 1386   2.496   4.140  16.348  0.5309 -0.1419 -0.3568
   91TMC2    C3 1387   2.369   4.093  16.398  0.4006  0.4814  0.1071
   91TMC2    C4 1388   2.424   4.073  16.132 -0.1300 -0.0005  0.7916
   91TMC2    C5 1389   2.303   4.039  16.188  0.4640 -0.9144  0.5335
   91TMC2    C6 1390   2.276   4.040  16.312 -0.9577  0.3314  0.0374
   91TMC2     C 1391   2.661   4.121  16.172  0.0178 -0.3445 -0.2871
   91TMC2     O 1392   2.681   4.104  16.051 -0.3682 -0.6412 -0.7033
   91TMC2     H 1393   2.560   4.202  16.410  1.4276  0.0335 -1.4546
   91TMC2    H1 1394   2.441   4.078  16.025  5.5432 -1.7371  1.5617
   91TMC2    H2 1395   2.191   3.989  16.356  1.3372 -0.1016  3.9291
   91TMC2    C7 1396   2.209   3.969  16.101  0.1471  0.0944  1.0923
   91TMC2    C8 1397   2.344   4.076  16.538  0.3927 -0.7232  0.3674
   91TMC2    O1 1398   2.148   3.875  16.144  0.4044  0.2165 -0.7193
   91TMC2    O2 1399   2.235   4.042  16.572  0.8006  0.0886  0.5913
   91TMC2    O5 1400   2.446   4.119  16.614 -0.0887 -0.3464 -0.0605
   91TMC2    H5 1401   2.538   4.118  16.580 -0.3070 -0.2291 -0.6644
   92MPD2     C 1402   2.943   4.191  16.123  0.2471 -0.0424 -0.3590
   92MPD2    C1 1403   2.889   4.178  16.249 -0.4339 -0.1498  0.4416
   92MPD2    C2 1404   2.975   4.181  16.361 -0.4624  0.2665  0.2170
   92MPD2    C3 1405   3.110   4.200  16.350 -0.8060 -0.4773  0.0102
   92MPD2    C4 1406   3.164   4.206  16.226 -0.5824  1.5376  0.3786
   92MPD2    C5 1407   3.084   4.201  16.118 -0.1166 -0.4240  0.2093
   92MPD2     H 1408   2.929   4.167  16.458 -1.7817 -0.1724 -0.4733
   92MPD2    H1 1409   3.271   4.216  16.214 -0.7113  1.4872 -0.8079
   92MPD2    H2 1410   2.885   4.201  16.032  0.9877  2.0974 -0.5822
   92MPD2    H3 1411   3.119   4.208  16.015 -1.1826 -1.0310 -0.1968
   92MPD2     N 1412   3.188   4.210  16.468 -0.5172  0.2517 -0.2131
   92MPD2    H5 1413   3.136   4.199  16.554 -2.5058 -3.3925 -1.9198
   92MPD2    N1 1414   2.749   4.160  16.271  0.2060  0.1359  0.7065
   92MPD2    H7 1415   2.724   4.153  16.369 -1.0739  0.8530  0.4361
   93MPD2     C 1416   4.465   3.853  13.256 -0.8849  0.3218  0.0127
   93MPD2    C1 1417   4.381   3.919  13.341 -0.6716 -0.2778  0.7614
   93MPD2    C2 1418   4.251   3.937  13.303 -0.5021 -0.3697 -0.0369
   93MPD2    C3 1419   4.197   3.902  13.185 -0.3992 -0.0734 -0.5235
   93MPD2    C4 1420   4.282   3.844  13.093 -0.1748  0.1423 -0.0802
   93MPD2    C5 1421   4.412   3.820  13.133  0.2146 -0.2881  0.1037
   93MPD2     H 1422   4.186   3.987  13.374  1.3246 -0.3679  1.6201
   93MPD2    H1 1423   4.257   3.816  12.991  0.0861  0.7524 -0.3119
   93MPD2    H2 1424   4.567   3.828  13.283 -1.5304 -0.6766  1.5222
   93MPD2    H3 1425   4.478   3.795  13.051 -0.2182  0.9802 -0.6268
   93MPD2     N 1426   4.061   3.917  13.146 -0.2945  0.7957 -0.0821
   93MPD2    H5 1427   4.029   3.878  13.058 -1.7311  1.9691 -0.0832
   93MPD2    N1 1428   4.424   3.979  13.460  0.4369 -0.1118  0.1398
   93MPD2    H7 1429   4.353   4.028  13.514 -0.9821 -0.6736 -1.1954
   94TCq2    C1 1430   4.558   3.983  13.501 -0.1197  0.2492 -0.2605
   94TCq2    O2 1431   4.655   3.918  13.459 -0.8846 -0.1197  0.2944
   94TCq2    C2 1432   4.590   4.086  13.596  0.9348  0.0609 -0.0187
   94TCq2    C3 1433   4.503   4.170  13.652 -0.1992 -0.3354  0.8735
   94TCq2    C4 1434   4.547   4.275  13.723  0.0789  0.6460  1.0227
   94TCq2    C5 1435   4.676   4.295  13.751 -0.2525 -0.5799 -0.1372
   94TCq2    C6 1436   0.044   4.205  13.702 -0.4007 -0.3957 -0.3273
   94TCq2    C7 1437   0.001   4.108  13.620 -0.0435  0.6446  0.2096
   94TCq2    C8 1438   0.196   4.229  13.700 -0.3098  0.7695 -0.0977
   94TCq2    O4 1439   0.262   4.136  13.668 -0.0239  0.1051 -0.3958
   94TCq2    C9 1440   4.441   4.373  13.768  0.3395 -0.0286 -0.2943
   94TCq2    O5 1441   4.342   4.386  13.691  0.1740  0.3585  0.3186
   94TCq2    O6 1442   4.475   4.460  13.856 -0.2030 -0.0415  0.3363
   94TCq2    H2 1443   4.397   4.164  13.630  0.0931 -1.2587 -0.2427
   94TCq2    H3 1444   4.708   4.380  13.811 -1.5844  0.6238 -1.1276
   94TCq2    H4 1445   0.074   4.046  13.569  2.0495  0.7933  3.0770
   95TMC2    C1 1446   4.707   1.084  16.011  0.3237 -0.2403  0.1858
   95TMC2    C2 1447   0.014   0.953  15.996 -0.0439  0.2681 -0.4817
   95TMC2    C3 1448   4.715   0.865  16.100  0.6301 -0.0620 -0.2524
   95TMC2    C4 1449   4.624   1.122  16.115 -0.3283  0.2795 -0.3752
   95TMC2    C5 1450   4.602   1.029  16.214 -0.1841 -0.5261 -0.0631
   95TMC2    C6 1451   4.654   0.900  16.217  0.0697  0.8111  0.3979
   95TMC2     C 1452   0.017   1.176  15.904 -0.3750 -0.5408 -0.3094
   95TMC2     O 1453   0.076   1.127  15.806 -0.2400  0.2198 -0.2871
   95TMC2     H 1454   0.070   0.923  15.909 -3.4131 -1.4871 -2.0475
   95TMC2    H1 1455   4.580   1.221  16.123 -0.6238 -0.0068  1.5686
   95TMC2    H2 1456   4.621   0.819  16.280 -1.4663 -0.7200 -2.3692
   95TMC2    C7 1457   4.549   1.086  16.340  0.1979  0.0060  0.9554
   95TMC2    C8 1458   4.691   0.720  16.074  0.1292 -1.0995  0.3842
   95TMC2    O1 1459   4.520   1.205  16.347  0.1753  0.2810 -0.2919
   95TMC2    O2 1460   4.680   0.647  16.170  0.0007  0.3977  0.0806
   95TMC2    O5 1461   4.605   0.715  15.969  0.0309  0.0343 -0.0778
   95TMC2    H5 1462   4.614   0.793  15.911 -0.5883  0.4594  0.3997
   96MPD2     C 1463   0.057   1.649  15.727  0.5923  0.5647 -0.4169
   96MPD2    C1 1464   0.134   1.536  15.700 -0.3607 -0.3202  0.3599
   96MPD2    C2 1465   0.097   1.414  15.750  0.4231  0.6470  0.0806
   96MPD2    C3 1466   4.721   1.414  15.842 -0.9257 -0.5078  0.5616
   96MPD2    C4 1467   4.650   1.525  15.868 -0.1688 -0.1593  0.7327
   96MPD2    C5 1468   4.674   1.641  15.807 -0.5658 -0.3441  0.3320
   96MPD2     H 1469   0.155   1.329  15.716 -1.4238 -0.6494  0.1724
   96MPD2    H1 1470   4.563   1.523  15.933 -0.9151 -0.5373 -0.2728
   96MPD2    H2 1471   0.063   1.748  15.683 -0.1438  0.5239 -0.5970
   96MPD2    H3 1472   4.603   1.721  15.825 -0.3340  0.1131 -0.7926
   96MPD2     N 1473   4.690   1.301  15.922  0.3666  0.0877 -0.4041
   96MPD2    H5 1474   4.624   1.315  15.998  1.8722 -1.6299  1.2191
   96MPD2    N1 1475   0.241   1.545  15.599  0.4184  0.7835  0.1508
   96MPD2    H7 1476   0.264   1.639  15.569  0.9305  0.9750  1.1381
   97MPD2     C 1477   1.792   3.471   0.349 -0.0313  0.5742  0.1788
   97MPD2    C1 1478   1.726   3.586   0.376  0.5889 -0.1641 -0.1764
   97MPD2    C2 1479   1.686   3.668   0.275  0.8153 -0.2345 -0.0216
   97MPD2    C3 1480   1.714   3.632   0.145  0.1503  0.7665 -0.5339
   97MPD2    C4 1481   1.776   3.511   0.112  0.3801  0.5784 -0.3439
   97MPD2    C5 1482   1.817   3.434   0.218  0.0645 -0.2895  0.0746
   97MPD2     H 1483   1.617   3.749   0.297  1.9390  0.2558  1.6556
   97MPD2    H1 1484   1.802   3.483   0.011  0.2881  0.6453 -0.3849
   97MPD2    H2 1485   1.816   3.399   0.426 -0.5089  1.9633  1.6269
   97MPD2    H3 1486   1.871   3.341   0.205 -1.2510 -0.9806 -0.4399
   97MPD2     N 1487   1.676   3.713   0.031 -0.1118  0.0763  0.0103
   97MPD2    H5 1488   1.722   3.683  17.653 -0.2460  2.3425 -0.8581
   97MPD2    N1 1489   1.706   3.615   0.517  0.7381  0.2597  0.9909
   97MPD2    H7 1490   1.749   3.554   0.585  0.7660 -0.0324  0.7118
   98TCq2    C1 1491   1.646   3.851   0.029  0.0725  0.1526  0.8013
   98TCq2    O2 1492   1.635   3.926   0.127  0.6726  0.1513  0.1474
   98TCq2    C2 1493   1.652   3.915  17.611 -0.3725  0.3381  0.2824
   98TCq2    C3 1494   1.620   3.845  17.498 -0.1630  0.0424  0.3330
   98TCq2    C4 1495   1.634   3.910  17.381 -0.1067  0.4689  0.2326
   98TCq2    C5 1496   1.660   4.045  17.373  0.4505  0.3081  0.0182
   98TCq2    C6 1497   1.683   4.116  17.493 -0.2688 -0.2164  0.0390
   98TCq2    C7 1498   1.674   4.050  17.612 -0.4406  0.0425 -0.0346
   98TCq2    C8 1499   1.764   4.235  17.483  0.1692 -0.0172 -0.3995
   98TCq2    O4 1500   1.830   4.268  17.583 -0.2672  0.1196  0.1552
   98TCq2    C9 1501   1.592   3.850  17.255  0.0768 -0.3055  0.2078
   98TCq2    O5 1502   1.661   3.886  17.158 -1.0613 -0.4149 -0.3020
   98TCq2    O6 1503   1.493   3.774  17.254 -0.1330  0.4629  0.6553
   98TCq2    H2 1504   1.586   3.742  17.502 -1.6468  0.5861  1.3849
   98TCq2    H3 1505   1.663   4.086  17.272  1.6089  0.4079  0.0912
   98TCq2    H4 1506   1.696   4.101  17.706 -0.8426  0.2721 -0.0671
   99MPD2     C 1507   0.359   1.695   1.361  0.1681  0.8323 -0.0512
   99MPD2    C1 1508   0.313   1.608   1.452 -0.3220  0.0318  0.5164
   99MPD2    C2 1509   0.310   1.470   1.437  0.2829 -0.0309 -0.3241
   99MPD2    C3 1510   0.381   1.418   1.332  0.0256 -0.4591 -0.0026
   99MPD2    C4 1511   0.432   1.502   1.233 -0.1127 -0.1736 -0.2113
   99MPD2    C5 1512   0.410   1.635   1.249  0.4022 -0.8401 -0.0521
   99MPD2     H 1513   0.262   1.406   1.510  1.3915 -0.5065 -0.0165
   99MPD2    H1 1514   0.488   1.469   1.147 -1.6188 -0.6364 -1.0080
   99MPD2    H2 1515   0.350   1.802   1.373  1.3401  0.9618 -0.3113
   99MPD2    H3 1516   0.453   1.693   1.169 -1.4205 -1.9215 -1.8129
   99MPD2     N 1517   0.388   1.280   1.321  0.2784 -0.0240  0.0420
   99MPD2    H5 1518   0.319   1.223   1.368  1.0166  0.2797  1.4949
   99MPD2    N1 1519   0.251   1.656   1.572  0.4377  0.0610 -0.5965
   99MPD2    H7 1520   0.210   1.588   1.635  2.2855 -1.3427 -0.9165
  100TCq2    C1 1521   0.245   1.791   1.613  0.3719 -0.3459 -0.5019
  100TCq2    O2 1522   0.325   1.882   1.584  0.2873 -0.0772  0.1832
  100TCq2    C2 1523   0.154   1.808   1.730  0.2837 -1.0534  0.2251
  100TCq2    C3 1524   0.156   1.928   1.793 -0.1168 -0.3942 -0.1342
  100TCq2    C4 1525   0.067   1.951   1.895 -0.1172  0.3033 -0.1458
  100TCq2    C5 1526   4.705   1.858   1.934  0.1159 -0.3336 -0.6409
  100TCq2    C6 1527   4.688   1.747   1.852 -0.1127  0.1939  0.0914
  100TCq2    C7 1528   0.055   1.718   1.752  0.3565 -0.3786 -0.2159
  100TCq2    C8 1529   4.575   1.656   1.883 -0.4360 -0.2000  0.3708
  100TCq2    O4 1530   4.505   1.700   1.974 -0.2062 -0.4454  0.0030
  100TCq2    C9 1531   0.072   2.071   1.970 -0.8103  0.2008  0.1639
  100TCq2    O5 1532   0.169   2.148   1.935  0.5400  0.1043 -0.1440
  100TCq2    O6 1533   0.000   2.091   2.072 -0.1429 -0.0245 -0.9186
  100TCq2    H2 1534   0.228   1.999   1.754  0.1489 -1.1645 -1.0537
  100TCq2    H3 1535   4.633   1.886   2.011 -0.0161  0.9789 -1.2358
  100TCq2    H4 1536   0.032   1.633   1.689 -2.2085  0.7115 -0.7501
  101MPD2     C 1537   1.485   1.648  12.436  0.8900 -1.0158  0.5431
  101MPD2    C1 1538   1.380   1.700  12.504  0.0101 -0.3491 -0.0808
  101MPD2    C2 1539   1.333   1.636  12.621  0.1008  0.5896 -0.7066
  101MPD2    C3 1540   1.381   1.507  12.650  0.0685 -0.1003  0.0152
  101MPD2    C4 1541   1.486   1.458  12.581 -1.6153  0.2771  0.7730
  101MPD2    C5 1542   1.529   1.522  12.471  0.6391  0.0849  0.0397
  101MPD2     H 1543   1.258   1.677  12.688 -0.2747 -0.2844 -0.5884
  101MPD2    H1 1544   1.526   1.362  12.612 -0.0392  0.3258 -1.1044
  101MPD2    H2 1545   1.537   1.699  12.355 -0.6011  0.2416  0.3895
  101MPD2    H3 1546   1.608   1.480  12.409  1.5390  1.5280  0.2054
  101MPD2     N 1547   1.320   1.447  12.760 -0.1307 -0.3381  0.1958
  101MPD2    H5 1548   1.253   1.509  12.804 -0.9015 -0.2096 -1.1725
  101MPD2    N1 1549   1.322   1.820  12.449  0.3213  0.4629  0.4093
  101MPD2    H7 1550   1.360   1.854  12.362 -0.5812  2.5444  0.8378
  102TCq2    C1 1551   1.238   2.187  12.141  0.6428  0.5694  0.4865
  102TCq2    O2 1552   1.360   2.170  12.124  0.4925 -0.6578 -0.5843
  102TCq2    C2 1553   1.167   2.147  12.256 -0.4748  0.6676 -0.1023
  102TCq2    C3 1554   1.044   2.192  12.282  0.1709 -0.0287  0.0354
  102TCq2    C4 1555   0.980   2.147  12.396 -0.7553  0.0242 -0.6021
  102TCq2    C5 1556   1.042   2.061  12.480 -0.3790 -0.4471 -0.1357
  102TCq2    C6 1557   1.157   1.997  12.436 -0.1437 -0.1560 -0.4078
  102TCq2    C7 1558   1.226   2.046  12.324 -0.4455 -0.0985  0.2714
  102TCq2    C8 1559   1.221   1.892  12.515  0.5810 -0.1458 -0.6904
  102TCq2    O4 1560   1.166   1.870  12.620 -0.5541  0.1320  0.3462
  102TCq2    C9 1561   0.857   2.200  12.435 -0.1416 -0.2813 -0.1230
  102TCq2    O5 1562   0.801   2.140  12.530  0.0122 -0.0574 -0.3186
  102TCq2    O6 1563   0.809   2.289  12.361  0.1642  0.2848 -0.2010
  102TCq2    H2 1564   1.000   2.272  12.224 -0.3428 -1.1415 -1.1261
  102TCq2    H3 1565   1.004   2.033  12.577  1.3796 -0.9915  0.3990
  102TCq2    H4 1566   1.320   2.010  12.284  0.6215  1.4568  1.4372
  103TMC2    C1 1567   4.571   1.563  12.800  0.5664 -0.1060 -0.0061
  103TMC2    C2 1568   4.694   1.514  12.772  0.6555  0.2434 -0.2148
  103TMC2    C3 1569   0.054   1.517  12.875 -0.6512  0.1178 -0.6419
  103TMC2    C4 1570   4.528   1.617  12.921 -0.5492  0.1056 -0.8229
  103TMC2    C5 1571   4.620   1.604  13.020 -0.0239  0.7921  0.2916
  103TMC2    C6 1572   0.024   1.555  12.996  0.1095  0.0375  0.3158
  103TMC2     C 1573   4.469   1.560  12.689  0.8012 -0.7833 -1.0478
  103TMC2     O 1574   4.363   1.610  12.714  0.2580 -0.2629  0.1005
  103TMC2     H 1575   4.725   1.491  12.670 -1.0376 -0.5265 -0.5662
  103TMC2    H1 1576   4.426   1.647  12.941 -0.6012 -0.2753 -0.5057
  103TMC2    H2 1577   0.102   1.557  13.072  0.4285 -0.3401  0.0014
  103TMC2    C7 1578   4.603   1.669  13.145  0.5999 -0.1172 -0.1774
  103TMC2    C8 1579   0.190   1.505  12.838 -0.1014 -0.3217 -0.0016
  103TMC2    O1 1580   4.701   1.668  13.221 -0.5097  0.3580 -0.0381
  103TMC2    O2 1581   0.229   1.418  12.764 -0.6264  0.6843  0.4312
  103TMC2    O5 1582   0.241   1.632  12.848 -0.0319  0.2656 -0.2225
  103TMC2    H5 1583   0.181   1.684  12.905 -2.8406 -1.1284 -1.8917
  104MPD2     C 1584   4.462   1.320  12.404  0.0045  0.3188  0.2359
  104MPD2    C1 1585   4.426   1.430  12.479 -0.0105  0.0371 -0.3724
  104MPD2    C2 1586   4.313   1.506  12.443  0.0557 -0.0027 -0.1300
  104MPD2    C3 1587   4.236   1.466  12.338  0.3937 -0.2147 -0.4790
  104MPD2    C4 1588   4.272   1.358  12.260 -0.0491  0.2479 -0.1999
  104MPD2    C5 1589   4.383   1.294  12.291  0.2111 -0.0377  0.0171
  104MPD2     H 1590   4.285   1.590  12.505  1.2471  1.7767 -2.0061
  104MPD2    H1 1591   4.220   1.326  12.170  0.2626  1.4102 -0.7826
  104MPD2    H2 1592   4.548   1.256  12.425 -0.2687 -0.2573 -0.3890
  104MPD2    H3 1593   4.414   1.209  12.231 -0.5257 -0.4966  0.2780
  104MPD2     N 1594   4.113   1.533  12.316 -0.2348  0.2437  0.2539
  104MPD2    H5 1595   4.084   1.604  12.383 -0.6315  0.4034 -0.0800
  104MPD2    N1 1596   4.502   1.472  12.589  0.1406  0.0443  0.2368
  104MPD2    H7 1597   4.583   1.413  12.600  1.1970  1.8460  2.1720
  105MPD2     C 1598   0.932   1.096  17.650  0.0366 -0.1883  0.1683
  105MPD2    C1 1599   0.895   1.228  17.630  0.1770 -0.2766 -0.1070
  105MPD2    C2 1600   0.809   1.286   0.011 -0.0895  0.0557 -1.2124
  105MPD2    C3 1601   0.762   1.215   0.120 -0.1031 -0.3023  0.4105
  105MPD2    C4 1602   0.809   1.088   0.145 -0.4272 -0.6738  0.2372
  105MPD2    C5 1603   0.886   1.025   0.051 -0.1319  0.0033 -0.6995
  105MPD2     H 1604   0.782   1.390  17.707 -0.0981  0.0820 -0.9574
  105MPD2    H1 1605   0.773   1.032   0.231  0.5735  0.6333  1.5021
  105MPD2    H2 1606   1.008   1.047  17.591 -1.2753  1.6664 -3.0231
  105MPD2    H3 1607   0.915   0.922   0.070 -1.1432  0.1116  1.4140
  105MPD2     N 1608   0.672   1.287   0.203 -0.0696 -0.2082 -0.0017
  105MPD2    H5 1609   0.655   1.383   0.174  0.0993 -0.6804 -1.6960
  105MPD2    N1 1610   0.915   1.307  17.515  0.7572  0.9559  0.5340
  105MPD2    H7 1611   0.912   1.406  17.534  0.5379  1.1922 -0.7121
  106TCq2    C1 1612   0.603   1.243   0.317  0.2984 -0.0900 -0.1022
  106TCq2    O2 1613   0.600   1.132   0.369 -1.2518 -0.5560  0.7619
  106TCq2    C2 1614   0.527   1.352   0.378  0.4171 -0.1802 -0.4954
  106TCq2    C3 1615   0.557   1.473   0.329  1.0115  1.0990  0.0591
  106TCq2    C4 1616   0.464   1.568   0.344  0.4565 -0.1137 -0.2699
  106TCq2    C5 1617   0.345   1.542   0.398 -0.4432 -0.4043  0.0548
  106TCq2    C6 1618   0.315   1.417   0.440 -0.0339 -0.3309 -0.0487
  106TCq2    C7 1619   0.408   1.323   0.438  0.2426 -0.4185  0.3254
  106TCq2    C8 1620   0.177   1.375   0.457 -0.1779  0.3315  0.4007
  106TCq2    O4 1621   0.168   1.253   0.462 -0.4073  0.1081  0.2387
  106TCq2    C9 1622   0.488   1.702   0.300 -0.1054  0.4506 -0.6648
  106TCq2    O5 1623   0.388   1.783   0.289 -0.4111 -0.3232 -0.1526
  106TCq2    O6 1624   0.602   1.720   0.242 -0.6911  0.2550  0.3628
  106TCq2    H2 1625   0.655   1.503   0.293  1.8351 -1.3645  0.2580
  106TCq2    H3 1626   0.268   1.618   0.406  1.1933  1.2818  0.0360
  106TCq2    H4 1627   0.397   1.216   0.455 -0.9705 -0.2036  0.8504
  107TMC2    C1 1628   2.076   0.146  11.050 -1.1173  0.1949 -0.2058
  107TMC2    C2 1629   2.211   0.113  11.043 -0.1953  0.3599 -0.0524
  107TMC2    C3 1630   2.265   0.101  10.912 -0.0613 -0.3104 -0.6130
  107TMC2    C4 1631   1.986   0.136  10.942  0.0161  0.3852  0.6288
  107TMC2    C5 1632   2.039   0.118  10.815 -0.2215  0.2705 -0.0888
  107TMC2    C6 1633   2.176   0.101  10.807  0.4518 -0.2596 -0.2362
  107TMC2     C 1634   2.015   0.169  11.180 -0.2852  0.3138  0.3014
  107TMC2     O 1635   1.893   0.197  11.183 -0.4237 -0.1493 -0.5534
  107TMC2     H 1636   2.277   0.117  11.128 -2.6007 -0.3000  1.8561
  107TMC2    H1 1637   1.878   0.140  10.952  0.0312 -0.5451  1.1799
  107TMC2    H2 1638   2.220   0.089  10.708  0.9703  2.1359 -0.2738
  107TMC2    C7 1639   1.944   0.078  10.708 -1.2503  0.1694 -0.3253
  107TMC2    C8 1640   2.399   0.059  10.876 -0.4774 -0.4988 -0.5786
  107TMC2    O1 1641   1.836   0.036  10.750  0.1544 -0.2105 -0.3995
  107TMC2    O2 1642   2.422   4.716  10.777  0.0044  0.0114  0.2468
  107TMC2    O5 1643   2.471   0.060  10.987 -0.6201  0.1844 -0.1661
  107TMC2    H5 1644   2.430   0.117  11.056 -0.4551 -0.0602  0.1355
  108MPD2     C 1645   2.186   0.142  11.500 -0.3774 -0.3481  0.5649
  108MPD2    C1 1646   2.083   0.181  11.422 -0.2747  0.0185 -0.1725
  108MPD2    C2 1647   1.967   0.234  11.467  1.0994  0.4143 -0.8010
  108MPD2    C3 1648   1.959   0.259  11.606 -0.4190  0.0764 -0.5785
  108MPD2    C4 1649   2.072   0.232  11.683  0.1153 -0.4431 -0.6439
  108MPD2    C5 1650   2.183   0.169  11.631  0.3398 -0.3809 -0.9762
  108MPD2     H 1651   1.889   0.259  11.396  0.9593  0.0160 -0.7882
  108MPD2    H1 1652   2.085   0.247  11.789 -2.9006  0.2653 -0.3771
  108MPD2    H2 1653   2.271   0.087  11.463  0.6364  1.0298  0.8267
  108MPD2    H3 1654   2.268   0.146  11.694  0.8669  3.7308 -0.2133
  108MPD2     N 1655   1.853   0.316  11.674  0.5179  0.3583  0.3763
  108MPD2    H5 1656   1.864   0.338  11.773 -1.5066  1.3220  0.3833
  108MPD2    N1 1657   2.100   0.157  11.284 -0.2209  0.5280 -0.3912
  108MPD2    H7 1658   2.198   0.136  11.265 -0.0863 -0.3929  1.2535
  109MPD2     C 1659   0.695   3.110   1.296  0.4960  0.4698 -0.1542
  109MPD2    C1 1660   0.803   3.168   1.229 -0.5451  0.7495  0.0977
  109MPD2    C2 1661   0.931   3.162   1.288  0.9350  1.0227 -0.5662
  109MPD2    C3 1662   0.940   3.102   1.411 -0.1555  0.5603 -0.2635
  109MPD2    C4 1663   0.833   3.063   1.484 -0.7125  0.5778  1.1237
  109MPD2    C5 1664   0.712   3.064   1.424 -0.1882  0.2475  0.0327
  109MPD2     H 1665   1.022   3.190   1.237  1.3370  1.1153  0.2082
  109MPD2    H1 1666   0.849   3.038   1.588 -0.1166 -3.2954  0.1172
  109MPD2    H2 1667   0.594   3.099   1.256 -0.4237  2.0250  1.7432
  109MPD2    H3 1668   0.623   3.019   1.467  0.1770 -0.2153  0.2920
  109MPD2     N 1669   1.073   3.095   1.469 -0.0471  0.2595 -0.1371
  109MPD2    H5 1670   1.146   3.127   1.406  0.7642  0.1712  0.7626
  109MPD2    N1 1671   0.775   3.215   1.105 -0.0308  0.5079  0.4417
  109MPD2    H7 1672   0.679   3.207   1.075  0.0069  0.6406  0.2877
  110TCq2    C1 1673   1.123   3.036   1.584 -0.3588  0.1345 -0.3102
  110TCq2    O2 1674   1.059   2.992   1.676 -0.1492  0.3196  0.2436
  110TCq2    C2 1675   1.270   3.029   1.576 -0.3110 -0.7553 -0.5969
  110TCq2    C3 1676   1.337   2.965   1.674 -0.1195  0.0387 -0.1445
  110TCq2    C4 1677   1.475   2.979   1.688 -0.2106 -0.0335 -0.4887
  110TCq2    C5 1678   1.542   3.056   1.603 -0.4485 -0.6185 -0.3460
  110TCq2    C6 1679   1.474   3.121   1.507 -0.4315 -0.8221  0.1185
  110TCq2    C7 1680   1.338   3.107   1.489 -0.1635  0.1472 -0.6216
  110TCq2    C8 1681   1.542   3.197   1.401  0.0523  0.6349  0.4544
  110TCq2    O4 1682   1.468   3.244   1.316 -0.2014 -0.5739  0.0862
  110TCq2    C9 1683   1.546   2.893   1.785  0.9873 -0.1672  0.2738
  110TCq2    O5 1684   1.672   2.905   1.795  0.2595 -0.1919  0.6250
  110TCq2    O6 1685   1.475   2.812   1.847 -0.4531 -0.2601 -0.4066
  110TCq2    H2 1686   1.284   2.923   1.758 -1.8412  0.7754 -0.8696
  110TCq2    H3 1687   1.649   3.053   1.622 -0.0557  0.7819 -2.3415
  110TCq2    H4 1688   1.293   3.165   1.409 -1.9182 -0.2710  0.0791
  111TMC2    C1 1689   1.558   2.913  10.727  0.8796  0.2049 -0.2745
  111TMC2    C2 1690   1.632   2.936  10.612 -0.4092 -0.6192 -0.3235
  111TMC2    C3 1691   1.766   2.909  10.623 -0.7390 -0.1165 -0.2838
  111TMC2    C4 1692   1.621   2.875  10.846 -0.0966  0.3990 -0.1150
  111TMC2    C5 1693   1.759   2.859  10.850  0.2688 -0.1338  0.1665
  111TMC2    C6 1694   1.839   2.885  10.738 -0.1494  0.3870  0.4762
  111TMC2     C 1695   1.423   2.902  10.710  0.1447  0.4339 -0.2982
  111TMC2     O 1696   1.374   2.861  10.603  0.4026  0.3844 -0.3742
  111TMC2     H 1697   1.583   2.952  10.516 -0.6024 -0.3144 -0.1735
  111TMC2    H1 1698   1.560   2.856  10.934  0.2493 -2.3587 -0.4621
  111TMC2    H2 1699   1.947   2.877  10.735 -0.0743  1.7911 -0.2232
  111TMC2    C7 1700   1.810   2.817  10.976 -0.5087  0.8191 -0.2944
  111TMC2    C8 1701   1.833   2.897  10.495  0.5081  0.6409  0.3864
  111TMC2    O1 1702   1.731   2.816  11.071  0.2097  0.4302 -0.4167
  111TMC2    O2 1703   1.823   2.979  10.407 -0.1685 -0.0272  0.4092
  111TMC2    O5 1704   1.906   2.785  10.497 -0.7956  0.1731  0.5745
  111TMC2    H5 1705   1.897   2.738  10.583  1.4802 -0.8728  0.2544
  112MPD2     C 1706   0.963   2.850  10.950  0.2934  1.0481  0.2313
  112MPD2    C1 1707   0.999   2.837  10.816  0.4092  0.0045  0.1016
  112MPD2    C2 1708   1.135   2.849  10.780  0.2901  0.9516 -0.4893
  112MPD2    C3 1709   1.229   2.895  10.870 -0.7601 -0.0618 -0.7654
  112MPD2    C4 1710   1.195   2.903  10.998  0.5041  0.5748 -0.3977
  112MPD2    C5 1711   1.062   2.887  11.035 -0.0123 -0.5361  0.8574
  112MPD2     H 1712   1.151   2.834  10.674 -0.9862 -0.8091 -0.4270
  112MPD2    H1 1713   1.270   2.937  11.068 -1.4438 -0.1218  2.0364
  112MPD2    H2 1714   0.867   2.834  10.997  0.9505  1.5363  1.7454
  112MPD2    H3 1715   1.034   2.898  11.139  1.3878  1.9950  0.9448
  112MPD2     N 1716   1.365   2.912  10.833 -0.0776 -0.1516  0.3036
  112MPD2    H5 1717   1.429   2.964  10.893 -0.4915  0.7255 -0.0080
  112MPD2    N1 1718   0.908   2.799  10.716  0.1239 -0.5278  0.1508
  112MPD2    H7 1719   0.934   2.773  10.622 -1.0222 -1.1589  0.0094
  113MPD2     C 1720   4.444   1.408   1.179 -0.2867  0.5334  0.1037
  113MPD2    C1 1721   4.307   1.414   1.143  0.9347  0.0446  0.9924
  113MPD2    C2 1722   4.284   1.362   1.012 -0.3436 -0.0059  0.7255
  113MPD2    C3 1723   4.372   1.270   0.951 -0.1480  0.1403  0.1409
  113MPD2    C4 1724   4.495   1.257   1.004  0.3035  0.3538  0.1663
  113MPD2    C5 1725   4.531   1.325   1.113  0.1834 -0.1875 -0.5118
  113MPD2     H 1726   4.191   1.377   0.960  0.8283  1.3171 -0.9823
  113MPD2    H1 1727   4.565   1.200   0.945 -0.4736  0.4897 -0.8849
  113MPD2    H2 1728   4.482   1.449   1.272 -3.4909  0.1697  1.5664
  113MPD2    H3 1729   4.630   1.319   1.157 -0.5683  1.0137  1.3522
  113MPD2     N 1730   4.341   1.188   0.839 -0.3092  0.3707 -0.0709
  113MPD2    H5 1731   4.411   1.122   0.805 -3.0613 -0.5800 -3.9472
  113MPD2    N1 1732   4.207   1.476   1.217  0.9697  0.1308  0.4674
  113MPD2    H7 1733   4.127   1.510   1.166  1.4006  2.3132  1.2597
  114TCq2    C1 1734   4.207   1.165   0.793  0.0498  0.0330  0.1110
  114TCq2    O2 1735   4.099   1.216   0.831  0.0215 -0.1590 -0.1123
  114TCq2    C2 1736   4.187   1.050   0.709  0.1059  0.4071 -0.1437
  114TCq2    C3 1737   4.300   0.991   0.654 -0.1483  0.2149 -0.9406
  114TCq2    C4 1738   4.285   0.854   0.631 -0.2537  0.6796 -0.5571
  114TCq2    C5 1739   4.158   0.794   0.630 -0.3951 -0.4184 -0.5324
  114TCq2    C6 1740   4.051   0.867   0.680  0.1236  0.3667 -0.1401
  114TCq2    C7 1741   4.062   0.994   0.718  0.4202  0.4500  0.3027
  114TCq2    C8 1742   3.930   0.799   0.722 -0.0841 -0.6333 -0.4036
  114TCq2    O4 1743   3.824   0.865   0.730  0.2051 -0.6872  0.2464
  114TCq2    C9 1744   4.399   0.777   0.596 -0.4466  0.1761  0.5885
  114TCq2    O5 1745   4.400   0.655   0.623  0.3145 -0.2401 -0.2864
  114TCq2    O6 1746   4.506   0.844   0.586 -0.0063 -0.1717  0.5596
  114TCq2    H2 1747   4.403   1.025   0.659 -0.4896  0.9678  1.0387
  114TCq2    H3 1748   4.147   0.689   0.604 -2.2230 -0.6290  1.0854
  114TCq2    H4 1749   3.985   1.043   0.776  2.3310  1.5358  1.8720
  115TMC2    C1 1750   0.718   3.598  17.127  0.2453 -0.2160  0.1284
  115TMC2    C2 1751   0.849   3.597  17.154 -0.2239 -0.1904  0.0275
  115TMC2    C3 1752   0.908   3.712  17.183 -0.3779 -0.4351  0.2037
  115TMC2    C4 1753   0.652   3.720  17.110  0.2766  0.2037 -0.7088
  115TMC2    C5 1754   0.713   3.833  17.141  0.9020 -0.1677  0.0222
  115TMC2    C6 1755   0.844   3.836  17.178  0.5134 -0.4956  0.7161
  115TMC2     C 1756   0.632   3.480  17.152 -0.3330  0.0435  0.5697
  115TMC2     O 1757   0.510   3.497  17.163 -0.2834  0.0697 -0.3002
  115TMC2     H 1758   0.900   3.502  17.150 -1.7916 -1.0058 -0.7004
  115TMC2    H1 1759   0.545   3.720  17.089  0.7539 -0.5210 -3.1301
  115TMC2    H2 1760   0.887   3.916  17.238 -0.7690 -0.2764  1.3484
  115TMC2    C7 1761   0.648   3.959  17.124 -0.3186  1.2434 -0.5961
  115TMC2    C8 1762   1.051   3.706  17.188  0.2644 -0.4299  0.6401
  115TMC2    O1 1763   0.527   3.968  17.146  0.2944  0.0720 -0.2341
  115TMC2    O2 1764   1.118   3.612  17.240 -0.0739 -0.6650  0.4141
  115TMC2    O5 1765   1.112   3.823  17.157  0.0677 -0.5732  0.3515
  115TMC2    H5 1766   1.057   3.877  17.095 -1.6714 -1.5934  0.9936
  116MPD2     C 1767   0.562   3.001  17.335  0.1715 -1.2033 -0.8124
  116MPD2    C1 1768   0.468   3.087  17.277  0.0602  0.2632 -0.3832
  116MPD2    C2 1769   0.516   3.207  17.226 -0.0009  0.4101  0.0073
  116MPD2    C3 1770   0.651   3.240  17.237  0.2846 -0.4284  0.7912
  116MPD2    C4 1771   0.746   3.150  17.291 -0.4938 -0.0983  0.5133
  116MPD2    C5 1772   0.695   3.031  17.340 -0.1494  0.3809 -0.2397
  116MPD2     H 1773   0.454   3.278  17.173 -0.6072 -0.9673 -1.1443
  116MPD2    H1 1774   0.854   3.160  17.287 -0.5814 -0.5411 -2.6824
  116MPD2    H2 1775   0.537   2.903  17.375 -0.4778  0.2501  2.3610
  116MPD2    H3 1776   0.767   2.959  17.378  0.2678  0.5319 -0.7491
  116MPD2     N 1777   0.707   3.366  17.194  0.3624  0.2746  0.0044
  116MPD2    H5 1778   0.808   3.371  17.199  0.4863 -1.3466 -0.5983
  116MPD2    N1 1779   0.338   3.034  17.269  0.3581 -0.6189  0.0446
  116MPD2    H7 1780   0.318   2.947  17.317  3.5234 -2.4268 -1.9147
  117TMC2    C1 1781   4.526   4.240  13.248  0.2599  0.0061  0.3762
  117TMC2    C2 1782   4.653   4.206  13.239 -0.1504  0.0465 -0.4225
  117TMC2    C3 1783   0.023   4.269  13.305  0.2346  0.3435  0.1028
  117TMC2    C4 1784   4.493   4.357  13.317  1.0225 -0.5337 -0.0352
  117TMC2    C5 1785   4.589   4.419  13.383  0.1241 -0.6731 -0.5017
  117TMC2    C6 1786   4.722   4.380  13.380  0.0689 -0.6248  0.0726
  117TMC2     C 1787   4.438   4.213  13.135 -0.3716  0.2922 -0.9735
  117TMC2     O 1788   4.488   4.181  13.027  0.5133 -0.2819 -0.8579
  117TMC2     H 1789   4.688   4.132  13.168  0.3345 -1.3138  1.2299
  117TMC2    H1 1790   4.388   4.387  13.315  1.7531  1.9886 -0.3257
  117TMC2    H2 1791   0.068   4.417  13.452 -1.8717 -0.0147  1.7061
  117TMC2    C7 1792   4.555   4.550  13.443  0.1508 -0.0466  0.3703
  117TMC2    C8 1793   0.152   4.206  13.311 -0.0110  0.3676 -0.7760
  117TMC2    O1 1794   4.633   4.646  13.433  0.0317  0.4775  0.8013
  117TMC2    O2 1795   0.169   4.088  13.292 -0.0278 -0.0614 -0.0956
  117TMC2    O5 1796   0.250   4.293  13.346  0.2738 -0.4774  0.0869
  117TMC2    H5 1797   0.235   4.389  13.353  1.5837 -0.3197  0.6391
  118MPD2     C 1798   4.205   4.664  13.451  0.1137  0.4126 -0.1512
  118MPD2    C1 1799   4.338   4.682  13.451  0.6490  0.3958  0.0345
  118MPD2    C2 1800   4.394   0.082  13.425  0.3068  0.1186 -0.8869
  118MPD2    C3 1801   4.312   0.184  13.375 -0.0145  0.4374 -0.2738
  118MPD2    C4 1802   4.179   0.158  13.365  0.2692 -0.9092 -0.0877
  118MPD2    C5 1803   4.121   0.038  13.409 -0.1821  0.2706  0.1225
  118MPD2     H 1804   4.501   0.090  13.412  0.2114  0.7441 -1.2879
  118MPD2    H1 1805   4.108   0.232  13.331 -0.0421 -0.5926  1.2748
  118MPD2    H2 1806   4.167   4.567  13.479 -0.1175  0.3992 -0.5232
  118MPD2    H3 1807   4.014   0.020  13.402 -0.0098 -0.5054 -0.5398
  118MPD2     N 1808   4.357   0.307  13.332 -0.4385 -0.3079 -0.7012
  118MPD2    H5 1809   4.300   0.361  13.267 -0.7040 -0.3996 -0.5459
  118MPD2    N1 1810   4.417   4.563  13.472  0.3578 -0.1254 -0.5854
  118MPD2    H7 1811   4.363   4.484  13.506 -1.7099  1.5605  0.0328
  119MPD2     C 1812   2.292   1.490  12.969  0.0742 -0.2793  0.5162
  119MPD2    C1 1813   2.193   1.417  13.016 -0.2854  0.2304  0.0533
  119MPD2    C2 1814   2.104   1.362  12.927 -0.2038 -0.3260 -1.4045
  119MPD2    C3 1815   2.121   1.367  12.793 -0.0167  0.8187 -0.9734
  119MPD2    C4 1816   2.228   1.431  12.743 -1.0328  0.2133 -0.6971
  119MPD2    C5 1817   2.308   1.492  12.831 -0.4344 -0.0562 -0.5952
  119MPD2     H 1818   2.019   1.313  12.972 -1.1281  1.2917 -1.4118
  119MPD2    H1 1819   2.238   1.446  12.636 -3.6554 -1.5529 -1.1965
  119MPD2    H2 1820   2.355   1.552  13.032  0.1861  0.1366 -0.0063
  119MPD2    H3 1821   2.379   1.564  12.794  0.2855 -1.5157 -2.0410
  119MPD2     N 1822   2.030   1.302  12.704  0.4262  0.4149  0.2143
  119MPD2    H5 1823   2.061   1.290  12.608  1.2659 -1.3109  0.7003
  119MPD2    N1 1824   2.172   1.385  13.154  1.0991  0.5307 -0.4034
  119MPD2    H7 1825   2.091   1.327  13.172  0.5774  1.9546  1.8303
  120TCq2    C1 1826   1.902   1.255  12.739  0.5240  0.4460  0.4499
  120TCq2    O2 1827   1.846   1.263  12.845 -0.0465  0.1323  0.2768
  120TCq2    C2 1828   1.838   1.165  12.639 -0.3076 -1.1119  0.0560
  120TCq2    C3 1829   1.915   1.087  12.549  0.5555 -0.4343  0.0101
  120TCq2    C4 1830   1.850   0.988  12.477 -0.3522 -0.0852  0.5578
  120TCq2    C5 1831   1.725   0.955  12.502 -0.0744  0.1814 -0.4362
  120TCq2    C6 1832   1.655   1.029  12.594  0.4692 -0.2203 -0.1296
  120TCq2    C7 1833   1.701   1.144  12.654  0.0867  0.6674  0.5150
  120TCq2    C8 1834   1.549   0.971  12.677 -0.4380  0.0397  0.4520
  120TCq2    O4 1835   1.481   0.885  12.626  0.3306 -0.0507  1.2381
  120TCq2    C9 1836   1.933   0.898  12.411  0.4022 -0.2727 -0.5288
  120TCq2    O5 1837   1.895   0.878  12.294 -0.1275  0.2967  0.1206
  120TCq2    O6 1838   2.038   0.856  12.472 -0.1068 -0.3666  0.0868
  120TCq2    H2 1839   2.023   1.097  12.543  0.7909 -0.1361  4.2895
  120TCq2    H3 1840   1.681   0.865  12.460  0.4725 -1.8311  3.2698
  120TCq2    H4 1841   1.648   1.190  12.736  1.5274  1.2785  1.1159
  121TMC2    C1 1842   3.287   2.730  13.921  0.3525  0.3495  0.7977
  121TMC2    C2 1843   3.344   2.619  13.883 -0.0588  0.1265  0.3309
  121TMC2    C3 1844   3.265   2.506  13.870  0.6755 -0.4338 -0.0652
  121TMC2    C4 1845   3.149   2.747  13.930  0.2844 -0.6116  0.3510
  121TMC2    C5 1846   3.072   2.638  13.903  0.8825  0.0999  0.2332
  121TMC2    C6 1847   3.130   2.515  13.884  0.0516 -0.0768 -1.1861
  121TMC2     C 1848   3.367   2.848  13.909 -0.8031 -0.0673 -0.4326
  121TMC2     O 1849   3.309   2.952  13.944 -0.1232 -0.1726  0.4647
  121TMC2     H 1850   3.452   2.609  13.879 -0.0568  0.8208 -1.3159
  121TMC2    H1 1851   3.115   2.846  13.957 -0.0513 -0.9750  1.2368
  121TMC2    H2 1852   3.066   2.430  13.860  0.4134 -0.1037 -2.0582
  121TMC2    C7 1853   2.927   2.644  13.919  0.0125 -0.0617 -0.0236
  121TMC2    C8 1854   3.326   2.386  13.811  0.1634 -0.4106  0.3294
  121TMC2    O1 1855   2.864   2.542  13.931  0.0130  0.8304  0.3331
  121TMC2    O2 1856   3.439   2.386  13.756 -0.3011 -0.0148 -0.0169
  121TMC2    O5 1857   3.266   2.273  13.849 -0.0269  0.3619 -0.3383
  121TMC2    H5 1858   3.195   2.288  13.916  0.3840 -1.4392  0.5239
  122MPD2     C 1859   3.574   3.048  13.854 -0.1415  0.2947  0.1988
  122MPD2    C1 1860   3.544   2.950  13.766  0.1374  0.2708  0.4503
  122MPD2    C2 1861   3.572   2.959  13.630  0.4667 -0.1894 -0.6477
  122MPD2    C3 1862   3.638   3.072  13.578  0.9164 -0.0866  0.3163
  122MPD2    C4 1863   3.686   3.167  13.671  0.2543  0.3096  0.0556
  122MPD2    C5 1864   3.646   3.154  13.801  0.1879 -0.1542 -0.7065
  122MPD2     H 1865   3.531   2.885  13.562 -1.2826  0.6715 -0.5101
  122MPD2    H1 1866   3.741   3.257  13.647  0.2012  0.4595  0.4972
  122MPD2    H2 1867   3.544   3.043  13.958 -0.8804 -1.4700 -0.0954
  122MPD2    H3 1868   3.668   3.235  13.871 -1.6421 -1.0081  0.8539
  122MPD2     N 1869   3.648   3.085  13.437 -0.0470 -0.4641 -0.0597
  122MPD2    H5 1870   3.621   3.008  13.377 -0.7101 -1.4141  1.4388
  122MPD2    N1 1871   3.471   2.836  13.812  0.2089  0.5351  0.2405
  122MPD2    H7 1872   3.482   2.760  13.746  0.4884  0.7765  0.0104
  123MPD2     C 1873   2.152   0.751   9.657  0.2770  0.0941  0.1506
  123MPD2    C1 1874   2.070   0.813   9.560  0.4850 -0.0714 -0.2543
  123MPD2    C2 1875   2.105   0.945   9.522  0.3353 -0.1876  0.7980
  123MPD2    C3 1876   2.216   1.020   9.575  0.4313 -0.7484 -0.5557
  123MPD2    C4 1877   2.290   0.954   9.676  0.2825  0.6114  0.2366
  123MPD2    C5 1878   2.251   0.824   9.711  0.5875 -1.2062  0.2166
  123MPD2     H 1879   2.053   0.997   9.443  0.9799  0.6795  0.9483
  123MPD2    H1 1880   2.371   0.999   9.732  1.7051  1.7271 -2.7128
  123MPD2    H2 1881   2.137   0.650   9.692 -1.4052  0.5580  0.7604
  123MPD2    H3 1882   2.317   0.774   9.781 -1.3489 -0.8378  2.3075
  123MPD2     N 1883   2.227   1.157   9.530  0.0815  0.3901 -0.3923
  123MPD2    H5 1884   2.159   1.180   9.458 -0.1925  0.2959 -0.1675
  123MPD2    N1 1885   1.960   0.748   9.511  0.1382  0.0320  0.4436
  123MPD2    H7 1886   1.947   0.648   9.525  1.3029  0.2118  2.9841
  124TCq2    C1 1887   2.324   1.244   9.567  0.1712  0.9611  1.0485
  124TCq2    O2 1888   2.406   1.229   9.656 -0.4754 -0.3803 -0.2083
  124TCq2    C2 1889   2.305   1.359   9.484  0.4314 -0.1931 -0.1232
  124TCq2    C3 1890   2.319   1.482   9.547 -0.3568 -0.0695 -0.5795
  124TCq2    C4 1891   2.225   1.579   9.514  0.7891 -0.0885 -0.4067
  124TCq2    C5 1892   2.135   1.560   9.413  0.2178  0.3831  0.0045
  124TCq2    C6 1893   2.140   1.441   9.347  0.0567  0.3082  0.4905
  124TCq2    C7 1894   2.221   1.341   9.384 -0.0662  0.4876 -0.5064
  124TCq2    C8 1895   2.040   1.396   9.253 -0.1168 -0.9746  0.4522
  124TCq2    O4 1896   2.008   1.279   9.276  0.3007 -0.2296  0.3628
  124TCq2    C9 1897   2.229   1.709   9.578 -0.3010 -0.1695  0.4606
  124TCq2    O5 1898   2.336   1.749   9.637  0.6046 -0.4859 -0.7677
  124TCq2    O6 1899   2.137   1.791   9.554  0.1697 -0.6431  0.0143
  124TCq2    H2 1900   2.388   1.507   9.627  1.9900 -0.8605 -2.3334
  124TCq2    H3 1901   2.065   1.637   9.383  0.0418 -0.1863 -1.0587
  124TCq2    H4 1902   2.226   1.254   9.319  1.5369  0.1150  0.1030
  125TMC2    C1 1903   2.884   3.998   9.103 -0.8651  0.4168  0.0626
  125TMC2    C2 1904   2.838   4.036   8.981  0.4607  0.4836 -0.2336
  125TMC2    C3 1905   2.708   4.012   8.954 -0.1482  0.0606 -1.4519
  125TMC2    C4 1906   2.807   3.930   9.192  0.6320 -0.1078 -0.7854
  125TMC2    C5 1907   2.678   3.901   9.158 -0.0581  0.2635  0.3750
  125TMC2    C6 1908   2.626   3.944   9.044  0.1038  0.4911 -0.0913
  125TMC2     C 1909   3.011   4.047   9.147 -0.1817  0.3256  0.5117
  125TMC2     O 1910   3.038   4.152   9.095 -0.0335  0.1830  0.0940
  125TMC2     H 1911   2.887   4.094   8.903  2.7189 -1.0381  0.0552
  125TMC2    H1 1912   2.840   3.924   9.295 -0.5322 -0.4785 -0.4335
  125TMC2    H2 1913   2.518   3.940   9.034  0.1618 -1.4593 -0.0754
  125TMC2    C7 1914   2.595   3.813   9.233 -0.3380  0.0380 -0.0524
  125TMC2    C8 1915   2.654   4.056   8.825 -0.6648  0.9408 -0.3231
  125TMC2    O1 1916   2.478   3.804   9.193  0.5274  0.1263  0.7017
  125TMC2    O2 1917   2.707   4.138   8.749  0.0767 -0.0961 -0.1002
  125TMC2    O5 1918   2.522   4.018   8.812 -0.0693 -0.0201 -0.1154
  125TMC2    H5 1919   2.492   3.930   8.844 -0.1716 -1.1916 -3.3664
  126MPD1     C 1920   3.411   4.047   9.476 -0.1490 -0.1800  0.3662
  126MPD1    C1 1921   3.333   3.938   9.504 -0.5096  0.4460 -0.0170
  126MPD1    C2 1922   3.223   3.918   9.429 -0.3372 -0.4946 -0.0648
  126MPD1    C3 1923   3.177   4.000   9.331  0.9390  0.3465 -1.3584
  126MPD1    C4 1924   3.250   4.110   9.300 -0.4791 -0.9193  0.2715
  126MPD1    C5 1925   3.366   4.134   9.372  0.3197 -0.1884 -0.8433
  126MPD1     H 1926   3.162   3.831   9.449 -2.2219  0.4359 -1.7545
  126MPD1    H1 1927   3.213   4.182   9.228  1.9763  1.0474  0.9789
  126MPD1    H2 1928   3.503   4.060   9.531  0.4534 -0.3007 -0.6183
  126MPD1    H3 1929   3.427   4.223   9.357  1.1965 -0.6800 -0.2436
  126MPD1     N 1930   3.058   3.974   9.255 -0.0077  0.7216  0.1025
  126MPD1    H5 1931   3.014   3.883   9.267 -0.3628  0.8558 -0.1880
  126MPD1    N1 1932   3.382   3.846   9.596  0.2657 -1.0967 -1.4291
  126MPD1    H6 1933   3.300   3.816   9.648  0.2756 -2.0658 -1.9706
  126MPD1    H7 1934   3.446   3.892   9.660 -1.5141 -1.5973  0.6930
  127MPD2     C 1935   3.346   1.980   8.838 -0.4253 -0.4041 -0.3002
  127MPD2    C1 1936   3.461   1.919   8.888  0.5183 -0.0177 -0.7247
  127MPD2    C2 1937   3.566   2.004   8.917  0.6113 -0.6329 -0.4049
  127MPD2    C3 1938   3.551   2.139   8.926  0.1402  0.3658 -0.4963
  127MPD2    C4 1939   3.431   2.197   8.881  0.1053 -0.2761 -0.2066
  127MPD2    C5 1940   3.338   2.116   8.823  0.0167  0.8151 -0.2689
  127MPD2     H 1941   3.664   1.968   8.943  0.9054  1.7920  1.8328
  127MPD2    H1 1942   3.416   2.305   8.885 -1.1336 -0.4817  0.7677
  127MPD2    H2 1943   3.262   1.916   8.814 -0.9285  0.9171 -1.9969
  127MPD2    H3 1944   3.245   2.153   8.782  0.1318  0.9095 -0.4440
  127MPD2     N 1945   3.646   2.222   8.989 -0.8370 -0.1344  0.1898
  127MPD2    H5 1946   3.723   2.174   9.036 -1.7244  0.3828  2.1517
  127MPD2    N1 1947   3.469   1.778   8.901 -0.5471 -0.1107 -0.2061
  127MPD2    H7 1948   3.389   1.723   8.871 -1.2365  1.8690 -2.0133
  128TCq2    C1 1949   3.578   1.707   8.952 -0.8621 -0.3330 -0.0606
  128TCq2    O2 1950   3.680   1.746   9.008 -0.6248 -0.0477  0.3326
  128TCq2    C2 1951   3.540   1.576   8.999 -0.1463 -0.8046  0.0335
  128TCq2    C3 1952   3.631   1.505   9.065  0.4222 -0.3381  0.5013
  128TCq2    C4 1953   3.597   1.379   9.111  0.0973 -0.5914  0.1943
  128TCq2    C5 1954   3.474   1.322   9.082  0.6943  0.6264 -0.5644
  128TCq2    C6 1955   3.381   1.407   9.031 -0.2707  0.7104  0.1847
  128TCq2    C7 1956   3.409   1.533   8.986  0.7200 -0.2092  0.6393
  128TCq2    C8 1957   3.244   1.365   9.031 -0.2632 -0.0460  0.7697
  128TCq2    O4 1958   3.163   1.445   8.987  0.1173  0.0288  1.1082
  128TCq2    C9 1959   3.689   1.298   9.187 -0.4521 -0.1306 -0.5302
  128TCq2    O5 1960   3.635   1.207   9.257 -0.3544 -0.2152 -1.0142
  128TCq2    O6 1961   3.800   1.354   9.216 -0.1633 -0.0559 -0.3945
  128TCq2    H2 1962   3.725   1.543   9.103  0.6162  0.5839 -0.8957
  128TCq2    H3 1963   3.459   1.219   9.111  1.6157  0.9736  1.2028
  128TCq2    H4 1964   3.319   1.593   8.974  1.8140  1.5384  1.3294
  129MPD2     C 1965   2.050   3.580   0.562  0.0380  0.0575 -0.2034
  129MPD2    C1 1966   2.113   3.519   0.668  0.3265 -0.2522  0.1634
  129MPD2    C2 1967   2.229   3.575   0.717  0.2574 -0.0550 -0.7379
  129MPD2    C3 1968   2.282   3.690   0.662  0.1974  0.1806  1.0531
  129MPD2    C4 1969   2.226   3.747   0.550 -0.3189 -0.2536  0.3297
  129MPD2    C5 1970   2.114   3.687   0.507  1.2899 -0.2396  0.1937
  129MPD2     H 1971   2.290   3.529   0.793  0.7573 -0.8667 -1.6293
  129MPD2    H1 1972   2.272   3.822   0.487 -0.1394  0.8853  1.8317
  129MPD2    H2 1973   1.951   3.546   0.535  0.5314 -0.7195 -1.0503
  129MPD2    H3 1974   2.065   3.719   0.416  0.2158 -1.5406  0.3187
  129MPD2     N 1975   2.403   3.731   0.714 -0.1771  1.1911  0.4876
  129MPD2    H5 1976   2.442   3.682   0.794 -2.1789 -0.6547  0.3096
  129MPD2    N1 1977   2.057   3.404   0.731 -0.0109 -0.6095  0.4638
  129MPD2    H7 1978   2.125   3.354   0.787  1.0448 -1.1858 -1.3242
  130TCq2    C1 1979   1.939   3.337   0.711  0.1920  0.0018  0.1084
  130TCq2    O2 1980   1.838   3.374   0.658 -0.0326 -0.5798 -0.1313
  130TCq2    C2 1981   1.940   3.216   0.780 -0.2142 -0.3822 -0.5633
  130TCq2    C3 1982   2.053   3.136   0.780 -0.2422  0.0858  0.6238
  130TCq2    C4 1983   2.067   3.037   0.876  0.0439  0.3552 -0.1195
  130TCq2    C5 1984   1.967   3.010   0.964  0.4936  0.4783  0.1657
  130TCq2    C6 1985   1.850   3.073   0.955 -0.0374  0.1480  0.1844
  130TCq2    C7 1986   1.832   3.168   0.860  0.1391  0.1247  0.2263
  130TCq2    C8 1987   1.732   3.031   1.023  0.0405 -0.0563 -0.1947
  130TCq2    O4 1988   1.621   3.041   0.975 -0.1639  0.4842  0.5174
  130TCq2    C9 1989   2.180   2.951   0.869 -0.0642  0.9785 -0.0106
  130TCq2    O5 1990   2.178   2.842   0.927 -0.4341 -0.2061  0.5521
  130TCq2    O6 1991   2.274   2.985   0.786 -0.3810 -0.1781  0.4240
  130TCq2    H2 1992   2.143   3.163   0.726 -1.8692  1.3288 -1.4518
  130TCq2    H3 1993   1.977   2.929   1.035  1.9246 -0.7523 -1.4271
  130TCq2    H4 1994   1.736   3.216   0.845  1.0722  2.1112  0.5851
  131MPD2     C 1995   1.239   1.167   8.942  0.2963 -0.3536  0.0243
  131MPD2    C1 1996   1.332   1.220   9.027  0.1219 -0.5795  0.5042
  131MPD2    C2 1997   1.419   1.136   9.096  0.0168 -0.3752 -0.7197
  131MPD2    C3 1998   1.413   0.998   9.081  0.0046 -0.3027 -0.0541
  131MPD2    C4 1999   1.322   0.948   8.989 -0.2905 -0.4167  0.4650
  131MPD2    C5 2000   1.235   1.030   8.920  0.7456  0.8105  0.5586
  131MPD2     H 2001   1.486   1.176   9.172  0.5525  0.3119 -1.5551
  131MPD2    H1 2002   1.296   0.844   8.974  0.8589 -0.3465 -2.0037
  131MPD2    H2 2003   1.194   1.232   8.867 -0.3865 -1.5266 -0.5830
  131MPD2    H3 2004   1.158   0.987   8.857  2.5540 -2.5513  0.6320
  131MPD2     N 2005   1.495   0.909   9.157  0.3857 -0.2456 -0.6144
  131MPD2    H5 2006   1.558   0.954   9.222  1.8363 -1.8319 -0.9588
  131MPD2    N1 2007   1.357   1.361   9.060 -0.8678 -0.4509 -0.3353
  131MPD2    H7 2008   1.428   1.390   9.126 -0.5940 -0.6345 -0.5505
  132TCq2    C1 2009   1.607   1.778   9.190  0.0025 -0.8755 -0.4762
  132TCq2    O2 2010   1.699   1.702   9.203 -0.4257 -0.6250  0.6625
  132TCq2    C2 2011   1.470   1.731   9.176  0.2271  0.2041  0.3407
  132TCq2    C3 2012   1.365   1.810   9.222  0.1605  0.1412  0.1509
  132TCq2    C4 2013   1.235   1.774   9.207  0.4149 -0.8039  0.0999
  132TCq2    C5 2014   1.209   1.666   9.128  0.2258  0.1572  0.1563
  132TCq2    C6 2015   1.313   1.590   9.072 -0.1326  0.5719  0.2055
  132TCq2    C7 2016   1.444   1.615   9.099 -0.5159  0.2928  0.5125
  132TCq2    C8 2017   1.273   1.464   9.017  0.0374  0.1513 -0.1799
  132TCq2    O4 2018   1.184   1.465   8.935  0.5266 -0.5086 -0.5689
  132TCq2    C9 2019   1.128   1.866   9.255 -0.4172 -0.3394 -0.6800
  132TCq2    O5 2020   1.011   1.820   9.260 -0.1480 -0.0335 -0.1396
  132TCq2    O6 2021   1.170   1.978   9.294  0.3895  0.3781 -0.0334
  132TCq2    H2 2022   1.381   1.890   9.294  3.9586 -0.5913  0.1407
  132TCq2    H3 2023   1.108   1.640   9.097  0.3122 -0.3014  0.2562
  132TCq2    H4 2024   1.522   1.562   9.045  1.6358  4.6411 -0.6095
  133MPD2     C 2025   0.269   0.795   8.182  0.1593 -0.9882  0.5146
  133MPD2    C1 2026   0.340   0.900   8.127 -0.2830 -0.3012  0.0810
  133MPD2    C2 2027   0.403   0.989   8.205 -0.3122  0.9524 -0.5071
  133MPD2    C3 2028   0.391   0.980   8.340  0.3553  0.0745  0.3975
  133MPD2    C4 2029   0.323   0.875   8.402 -0.3033  0.0472 -0.3238
  133MPD2    C5 2030   0.257   0.789   8.323  0.3782  0.5500 -0.0088
  133MPD2     H 2031   0.472   1.054   8.153  0.7003  1.4025  1.4060
  133MPD2    H1 2032   0.320   0.861   8.509  1.8217 -3.3525 -0.7281
  133MPD2    H2 2033   0.216   0.712   8.137  0.6433 -1.7695  1.4083
  133MPD2    H3 2034   0.207   0.703   8.365  0.3413  0.1851 -0.8054
  133MPD2     N 2035   0.445   1.080   8.419  0.2169 -0.0489 -0.0732
  133MPD2    H5 2036   0.455   1.058   8.517  3.8265 -0.6957 -0.5658
  133MPD2    N1 2037   0.347   0.897   7.986  0.4467  0.6304 -0.1967
  133MPD2    H7 2038   0.307   0.818   7.936  0.7416  2.8429 -3.9672
  134TCq2    C1 2039   0.386   1.001   7.907  0.0257 -0.3275  0.2097
  134TCq2    O2 2040   0.422   1.115   7.938 -0.1111  0.3126 -0.2026
  134TCq2    C2 2041   0.366   0.979   7.764 -0.4473  0.0014  0.1852
  134TCq2    C3 2042   0.303   0.866   7.731 -0.5615 -0.7608  0.0012
  134TCq2    C4 2043   0.323   0.817   7.603  0.2651 -0.5381  0.2570
  134TCq2    C5 2044   0.415   0.878   7.523 -0.0263  0.1676  0.3451
  134TCq2    C6 2045   0.468   0.998   7.559 -0.0986  0.3478  0.4317
  134TCq2    C7 2046   0.444   1.049   7.682  0.2048  0.6405 -0.4361
  134TCq2    C8 2047   0.565   1.068   7.480 -0.8319 -0.1962 -0.1106
  134TCq2    O4 2048   0.608   1.004   7.382  0.0835  0.2122 -0.2572
  134TCq2    C9 2049   0.238   0.708   7.557  0.3430  0.7588 -0.6907
  134TCq2    O5 2050   0.251   0.678   7.434  0.6832  0.2103 -0.4600
  134TCq2    O6 2051   0.171   0.644   7.644 -0.2840  0.2004  0.2411
  134TCq2    H2 2052   0.224   0.817   7.788 -0.8622 -0.9314 -0.5578
  134TCq2    H3 2053   0.438   0.836   7.425  0.4141  0.6872  0.2271
  134TCq2    H4 2054   0.499   1.130   7.728  0.7800 -1.5756  2.8034
  135MPD2     C 2055   3.736   3.361   9.600  0.1950 -0.1217 -0.6733
  135MPD2    C1 2056   3.606   3.326   9.572  0.6756  0.3502 -0.4016
  135MPD2    C2 2057   3.577   3.250   9.464  1.1849  0.1964  0.5798
  135MPD2    C3 2058   3.680   3.216   9.382  0.4299 -0.0583 -0.2667
  135MPD2    C4 2059   3.812   3.252   9.408 -0.2848  0.1320 -0.1731
  135MPD2    C5 2060   3.840   3.329   9.518  0.2064 -0.1317 -0.3234
  135MPD2     H 2061   3.473   3.232   9.436  0.9306 -0.7773  2.1719
  135MPD2    H1 2062   3.898   3.223   9.347  0.1692 -0.8984  0.9524
  135MPD2    H2 2063   3.751   3.419   9.690  1.0294 -1.0907 -0.1895
  135MPD2    H3 2064   3.942   3.353   9.544  0.6182 -1.6717 -0.5445
  135MPD2     N 2065   3.647   3.126   9.281  0.0850 -1.1052  0.1897
  135MPD2    H5 2066   3.550   3.097   9.286 -0.0413 -0.5328  1.1516
  135MPD2    N1 2067   3.496   3.361   9.662 -0.1753 -0.6274  0.8563
  135MPD2    H7 2068   3.411   3.308   9.647 -2.0428  2.1348  1.7849
  136TCq2    C1 2069   3.502   3.459   9.760 -0.2475 -0.8936  0.3470
  136TCq2    O2 2070   3.581   3.551   9.776 -0.0682  0.1794  0.4451
  136TCq2    C2 2071   3.372   3.480   9.818 -0.0984  0.0865  0.4340
  136TCq2    C3 2072   3.321   3.606   9.828 -0.2879  0.2881 -0.1839
  136TCq2    C4 2073   3.189   3.626   9.836  0.3336 -0.1367 -1.1855
  136TCq2    C5 2074   3.100   3.520   9.840  0.7164  0.3723 -0.9707
  136TCq2    C6 2075   3.155   3.396   9.842  0.0918 -0.0831 -0.0720
  136TCq2    C7 2076   3.289   3.374   9.827 -0.8564  0.1881  0.1326
  136TCq2    C8 2077   3.080   3.311   9.930  0.3034  0.2379 -0.6196
  136TCq2    O4 2078   2.976   3.345   9.985 -0.2038  0.1084  0.0346
  136TCq2    C9 2079   3.135   3.760   9.868 -0.2980 -0.4106  0.2492
  136TCq2    O5 2080   3.214   3.832   9.932 -0.6867 -0.3385  0.7954
  136TCq2    O6 2081   3.012   3.778   9.862  0.1864  0.5066  0.0018
  136TCq2    H2 2082   3.389   3.689   9.842  0.2592 -0.7564  3.3022
  136TCq2    H3 2083   2.995   3.537   9.862  0.3030 -1.5921 -1.3942
  136TCq2    H4 2084   3.335   3.277   9.838 -1.4948 -0.0700  0.4919
  137MPD2     C 2085   3.197   0.796   9.877  0.2190  0.0243 -0.5182
  137MPD2    C1 2086   3.130   0.887   9.812 -0.0007 -0.5218  1.3566
  137MPD2    C2 2087   3.173   1.022   9.809  0.0722  0.4336 -0.0288
  137MPD2    C3 2088   3.294   1.052   9.867  0.2344 -0.2272 -0.8252
  137MPD2    C4 2089   3.362   0.955   9.942 -0.0863 -0.1977  0.1216
  137MPD2    C5 2090   3.317   0.825   9.941 -0.2159  0.7083 -0.0973
  137MPD2     H 2091   3.118   1.099   9.756  0.2607  0.7787  0.2801
  137MPD2    H1 2092   3.459   0.965   9.988 -0.0484  0.0525 -0.0122
  137MPD2    H2 2093   3.163   0.695   9.894  0.2821 -0.0933 -1.1052
  137MPD2    H3 2094   3.379   0.754   9.996  0.9143  1.2367 -0.6980
  137MPD2     N 2095   3.326   1.188   9.874 -0.3840  0.7260  0.1666
  137MPD2    H5 2096   3.249   1.248   9.846 -1.6179 -0.7255  0.4647
  137MPD2    N1 2097   3.005   0.844   9.750  1.1131 -0.9152 -0.3610
  137MPD2    H7 2098   2.956   0.763   9.785  0.2680 -0.2845 -0.0835
  138TCq2    C1 2099   2.925   0.916   9.662  0.2618 -0.5738  0.1159
  138TCq2    O2 2100   2.959   1.013   9.595  0.3601 -0.0891  0.0943
  138TCq2    C2 2101   2.804   0.852   9.621 -0.6036 -0.2434 -0.0492
  138TCq2    C3 2102   2.776   0.717   9.651  0.2611  0.6755 -0.9089
  138TCq2    C4 2103   2.658   0.664   9.602  0.6873 -0.2635 -0.0839
  138TCq2    C5 2104   2.580   0.731   9.516  0.4242  0.6357 -0.5020
  138TCq2    C6 2105   2.615   0.856   9.476  0.3248  0.4759 -0.7578
  138TCq2    C7 2106   2.728   0.919   9.526  0.0805 -0.5156 -0.1421
  138TCq2    C8 2107   2.542   0.916   9.373 -0.3023  0.1756  0.2263
  138TCq2    O4 2108   2.487   0.837   9.298  0.3782  0.0994  0.6491
  138TCq2    C9 2109   2.629   0.525   9.618  0.5633 -0.2077 -0.4080
  138TCq2    O5 2110   2.533   0.477   9.552  0.3438  0.0731  0.5730
  138TCq2    O6 2111   2.721   0.451   9.662  0.1860  0.3320 -0.4008
  138TCq2    H2 2112   2.852   0.651   9.691  1.0812  1.8820 -0.5186
  138TCq2    H3 2113   2.494   0.678   9.476  0.4482 -0.8957  1.4731
  138TCq2    H4 2114   2.759   1.020   9.503 -1.7528  0.1537  0.3349
  139TMC2    C1 2115   3.629   0.544  12.734  0.1729  0.1999  0.1220
  139TMC2    C2 2116   3.665   0.605  12.619 -0.2343 -0.1233 -0.2466
  139TMC2    C3 2117   3.637   0.737  12.611  0.4675  0.2404 -0.2779
  139TMC2    C4 2118   3.574   0.613  12.844  0.0133  0.5425 -0.0569
  139TMC2    C5 2119   3.558   0.746  12.826 -0.2275  0.1191 -0.0695
  139TMC2    C6 2120   3.583   0.811  12.710 -0.8541 -0.2625  0.1468
  139TMC2     C 2121   3.708   0.428  12.760 -0.1660  0.4910 -0.3208
  139TMC2     O 2122   3.714   0.351  12.666 -0.4407  0.2293  0.5378
  139TMC2     H 2123   3.700   0.552  12.531  0.4321 -0.9938  0.5347
  139TMC2    H1 2124   3.546   0.562  12.935  1.6295  1.2158  0.8052
  139TMC2    H2 2125   3.596   0.918  12.722 -2.5821 -0.3434  2.9210
  139TMC2    C7 2126   3.503   0.823  12.936  0.4118 -0.2405 -0.2011
  139TMC2    C8 2127   3.645   0.780  12.476  0.2302  0.0189  0.8419
  139TMC2    O1 2128   3.473   0.939  12.906 -0.2943  0.1005  0.5635
  139TMC2    O2 2129   3.688   0.719  12.378  0.0570 -0.0423 -0.6151
  139TMC2    O5 2130   3.588   0.906  12.478  0.0324 -0.5705  0.0608
  139TMC2    H5 2131   3.543   0.919  12.564  1.8132 -0.2398  0.9290
  140MPD2     C 2132   3.876   0.277  13.040  0.0510 -0.2007  0.6324
  140MPD2    C1 2133   3.860   0.306  12.908 -0.3167 -0.4047  0.0782
  140MPD2    C2 2134   3.942   0.245  12.812  0.2664 -0.0127  0.0358
  140MPD2    C3 2135   4.018   0.135  12.846  0.0578  0.6447  0.3988
  140MPD2    C4 2136   4.027   0.098  12.981 -0.3330  0.3554 -0.2139
  140MPD2    C5 2137   3.959   0.169  13.075 -0.5407  0.5087  0.2973
  140MPD2     H 2138   3.955   0.297  12.718 -0.0360 -0.5720 -0.3141
  140MPD2    H1 2139   4.093   0.020  13.018  0.3387  1.5023  1.0200
  140MPD2    H2 2140   3.825   0.329  13.120  0.1796 -1.0165  1.2343
  140MPD2    H3 2141   3.977   0.141  13.178 -0.1434 -2.4211 -0.5446
  140MPD2     N 2142   4.095   0.078  12.743 -0.8056 -0.1986 -0.3859
  140MPD2    H5 2143   4.102   0.117  12.649  1.8367 -0.0907 -0.1288
  140MPD2    N1 2144   3.764   0.409  12.880 -0.4140 -0.3075 -0.1702
  140MPD2    H7 2145   3.750   0.473  12.958  0.0334 -0.1411 -0.2216
  141TCq2    C1 2146   4.250   2.328  14.366 -0.2635 -0.2145 -0.1865
  141TCq2    O2 2147   4.204   2.219  14.335  1.0032 -0.8542 -0.1099
  141TCq2    C2 2148   4.159   2.442  14.372 -0.0040 -0.4308  0.1719
  141TCq2    C3 2149   4.024   2.425  14.397 -0.8688  0.4635 -0.0820
  141TCq2    C4 2150   3.930   2.515  14.362  0.5413  0.0125  0.1425
  141TCq2    C5 2151   3.977   2.633  14.315  0.2331  0.1138  0.6405
  141TCq2    C6 2152   4.113   2.657  14.311 -0.3982  1.0311 -0.3115
  141TCq2    C7 2153   4.211   2.562  14.329  0.1747 -0.1855 -0.3995
  141TCq2    C8 2154   4.148   2.791  14.266 -0.0834 -0.6322  0.5640
  141TCq2    O4 2155   4.076   2.848  14.184  0.0306 -0.6747  0.3838
  141TCq2    C9 2156   3.790   2.494  14.386 -0.1979 -0.5154 -0.5459
  141TCq2    O5 2157   3.754   2.369  14.389  0.0443 -0.1551 -0.6241
  141TCq2    O6 2158   3.719   2.585  14.336 -0.4845 -0.3108 -0.3913
  141TCq2    H2 2159   4.000   2.326  14.434 -1.9863  0.1655 -1.5871
  141TCq2    H3 2160   3.913   2.715  14.286  0.4743  0.0333 -0.0950
  141TCq2    H4 2161   4.314   2.579  14.300 -0.5514  1.5487 -1.9265
  142MPD2     C 2162   1.792   0.237   9.237  0.5763 -0.3004  0.0323
  142MPD2    C1 2163   1.699   0.229   9.135  0.1378 -0.1252 -0.2121
  142MPD2    C2 2164   1.670   0.340   9.059  0.6690 -0.1028 -1.0956
  142MPD2    C3 2165   1.745   0.455   9.072 -0.1888  0.8209  0.4616
  142MPD2    C4 2166   1.848   0.457   9.156  0.3892 -0.4876  0.1356
  142MPD2    C5 2167   1.862   0.355   9.243  0.4840  0.6775 -0.4181
  142MPD2     H 2168   1.587   0.323   8.990  1.2815  0.6496 -2.0122
  142MPD2    H1 2169   1.898   0.549   9.186 -1.6689  0.7919 -0.3273
  142MPD2    H2 2170   1.816   0.157   9.307  1.0896 -1.9693 -2.0539
  142MPD2    H3 2171   1.947   0.362   9.310 -0.5736 -0.7686  1.0784
  142MPD2     N 2172   1.726   0.571   8.998 -0.4481  0.0942 -0.2758
  142MPD2    H5 2173   1.792   0.646   9.018 -0.5634 -0.0683  0.7132
  142MPD2    N1 2174   1.629   0.111   9.143  0.0579  0.8435 -0.6701
  142MPD2    H7 2175   1.665   0.037   9.203 -2.1814  1.5212  1.5235
  143TCq2    C1 2176   1.628   0.587   8.906 -0.0183 -0.0587  0.0270
  143TCq2    O2 2177   1.563   0.504   8.843  0.4906  0.5945  0.2633
  143TCq2    C2 2178   1.624   0.726   8.852  0.0626 -0.0000  0.3787
  143TCq2    C3 2179   1.550   0.743   8.739  0.0957 -0.2789  0.3118
  143TCq2    C4 2180   1.546   0.863   8.684 -0.0068 -0.5492 -1.0815
  143TCq2    C5 2181   1.607   0.970   8.747 -0.4113 -0.4243  0.5022
  143TCq2    C6 2182   1.682   0.952   8.858 -0.0713  0.3824 -0.0357
  143TCq2    C7 2183   1.689   0.827   8.920 -0.4011 -0.0942 -0.9668
  143TCq2    C8 2184   1.736   1.064   8.940 -0.2117  0.1368 -0.0291
  143TCq2    O4 2185   1.799   1.034   9.042 -0.1831 -0.0975 -0.5412
  143TCq2    C9 2186   1.477   0.887   8.559 -0.0524  0.2108 -0.0783
  143TCq2    O5 2187   1.427   0.791   8.495 -0.2618 -0.3381 -0.0908
  143TCq2    O6 2188   1.478   1.008   8.522  0.1985  1.2320 -0.0498
  143TCq2    H2 2189   1.508   0.660   8.683  0.8484 -0.8747  0.6283
  143TCq2    H3 2190   1.596   1.067   8.698 -2.7072 -1.8706 -1.8831
  143TCq2    H4 2191   1.769   0.811   8.992 -0.7943  1.2777 -0.2215
  144MPD2     C 2192   4.000   0.303   0.478 -0.1914  0.0530 -0.1660
  144MPD2    C1 2193   4.058   0.293   0.347  0.4583 -0.6639  0.3533
  144MPD2    C2 2194   4.188   0.341   0.328  0.1987 -0.2586 -0.4748
  144MPD2    C3 2195   4.251   0.404   0.434 -0.2308 -0.1570 -0.6382
  144MPD2    C4 2196   4.187   0.430   0.559  0.3857 -0.2884 -0.2833
  144MPD2    C5 2197   4.061   0.373   0.573  0.1449 -0.0449 -0.7096
  144MPD2     H 2198   4.234   0.332   0.231  1.3608  1.4000 -0.0683
  144MPD2    H1 2199   4.230   0.492   0.637  1.3719 -1.7072  0.3161
  144MPD2    H2 2200   3.899   0.269   0.498 -0.5289  0.5351 -1.0534
  144MPD2    H3 2201   4.009   0.401   0.664 -0.3415 -1.9304 -0.3994
  144MPD2     N 2202   4.381   0.448   0.426 -0.0170  0.0263 -0.1319
  144MPD2    H5 2203   4.417   0.501   0.505  1.8175  1.0505 -1.6355
  144MPD2    N1 2204   3.989   0.249   0.235  0.8311  0.5424 -0.3244
  144MPD2    H7 2205   4.045   0.248   0.151 -0.8063 -1.6435 -1.3830
  145TCq2    C1 2206   4.464   0.471   0.318 -0.7102 -0.0091 -0.0271
  145TCq2    O2 2207   4.430   0.461   0.200  0.2611 -0.1476  0.4370
  145TCq2    C2 2208   4.578   0.547   0.351  0.3222 -0.0809 -0.1708
  145TCq2    C3 2209   4.644   0.614   0.252 -0.5854 -0.6918 -0.2599
  145TCq2    C4 2210   0.022   0.691   0.290 -0.2439 -0.3194 -0.0312
  145TCq2    C5 2211   0.081   0.675   0.417  0.1516  0.5847 -0.0601
  145TCq2    C6 2212   0.010   0.606   0.503  1.1144 -0.2763 -0.2205
  145TCq2    C7 2213   4.621   0.541   0.480 -0.3317  0.8790  0.6031
  145TCq2    C8 2214   0.047   0.615   0.642  0.0846  0.4817  0.0903
  145TCq2    O4 2215   0.165   0.587   0.677  0.2371 -0.7359 -0.0636
  145TCq2    C9 2216   0.077   0.783   0.196 -0.1901  0.0304 -0.2925
  145TCq2    O5 2217   0.141   0.882   0.238  0.1474 -0.2987 -0.1968
  145TCq2    O6 2218   0.026   0.775   0.084  0.3580 -0.0189 -0.1055
  145TCq2    H2 2219   4.604   0.624   0.152 -0.4461  0.9304 -0.1562
  145TCq2    H3 2220   0.169   0.731   0.446 -0.0714  1.4046 -0.9456
  145TCq2    H4 2221   4.600   0.470   0.560 -1.1367  0.7992  0.3176
  146TMC2    C1 2222   0.804   3.131  12.414 -0.1451 -0.0413 -0.2248
  146TMC2    C2 2223   0.705   3.180  12.334 -0.5756 -0.0254  0.6546
  146TMC2    C3 2224   0.690   3.116  12.212 -0.0597 -0.5884 -0.2485
  146TMC2    C4 2225   0.880   3.019  12.388 -0.1114 -0.1825 -0.0682
  146TMC2    C5 2226   0.858   2.965  12.265 -0.6658  0.3986 -1.0741
  146TMC2    C6 2227   0.762   3.009  12.180 -0.0647 -0.8530  0.4847
  146TMC2     C 2228   0.861   3.222  12.507 -0.3634  0.5051 -0.2063
  146TMC2     O 2229   0.864   3.338  12.473  0.2198  0.4531 -0.9932
  146TMC2     H 2230   0.650   3.270  12.359 -1.2992  0.4100 -2.4466
  146TMC2    H1 2231   0.978   3.007  12.432  0.0657 -0.3218 -0.4943
  146TMC2    H2 2232   0.750   2.965  12.081  0.8208  0.3724 -0.1661
  146TMC2    C7 2233   0.951   2.865  12.215 -0.1308 -0.2705 -0.1086
  146TMC2    C8 2234   0.623   3.186  12.102 -0.6768 -0.0536 -0.9445
  146TMC2    O1 2235   0.938   2.855  12.090  0.5168 -0.8030 -0.4183
  146TMC2    O2 2236   0.684   3.266  12.034  0.2062  0.0711  0.3838
  146TMC2    O5 2237   0.503   3.211  12.151 -0.0897 -0.1060 -0.0579
  146TMC2    H5 2238   0.466   3.135  12.201  0.9363 -0.6345 -0.1055
  147MPD2     C 2239   1.324   2.515  12.201 -0.5864  0.6216  0.1559
  147MPD2    C1 2240   1.273   2.502  12.326  0.5307  0.0077 -0.3275
  147MPD2    C2 2241   1.171   2.595  12.350 -0.0936 -0.1665 -0.1310
  147MPD2    C3 2242   1.111   2.682  12.262  0.5903  0.1773  0.5127
  147MPD2    C4 2243   1.166   2.677  12.137 -0.3507  0.1796  0.2026
  147MPD2    C5 2244   1.281   2.608  12.107 -0.2261  0.1224  0.3139
  147MPD2     H 2245   1.137   2.604  12.453 -1.3471  2.6322 -0.8056
  147MPD2    H1 2246   1.130   2.736  12.054 -0.5458 -0.1966  0.0227
  147MPD2    H2 2247   1.410   2.453  12.178 -0.4588  0.7687  0.2374
  147MPD2    H3 2248   1.320   2.618  12.007  3.0689  1.8560  1.7805
  147MPD2     N 2249   1.018   2.779  12.300  0.6136  0.0830 -0.3448
  147MPD2    H5 2250   0.987   2.781  12.396  1.7356 -1.7085  0.0552
  147MPD2    N1 2251   1.337   2.423  12.425 -0.2673  0.1304  0.1404
  147MPD2    H7 2252   1.427   2.384  12.398  0.3128  1.1215  0.6610
  148MPD2     C 2253   1.034   1.614  10.135  0.2536  0.9090 -0.4453
  148MPD2    C1 2254   1.134   1.533  10.092  0.2571 -0.4069 -0.0348
  148MPD2    C2 2255   1.091   1.431  10.008 -0.2047 -0.2987 -0.1731
  148MPD2    C3 2256   0.966   1.408   9.973  0.5970 -0.2330  0.1718
  148MPD2    C4 2257   0.867   1.485  10.029 -0.0163 -0.2194  0.1723
  148MPD2    C5 2258   0.897   1.587  10.114  0.9029  0.3679  0.4187
  148MPD2     H 2259   1.168   1.360   9.980 -0.8601 -0.7505 -0.8166
  148MPD2    H1 2260   0.763   1.463  10.011 -0.0259  0.9556 -1.2109
  148MPD2    H2 2261   1.057   1.685  10.213 -1.1762  0.3739  0.4594
  148MPD2    H3 2262   0.824   1.645  10.169  0.1902 -1.4080  1.3572
  148MPD2     N 2263   0.917   1.290   9.906  0.2173  0.2684 -0.1772
  148MPD2    H5 2264   0.817   1.277   9.888  0.2260 -1.1597  0.7672
  148MPD2    N1 2265   1.270   1.553  10.134  0.5683 -0.1057 -0.0259
  148MPD2    H7 2266   1.332   1.477  10.109 -0.3275 -0.5570 -0.9024
  149TCq2    C1 2267   1.312   1.667  10.202  0.0348 -0.2972  0.1491
  149TCq2    O2 2268   1.254   1.767  10.245  0.3097  0.7899  0.0627
  149TCq2    C2 2269   1.455   1.661  10.216  0.3340 -0.8798 -0.1754
  149TCq2    C3 2270   1.517   1.775  10.194  0.4692 -0.0412 -0.6424
  149TCq2    C4 2271   1.653   1.763  10.162 -0.5040 -0.1949  0.1191
  149TCq2    C5 2272   1.711   1.649  10.122 -0.3326 -0.2051  0.6831
  149TCq2    C6 2273   1.644   1.536  10.154 -0.7155 -0.6945  0.1325
  149TCq2    C7 2274   1.518   1.540  10.194  0.0625  0.0297  0.0294
  149TCq2    C8 2275   1.685   1.424  10.078  0.6719  0.3820 -0.1727
  149TCq2    O4 2276   1.605   1.334  10.083  0.2225  0.2557  0.5230
  149TCq2    C9 2277   1.715   1.884  10.102 -0.0723  0.3372 -0.4770
  149TCq2    O5 2278   1.629   1.976  10.082  0.0909 -0.6386 -0.0718
  149TCq2    O6 2279   1.824   1.874  10.037 -0.4672  0.2349  0.7510
  149TCq2    H2 2280   1.465   1.870  10.199  2.3758  0.9269  0.5624
  149TCq2    H3 2281   1.816   1.655  10.093 -0.4917  0.5931  0.2646
  149TCq2    H4 2282   1.475   1.443  10.217 -0.9838  1.0818  2.4501
  150MPD2     C 2283   2.679   1.260  11.861  0.4787 -0.1831  0.0959
  150MPD2    C1 2284   2.740   1.182  11.767 -0.3461 -0.2512 -0.7556
  150MPD2    C2 2285   2.871   1.211  11.738 -0.1673 -0.1657  0.2932
  150MPD2    C3 2286   2.948   1.289  11.820 -0.0379  0.2936 -0.1866
  150MPD2    C4 2287   2.885   1.353  11.929 -0.7627 -0.5816 -0.6080
  150MPD2    C5 2288   2.750   1.347  11.942  0.5391  0.1868 -0.6644
  150MPD2     H 2289   2.922   1.153  11.662  0.4880 -2.2100  2.3108
  150MPD2    H1 2290   2.933   1.414  12.004 -2.4020 -0.0844  0.0544
  150MPD2    H2 2291   2.575   1.239  11.884  1.2518 -2.9616  1.0357
  150MPD2    H3 2292   2.704   1.393  12.028  0.9201 -1.6593  0.5266
  150MPD2     N 2293   3.083   1.283  11.794 -0.6344  0.5524  0.2661
  150MPD2    H5 2294   3.115   1.226  11.717 -1.3429  0.7788 -0.1995
  150MPD2    N1 2295   2.655   1.086  11.711  0.0474  0.2866  0.0973
  150MPD2    H7 2296   2.558   1.086  11.742  0.5301 -1.8064  1.5521
  151TCq2    C1 2297   3.183   1.333  11.870  0.2055  0.3815  0.2083
  151TCq2    O2 2298   3.164   1.413  11.964 -0.0323  0.0074  0.3770
  151TCq2    C2 2299   3.314   1.280  11.823  0.0297 -0.4899  0.8553
  151TCq2    C3 2300   3.322   1.180  11.732  0.7964 -0.7003 -0.4017
  151TCq2    C4 2301   3.428   1.091  11.742  0.1823  0.0556 -0.3545
  151TCq2    C5 2302   3.533   1.120  11.829 -0.1290  0.2111 -0.0778
  151TCq2    C6 2303   3.517   1.226  11.915  0.0974 -0.8212 -0.1698
  151TCq2    C7 2304   3.408   1.307  11.921  0.4384 -0.0910 -0.7190
  151TCq2    C8 2305   3.623   1.252  12.007  0.2680 -0.1268 -0.4232
  151TCq2    O4 2306   3.634   1.362  12.060 -0.0768  0.4135 -0.2006
  151TCq2    C9 2307   3.451   0.982  11.652 -0.1985 -0.0786 -0.7024
  151TCq2    O5 2308   3.361   0.965  11.564 -0.3210 -0.6068  0.4365
  151TCq2    O6 2309   3.526   0.892  11.694  0.1115  0.3541  0.1911
  151TCq2    H2 2310   3.244   1.153  11.662  0.3101 -1.9683  0.6082
  151TCq2    H3 2311   3.629   1.071  11.819  0.5825  1.2460  1.6622
  151TCq2    H4 2312   3.397   1.397  11.980  0.3532 -1.8773  1.9820
  152MPD2     C 2313   2.804   1.379  12.297  0.3948  0.2573 -0.4369
  152MPD2    C1 2314   2.840   1.256  12.259  0.1559  0.0335  0.1701
  152MPD2    C2 2315   2.737   1.164  12.234 -0.1434 -0.0115  0.4167
  152MPD2    C3 2316   2.606   1.200  12.228 -0.0360 -1.1609 -0.3870
  152MPD2    C4 2317   2.575   1.328  12.254  0.0848 -0.0264  0.0596
  152MPD2    C5 2318   2.671   1.416  12.297  0.0839 -0.5250  0.2672
  152MPD2     H 2319   2.762   1.063  12.203  1.8631  1.0618 -1.4889
  152MPD2    H1 2320   2.473   1.362  12.249  0.3910  0.8687 -0.0468
  152MPD2    H2 2321   2.871   1.455  12.336 -0.8742  2.2666 -2.1641
  152MPD2    H3 2322   2.645   1.516  12.327  0.4284 -0.5562  0.6584
  152MPD2     N 2323   2.513   1.096  12.192 -0.1809  0.6385 -0.4186
  152MPD2    H5 2324   2.545   1.000  12.177  0.1153  0.8082 -0.8651
  152MPD2    N1 2325   2.980   1.226  12.244 -0.3331  0.4323  0.5032
  152MPD2    H7 2326   3.049   1.295  12.271 -0.0536  0.3685 -0.0406
  153TCq2    C1 2327   3.035   1.116  12.181  0.2770 -0.1565 -0.6453
  153TCq2    O2 2328   2.978   1.031  12.114  1.1294  0.1247  0.6440
  153TCq2    C2 2329   3.183   1.101  12.183 -0.3532  0.7662 -0.8231
  153TCq2    C3 2330   3.240   1.001  12.125  0.5791 -0.0951 -0.5062
  153TCq2    C4 2331   3.375   0.974  12.145  0.6434 -0.5552 -0.0152
  153TCq2    C5 2332   3.449   1.043  12.242  0.4506  0.4136 -0.0887
  153TCq2    C6 2333   3.387   1.156  12.294 -0.3121  1.3648  0.0391
  153TCq2    C7 2334   3.251   1.180  12.272  0.6678 -0.2576  0.1980
  153TCq2    C8 2335   3.467   1.255  12.359  0.6291 -0.2341 -0.1506
  153TCq2    O4 2336   3.426   1.370  12.357 -0.0609  0.4452 -0.1426
  153TCq2    C9 2337   3.445   0.874  12.057  1.0544 -0.4191  0.2580
  153TCq2    O5 2338   3.370   0.792  11.994  0.0286 -0.4369 -0.3395
  153TCq2    O6 2339   3.570   0.872  12.039  0.0274  0.3820 -0.5137
  153TCq2    H2 2340   3.179   0.933  12.066  1.5922  0.0042 -1.6748
  153TCq2    H3 2341   3.557   1.031  12.243  0.5329  1.1834  0.6088
  153TCq2    H4 2342   3.210   1.261  12.332  0.9176 -0.2851  0.4020
  154MPD2     C 2343   4.376   1.038   0.229  0.2030 -0.0457  0.0670
  154MPD2    C1 2344   4.368   1.177   0.246  0.2833 -0.4402  0.4170
  154MPD2    C2 2345   4.250   1.235   0.293 -0.6808 -0.8659  0.5146
  154MPD2    C3 2346   4.145   1.153   0.337  0.1640 -0.1866 -0.1708
  154MPD2    C4 2347   4.159   1.018   0.328 -0.2537 -0.7778  0.2434
  154MPD2    C5 2348   4.269   0.960   0.276 -0.0343 -0.3515 -1.1888
  154MPD2     H 2349   4.245   1.342   0.309 -0.1052 -0.6941 -0.4498
  154MPD2    H1 2350   4.086   0.942   0.355 -0.6687 -0.5706 -0.2957
  154MPD2    H2 2351   4.464   0.987   0.193 -0.6713 -0.0404 -2.0705
  154MPD2    H3 2352   4.265   0.852   0.265  1.8098 -0.6196  0.8076
  154MPD2     N 2353   4.036   1.223   0.392 -0.2209  0.1553  0.4435
  154MPD2    H5 2354   4.034   1.325   0.396  0.1108  0.1555  0.5377
  154MPD2    N1 2355   4.479   1.251   0.209  0.1918 -0.4214 -0.2765
  154MPD2    H7 2356   4.557   1.198   0.171 -0.2880 -2.0602  1.0337
  155TCq2    C1 2357   4.497   1.391   0.198  0.1717 -0.7902 -0.3002
  155TCq2    O2 2358   4.409   1.480   0.203 -0.1419 -0.1010  0.5687
  155TCq2    C2 2359   4.629   1.430   0.146 -0.0175 -0.3909 -0.4352
  155TCq2    C3 2360   0.006   1.340   0.162  0.0995 -0.4595 -0.8450
  155TCq2    C4 2361   0.131   1.366   0.109 -0.0787  0.4994  1.0981
  155TCq2    C5 2362   0.162   1.490   0.052 -0.3014  0.4371  0.7805
  155TCq2    C6 2363   0.054   1.578   0.041 -0.2218 -0.3395  0.3951
  155TCq2    C7 2364   4.653   1.547   0.077 -0.2123 -0.8822  0.7389
  155TCq2    C8 2365   0.090   1.707  17.699  0.0835  0.1666  0.2954
  155TCq2    O4 2366   0.188   1.720  17.623 -0.1281  0.7188  0.2369
  155TCq2    C9 2367   0.231   1.261   0.125 -0.7949 -0.4443 -0.2637
  155TCq2    O5 2368   0.198   1.149   0.176 -0.0518  0.3322  0.3760
  155TCq2    O6 2369   0.335   1.281   0.056 -0.0990 -0.2662  0.1078
  155TCq2    H2 2370   4.722   1.254   0.228  1.0441 -0.4365 -0.6670
  155TCq2    H3 2371   0.264   1.505   0.020  0.0391  0.3997  1.8539
  155TCq2    H4 2372   4.571   1.616   0.060  2.7916  2.2629 -1.2107
  156MPD2     C 2373   3.444   2.913  11.952 -0.3919 -0.7379 -0.3944
  156MPD2    C1 2374   3.304   2.918  11.929 -0.6626  0.2735 -0.1515
  156MPD2    C2 2375   3.218   2.914  12.040  0.2799  0.4360  0.0278
  156MPD2    C3 2376   3.259   2.899  12.168 -0.5986 -0.0261  0.5731
  156MPD2    C4 2377   3.394   2.892  12.192 -0.5523  0.3777 -0.0375
  156MPD2    C5 2378   3.479   2.891  12.082 -0.1001 -0.0817  0.0081
  156MPD2     H 2379   3.112   2.915  12.016  0.2343  2.4791  0.3150
  156MPD2    H1 2380   3.439   2.869  12.288 -0.4712  1.3972  0.1727
  156MPD2    H2 2381   3.516   2.913  11.871 -1.8239  3.0587 -1.6994
  156MPD2    H3 2382   3.583   2.883  12.113  0.4411 -1.9617 -2.2939
  156MPD2     N 2383   3.165   2.933  12.269 -0.5251  0.3653 -0.3653
  156MPD2    H5 2384   3.072   2.963  12.239 -0.4333 -0.5868 -1.6153
  156MPD2    N1 2385   3.260   2.921  11.791 -0.2071 -0.2155  0.3127
  156MPD2    H7 2386   3.341   2.939  11.732  0.8474 -0.7560  1.6011
  157TCq2    C1 2387   3.133   2.908  11.741 -0.5581 -0.1460 -0.3594
  157TCq2    O2 2388   3.036   2.890  11.808  0.4267  0.1635 -0.4074
  157TCq2    C2 2389   3.112   2.910  11.598  0.1886 -0.3071  0.1797
  157TCq2    C3 2390   3.222   2.890  11.512 -0.1752  0.2730  0.2348
  157TCq2    C4 2391   3.218   2.946  11.387  0.0727  0.2312  0.3822
  157TCq2    C5 2392   3.102   2.993  11.340 -0.1599  0.4999 -0.1954
  157TCq2    C6 2393   2.989   2.969  11.410 -1.2425  0.0390  0.4595
  157TCq2    C7 2394   2.995   2.945  11.547 -0.2767  0.4855 -0.9450
  157TCq2    C8 2395   2.856   3.000  11.350 -0.0120  0.4706  0.1133
  157TCq2    O4 2396   2.858   3.086  11.263  0.5174  0.1637 -0.5911
  157TCq2    C9 2397   3.329   2.942  11.299  0.4277 -0.0491  0.3508
  157TCq2    O5 2398   3.309   3.003  11.190  0.5643 -0.7141  0.0992
  157TCq2    O6 2399   3.436   2.879  11.331 -0.3646 -0.9732  0.3823
  157TCq2    H2 2400   3.317   2.846  11.539 -0.1915 -0.0150 -0.1799
  157TCq2    H3 2401   3.086   3.016  11.235  0.5874 -0.9287 -0.6341
  157TCq2    H4 2402   2.905   2.954  11.606  1.9904  1.0657  2.4315
  158TMC2    C1 2403   4.382   1.458  13.563 -1.1572 -0.0329 -0.2357
  158TMC2    C2 2404   4.404   1.402  13.441  0.6312  0.7811 -0.0046
  158TMC2    C3 2405   4.331   1.453  13.337 -0.6792  0.1105 -0.0362
  158TMC2    C4 2406   4.288   1.551  13.595  0.5226  0.3452  0.5232
  158TMC2    C5 2407   4.207   1.587  13.494 -0.3371  0.6118 -0.5542
  158TMC2    C6 2408   4.225   1.541  13.366  1.0506  0.0794 -0.4178
  158TMC2     C 2409   4.416   1.365  13.675  0.3439  0.1409 -0.1099
  158TMC2     O 2410   4.506   1.407  13.748  0.8869  0.1431  0.2625
  158TMC2     H 2411   4.459   1.310  13.428 -2.2075 -0.9226 -0.0906
  158TMC2    H1 2412   4.281   1.582  13.699  1.5545 -1.7872  1.2291
  158TMC2    H2 2413   4.172   1.582  13.281 -0.4377  0.7512  0.8445
  158TMC2    C7 2414   4.090   1.674  13.526  0.8940 -0.0913  1.5401
  158TMC2    C8 2415   4.331   1.376  13.215  0.6694  0.2015  0.1478
  158TMC2    O1 2416   4.104   1.755  13.623 -0.2710  0.8904 -0.5716
  158TMC2    O2 2417   4.424   1.298  13.201 -0.0001  0.0956  0.4727
  158TMC2    O5 2418   4.203   1.340  13.199 -0.0453 -0.2363  0.2221
  158TMC2    H5 2419   4.147   1.413  13.235 -1.2461 -0.5878 -0.9070
  159MPD2     C 2420   4.254   1.043  14.025 -0.0010  0.1195 -0.0238
  159MPD2    C1 2421   4.154   1.044  13.933  0.4530  0.6919 -0.7394
  159MPD2    C2 2422   4.178   1.116  13.815  0.3889 -0.1127 -0.4573
  159MPD2    C3 2423   4.298   1.187  13.800  0.3913  0.9611 -0.7170
  159MPD2    C4 2424   4.402   1.167  13.886  0.6346 -0.4387 -1.0086
  159MPD2    C5 2425   4.377   1.091  14.000 -0.3383  0.1154 -0.3432
  159MPD2     H 2426   4.090   1.143  13.757  1.2918 -0.3734 -1.9471
  159MPD2    H1 2427   4.499   1.215  13.878  0.8272 -0.8189 -0.9487
  159MPD2    H2 2428   4.235   0.997  14.121  1.5845 -1.3616 -0.4286
  159MPD2    H3 2429   4.459   1.073  14.068  1.2397  2.8019 -1.5282
  159MPD2     N 2430   4.314   1.279  13.696 -0.6306 -0.0748  0.3462
  159MPD2    H5 2431   4.231   1.288  13.637  0.4430  0.8587 -1.0301
  159MPD2    N1 2432   4.031   0.984  13.975  0.0506 -0.1522 -0.3037
  159MPD2    H7 2433   4.025   0.971  14.076  0.5533  0.4462 -0.2022
  160TMC2    C1 2434   3.064   0.468   1.222  0.0458 -0.6282 -0.2499
  160TMC2    C2 2435   3.064   0.328   1.246 -0.3683  0.7464 -0.2840
  160TMC2    C3 2436   3.152   0.251   1.176  0.6325  0.5907  0.0102
  160TMC2    C4 2437   3.141   0.517   1.119  0.6076  0.1120 -0.5464
  160TMC2    C5 2438   3.216   0.428   1.044  0.4127 -0.7076  0.3138
  160TMC2    C6 2439   3.232   0.295   1.079  0.0263 -0.2453  0.0360
  160TMC2     C 2440   2.953   0.535   1.281 -0.1038  0.5150  0.6542
  160TMC2     O 2441   2.906   0.495   1.384 -0.1895 -0.1532 -0.1375
  160TMC2     H 2442   3.000   0.286   1.323 -0.1387  2.1973  0.7128
  160TMC2    H1 2443   3.137   0.624   1.104  1.6621  0.5179  2.1087
  160TMC2    H2 2444   3.310   0.238   1.029 -0.4178 -0.1264 -0.7946
  160TMC2    C7 2445   3.280   0.471   0.922  0.4161  1.0482  0.4423
  160TMC2    C8 2446   3.165   0.117   1.225  0.3003 -0.6686 -0.1358
  160TMC2    O1 2447   3.321   0.384   0.848  0.1328  0.1891 -0.8630
  160TMC2    O2 2448   3.101   0.075   1.318  0.3400 -0.2332 -0.8837
  160TMC2    O5 2449   3.232   0.046   1.137 -0.6027 -0.2900 -0.3301
  160TMC2    H5 2450   3.235   0.085   1.047  2.7029 -1.2706 -0.6376
  161MPD2     C 2451   2.738   0.724   1.353  0.2308  0.1158  0.2813
  161MPD2    C1 2452   2.781   0.711   1.225  0.1849  0.4093 -0.9108
  161MPD2    C2 2453   2.721   0.782   1.122 -0.4563 -0.4380  0.2180
  161MPD2    C3 2454   2.620   0.871   1.154  0.4944 -0.4835 -0.0353
  161MPD2    C4 2455   2.580   0.894   1.286  0.1630  0.0971  0.5562
  161MPD2    C5 2456   2.635   0.810   1.382 -0.1075 -0.0670 -0.3239
  161MPD2     H 2457   2.762   0.776   1.022  0.6491  2.3407  0.4918
  161MPD2    H1 2458   2.505   0.968   1.311  0.7383  1.2035 -0.9487
  161MPD2    H2 2459   2.775   0.673   1.441  1.1280 -0.8568 -0.6521
  161MPD2    H3 2460   2.616   0.819   1.488 -0.5690 -3.2078 -0.1286
  161MPD2     N 2461   2.555   0.937   1.059 -0.3413  0.3418 -0.2796
  161MPD2    H5 2462   2.485   1.007   1.084  0.1857 -0.0059  2.1596
  161MPD2    N1 2463   2.893   0.631   1.197  0.2413  0.2695  0.3082
  161MPD2    H7 2464   2.941   0.641   1.107  1.9615  0.0674  1.1979
  162TMC2    C1 2465   1.130   3.152   0.294  0.5757 -0.2209 -0.0594
  162TMC2    C2 2466   1.124   3.276   0.239  0.0459  0.1057 -0.5116
  162TMC2    C3 2467   1.001   3.334   0.238  0.3347 -0.6490 -0.5913
  162TMC2    C4 2468   1.028   3.109   0.377  0.2691 -0.3449 -0.4328
  162TMC2    C5 2469   0.919   3.180   0.385  0.1617  0.1262  0.9399
  162TMC2    C6 2470   0.891   3.289   0.307  0.9694  0.4987 -0.1569
  162TMC2     C 2471   1.243   3.069   0.267 -0.2317  0.5748  0.0791
  162TMC2     O 2472   1.230   2.953   0.306 -0.8949  0.7815 -0.1217
  162TMC2     H 2473   1.197   3.320   0.172 -0.3010 -0.0643 -1.0062
  162TMC2    H1 2474   1.035   3.014   0.429 -0.8179  0.5695  1.3622
  162TMC2    H2 2475   0.797   3.342   0.303 -0.4081 -1.9299 -0.4291
  162TMC2    C7 2476   0.809   3.139   0.471 -0.9298 -0.3695  0.1374
  162TMC2    C8 2477   0.979   3.450   0.158 -0.0172 -0.0895 -0.0981
  162TMC2    O1 2478   0.693   3.156   0.426 -0.1386  0.1841 -0.2084
  162TMC2    O2 2479   1.042   3.457   0.055  0.9679 -0.1425 -0.1200
  162TMC2    O5 2480   0.936   3.548   0.233  0.5534 -0.0055  0.4819
  162TMC2    H5 2481   0.908   3.530   0.325 -0.1154 -2.6161 -0.2189
  163MPD2     C 2482   1.692   2.946   0.067 -0.0306 -1.6123 -0.1461
  163MPD2    C1 2483   1.572   2.887   0.071 -0.5201  0.5213  0.2802
  163MPD2    C2 2484   1.459   2.947   0.128 -0.0272  0.1503 -0.0166
  163MPD2    C3 2485   1.468   3.076   0.177 -0.5680  0.2290 -0.1085
  163MPD2    C4 2486   1.588   3.139   0.175  0.3418  0.4030  0.4128
  163MPD2    C5 2487   1.692   3.075   0.125 -0.7238  0.2579 -0.8869
  163MPD2     H 2488   1.369   2.887   0.116 -0.5739  1.0842 -0.6015
  163MPD2    H1 2489   1.607   3.236   0.218  2.3186  0.5155 -0.7126
  163MPD2    H2 2490   1.787   2.899   0.043  0.2090 -0.0099 -2.3149
  163MPD2    H3 2491   1.785   3.130   0.126 -1.7499  1.9016  2.3865
  163MPD2     N 2492   1.354   3.135   0.228 -0.0854  0.5856 -0.2632
  163MPD2    H5 2493   1.363   3.233   0.253  1.6263  0.3024  0.2879
  163MPD2    N1 2494   1.567   2.751   0.025 -0.1475  0.2524 -0.1569
  163MPD2    H7 2495   1.649   2.711  17.689 -0.5839 -2.8905  1.9119
  164TCq2    C1 2496   1.566   1.809  10.641  0.7624 -0.2999 -0.2730
  164TCq2    O2 2497   1.482   1.729  10.683  0.1741 -0.6770  0.1405
  164TCq2    C2 2498   1.539   1.946  10.675  0.1539  0.8825 -0.3534
  164TCq2    C3 2499   1.632   2.045  10.659  0.6370 -0.1183  0.2914
  164TCq2    C4 2500   1.606   2.173  10.685  0.3073  0.0228  0.6090
  164TCq2    C5 2501   1.481   2.203  10.731  0.1587 -0.7533 -0.5435
  164TCq2    C6 2502   1.387   2.107  10.743 -0.0161  0.1033  0.3412
  164TCq2    C7 2503   1.413   1.979  10.711  0.6007 -0.2497 -0.0500
  164TCq2    C8 2504   1.249   2.136  10.767 -0.2835  0.0326 -0.5415
  164TCq2    O4 2505   1.166   2.055  10.729  0.2415 -0.1267  0.2236
  164TCq2    C9 2506   1.690   2.281  10.645 -0.4297  0.2394  0.0622
  164TCq2    O5 2507   1.797   2.242  10.590 -0.3217 -0.2492 -0.2338
  164TCq2    O6 2508   1.665   2.401  10.673 -0.9413 -0.4460  0.3882
  164TCq2    H2 2509   1.730   2.021  10.619 -1.1713 -2.7055 -2.6285
  164TCq2    H3 2510   1.456   2.309  10.734 -3.2100 -1.6051  0.9935
  164TCq2    H4 2511   1.346   1.895  10.726 -0.4984  0.2644 -2.1389
  165MPD2     C 2512   3.554   3.257   2.113 -0.1471 -0.1334 -0.0173
  165MPD2    C1 2513   3.514   3.329   2.001  0.2611 -0.2415  0.6319
  165MPD2    C2 2514   3.598   3.412   1.935  0.2614 -0.8155  0.1183
  165MPD2    C3 2515   3.729   3.420   1.967 -0.2705  0.0957  0.0411
  165MPD2    C4 2516   3.770   3.346   2.070  0.4611 -0.6891 -0.2712
  165MPD2    C5 2517   3.688   3.263   2.138  0.3029 -0.7892 -0.0454
  165MPD2     H 2518   3.567   3.468   1.848 -0.5827  0.8018  1.4471
  165MPD2    H1 2519   3.873   3.353   2.103 -0.4687  3.9057  1.6254
  165MPD2    H2 2520   3.490   3.198   2.177 -1.1547  0.9684 -0.0112
  165MPD2    H3 2521   3.717   3.201   2.222 -1.0995 -1.5995 -0.1630
  165MPD2     N 2522   3.817   3.515   1.904  0.0090 -0.5206 -0.5716
  165MPD2    H5 2523   3.912   3.520   1.938 -0.5694 -3.5615  1.5319
  165MPD2    N1 2524   3.373   3.323   1.966 -0.2243  0.3855 -0.1497
  165MPD2    H7 2525   3.313   3.271   2.030 -1.7200  1.7917 -0.3889
  166TCq2    C1 2526   3.793   3.599   1.800 -0.2405  0.0456 -0.5037
  166TCq2    O2 2527   3.693   3.616   1.734 -0.1980 -0.2680 -0.1187
  166TCq2    C2 2528   3.907   3.679   1.773  0.4605  0.5666 -0.5410
  166TCq2    C3 2529   4.039   3.635   1.774  0.1773 -0.3920  0.6006
  166TCq2    C4 2530   4.129   3.707   1.702  0.1783 -0.0250  0.3339
  166TCq2    C5 2531   4.102   3.819   1.625  0.4162  0.4988 -0.4938
  166TCq2    C6 2532   3.969   3.853   1.630  0.6017  0.2479 -0.2201
  166TCq2    C7 2533   3.874   3.796   1.706 -0.3433  0.6151 -0.3242
  166TCq2    C8 2534   3.934   3.977   1.552 -0.2056  0.0904 -0.8266
  166TCq2    O4 2535   4.031   4.017   1.492  0.1836 -0.0801 -0.6041
  166TCq2    C9 2536   4.269   3.657   1.689  0.7800  0.4746  0.1897
  166TCq2    O5 2537   4.356   3.737   1.642 -0.4517  0.5285  0.7759
  166TCq2    O6 2538   4.296   3.543   1.733 -0.3735  0.4389  0.2383
  166TCq2    H2 2539   4.073   3.547   1.826  0.5187 -0.3331  0.4833
  166TCq2    H3 2540   4.185   3.860   1.569  0.2372  0.1991 -0.9725
  166TCq2    H4 2541   3.770   3.823   1.694 -0.5220  1.2258  2.5739
  167TMC2    C1 2542   0.849   1.803  12.398  0.1040  0.5451  0.0014
  167TMC2    C2 2543   0.795   1.850  12.513  0.2392 -0.1095 -0.3717
  167TMC2    C3 2544   0.855   1.804  12.632 -0.4774 -0.0111  0.2764
  167TMC2    C4 2545   0.939   1.695  12.388 -0.3266 -0.1534 -0.1664
  167TMC2    C5 2546   0.983   1.641  12.504  0.0340 -0.2441  0.1883
  167TMC2    C6 2547   0.949   1.704  12.626 -0.1973 -0.4804  0.7954
  167TMC2     C 2548   0.832   1.882  12.285 -0.4524  0.0356  0.1363
  167TMC2     O 2549   0.721   1.933  12.284 -0.4553 -0.0943  0.1961
  167TMC2     H 2550   0.717   1.925  12.509 -1.7493 -2.1062  1.1168
  167TMC2    H1 2551   0.959   1.644  12.294 -1.4437 -1.2219  0.1742
  167TMC2    H2 2552   0.993   1.664  12.717  0.9910  0.2372  0.5371
  167TMC2    C7 2553   1.028   1.501  12.508  0.0535  0.2752  0.7324
  167TMC2    C8 2554   0.824   1.867  12.762  0.0096  0.1727 -0.4747
  167TMC2    O1 2555   1.012   1.451  12.619  0.0846  0.0468  0.2731
  167TMC2    O2 2556   0.875   1.816  12.867 -0.1907  0.3741  0.8123
  167TMC2    O5 2557   0.799   1.997  12.745  0.6786  0.2302 -0.2501
  167TMC2    H5 2558   0.786   2.034  12.655 -1.2783  0.6240  0.1942
  168MPD2     C 2559   0.860   2.028  12.033 -0.3216  0.2944 -0.6402
  168MPD2    C1 2560   0.944   1.929  12.072  0.0139  0.1330  0.0465
  168MPD2    C2 2561   1.037   1.876  11.981 -0.0355 -0.2433  0.3144
  168MPD2    C3 2562   1.032   1.917  11.845  0.1541  0.1418  0.0426
  168MPD2    C4 2563   0.952   2.028  11.809  0.1451  0.1961 -0.9384
  168MPD2    C5 2564   0.866   2.073  11.905  0.1964  0.6814  0.4286
  168MPD2     H 2565   1.105   1.796  12.008  1.9214  0.8282 -1.3673
  168MPD2    H1 2566   0.942   2.061  11.706 -0.0694  0.6401 -0.7734
  168MPD2    H2 2567   0.785   2.066  12.102 -0.1145  0.7611 -0.6723
  168MPD2    H3 2568   0.805   2.155  11.868  1.4857  0.7252 -1.6337
  168MPD2     N 2569   1.106   1.841  11.750  0.2000 -0.2622 -0.4674
  168MPD2    H5 2570   1.156   1.756  11.772 -1.0854 -0.7173  0.7017
  168MPD2    N1 2571   0.932   1.862  12.198  0.0711 -0.1125 -0.4068
  168MPD2    H7 2572   1.007   1.798  12.221  0.0943 -0.2381 -0.8416
  169MPD1     C 2573   2.431   1.198   8.654 -0.4891  0.4804  0.6208
  169MPD1    C1 2574   2.440   1.071   8.681 -0.5596  0.0094 -0.2652
  169MPD1    C2 2575   2.561   1.017   8.721 -0.5963 -0.0105  0.3004
  169MPD1    C3 2576   2.674   1.101   8.735  0.3433 -0.4645  0.7615
  169MPD1    C4 2577   2.660   1.234   8.699  0.3770 -0.2655 -0.5629
  169MPD1    C5 2578   2.543   1.280   8.666  0.5741 -0.1948 -0.4959
  169MPD1     H 2579   2.559   0.910   8.739  0.6663  0.0752  0.9387
  169MPD1    H1 2580   2.738   1.309   8.702 -1.0545  1.2970 -2.4927
  169MPD1    H2 2581   2.333   1.240   8.634  1.0330  3.6327 -0.2156
  169MPD1    H3 2582   2.533   1.387   8.657 -0.0132 -0.1956  0.1542
  169MPD1     N 2583   2.797   1.034   8.755  0.3279  0.2243  0.2015
  169MPD1    H5 2584   2.804   0.934   8.739  2.3317  0.6097 -1.3761
  169MPD1    N1 2585   2.336   0.991   8.648 -0.3981  0.1189 -0.1838
  169MPD1    H6 2586   2.346   0.898   8.687  1.9960  1.3457  2.1130
  169MPD1    H7 2587   2.246   1.027   8.679 -0.4011  0.2402 -0.3353
  170MPD1     C 2588   1.657   3.427  12.908 -0.2098 -0.0994  0.6039
  170MPD1    C1 2589   1.723   3.371  13.014 -0.0439 -0.2778 -0.3153
  170MPD1    C2 2590   1.804   3.450  13.097  1.0786  0.3830  0.1132
  170MPD1    C3 2591   1.811   3.590  13.083 -0.0899  0.1033  0.1412
  170MPD1    C4 2592   1.733   3.646  12.983 -0.5139 -0.8438  0.0697
  170MPD1    C5 2593   1.653   3.566  12.903 -0.0123 -0.2497 -0.6213
  170MPD1     H 2594   1.871   3.390  13.158  0.4221 -1.2148 -0.7417
  170MPD1    H1 2595   1.731   3.753  12.962  0.6300 -0.8356  0.0300
  170MPD1    H2 2596   1.608   3.374  12.827  0.8941 -0.9204  0.4765
  170MPD1    H3 2597   1.588   3.609  12.828 -1.9314 -0.1247  1.1043
  170MPD1     N 2598   1.901   3.670  13.164 -0.4501 -0.7733 -0.1325
  170MPD1    H5 2599   1.947   3.612  13.234 -0.4962 -1.3859 -0.6036
  170MPD1    N1 2600   1.745   3.234  13.018 -0.2471 -0.2397 -0.6281
  170MPD1    H6 2601   1.743   3.199  13.114 -0.0873  1.5600  0.0388
  170MPD1    H7 2602   1.673   3.180  12.970 -1.1610 -0.0704  0.5553
  171MPD1     C 2603   0.454   0.584  15.336  0.5674 -0.3413  0.2285
  171MPD1    C1 2604   0.545   0.549  15.228 -0.0001  0.7284 -0.3505
  171MPD1    C2 2605   0.657   0.481  15.260 -0.3951  0.1127 -0.0325
  171MPD1    C3 2606   0.702   0.469  15.389  0.4412  0.7420  0.2922
  171MPD1    C4 2607   0.631   0.536  15.486 -0.0298 -0.6837  0.5814
  171MPD1    C5 2608   0.502   0.569  15.464 -0.1389 -0.0022 -0.1666
  171MPD1     H 2609   0.716   0.447  15.175 -3.7332  0.9612 -2.6993
  171MPD1    H1 2610   0.672   0.557  15.584 -0.5836  0.1076  0.6435
  171MPD1    H2 2611   0.356   0.625  15.316  0.5255 -0.6103 -0.1107
  171MPD1    H3 2612   0.435   0.603  15.543 -1.5357  1.3265 -1.9146
  171MPD1     N 2613   0.823   0.396  15.425 -0.3917  0.1389  0.0313
  171MPD1    H5 2614   0.857   0.403  15.521  1.0212  1.6860 -0.5650
  171MPD1    N1 2615   0.502   0.546  15.098  0.4122 -0.5597  0.6340
  171MPD1    H6 2616   0.579   0.573  15.038 -1.2793 -1.1344 -1.8014
  171MPD1    H7 2617   0.429   0.616  15.082  0.9643 -0.1641 -0.1343
  172MPD1     C 2618   4.369   4.346  16.733  0.5384 -0.0103 -0.5704
  172MPD1    C1 2619   4.277   4.314  16.836  0.1555  0.0470  0.6619
  172MPD1    C2 2620   4.315   4.340  16.970 -0.2265 -0.7231 -0.0838
  172MPD1    C3 2621   4.446   4.380  16.997 -0.0923 -1.0744 -0.4058
  172MPD1    C4 2622   4.529   4.412  16.888  0.3928 -0.6652 -0.9546
  172MPD1    C5 2623   4.490   4.400  16.761 -0.1937 -0.4946  1.1508
  172MPD1     H 2624   4.251   4.311  17.053 -0.2484 -2.6178 -0.7562
  172MPD1    H1 2625   4.631   4.448  16.897  0.3032 -0.6280 -0.1333
  172MPD1    H2 2626   4.338   4.332  16.631 -0.6998  1.9836 -0.4785
  172MPD1    H3 2627   4.555   4.419  16.676 -1.4549  2.7420  0.9100
  172MPD1     N 2628   4.501   4.409  17.124  0.0755  0.2225 -0.4663
  172MPD1    H5 2629   4.594   4.450  17.121 -0.7677  2.1710  0.1348
  172MPD1    N1 2630   4.142   4.285  16.801 -0.5650  0.0830  0.1970
  172MPD1    H6 2631   4.126   4.254  16.705  1.0630 -0.7702  0.2058
  172MPD1    H7 2632   4.098   4.229  16.873  0.5386 -0.4951  0.4278
  173MPD1     C 2633   1.699   4.571  13.222  0.3252  0.2749 -0.5568
  173MPD1    C1 2634   1.821   4.530  13.276 -0.1309 -0.2245 -0.5658
  173MPD1    C2 2635   1.825   4.478  13.399  0.4501 -0.3422  0.0856
  173MPD1    C3 2636   1.711   4.473  13.478 -0.2052 -0.3883  0.0008
  173MPD1    C4 2637   1.585   4.506  13.425  0.0023  1.2061 -0.4152
  173MPD1    C5 2638   1.584   4.560  13.296  1.0731  0.4789  0.5715
  173MPD1     H 2639   1.910   4.428  13.444  0.6150  0.6026  0.8119
  173MPD1    H1 2640   1.496   4.492  13.485  1.3507 -0.7584  1.1317
  173MPD1    H2 2641   1.700   4.600  13.117  0.7303  0.7222 -0.4317
  173MPD1    H3 2642   1.487   4.584  13.254  0.5232 -0.9475  1.0331
  173MPD1     N 2643   1.721   4.415  13.610  0.0662 -0.0918  0.3187
  173MPD1    H5 2644   1.803   4.369  13.647 -0.8357  0.1847  2.7045
  173MPD1    N1 2645   1.935   4.519  13.195  0.6505  0.4506  0.4746
  173MPD1    H6 2646   2.021   4.511  13.249  0.5757  1.4017  0.7451
  173MPD1    H7 2647   1.938   4.601  13.135 -0.0529 -1.5423 -2.2717
  174MPD1     C 2648   2.286   3.898  13.954 -0.0897  0.6838  0.2222
  174MPD1    C1 2649   2.208   3.898  14.067  0.4506 -0.1298 -0.2882
  174MPD1    C2 2650   2.080   3.956  14.050 -0.4651 -0.3498 -0.1141
  174MPD1    C3 2651   2.038   4.023  13.937 -0.4877  0.2958  0.2229
  174MPD1    C4 2652   2.118   4.018  13.828 -0.1099 -0.0969  0.6626
  174MPD1    C5 2653   2.243   3.965  13.838 -0.3967 -0.4547  0.1029
  174MPD1     H 2654   2.020   3.953  14.140 -0.4744  0.4543 -0.0933
  174MPD1    H1 2655   2.084   4.056  13.733  1.2814 -0.6660 -0.0464
  174MPD1    H2 2656   2.379   3.841  13.950 -1.7394 -2.0567  0.9281
  174MPD1    H3 2657   2.314   3.961  13.756  0.6062 -1.1829  1.0033
  174MPD1     N 2658   1.921   4.086  13.915 -0.2586  0.0052 -0.4260
  174MPD1    H5 2659   1.901   4.123  13.823 -1.7720  0.6753  0.1761
  174MPD1    N1 2660   2.242   3.817  14.175 -0.4475 -0.0274 -0.1237
  174MPD1    H6 2661   2.214   3.720  14.175  1.0228 -0.4392  2.9263
  174MPD1    H7 2662   2.344   3.818  14.164 -0.0378  0.3249  3.9395
  175MPD1     C 2663   0.316   0.813  14.916 -0.3468  0.4298 -0.8732
  175MPD1    C1 2664   0.243   0.698  14.912 -0.1540 -1.0574  0.3887
  175MPD1    C2 2665   0.165   0.666  15.023  0.0800  0.2394  0.0099
  175MPD1    C3 2666   0.154   0.749  15.130 -0.3319 -0.3982 -0.2099
  175MPD1    C4 2667   0.234   0.861  15.130  0.6998 -0.6569  0.2584
  175MPD1    C5 2668   0.311   0.895  15.025 -0.5947 -0.3293 -0.8867
  175MPD1     H 2669   0.109   0.573  15.030 -0.5850  0.6452  0.1108
  175MPD1    H1 2670   0.216   0.937  15.204  1.2336  1.4389 -1.7502
  175MPD1    H2 2671   0.386   0.843  14.839  1.0274 -1.8511 -0.4921
  175MPD1    H3 2672   0.376   0.981  15.029  0.4675 -1.1613 -0.2680
  175MPD1     N 2673   0.070   0.722  15.241  0.1749 -0.0481 -0.1060
  175MPD1    H5 2674   0.077   0.782  15.323  0.1777 -0.4559  0.1919
  175MPD1    N1 2675   0.258   0.607  14.806  0.0307  0.3165  0.2052
  175MPD1    H6 2676   0.178   0.551  14.778  0.4074 -0.7805  1.2889
  175MPD1    H7 2677   0.277   0.658  14.720 -2.5173  0.7283 -0.0909
  176MPD1     C 2678   1.226   2.168  16.679 -0.0898 -0.1984 -0.3564
  176MPD1    C1 2679   1.202   2.174  16.814  0.4031  0.4569 -0.3040
  176MPD1    C2 2680   1.203   2.300  16.871  0.2613 -0.1190  0.1559
  176MPD1    C3 2681   1.242   2.407  16.800  0.2556 -0.0488  0.1010
  176MPD1    C4 2682   1.264   2.400  16.662  0.9299 -0.4626 -0.3045
  176MPD1    C5 2683   1.245   2.280  16.604  0.5559 -0.8445 -0.0018
  176MPD1     H 2684   1.185   2.310  16.977  2.6005 -0.1246  0.5550
  176MPD1    H1 2685   1.311   2.474  16.597  2.7266 -0.7444  0.7049
  176MPD1    H2 2686   1.223   2.072  16.629 -0.6802 -0.1627 -0.3894
  176MPD1    H3 2687   1.269   2.281  16.498 -1.8283 -0.7441 -0.5584
  176MPD1     N 2688   1.273   2.531  16.864  0.3432 -0.2860  0.0574
  176MPD1    H5 2689   1.238   2.535  16.960  1.2541 -1.5625  0.4366
  176MPD1    N1 2690   1.156   2.066  16.889  0.6283 -0.1745 -0.8830
  176MPD1    H6 2691   1.186   2.079  16.985 -1.3154  1.3877 -0.4829
  176MPD1    H7 2692   1.192   1.978  16.854 -0.5004 -0.5065 -1.1844
  177MPD1     C 2693   4.603   2.312   9.138  0.0001  0.2841 -0.8454
  177MPD1    C1 2694   4.567   2.430   9.182  1.3486 -0.1455 -0.8647
  177MPD1    C2 2695   4.430   2.463   9.187  0.3408  0.3009  0.9251
  177MPD1    C3 2696   4.336   2.366   9.164  0.9980  0.3813 -0.2505
  177MPD1    C4 2697   4.379   2.237   9.127  0.7564  0.0871  0.6459
  177MPD1    C5 2698   4.513   2.222   9.099  0.4959  0.5280 -0.1536
  177MPD1     H 2699   4.395   2.563   9.208  0.4978  0.7533 -0.9880
  177MPD1    H1 2700   4.316   2.153   9.102  2.1667 -1.0004  0.7698
  177MPD1    H2 2701   4.710   2.297   9.123 -0.0913  0.1854 -1.4122
  177MPD1    H3 2702   4.554   2.124   9.078  1.5057  0.8609  0.2603
  177MPD1     N 2703   4.200   2.402   9.174 -0.2181  0.4656 -0.3691
  177MPD1    H5 2704   4.175   2.498   9.194  0.7060  0.6221  0.0494
  177MPD1    N1 2705   4.654   2.513   9.244  0.2400 -0.0370  0.5550
  177MPD1    H6 2706   4.637   2.609   9.217 -1.4848 -0.6376 -0.4916
  177MPD1    H7 2707   0.028   2.501   9.231  0.6476  0.1309  3.5551
  178MPD1     C 2708   1.860   3.201  17.326 -0.1339 -0.0835  0.3877
  178MPD1    C1 2709   1.794   3.161  17.216 -0.2289  0.4826 -0.4078
  178MPD1    C2 2710   1.875   3.106  17.116 -0.8100  0.2632 -0.1047
  178MPD1    C3 2711   2.005   3.143  17.106 -0.5095 -0.4228 -0.1892
  178MPD1    C4 2712   2.061   3.216  17.205 -0.2902  0.2204 -0.2733
  178MPD1    C5 2713   1.991   3.241  17.316 -0.3862 -0.3692 -0.6266
  178MPD1     H 2714   1.828   3.040  17.043  1.3464 -0.1266 -1.1205
  178MPD1    H1 2715   2.165   3.242  17.194 -0.4513  0.7534 -0.5275
  178MPD1    H2 2716   1.812   3.215  17.422  1.0743  0.2512  0.9475
  178MPD1    H3 2717   2.037   3.282  17.405  1.7386 -0.1071 -1.8323
  178MPD1     N 2718   2.095   3.099  17.005 -0.3598 -0.4065 -0.0999
  178MPD1    H5 2719   2.191   3.131  17.012 -0.1941 -0.6217 -1.4402
  178MPD1    N1 2720   1.657   3.141  17.214 -0.3511 -0.0540 -0.1370
  178MPD1    H6 2721   1.615   3.216  17.270  1.6615  0.2381  0.9894
  178MPD1    H7 2722   1.638   3.057  17.268 -0.9782  1.0406  1.3568
  179MPD1     C 2723   2.551   1.443  15.615 -0.1872  0.2555 -0.7013
  179MPD1    C1 2724   2.441   1.522  15.626 -0.6379  0.1738 -0.5596
  179MPD1    C2 2725   2.312   1.473  15.648 -0.4539 -0.1442 -0.3644
  179MPD1    C3 2726   2.300   1.336  15.682  0.6621 -0.0890 -0.3975
  179MPD1    C4 2727   2.417   1.259  15.683  0.4267  0.1698  0.5625
  179MPD1    C5 2728   2.537   1.307  15.647  0.8587  0.6387  0.3180
  179MPD1     H 2729   2.226   1.536  15.631 -0.1970  0.2816 -0.0802
  179MPD1    H1 2730   2.421   1.159  15.724  0.8241 -0.6924 -1.5683
  179MPD1    H2 2731   2.646   1.477  15.577  0.0634 -0.7415 -0.9886
  179MPD1    H3 2732   2.627   1.247  15.643 -0.6222 -1.7178  2.0061
  179MPD1     N 2733   2.182   1.273  15.709 -0.2441  0.6380 -0.4998
  179MPD1    H5 2734   2.194   1.173  15.720  0.4374  0.6019 -1.6669
  179MPD1    N1 2735   2.463   1.653  15.576 -0.0889  0.6773 -0.4559
  179MPD1    H6 2736   2.551   1.685  15.614  0.3028  0.6067 -1.2973
  179MPD1    H7 2737   2.389   1.718  15.604 -1.3106 -0.6499 -0.6011
  180MPD1     C 2738   1.660   3.086  14.855  0.2225  0.5798  0.4987
  180MPD1    C1 2739   1.748   3.046  14.756  0.3765 -0.0630 -0.2862
  180MPD1    C2 2740   1.705   2.983  14.643 -0.0842 -0.7185 -1.2588
  180MPD1    C3 2741   1.563   2.959  14.637 -0.7854  0.7201  0.5354
  180MPD1    C4 2742   1.481   3.000  14.740  0.5897 -0.2640 -0.4824
  180MPD1    C5 2743   1.522   3.068  14.847  0.5158  0.3706  0.9744
  180MPD1     H 2744   1.774   2.951  14.566  0.6489 -2.8348  0.2994
  180MPD1    H1 2745   1.374   2.984  14.746  0.3712  1.9464  1.4944
  180MPD1    H2 2746   1.695   3.155  14.930 -1.0689  1.0026  0.7191
  180MPD1    H3 2747   1.462   3.085  14.935 -0.3037 -3.5712  1.1977
  180MPD1     N 2748   1.517   2.887  14.528 -0.3842 -0.0257  0.3678
  180MPD1    H5 2749   1.582   2.840  14.466 -0.1734  0.9175 -0.1355
  180MPD1    N1 2750   1.881   3.098  14.768 -0.7398 -0.3875  0.1992
  180MPD1    H6 2751   1.953   3.047  14.716 -2.0398 -0.8105 -1.1939
  180MPD1    H7 2752   1.915   3.123  14.861  1.2918 -0.9061 -0.3935
  181MPD1     C 2753   2.668   3.564   8.924 -0.3352  0.0628  0.3209
  181MPD1    C1 2754   2.711   3.655   8.828 -0.8157  0.0398  1.2552
  181MPD1    C2 2755   2.846   3.693   8.837 -0.0922 -0.0212  0.0134
  181MPD1    C3 2756   2.927   3.651   8.941  0.4176  0.2420  0.1103
  181MPD1    C4 2757   2.884   3.563   9.042 -0.2266 -0.3087  0.4679
  181MPD1    C5 2758   2.749   3.530   9.030  0.4859  0.0576 -0.0514
  181MPD1     H 2759   2.886   3.757   8.759  1.6831 -0.5796  0.4877
  181MPD1    H1 2760   2.935   3.541   9.135  2.0865  2.1236 -0.2049
  181MPD1    H2 2761   2.564   3.534   8.913 -0.2455 -0.1633  0.1000
  181MPD1    H3 2762   2.700   3.481   9.113 -1.5358 -0.1874 -1.3799
  181MPD1     N 2763   3.060   3.694   8.954  0.6523 -0.4878  0.4815
  181MPD1    H5 2764   3.108   3.644   9.028  2.1622 -0.5548 -0.5474
  181MPD1    N1 2765   2.632   3.685   8.721  0.3832  0.2284 -0.1732
  181MPD1    H6 2766   2.659   3.773   8.678 -2.2852 -0.1023 -2.5433
  181MPD1    H7 2767   2.538   3.700   8.758  0.3954  1.3609 -0.6059
  182MPD1     C 2768   0.125   3.834   1.125  0.1025  0.5192  0.0245
  182MPD1    C1 2769   0.181   3.891   1.013  0.1184  0.2992 -0.2991
  182MPD1    C2 2770   0.097   3.971   0.935 -0.6430  0.0165  0.0107
  182MPD1    C3 2771   4.691   3.995   0.953 -0.1862 -0.6634 -0.2538
  182MPD1    C4 2772   4.638   3.949   1.073  0.3865  0.5424 -0.5272
  182MPD1    C5 2773   4.716   3.866   1.149 -0.8214  0.4919 -0.1806
  182MPD1     H 2774   0.152   4.036   0.868 -0.9539 -0.7400 -0.9758
  182MPD1    H1 2775   4.538   3.960   1.113  0.0658  0.6611 -1.3725
  182MPD1    H2 2776   0.179   3.774   1.197  1.6875  0.6542 -1.0580
  182MPD1    H3 2777   4.668   3.806   1.225 -1.9100  1.2076 -0.3161
  182MPD1     N 2778   4.614   4.084   0.879 -0.1052  0.4624  0.0594
  182MPD1    H5 2779   4.524   4.112   0.917  0.7398  0.7716  1.7898
  182MPD1    N1 2780   0.323   3.883   0.986  0.3186 -0.2250  0.4702
  182MPD1    H6 2781   0.370   3.799   1.021 -0.8568 -0.9178  0.3698
  182MPD1    H7 2782   0.347   3.891   0.887 -1.9390 -2.0522 -0.2283
  183MPD1     C 2783   0.509   0.081   8.849 -0.1000  0.0088  0.2108
  183MPD1    C1 2784   0.406   0.082   8.932  0.6100  0.1604 -0.5288
  183MPD1    C2 2785   0.376   4.690   8.993 -1.0328 -0.7185 -0.8353
  183MPD1    C3 2786   0.458   4.583   8.992  0.2098  0.4064 -0.1497
  183MPD1    C4 2787   0.570   4.590   8.917 -0.5466 -0.8237  0.4128
  183MPD1    C5 2788   0.588   4.702   8.843  0.2201  1.3108 -0.1134
  183MPD1     H 2789   0.282   4.679   9.046 -0.7134 -3.4423 -0.8323
  183MPD1    H1 2790   0.646   4.513   8.909 -0.1765 -0.3595 -0.4703
  183MPD1    H2 2791   0.527   0.167   8.785  2.0621  0.6519  1.7064
  183MPD1    H3 2792   0.675   4.701   8.778  0.3533 -1.5253  0.1089
  183MPD1     N 2793   0.418   4.464   9.057  0.2498  0.5428  1.1568
  183MPD1    H5 2794   0.320   4.464   9.083  0.6224  0.0246  2.5775
  183MPD1    N1 2795   0.318   0.190   8.936 -0.2247  0.4749 -0.1254
  183MPD1    H6 2796   0.289   0.198   9.033 -0.4189  0.8222 -0.2116
  183MPD1    H7 2797   0.375   0.270   8.909  2.0833 -0.5842  1.6046
  184MPD1     C 2798   3.289   1.418   9.454 -0.3667 -0.4656 -0.3475
  184MPD1    C1 2799   3.204   1.514   9.406 -0.3687  1.1129 -0.5918
  184MPD1    C2 2800   3.264   1.634   9.368  0.0145 -0.0645 -0.6380
  184MPD1    C3 2801   3.398   1.646   9.360 -0.2634 -0.6945  0.3983
  184MPD1    C4 2802   3.488   1.544   9.392  0.2629  0.1603 -1.0657
  184MPD1    C5 2803   3.426   1.428   9.440  0.4326  0.1665 -0.3015
  184MPD1     H 2804   3.196   1.713   9.338  1.5535  1.4569 -0.0770
  184MPD1    H1 2805   3.595   1.549   9.382  0.6220  0.0095  2.8471
  184MPD1    H2 2806   3.250   1.328   9.501  0.6688 -1.0248 -0.5669
  184MPD1    H3 2807   3.487   1.345   9.475 -1.4952 -1.4048 -0.6458
  184MPD1     N 2808   3.459   1.774   9.342  1.0712  0.3032 -0.2552
  184MPD1    H5 2809   3.560   1.771   9.354  1.3589 -1.6499 -3.1067
  184MPD1    N1 2810   3.067   1.515   9.442 -0.2080 -0.7317 -0.0895
  184MPD1    H6 2811   3.021   1.425   9.452 -1.5632  0.0938  1.1207
  184MPD1    H7 2812   3.015   1.572   9.376 -1.7797 -2.1233 -0.0629
  185MPD1     C 2813   2.946   2.625   9.375  0.1075  0.0234 -0.1228
  185MPD1    C1 2814   3.074   2.671   9.355 -0.3777  0.9254 -0.5759
  185MPD1    C2 2815   3.178   2.576   9.349  0.8863 -0.6023  0.3980
  185MPD1    C3 2816   3.163   2.442   9.365  0.5423  0.3748  0.4835
  185MPD1    C4 2817   3.033   2.397   9.387 -0.9517  0.4816 -0.2768
  185MPD1    C5 2818   2.924   2.486   9.381 -0.3672  0.1556 -0.0495
  185MPD1     H 2819   3.280   2.605   9.328  0.8483 -0.9034 -0.2081
  185MPD1    H1 2820   3.008   2.293   9.399  1.2301 -0.1187 -1.0766
  185MPD1    H2 2821   2.856   2.684   9.361 -1.3149 -1.3377  3.1311
  185MPD1    H3 2822   2.827   2.439   9.399 -0.9106  1.8138  1.3315
  185MPD1     N 2823   3.271   2.352   9.355 -0.3801 -0.4656 -0.5349
  185MPD1    H5 2824   3.242   2.255   9.367 -0.9719 -0.2702 -0.3549
  185MPD1    N1 2825   3.096   2.814   9.348 -0.5643  0.2997 -0.5742
  185MPD1    H6 2826   3.163   2.823   9.272  0.9168  0.3699  0.7599
  185MPD1    H7 2827   3.010   2.856   9.312 -1.2701 -0.5257  0.1364
  186MPD1     C 2828   1.937   2.143  15.438 -0.8597  0.3692  0.0454
  186MPD1    C1 2829   2.080   2.140  15.443 -0.1887 -0.1563 -0.1547
  186MPD1    C2 2830   2.124   2.065  15.549  0.3903  0.3861 -0.5511
  186MPD1    C3 2831   2.040   1.982  15.631  0.9196  0.2648  0.9156
  186MPD1    C4 2832   1.902   1.997  15.626 -0.1037  0.8214 -0.1540
  186MPD1    C5 2833   1.856   2.090  15.534 -0.1706  0.3229  0.0115
  186MPD1     H 2834   2.232   2.056  15.556  0.0428 -2.7121  1.2192
  186MPD1    H1 2835   1.830   1.942  15.685 -0.2159  1.0336 -0.0934
  186MPD1    H2 2836   1.894   2.204  15.359 -0.2588 -0.3044 -0.8130
  186MPD1    H3 2837   1.749   2.103  15.542 -0.1474  0.7330 -0.3474
  186MPD1     N 2838   2.090   1.879  15.720 -0.8318  0.0124 -0.4072
  186MPD1    H5 2839   2.024   1.856  15.793 -1.3084 -0.1670 -0.8943
  186MPD1    N1 2840   2.164   2.224  15.371  0.1416  0.4143 -0.3684
  186MPD1    H6 2841   2.253   2.175  15.360  0.3032  0.8613 -1.0133
  186MPD1    H7 2842   2.137   2.248  15.277  0.4961 -0.9829 -0.8335
  187MPD1     C 2843   1.636   3.333  17.517  0.2148  0.1989 -0.4987
  187MPD1    C1 2844   1.508   3.289  17.492 -0.6798  0.7995  0.1671
  187MPD1    C2 2845   1.444   3.340  17.377  0.3565  0.4916 -0.0880
  187MPD1    C3 2846   1.500   3.441  17.300 -0.7645  0.6860  0.3081
  187MPD1    C4 2847   1.620   3.497  17.340 -0.3569  0.2891 -0.3493
  187MPD1    C5 2848   1.695   3.432  17.442 -0.0249  0.8052  0.1382
  187MPD1     H 2849   1.347   3.298  17.353  1.0627 -0.8166 -0.6651
  187MPD1    H1 2850   1.665   3.582  17.290  0.2756 -0.7450 -1.5165
  187MPD1    H2 2851   1.702   3.296  17.594  0.2192  3.1970  0.9563
  187MPD1    H3 2852   1.792   3.474  17.467  0.3636 -1.0269  1.6773
  187MPD1     N 2853   1.441   3.489  17.182 -0.6070  0.3759 -0.3256
  187MPD1    H5 2854   1.487   3.572  17.146 -1.0136  0.5780 -0.3754
  187MPD1    N1 2855   1.439   3.192  17.562  0.4087  0.5043  0.3535
  187MPD1    H6 2856   1.472   3.184  17.658  0.2519 -0.0034  0.3637
  187MPD1    H7 2857   1.340   3.209  17.578 -0.5428 -0.6340 -4.2443
  188MPD1     C 2858   0.558   3.033   9.935  0.6466  0.0411 -0.0536
  188MPD1    C1 2859   0.581   3.046   9.798  0.7879 -0.3758  0.3175
  188MPD1    C2 2860   0.633   2.937   9.734  0.0285 -0.1561 -0.5184
  188MPD1    C3 2861   0.635   2.806   9.786  0.3504  0.1323 -0.1758
  188MPD1    C4 2862   0.584   2.792   9.913 -0.0891 -0.6517  0.7753
  188MPD1    C5 2863   0.556   2.904   9.986  0.4107 -0.1722 -0.4191
  188MPD1     H 2864   0.657   2.944   9.628 -1.1210  3.3697 -0.5662
  188MPD1    H1 2865   0.577   2.699   9.969 -1.7459 -1.1173 -0.2041
  188MPD1    H2 2866   0.509   3.109   9.994  0.8302 -0.9278  1.3374
  188MPD1    H3 2867   0.521   2.888  10.087 -0.4601 -1.4316 -0.9183
  188MPD1     N 2868   0.674   2.690   9.716 -0.2157 -0.1295 -0.4339
  188MPD1    H5 2869   0.659   2.599   9.757 -2.2336 -0.6125 -2.2542
  188MPD1    N1 2870   0.578   3.174   9.743  0.6688  0.6327  0.2436
  188MPD1    H6 2871   0.562   3.167   9.642 -1.0254 -2.9451  0.7566
  188MPD1    H7 2872   0.510   3.239   9.780 -0.6655 -0.0103 -1.0752
  189MPD1     C 2873   3.058   4.320   0.038  0.4817 -0.1236 -0.3060
  189MPD1    C1 2874   3.069   4.453   0.010 -0.9611 -0.2298 -0.0722
  189MPD1    C2 2875   2.949   4.522  17.702  0.4007 -0.1077  0.5979
  189MPD1    C3 2876   2.829   4.456  17.685  0.3196 -0.5994  0.3331
  189MPD1    C4 2877   2.820   4.318  17.697  0.7221  0.0878 -0.3549
  189MPD1    C5 2878   2.935   4.260   0.031  0.0129 -0.6784  0.2373
  189MPD1     H 2879   2.952   4.630  17.689 -0.4033  0.0729  1.8861
  189MPD1    H1 2880   2.726   4.265  17.684  1.5954 -1.3026 -0.9159
  189MPD1    H2 2881   3.144   4.263   0.072  0.2381 -0.6576 -0.5746
  189MPD1    H3 2882   2.926   4.153   0.051  0.9456 -0.9189 -0.6500
  189MPD1     N 2883   2.715   4.538  17.667 -0.7707 -0.4720  0.2460
  189MPD1    H5 2884   2.738   4.637  17.673 -1.3316 -0.2772 -0.8547
  189MPD1    N1 2885   3.183   4.526   0.039  0.8971 -0.6753 -1.0170
  189MPD1    H6 2886   3.197   4.617  17.702 -1.2067 -0.1081 -0.5065
  189MPD1    H7 2887   3.273   4.478   0.031 -0.2110 -3.1112  1.4327
  190MPD1     C 2888   1.677   2.396  14.971  0.3249 -0.3491  0.0656
  190MPD1    C1 2889   1.800   2.416  14.904  0.5049 -0.6463 -0.0486
  190MPD1    C2 2890   1.914   2.448  14.978  0.2464  0.8082 -0.3982
  190MPD1    C3 2891   1.907   2.451  15.116  0.3591 -0.0776 -0.0216
  190MPD1    C4 2892   1.788   2.429  15.179 -0.3143 -0.3742  0.3020
  190MPD1    C5 2893   1.675   2.410  15.110  0.5610  0.8446 -0.7375
  190MPD1     H 2894   2.004   2.478  14.925  0.2302  0.8162 -0.4213
  190MPD1    H1 2895   1.782   2.434  15.287  2.3394 -2.5273  0.5544
  190MPD1    H2 2896   1.583   2.384  14.918  0.0152 -1.0438  0.7780
  190MPD1    H3 2897   1.580   2.409  15.162  0.4796  1.8330 -0.8715
  190MPD1     N 2898   2.019   2.488  15.184  0.3895 -0.5209  0.0519
  190MPD1    H5 2899   2.100   2.482  15.123  0.1462 -0.7350 -0.2541
  190MPD1    N1 2900   1.808   2.412  14.761 -0.0399 -0.7486  0.2647
  190MPD1    H6 2901   1.752   2.339  14.719 -0.8890 -0.0734  0.2335
  190MPD1    H7 2902   1.902   2.395  14.725  0.0343 -3.1839  1.6194
  191MPD1     C 2903   1.111   4.436  12.700 -0.9563  0.4238  0.1475
  191MPD1    C1 2904   1.032   4.536  12.648 -0.5138  0.6170 -0.5851
  191MPD1    C2 2905   1.085   4.605  12.544 -0.3543 -0.4702 -0.5513
  191MPD1    C3 2906   1.216   4.605  12.514 -0.0429 -0.5171  0.8530
  191MPD1    C4 2907   1.302   4.516  12.585  0.4397 -0.0436 -0.3004
  191MPD1    C5 2908   1.243   4.428  12.668 -0.0248  0.1096 -0.2113
  191MPD1     H 2909   1.009   4.662  12.490  2.0298  1.1973 -2.1550
  191MPD1    H1 2910   1.407   4.497  12.570  0.3169 -0.4600 -0.6398
  191MPD1    H2 2911   1.071   4.371  12.777  0.9845  0.6444  1.3599
  191MPD1    H3 2912   1.304   4.350  12.712  1.3097 -0.0992 -2.4161
  191MPD1     N 2913   1.264   4.667  12.394  0.3023  0.0961 -0.1961
  191MPD1    H5 2914   1.200   0.004  12.349 -1.8289 -1.6637  0.3658
  191MPD1    N1 2915   0.890   4.536  12.667 -0.8343  0.2776  0.2520
  191MPD1    H6 2916   0.854   4.519  12.760 -3.2931  0.2912 -0.6982
  191MPD1    H7 2917   0.863   4.632  12.645  0.9600  0.3431 -1.7032
  192MPD1     C 2918   0.840   0.030  11.643  0.2876  0.9505 -0.3621
  192MPD1    C1 2919   0.908   0.146  11.651  0.0063  0.2020 -0.0816
  192MPD1    C2 2920   1.027   0.147  11.731  0.0983  0.3708 -0.5497
  192MPD1    C3 2921   1.067   0.034  11.799 -0.2243 -0.1162  0.5156
  192MPD1    C4 2922   0.986   4.646  11.792  0.0702 -0.3260  0.6204
  192MPD1    C5 2923   0.882   4.643  11.709  0.2228  0.7719  0.3460
  192MPD1     H 2924   1.085   0.238  11.737  0.2517  0.2653 -0.4288
  192MPD1    H1 2925   1.013   4.559  11.850 -3.7892  0.0181  2.8627
  192MPD1    H2 2926   0.755   0.027  11.576 -0.0609  2.6460  0.0100
  192MPD1    H3 2927   0.828   4.550  11.699  3.0120 -0.8702  0.5214
  192MPD1     N 2928   1.173   0.030  11.891  0.2095 -0.4511 -0.4203
  192MPD1    H5 2929   1.187   4.675  11.950  3.7094  0.4773  0.0180
  192MPD1    N1 2930   0.848   0.265  11.608  0.3439  0.2350 -0.5094
  192MPD1    H6 2931   0.913   0.342  11.593  1.8199 -0.3168  2.9993
  192MPD1    H7 2932   0.794   0.255  11.522 -1.3381  1.2391  0.4383
  193MPD1     C 2933   0.651   0.158  15.752  0.0401  1.0850  0.5209
  193MPD1    C1 2934   0.637   0.285  15.812 -0.1496  1.2624 -0.3789
  193MPD1    C2 2935   0.719   0.313  15.919 -0.1668 -0.1762 -0.4147
  193MPD1    C3 2936   0.823   0.229  15.959 -0.0510  0.1882  0.4492
  193MPD1    C4 2937   0.835   0.111  15.898 -1.0638 -0.2486 -0.0433
  193MPD1    C5 2938   0.748   0.070  15.802  0.1417 -0.2567 -0.1391
  193MPD1     H 2939   0.694   0.402  15.977 -2.8263 -0.7003 -0.7452
  193MPD1    H1 2940   0.922   0.047  15.910 -1.2213  0.1668  3.2009
  193MPD1    H2 2941   0.583   0.120  15.677  0.7220  1.4463 -0.2827
  193MPD1    H3 2942   0.768   4.707  15.745  2.3380  0.2657 -0.1865
  193MPD1     N 2943   0.905   0.252  16.070 -0.9266  0.3083 -0.4282
  193MPD1    H5 2944   0.963   0.172  16.094 -0.1883  1.5278  1.8244
  193MPD1    N1 2945   0.529   0.369  15.779 -0.3880 -0.5240  0.4866
  193MPD1    H6 2946   0.521   0.381  15.678  1.0133  1.2632  0.5909
  193MPD1    H7 2947   0.535   0.459  15.824  0.3283 -0.4588  0.2601
  194MPD1     C 2948   2.792   2.097  16.885 -0.3932  0.3925 -0.0226
  194MPD1    C1 2949   2.866   2.093  16.769 -0.4574  0.3590 -0.0947
  194MPD1    C2 2950   2.896   1.975  16.709  0.0089  0.9020 -0.2716
  194MPD1    C3 2951   2.841   1.858  16.754  0.4256 -0.6210 -0.1382
  194MPD1    C4 2952   2.766   1.864  16.869  0.2505 -0.2198  0.2058
  194MPD1    C5 2953   2.742   1.976  16.935  0.1050  0.1793  0.0762
  194MPD1     H 2954   2.958   1.973  16.620 -0.8172  1.2958 -0.8481
  194MPD1    H1 2955   2.735   1.770  16.914  0.0423  0.2868  1.1375
  194MPD1    H2 2956   2.772   2.191  16.936 -0.9783  0.4167 -0.2891
  194MPD1    H3 2957   2.688   1.965  17.028 -2.8015  0.4105 -1.5611
  194MPD1     N 2958   2.868   1.728  16.705 -0.3011 -0.3290 -0.3491
  194MPD1    H5 2959   2.810   1.650  16.738 -1.9194  0.6924 -0.7631
  194MPD1    N1 2960   2.920   2.217  16.726 -0.1367 -0.1600 -0.1276
  194MPD1    H6 2961   2.850   2.284  16.758 -0.7494  0.5147 -2.8217
  194MPD1    H7 2962   2.918   2.220  16.624  0.8759 -0.6137 -0.1547
  195MPD1     C 2963   0.709   4.077  17.468 -0.0307  0.0061 -0.1493
  195MPD1    C1 2964   0.817   3.999  17.498  0.0374 -0.5859 -0.1995
  195MPD1    C2 2965   0.800   3.857  17.487 -0.0580 -0.0906 -0.2461
  195MPD1    C3 2966   0.673   3.801  17.474  0.3296 -0.2407  0.2417
  195MPD1    C4 2967   0.570   3.886  17.474  0.6182 -0.2630 -0.2564
  195MPD1    C5 2968   0.590   4.020  17.466 -0.3051  0.1870  0.5801
  195MPD1     H 2969   0.894   3.802  17.481  0.0326 -0.0979  1.3751
  195MPD1    H1 2970   0.472   3.841  17.480 -0.7022  2.5493 -0.6757
  195MPD1    H2 2971   0.706   4.185  17.461 -1.0296  0.0432  0.8443
  195MPD1    H3 2972   0.506   4.089  17.460 -0.1916  0.3465  0.8378
  195MPD1     N 2973   0.645   3.663  17.482 -0.1606 -0.0921 -0.3334
  195MPD1    H5 2974   0.549   3.638  17.462 -0.2496 -0.1760  0.1905
  195MPD1    N1 2975   0.944   4.053  17.484 -0.0129 -0.9241  0.5978
  195MPD1    H6 2976   0.967   4.134  17.541 -1.8470  0.2515 -0.3375
  195MPD1    H7 2977   1.018   3.990  17.515 -0.7628 -0.6881  2.8134
  196MPD1     C 2978   0.242   3.604   0.048  0.3537 -0.3039 -0.5976
  196MPD1    C1 2979   0.240   3.591   0.188  0.2703  0.0187 -0.3550
  196MPD1    C2 2980   0.340   3.652   0.267  0.4173  0.5486  0.0683
  196MPD1    C3 2981   0.428   3.741   0.205  0.3630 -0.2563  0.3162
  196MPD1    C4 2982   0.424   3.767   0.069  0.5907  0.0210 -0.2594
  196MPD1    C5 2983   0.334   3.693  17.703 -0.8892 -0.4963  0.3434
  196MPD1     H 2984   0.339   3.647   0.375 -0.2489 -1.2613 -0.0189
  196MPD1    H1 2985   0.497   3.832   0.023  0.7362 -1.0877 -1.6097
  196MPD1    H2 2986   0.174   3.554  17.687 -0.9533 -1.2003  1.3363
  196MPD1    H3 2987   0.338   3.710  17.596  2.2097 -0.4584  0.4448
  196MPD1     N 2988   0.518   3.821   0.280  0.5871  0.0129  0.1312
  196MPD1    H5 2989   0.561   3.898   0.230 -2.0384  1.1235 -0.4458
  196MPD1    N1 2990   0.161   3.488   0.238  0.5333  0.4349  0.0629
  196MPD1    H6 2991   0.091   3.468   0.167  1.1282 -0.5019 -0.2511
  196MPD1    H7 2992   0.113   3.518   0.323 -1.3876 -1.8186 -0.2309
  197MPD1     C 2993   4.134   0.624  17.397 -0.2782  0.3089 -0.0309
  197MPD1    C1 2994   4.267   0.584  17.383 -0.4990  0.1522  0.2247
  197MPD1    C2 2995   4.350   0.673  17.332  0.1263 -0.0782  0.0398
  197MPD1    C3 2996   4.308   0.787  17.262 -0.1593 -0.1866 -0.4169
  197MPD1    C4 2997   4.170   0.821  17.268  0.4816 -0.3379 -0.5757
  197MPD1    C5 2998   4.086   0.736  17.336 -0.3218  0.4162  0.4830
  197MPD1     H 2999   4.455   0.643  17.326 -0.0226 -0.6809  0.3742
  197MPD1    H1 3000   4.141   0.911  17.214  0.7176  0.4694  0.6316
  197MPD1    H2 3001   4.062   0.562  17.448  2.3115 -2.6453  0.0790
  197MPD1    H3 3002   3.980   0.757  17.343 -1.1452 -3.1807 -1.4114
  197MPD1     N 3003   4.388   0.871  17.180  0.0357 -1.0321  0.2920
  197MPD1    H5 3004   4.339   0.951  17.140  2.3007  1.2022  1.9427
  197MPD1    N1 3005   4.316   0.470  17.448 -0.0139 -0.0830 -0.2759
  197MPD1    H6 3006   4.407   0.447  17.409  0.2399  1.0258 -0.3176
  197MPD1    H7 3007   4.253   0.391  17.433  0.4557 -0.4087 -0.5542
  198MPD1     C 3008   1.715   0.400  15.336 -0.7268 -0.4171  0.8156
  198MPD1    C1 3009   1.659   0.333  15.231  0.6272 -0.0603  0.1174
  198MPD1    C2 3010   1.673   0.197  15.234 -0.1207 -0.0677 -0.6348
  198MPD1    C3 3011   1.756   0.132  15.324  0.3093 -0.4648 -0.4159
  198MPD1    C4 3012   1.819   0.204  15.432  0.1690 -0.2656  0.2917
  198MPD1    C5 3013   1.786   0.337  15.432  0.8396  0.1041  0.5960
  198MPD1     H 3014   1.631   0.121  15.168 -1.9109 -0.1064  0.5525
  198MPD1    H1 3015   1.872   0.159  15.515 -0.5116 -3.5308 -1.0407
  198MPD1    H2 3016   1.689   0.505  15.341  0.6985 -0.0282  0.2072
  198MPD1    H3 3017   1.835   0.390  15.512  1.0742  2.0228 -0.8235
  198MPD1     N 3018   1.762   4.718  15.313 -0.2365  0.2622  0.1804
  198MPD1    H5 3019   1.725   4.678  15.228  3.0687 -1.0696 -0.6039
  198MPD1    N1 3020   1.579   0.401  15.139  0.6547  1.0376  0.0220
  198MPD1    H6 3021   1.586   0.502  15.136 -1.3438  1.2325  1.6126
  198MPD1    H7 3022   1.578   0.372  15.041  0.2498 -1.9582  0.8990
  199MPD1     C 3023   4.312   0.231   9.755  0.3052 -0.4250 -0.7646
  199MPD1    C1 3024   4.256   0.289   9.646 -0.1316 -0.1046  0.7786
  199MPD1    C2 3025   4.117   0.302   9.632 -0.2120  0.2755 -0.1368
  199MPD1    C3 3026   4.041   0.250   9.735  0.5675  0.8336 -0.0485
  199MPD1    C4 3027   4.089   0.201   9.850 -0.3515 -0.0147  0.6972
  199MPD1    C5 3028   4.225   0.187   9.854 -0.6057  0.7239 -0.2300
  199MPD1     H 3029   4.082   0.359   9.547  0.3946 -0.8787 -1.1551
  199MPD1    H1 3030   4.029   0.160   9.930  0.6102 -0.0460  1.4007
  199MPD1    H2 3031   4.418   0.218   9.773  0.5460  3.5316  0.5521
  199MPD1    H3 3032   4.278   0.147   9.939 -0.5600 -1.4982 -1.3028
  199MPD1     N 3033   3.900   0.252   9.730 -0.3656 -0.5698 -0.3990
  199MPD1    H5 3034   3.858   0.205   9.809  0.3163  1.1804  1.0025
  199MPD1    N1 3035   4.327   0.338   9.538 -0.0531  0.3029 -0.2783
  199MPD1    H6 3036   4.423   0.305   9.538  0.2881  1.2896  3.2957
  199MPD1    H7 3037   4.285   0.312   9.449  1.1139 -0.1254 -0.7005
  200MPD1     C 3038   2.091   0.235  13.765 -0.2755  0.0495  0.4397
  200MPD1    C1 3039   2.140   0.106  13.766 -0.3362 -0.3198  0.1604
  200MPD1    C2 3040   2.255   0.082  13.845  0.5247 -0.0469 -0.3274
  200MPD1    C3 3041   2.315   0.177  13.926 -0.1799 -0.4076 -0.0237
  200MPD1    C4 3042   2.262   0.306  13.921  0.0488 -0.6328  0.6649
  200MPD1    C5 3043   2.152   0.324  13.849  0.2833 -0.7110  0.9531
  200MPD1     H 3044   2.315   4.720  13.829  1.4023  0.2736  1.2622
  200MPD1    H1 3045   2.304   0.391  13.975 -0.3199 -0.2165  0.2948
  200MPD1    H2 3046   2.005   0.268  13.709  0.9461  2.1889 -0.1882
  200MPD1    H3 3047   2.110   0.423  13.835  1.1323 -0.5953 -0.8257
  200MPD1     N 3048   2.432   0.141  13.998  0.3470  0.5554 -0.1666
  200MPD1    H5 3049   2.476   0.054  13.969 -0.9053 -0.3582  0.6793
  200MPD1    N1 3050   2.100   0.006  13.678  0.7159 -0.7189  1.1402
  200MPD1    H6 3051   2.136   4.644  13.714 -2.5115 -1.9470  1.3336
  200MPD1    H7 3052   1.999   0.012  13.676  0.7643 -0.9114 -1.4604
  201MPD1     C 3053   4.387   4.047  12.584 -0.1355 -0.3856 -0.2868
  201MPD1    C1 3054   4.429   3.957  12.494  0.6514  0.4064 -0.4700
  201MPD1    C2 3055   4.520   3.860  12.533 -0.5205 -0.0612  0.2885
  201MPD1    C3 3056   4.558   3.850  12.660  0.1434  0.0819 -0.0953
  201MPD1    C4 3057   4.494   3.921  12.752  0.1069 -0.5335  0.0156
  201MPD1    C5 3058   4.420   4.025  12.710 -0.2692  0.1924  0.4896
  201MPD1     H 3059   4.552   3.792  12.455 -0.8915 -1.0714  1.0123
  201MPD1    H1 3060   4.505   3.904  12.858  1.5519 -0.9084 -0.1925
  201MPD1    H2 3061   4.333   4.137  12.559  1.0119  0.1257 -0.8864
  201MPD1    H3 3062   4.390   4.096  12.786  1.9597  1.6093  0.0383
  201MPD1     N 3063   4.649   3.743  12.688  0.5736  0.5652  0.4613
  201MPD1    H5 3064   4.691   3.703  12.605 -0.6527  0.3564 -0.0540
  201MPD1    N1 3065   4.417   3.993  12.356  0.5950  0.2141  0.5552
  201MPD1    H6 3066   4.336   4.052  12.338  1.6453  1.4397 -0.1587
  201MPD1    H7 3067   4.421   3.913  12.293  1.3395  0.5240  0.2100
  202MPD1     C 3068   0.089   2.730   8.534  0.4201  0.6107 -0.0370
  202MPD1    C1 3069   0.087   2.857   8.584  0.4280 -0.9199  0.3831
  202MPD1    C2 3070   0.152   2.872   8.707  0.4603 -0.3756 -0.4739
  202MPD1    C3 3071   0.254   2.783   8.754  0.3173 -0.4522  0.1252
  202MPD1    C4 3072   0.277   2.674   8.677  0.2337 -0.0222  0.7492
  202MPD1    C5 3073   0.189   2.642   8.578 -0.4476  0.1678  0.8659
  202MPD1     H 3074   0.140   2.971   8.751  0.2021 -0.6251  0.0191
  202MPD1    H1 3075   0.363   2.610   8.695  0.2306 -0.3403 -0.3485
  202MPD1    H2 3076   0.022   2.704   8.453  0.7621 -0.2120 -0.0613
  202MPD1    H3 3077   0.201   2.550   8.522  1.6502  1.1574 -0.3276
  202MPD1     N 3078   0.334   2.816   8.871  0.0586 -0.6690  0.3851
  202MPD1    H5 3079   0.396   2.743   8.904 -0.4705 -0.7442  1.2183
  202MPD1    N1 3080   4.710   2.952   8.558 -0.1093  0.0976 -0.3485
  202MPD1    H6 3081   0.006   3.050   8.572 -2.1545  0.4099  0.8184
  202MPD1    H7 3082   4.674   2.941   8.463  1.3919  0.0934 -0.9199
  203MPD1     C 3083   3.594   4.458  11.973  0.3762 -0.0228  0.3056
  203MPD1    C1 3084   3.542   4.361  11.888  0.3391 -0.1440  0.0572
  203MPD1    C2 3085   3.547   4.227  11.929 -0.7987  0.3563 -0.0443
  203MPD1    C3 3086   3.604   4.187  12.047  0.4403 -0.2415 -0.1301
  203MPD1    C4 3087   3.653   4.288  12.129  0.4332 -0.6291  0.2601
  203MPD1    C5 3088   3.650   4.418  12.096  0.5990  0.1094  0.1761
  203MPD1     H 3089   3.513   4.147  11.864  0.1400 -0.0121 -0.0795
  203MPD1    H1 3090   3.684   4.274  12.232  0.2084 -1.6844  0.1853
  203MPD1    H2 3091   3.613   4.562  11.951  2.3223 -0.4212  0.1519
  203MPD1    H3 3092   3.694   4.494  12.159 -0.7851 -0.3680  1.7311
  203MPD1     N 3093   3.590   4.054  12.092  0.1747 -0.1686  0.5760
  203MPD1    H5 3094   3.529   3.991  12.040  0.8481  0.5890 -1.1088
  203MPD1    N1 3095   3.500   4.391  11.760  0.5089 -0.2675 -0.7317
  203MPD1    H6 3096   3.410   4.347  11.739  0.4681 -0.5231 -0.0074
  203MPD1    H7 3097   3.483   4.491  11.750 -2.8609 -0.8112 -0.4493
  204MPD1     C 3098   3.141   1.134  17.438  0.3300  1.2004 -0.3617
  204MPD1    C1 3099   3.183   1.024  17.513 -0.2482  0.1677 -0.0054
  204MPD1    C2 3100   3.251   0.922  17.446  0.3433  0.3644 -0.4612
  204MPD1    C3 3101   3.249   0.909  17.310  0.3740  0.1342  0.9601
  204MPD1    C4 3102   3.183   1.005  17.233  0.3156 -0.0559 -0.5674
  204MPD1    C5 3103   3.131   1.114  17.298  0.0717 -0.1172 -0.0996
  204MPD1     H 3104   3.306   0.851  17.506 -1.2659 -0.7652 -0.3270
  204MPD1    H1 3105   3.165   0.991  17.127 -2.4252  0.3243 -0.1656
  204MPD1    H2 3106   3.108   1.224  17.488  0.2887  2.2016 -2.2102
  204MPD1    H3 3107   3.090   1.194  17.236 -0.1648 -0.4550 -0.3808
  204MPD1     N 3108   3.313   0.791  17.262  0.1886 -0.1805  0.0689
  204MPD1    H5 3109   3.345   0.719  17.326 -0.9747  0.2519  1.1212
  204MPD1    N1 3110   3.199   1.045  17.651 -0.3012  0.0325  0.2396
  204MPD1    H6 3111   3.129   1.108  17.689 -0.0647 -0.4045  1.4111
  204MPD1    H7 3112   3.195   0.953  17.695  2.9283 -1.8451 -3.3602
  205MPD1     C 3113   2.583   4.249  16.905 -0.2437 -0.3383  0.5776
  205MPD1    C1 3114   2.660   4.136  16.910 -0.1573 -0.1780 -0.2069
  205MPD1    C2 3115   2.786   4.136  16.960  0.3502 -0.8773 -0.6251
  205MPD1    C3 3116   2.846   4.250  16.996  0.3355  0.2967  0.1129
  205MPD1    C4 3117   2.770   4.368  16.992 -0.4663  1.2561 -0.3343
  205MPD1    C5 3118   2.637   4.365  16.950 -0.0803  0.5227 -0.2525
  205MPD1     H 3119   2.842   4.044  16.962 -0.0782 -1.0936  1.9646
  205MPD1    H1 3120   2.806   4.464  17.028 -1.2785  0.4829  2.5511
  205MPD1    H2 3121   2.487   4.253  16.854 -0.2402 -1.5286  0.4812
  205MPD1    H3 3122   2.575   4.453  16.939  2.0133  2.4598  3.5194
  205MPD1     N 3123   2.979   4.257  17.048 -0.0956 -0.7850 -0.4120
  205MPD1    H5 3124   3.012   4.352  17.061 -0.0066 -0.9093  0.2540
  205MPD1    N1 3125   2.613   4.017  16.854 -0.6021 -0.1139 -1.0322
  205MPD1    H6 3126   2.515   4.006  16.880 -0.6243  0.3557 -0.9321
  205MPD1    H7 3127   2.669   3.940  16.890 -2.4927 -1.0134 -0.0254
  206MPD1     C 3128   4.405   2.386  16.077 -0.2385 -0.3222 -0.5456
  206MPD1    C1 3129   4.380   2.478  15.978 -0.5011  0.7180 -0.3909
  206MPD1    C2 3130   4.271   2.468  15.890 -0.7617 -0.3121  0.0439
  206MPD1    C3 3131   4.171   2.371  15.917  0.2841 -0.4205  0.1967
  206MPD1    C4 3132   4.196   2.280  16.021 -0.1324  0.5064 -0.7163
  206MPD1    C5 3133   4.315   2.282  16.087 -0.0160  0.3092  0.1597
  206MPD1     H 3134   4.264   2.526  15.799 -0.5530 -2.4865 -1.3713
  206MPD1    H1 3135   4.122   2.203  16.039 -1.1264  1.3448 -1.2188
  206MPD1    H2 3136   4.498   2.381  16.131 -1.3152 -0.2749  1.3241
  206MPD1    H3 3137   4.339   2.206  16.160 -2.4530  0.1432  0.8055
  206MPD1     N 3138   4.050   2.357  15.842  0.7361 -0.4022  0.6875
  206MPD1    H5 3139   3.991   2.277  15.861 -0.0431 -0.0339 -0.1967
  206MPD1    N1 3140   4.477   2.578  15.943 -0.0280 -0.1096  0.9150
  206MPD1    H6 3141   4.441   2.651  15.882  0.7595 -0.5398 -0.0684
  206MPD1    H7 3142   4.522   2.617  16.026  0.6552  1.0443 -0.0145
  207MPD1     C 3143   0.932   4.119   8.696  0.1914  0.9969 -0.3350
  207MPD1    C1 3144   1.006   4.213   8.641  0.7226 -0.1110 -0.2364
  207MPD1    C2 3145   1.099   4.280   8.716  0.2431 -0.5024  0.7427
  207MPD1    C3 3146   1.117   4.251   8.850  0.3090  0.5064 -0.0208
  207MPD1    C4 3147   1.021   4.165   8.908 -0.0776  0.3070  0.1809
  207MPD1    C5 3148   0.925   4.116   8.829 -0.1538 -0.3896  0.7414
  207MPD1     H 3149   1.155   4.363   8.675  0.4368 -0.3909  1.2225
  207MPD1    H1 3150   1.019   4.163   9.016  3.4236  0.8051  0.2633
  207MPD1    H2 3151   0.858   4.065   8.637  0.6272  0.7592 -0.6604
  207MPD1    H3 3152   0.857   4.047   8.878  0.0684 -0.4027  1.0312
  207MPD1     N 3153   1.201   4.317   8.943  1.0580  0.2303  0.0598
  207MPD1    H5 3154   1.185   4.301   9.042  1.0705  0.7830  0.1498
  207MPD1    N1 3155   1.011   4.223   8.502  0.2604 -1.0380 -0.2631
  207MPD1    H6 3156   1.048   4.310   8.464  0.1394 -0.8326  0.0879
  207MPD1    H7 3157   0.922   4.207   8.454 -0.5343 -0.4495  1.0020
  208MPD1     C 3158   0.358   4.211  16.828 -1.1162 -0.8339 -0.5556
  208MPD1    C1 3159   0.249   4.294  16.826 -0.1325 -0.0032  1.0512
  208MPD1    C2 3160   0.130   4.250  16.878 -0.0305  0.3982  0.2012
  208MPD1    C3 3161   0.130   4.138  16.959 -0.3330  0.1889  0.1073
  208MPD1    C4 3162   0.245   4.065  16.972  0.1792 -0.1469  0.1765
  208MPD1    C5 3163   0.353   4.094  16.897  0.2711 -0.3651  0.2345
  208MPD1     H 3164   0.033   4.295  16.864  0.2629  0.7906 -0.5461
  208MPD1    H1 3165   0.243   3.972  17.027 -2.1255 -0.0941  0.2085
  208MPD1    H2 3166   0.451   4.236  16.778  0.0715  0.2207  2.2066
  208MPD1    H3 3167   0.440   4.030  16.895  0.5856  0.0817 -0.5614
  208MPD1     N 3168   0.009   4.111  17.032  0.1649  0.7360 -0.8580
  208MPD1    H5 3169   4.657   4.173  17.017  0.5353  1.5254  0.4634
  208MPD1    N1 3170   0.254   4.408  16.742 -0.5793 -0.6007 -0.4792
  208MPD1    H6 3171   0.350   4.439  16.730 -0.5140 -1.4339 -2.1553
  208MPD1    H7 3172   0.200   4.491  16.764  1.5617  0.9765 -1.2017
  209MPD1     C 3173   1.558   3.698  10.705  0.6524  0.0475 -0.3581
  209MPD1    C1 3174   1.651   3.799  10.739  0.2384 -0.3119 -0.0825
  209MPD1    C2 3175   1.685   3.885  10.640  0.1763 -0.3172  0.9171
  209MPD1    C3 3176   1.620   3.881  10.518 -0.3816 -0.6033 -0.4513
  209MPD1    C4 3177   1.518   3.788  10.500  0.4243 -0.1608  0.9832
  209MPD1    C5 3178   1.492   3.689  10.594  0.2372 -0.3388  0.5184
  209MPD1     H 3179   1.763   3.960  10.648 -0.1306  0.2476 -1.4568
  209MPD1    H1 3180   1.458   3.785  10.410  1.1855 -0.3444  0.4820
  209MPD1    H2 3181   1.519   3.632  10.782 -2.4922  1.0178 -1.1231
  209MPD1    H3 3182   1.410   3.619  10.585  0.0563 -0.0091 -0.4720
  209MPD1     N 3183   1.654   3.983  10.428 -0.0947  0.4785 -0.1519
  209MPD1    H5 3184   1.740   4.033  10.449  0.9556 -0.9546 -0.9649
  209MPD1    N1 3185   1.718   3.800  10.861  0.1183 -0.7283  0.7807
  209MPD1    H6 3186   1.673   3.784  10.951  3.3875 -0.3400  2.4779
  209MPD1    H7 3187   1.768   3.888  10.865 -2.6416  0.9754 -1.3719
  210MPD1     C 3188   2.400   4.475  10.038  0.6597 -0.3521 -0.0473
  210MPD1    C1 3189   2.330   4.484  10.160 -0.2670  0.8521 -0.2075
  210MPD1    C2 3190   2.206   4.431  10.165  0.2838 -0.0055 -0.2765
  210MPD1    C3 3191   2.140   4.393  10.046  0.1046  0.2998 -0.4846
  210MPD1    C4 3192   2.204   4.404   9.922  0.2316 -0.6583  0.2633
  210MPD1    C5 3193   2.334   4.446   9.922 -1.5211 -0.0193  0.4010
  210MPD1     H 3194   2.164   4.418  10.264 -0.2016 -0.4155 -0.5370
  210MPD1    H1 3195   2.155   4.376   9.830 -0.0253  1.2071 -0.1616
  210MPD1    H2 3196   2.495   4.525  10.030 -0.2375  1.1147 -1.4658
  210MPD1    H3 3197   2.391   4.450   9.830 -1.1479 -1.6650  0.5615
  210MPD1     N 3198   2.008   4.334  10.055 -0.3785 -0.4124 -0.5879
  210MPD1    H5 3199   1.970   4.282   9.976 -2.1105 -1.3099  0.8424
  210MPD1    N1 3200   2.399   4.518  10.277 -0.5017  0.6654 -0.4861
  210MPD1    H6 3201   2.334   4.550  10.348  1.6960 -0.0296  1.8384
  210MPD1    H7 3202   2.462   4.596  10.265  0.8270 -0.2348  0.6779
  211MPD1     C 3203   4.121   4.360  16.404 -0.2804 -0.1464  0.4129
  211MPD1    C1 3204   4.086   4.225  16.413 -0.4097  0.2083  0.4323
  211MPD1    C2 3205   3.964   4.198  16.476  0.2074 -0.0854 -0.1918
  211MPD1    C3 3206   3.894   4.299  16.544 -0.4109 -0.4102  0.2836
  211MPD1    C4 3207   3.944   4.428  16.548 -0.1886 -0.1524 -0.1320
  211MPD1    C5 3208   4.055   4.459  16.476  0.0369  0.7032  0.1432
  211MPD1     H 3209   3.937   4.095  16.457 -4.4477  0.9622  0.8217
  211MPD1    H1 3210   3.897   4.509  16.603  0.8120  0.2692  0.1180
  211MPD1    H2 3211   4.204   4.410  16.354 -0.4770 -1.1404 -0.9236
  211MPD1    H3 3212   4.081   4.563  16.466  1.3030  0.4099  0.3704
  211MPD1     N 3213   3.777   4.263  16.613  0.2006 -0.1300  0.0121
  211MPD1    H5 3214   3.749   4.167  16.591 -0.1986 -0.2338  0.9910
  211MPD1    N1 3215   4.146   4.131  16.329  0.7423 -0.1257  0.3310
  211MPD1    H6 3216   4.246   4.140  16.318  0.8972  0.7095  2.4388
  211MPD1    H7 3217   4.137   4.033  16.356 -2.6680 -0.3564 -1.6695
  212MPD1     C 3218   2.964   2.625  16.258 -0.0415  0.1612 -0.6611
  212MPD1    C1 3219   3.015   2.499  16.292 -0.1228  0.0470 -0.1803
  212MPD1    C2 3220   2.926   2.402  16.323  0.1113 -0.1738 -0.1022
  212MPD1    C3 3221   2.796   2.427  16.366 -0.0819 -0.5483 -0.4073
  212MPD1    C4 3222   2.759   2.559  16.358  0.7564  0.2478  0.4492
  212MPD1    C5 3223   2.837   2.655  16.299 -0.5413 -0.0721  0.0433
  212MPD1     H 3224   2.961   2.300  16.325  0.2138 -0.1781 -2.5407
  212MPD1    H1 3225   2.658   2.590  16.384  0.6985 -0.2402  0.8240
  212MPD1    H2 3226   3.030   2.701  16.218 -0.8979  1.6626  0.7558
  212MPD1    H3 3227   2.809   2.759  16.290 -3.2099 -0.7531  0.4907
  212MPD1     N 3228   2.704   2.337  16.425 -0.1221 -0.1312  0.0964
  212MPD1    H5 3229   2.611   2.374  16.445 -0.5039 -0.7869 -0.4874
  212MPD1    N1 3230   3.145   2.468  16.248  0.3552  0.2002  0.2333
  212MPD1    H6 3231   3.190   2.411  16.320  1.2246  2.4032  1.4426
  212MPD1    H7 3232   3.204   2.551  16.256  0.0260  0.3133  1.4457
  213MPD1     C 3233   1.459   3.089  15.632  0.3645  0.4315 -0.1415
  213MPD1    C1 3234   1.495   3.032  15.511 -0.0209  0.6309 -0.5954
  213MPD1    C2 3235   1.409   3.070  15.403  0.3113 -0.4972 -0.1818
  213MPD1    C3 3236   1.286   3.136  15.413  0.2873 -0.6293 -0.2189
  213MPD1    C4 3237   1.252   3.164  15.542 -0.1731  0.5157 -0.0737
  213MPD1    C5 3238   1.338   3.149  15.642 -0.2619  0.5221  0.5146
  213MPD1     H 3239   1.451   3.052  15.305 -2.3800  1.4709 -1.7184
  213MPD1    H1 3240   1.155   3.206  15.566 -0.2846  1.6192 -2.3596
  213MPD1    H2 3241   1.536   3.111  15.706  0.5815  0.7078 -0.4518
  213MPD1    H3 3242   1.316   3.191  15.739  1.4930  0.8409  0.7768
  213MPD1     N 3243   1.213   3.174  15.297 -0.0938  0.1690  0.2543
  213MPD1    H5 3244   1.242   3.132  15.209 -3.2855 -1.1757 -0.1484
  213MPD1    N1 3245   1.637   3.008  15.485 -0.6533 -0.4799 -0.7662
  213MPD1    H6 3246   1.652   2.958  15.398  0.9028 -1.7650  0.2238
  213MPD1    H7 3247   1.683   2.946  15.552 -0.4202  0.3166 -0.1958
  214MPD1     C 3248   0.312   3.283  14.993 -0.0658 -0.0305 -0.2504
  214MPD1    C1 3249   0.359   3.407  14.962 -0.2720  0.1016  0.4639
  214MPD1    C2 3250   0.498   3.429  14.959 -0.4784  0.9646 -0.3119
  214MPD1    C3 3251   0.581   3.334  15.008 -0.1373 -0.0616  0.1579
  214MPD1    C4 3252   0.526   3.210  15.037 -0.0573  0.0814  0.0246
  214MPD1    C5 3253   0.393   3.181  15.037  0.5971  0.5280 -0.0525
  214MPD1     H 3254   0.532   3.525  14.919 -0.8508  0.4950 -1.7510
  214MPD1    H1 3255   0.586   3.126  15.070 -1.3348 -0.1652  1.7040
  214MPD1    H2 3256   0.208   3.255  15.003 -0.1059  0.6180  1.0856
  214MPD1    H3 3257   0.360   3.082  15.068  2.1937 -0.3925 -1.2778
  214MPD1     N 3258   0.721   3.349  15.031  0.0831 -0.2280 -0.3001
  214MPD1    H5 3259   0.772   3.271  15.071 -2.3152 -1.0338  1.1896
  214MPD1    N1 3260   0.272   3.515  14.942 -0.2766 -0.1247 -0.7575
  214MPD1    H6 3261   0.319   3.575  14.875  0.9449 -0.6284 -0.3518
  214MPD1    H7 3262   0.183   3.485  14.903 -0.3202  2.1157 -2.3202
  215MPD1     C 3263   0.510   3.586  10.197 -0.2813 -0.8489  0.5783
  215MPD1    C1 3264   0.540   3.667  10.302 -1.7209  0.2854 -0.2494
  215MPD1    C2 3265   0.668   3.725  10.300 -0.2723  0.1857 -0.0447
  215MPD1    C3 3266   0.761   3.703  10.204 -0.0988  0.0907 -0.1379
  215MPD1    C4 3267   0.724   3.621  10.097 -0.0260  0.5150  0.3864
  215MPD1    C5 3268   0.604   3.559  10.097  0.5317 -0.0534  0.0375
  215MPD1     H 3269   0.704   3.796  10.373 -0.0378 -0.2688  0.2818
  215MPD1    H1 3270   0.789   3.603  10.012 -1.7676  0.5017 -0.9208
  215MPD1    H2 3271   0.415   3.536  10.181  0.5981 -2.2520 -0.2879
  215MPD1    H3 3272   0.586   3.498  10.009 -3.2781 -1.0813  1.5164
  215MPD1     N 3273   0.884   3.773  10.222 -0.1263  0.4666  0.0823
  215MPD1    H5 3274   0.906   3.823  10.308 -0.1823 -1.4629  1.2099
  215MPD1    N1 3275   0.439   3.721  10.390 -0.4196 -0.0071 -0.2559
  215MPD1    H6 3276   0.374   3.650  10.423 -1.7646  0.4817 -1.8706
  215MPD1    H7 3277   0.476   3.750  10.481  1.8551 -0.2335 -1.1085
  216MPD1     C 3278   2.406   2.502  17.579 -0.1742  0.2195 -0.6603
  216MPD1    C1 3279   2.363   2.408  17.665 -0.1073 -0.4743  0.2526
  216MPD1    C2 3280   2.292   2.309  17.622 -0.1089 -0.4202  0.5172
  216MPD1    C3 3281   2.259   2.290  17.486  0.1042 -0.1051  0.3780
  216MPD1    C4 3282   2.312   2.381  17.394 -0.6192 -0.2197 -0.5779
  216MPD1    C5 3283   2.377   2.491  17.446 -0.1672  0.4038 -0.3246
  216MPD1     H 3284   2.244   2.243  17.693 -0.8602 -2.3451 -1.7672
  216MPD1    H1 3285   2.297   2.387  17.287 -0.6589 -0.4895 -0.5857
  216MPD1    H2 3286   2.462   2.588  17.615 -1.0616  1.6662 -2.7411
  216MPD1    H3 3287   2.412   2.571  17.380  0.1363  1.0853  0.6696
  216MPD1     N 3288   2.182   2.177  17.449 -0.7881 -0.0554 -0.0724
  216MPD1    H5 3289   2.163   2.113  17.526 -2.4242 -1.3665 -1.5720
  216MPD1    N1 3290   2.381   2.422   0.099 -0.4019 -0.1867 -0.2360
  216MPD1    H6 3291   2.447   2.499   0.112 -0.2798 -0.3339  0.0062
  216MPD1    H7 3292   2.410   2.335   0.144  1.0967  0.6198  0.3796
  217MPD1     C 3293   2.969   2.458   8.999  0.7174  0.6378 -0.2323
  217MPD1    C1 3294   2.963   2.598   8.980  0.0069 -0.2813 -0.3184
  217MPD1    C2 3295   3.084   2.665   8.991  0.4950  0.2906  0.5030
  217MPD1    C3 3296   3.193   2.591   9.025 -0.5101 -0.1361 -0.0975
  217MPD1    C4 3297   3.189   2.450   9.032  0.8659 -0.2901  0.4563
  217MPD1    C5 3298   3.075   2.380   9.028 -0.4386 -0.8393 -0.1274
  217MPD1     H 3299   3.083   2.772   8.973  2.4700  0.1869 -0.2288
  217MPD1    H1 3300   3.281   2.395   9.047 -0.2058 -2.3752 -0.5941
  217MPD1    H2 3301   2.871   2.412   8.991  0.1862  1.6627  0.3074
  217MPD1    H3 3302   3.082   2.272   9.019 -2.8620 -1.0963  0.9201
  217MPD1     N 3303   3.326   2.653   9.026  0.1208  0.4270  0.1862
  217MPD1    H5 3304   3.403   2.587   9.019 -1.5855 -1.9325  3.7075
  217MPD1    N1 3305   2.844   2.661   8.943  0.2932 -0.6579 -0.1036
  217MPD1    H6 3306   2.845   2.759   8.970 -4.1575  0.0591 -2.4095
  217MPD1    H7 3307   2.758   2.623   8.984  0.3149 -2.0833 -1.3784
  218MPD1     C 3308   0.241   4.603  12.295  0.3285  0.7595  0.4642
  218MPD1    C1 3309   0.271   4.469  12.314  0.5231 -0.0391 -0.2871
  218MPD1    C2 3310   0.402   4.430  12.318  0.4143 -0.1429  0.7807
  218MPD1    C3 3311   0.508   4.519  12.297  0.2328 -0.8295 -0.5170
  218MPD1    C4 3312   0.482   4.654  12.275 -0.0984  0.5165 -0.6142
  218MPD1    C5 3313   0.347   4.697  12.267 -0.2507  0.4570 -0.0548
  218MPD1     H 3314   0.431   4.326  12.326 -0.5149 -0.4562  0.1562
  218MPD1    H1 3315   0.561   0.001  12.273  0.8775 -0.5144  0.1417
  218MPD1    H2 3316   0.141   4.644  12.293  0.1457  0.2994  0.2097
  218MPD1    H3 3317   0.324   0.073  12.242  3.1670  1.2072 -0.1633
  218MPD1     N 3318   0.634   4.460  12.293 -0.0844 -0.4654  0.4255
  218MPD1    H5 3319   0.642   4.359  12.295 -1.0684 -0.5635 -0.6391
  218MPD1    N1 3320   0.172   4.382  12.356 -0.5304 -0.6058 -0.0210
  218MPD1    H6 3321   0.188   4.289  12.317 -2.4006 -2.4145  3.4368
  218MPD1    H7 3322   0.080   4.405  12.319 -0.2278  0.0112 -0.3747
  219MPD1     C 3323   1.669   4.431  11.929  0.0893 -0.9410  0.2874
  219MPD1    C1 3324   1.547   4.446  11.863 -0.2307  0.2287  0.2369
  219MPD1    C2 3325   1.428   4.423  11.932  0.1115  0.0853 -0.6985
  219MPD1    C3 3326   1.428   4.379  12.057 -0.1852  0.1894  0.1119
  219MPD1    C4 3327   1.555   4.363  12.120 -0.7796  0.2521 -0.1506
  219MPD1    C5 3328   1.674   4.404  12.064 -0.0912  0.0439 -0.2773
  219MPD1     H 3329   1.331   4.434  11.884  0.0517  0.3508 -0.5183
  219MPD1    H1 3330   1.564   4.343  12.227  1.1462 -0.1691 -0.3928
  219MPD1    H2 3331   1.760   4.459  11.876  0.0190 -0.0664  0.6242
  219MPD1    H3 3332   1.769   4.419  12.114 -0.9063  0.7143  1.0621
  219MPD1     N 3333   1.309   4.360  12.132 -0.1602  0.0974 -0.0437
  219MPD1    H5 3334   1.304   4.325  12.227  1.7668  1.5234  0.5680
  219MPD1    N1 3335   1.552   4.502  11.735  0.7706  0.2351  0.4434
  219MPD1    H6 3336   1.625   4.454  11.682 -0.5282 -0.9345 -0.2596
  219MPD1    H7 3337   1.463   4.490  11.688  0.2586 -1.2467  1.7964
  220MPD1     C 3338   0.408   0.495   9.176  0.0367  0.4015  0.8175
  220MPD1    C1 3339   0.526   0.440   9.137 -0.2800  0.2638 -0.4984
  220MPD1    C2 3340   0.555   0.308   9.176 -0.0388  0.2957  1.2055
  220MPD1    C3 3341   0.480   0.237   9.264 -0.0007  0.7686  0.3160
  220MPD1    C4 3342   0.362   0.292   9.310  0.4823  0.0793 -0.1205
  220MPD1    C5 3343   0.329   0.420   9.263  0.4521  0.2382 -0.1843
  220MPD1     H 3344   0.642   0.261   9.133 -1.1787  0.3166 -1.1415
  220MPD1    H1 3345   0.298   0.227   9.367  0.4261  1.1639  1.0503
  220MPD1    H2 3346   0.371   0.587   9.133  1.2018  0.7384  0.5275
  220MPD1    H3 3347   0.233   0.466   9.282  1.2775  1.9650 -0.2177
  220MPD1     N 3348   0.520   0.106   9.306 -0.2284 -0.5440  0.3545
  220MPD1    H5 3349   0.615   0.080   9.282 -0.2385  1.2919 -1.7858
  220MPD1    N1 3350   0.610   0.499   9.040 -0.2878 -0.2618  0.0434
  220MPD1    H6 3351   0.592   0.598   9.030  2.0783  0.1783  0.0534
  220MPD1    H7 3352   0.710   0.486   9.058 -0.3197 -0.7204 -0.1127
  221MPD1     C 3353   4.187   3.017  16.622 -0.7750 -0.4181  0.4323
  221MPD1    C1 3354   4.118   2.910  16.582 -0.3548  0.9143  1.0492
  221MPD1    C2 3355   4.042   2.918  16.467  0.3104 -0.1779 -0.4213
  221MPD1    C3 3356   4.031   3.033  16.396 -0.3115 -0.5309 -0.0968
  221MPD1    C4 3357   4.101   3.145  16.438  0.0239 -0.3703 -0.3556
  221MPD1    C5 3358   4.181   3.131  16.546 -0.6042 -0.3459  0.9758
  221MPD1     H 3359   3.975   2.836  16.449 -1.0123  0.3899  2.0056
  221MPD1    H1 3360   4.091   3.238  16.384  1.8726 -0.0610 -0.1484
  221MPD1    H2 3361   4.257   3.014  16.705  1.2468  2.5469 -1.1796
  221MPD1    H3 3362   4.239   3.218  16.574  1.0005 -1.7426  1.9918
  221MPD1     N 3363   3.949   3.048  16.282  0.5961 -0.4391  0.1619
  221MPD1    H5 3364   3.953   3.137  16.233 -1.3600 -0.5451 -0.2024
  221MPD1    N1 3365   4.109   2.801  16.665  0.7193 -0.4020  0.2518
  221MPD1    H6 3366   4.089   2.718  16.610  0.4577 -0.4509  0.4237
  221MPD1    H7 3367   4.196   2.796  16.718  0.4938  0.6794  0.7296
  222MPD1     C 3368   3.010   2.643  16.642 -0.8369  0.1169 -0.1413
  222MPD1    C1 3369   2.892   2.659  16.715 -0.3886 -0.8536 -0.2736
  222MPD1    C2 3370   2.883   2.624  16.846 -1.5631  0.6939  0.1522
  222MPD1    C3 3371   2.980   2.549  16.899  0.3235  0.2786 -0.9826
  222MPD1    C4 3372   3.101   2.536  16.840 -0.2186  0.0177  0.2100
  222MPD1    C5 3373   3.113   2.577  16.705  0.5281  0.7356  0.0137
  222MPD1     H 3374   2.787   2.643  16.892 -1.1550  2.0091  0.4783
  222MPD1    H1 3375   3.186   2.485  16.885  1.3507  2.7157  0.3173
  222MPD1    H2 3376   3.030   2.671  16.540  0.0188  0.9006  0.2436
  222MPD1    H3 3377   3.206   2.556  16.655 -0.7499 -0.4857 -1.8227
  222MPD1     N 3378   2.956   2.497  17.031 -0.0219 -0.1097 -0.0090
  222MPD1    H5 3379   3.034   2.459  17.084 -0.5947 -2.1642 -0.6281
  222MPD1    N1 3380   2.794   2.742  16.657 -0.8686 -0.5102 -0.0833
  222MPD1    H6 3381   2.701   2.750  16.698 -0.1972 -3.8212  2.0719
  222MPD1    H7 3382   2.791   2.744  16.556 -3.7391  0.6453  0.0161
  223MPD1     C 3383   2.422   1.805  17.433  0.0362 -0.4789  0.1535
  223MPD1    C1 3384   2.444   1.853  17.310 -0.5626 -0.4031 -0.8208
  223MPD1    C2 3385   2.498   1.982  17.298 -0.2944 -0.6285  0.2768
  223MPD1    C3 3386   2.530   2.053  17.412  0.8132  0.2005  0.1503
  223MPD1    C4 3387   2.499   2.004  17.539 -0.0912  0.0203 -0.6501
  223MPD1    C5 3388   2.456   1.880  17.547  0.3740 -0.4345 -0.2239
  223MPD1     H 3389   2.525   2.020  17.200  0.0436 -0.4095  0.4532
  223MPD1    H1 3390   2.526   2.060  17.628  3.2288  0.3115 -1.8330
  223MPD1    H2 3391   2.376   1.708  17.444  1.0825 -0.9482  0.4126
  223MPD1    H3 3392   2.426   1.837  17.642 -0.5648  0.1174 -0.2675
  223MPD1     N 3393   2.603   2.171  17.396 -0.0427 -0.0133 -0.5982
  223MPD1    H5 3394   2.615   2.200  17.300  2.7777  0.4143 -0.1246
  223MPD1    N1 3395   2.418   1.761  17.206 -0.3076 -0.3229 -0.1129
  223MPD1    H6 3396   2.344   1.692  17.222 -1.8229  1.1309 -0.8170
  223MPD1    H7 3397   2.432   1.793  17.111 -1.4258  0.1644 -0.1163
  224MPD1     C 3398   4.464   4.039   9.569 -0.0123 -0.7670  0.0688
  224MPD1    C1 3399   4.567   3.979   9.498 -0.5890 -0.0963  0.3138
  224MPD1    C2 3400   4.549   3.845   9.466 -0.7330  0.3362 -0.5382
  224MPD1    C3 3401   4.432   3.778   9.488  0.2088 -0.2849 -0.0831
  224MPD1    C4 3402   4.335   3.837   9.563  0.6669 -1.0059 -0.4477
  224MPD1    C5 3403   4.354   3.964   9.605 -0.3582 -0.4595 -0.3136
  224MPD1     H 3404   4.624   3.787   9.412 -0.2102  0.3216  0.2090
  224MPD1    H1 3405   4.241   3.787   9.584 -0.9134  1.0481 -2.6000
  224MPD1    H2 3406   4.466   4.137   9.614  0.3112 -0.1974 -1.2058
  224MPD1    H3 3407   4.274   4.001   9.668 -1.6126 -0.2349 -2.0342
  224MPD1     N 3408   4.398   3.653   9.431 -0.6861 -0.6108  0.1591
  224MPD1    H5 3409   4.303   3.625   9.453 -0.6262 -1.0613 -0.1601
  224MPD1    N1 3410   4.696   4.037   9.478  0.1599  0.0138  0.0842
  224MPD1    H6 3411   4.678   4.137   9.483  0.1162 -0.0292  0.6895
  224MPD1    H7 3412   0.006   4.019   9.384 -2.1620 -0.1205 -0.7976
  225MPD1     C 3413   0.628   0.957  11.279 -0.1451  0.4639  0.1808
  225MPD1    C1 3414   0.687   0.840  11.238 -0.4758 -0.1468 -0.3842
  225MPD1    C2 3415   0.662   0.726  11.317 -0.0026 -0.6066 -0.6793
  225MPD1    C3 3416   0.594   0.728  11.436 -0.5617 -0.6673 -0.4270
  225MPD1    C4 3417   0.555   0.855  11.481  0.3187  0.7774  0.5794
  225MPD1    C5 3418   0.565   0.963  11.401  0.2202 -0.6545  0.6911
  225MPD1     H 3419   0.688   0.628  11.278 -2.3628 -1.6360  0.3764
  225MPD1    H1 3420   0.506   0.861  11.577 -0.3829  0.1813  0.2519
  225MPD1    H2 3421   0.633   1.039  11.209  0.0693  0.4267  0.1529
  225MPD1    H3 3422   0.518   1.055  11.434  0.1131 -0.3824 -0.1934
  225MPD1     N 3423   0.571   0.620  11.523  0.5123  0.8151  0.0110
  225MPD1    H5 3424   0.534   0.641  11.616  3.3371 -0.5197  1.4353
  225MPD1    N1 3425   0.734   0.828  11.101 -0.0584 -0.0801 -1.1072
  225MPD1    H6 3426   0.780   0.741  11.075  2.9695  0.9151  0.8499
  225MPD1    H7 3427   0.802   0.896  11.066 -0.2201  0.8840  0.4495
  226MPD1     C 3428   3.440   3.685   8.585  0.4820  0.2476  0.4375
  226MPD1    C1 3429   3.536   3.586   8.585  0.8424  0.3534  0.0060
  226MPD1    C2 3430   3.636   3.601   8.676 -0.4525 -0.0978 -1.0486
  226MPD1    C3 3431   3.655   3.715   8.748 -0.0946 -0.2527  0.2636
  226MPD1    C4 3432   3.557   3.812   8.741 -0.0456  0.2757 -0.2943
  226MPD1    C5 3433   3.452   3.796   8.656  0.4177  0.4190  0.6444
  226MPD1     H 3434   3.717   3.529   8.680  0.0269  0.5450  0.8784
  226MPD1    H1 3435   3.562   3.909   8.790  0.0196 -0.2168  0.6564
  226MPD1    H2 3436   3.352   3.689   8.521 -0.5610  3.1164  2.0876
  226MPD1    H3 3437   3.373   3.870   8.649 -0.5299 -0.7218 -0.7011
  226MPD1     N 3438   3.775   3.723   8.826  0.2499 -0.3349  0.1921
  226MPD1    H5 3439   3.834   3.642   8.810  0.3217 -0.1030 -0.7206
  226MPD1    N1 3440   3.514   3.468   8.513  0.2249 -0.3705  0.3613
  226MPD1    H6 3441   3.597   3.416   8.485 -0.6071 -0.7272 -1.4927
  226MPD1    H7 3442   3.470   3.477   8.421  0.9805  1.6489  0.1995
  227MPD1     C 3443   4.400   3.140   8.759 -0.4280 -0.0190  0.7323
  227MPD1    C1 3444   4.266   3.162   8.726  0.2322  0.1037  0.2739
  227MPD1    C2 3445   4.208   3.278   8.772 -0.5113 -0.2005  0.5541
  227MPD1    C3 3446   4.278   3.371   8.846  0.4811  0.1966 -0.0236
  227MPD1    C4 3447   4.413   3.340   8.880 -0.3889 -0.0735  0.2713
  227MPD1    C5 3448   4.465   3.224   8.846  0.6212  0.0382  0.0422
  227MPD1     H 3449   4.105   3.295   8.743 -0.4958  0.1761  0.7177
  227MPD1    H1 3450   4.472   3.411   8.937 -1.1275 -0.2268  1.2429
  227MPD1    H2 3451   4.460   3.057   8.724  1.0069  1.4636 -0.3107
  227MPD1    H3 3452   4.571   3.213   8.867  0.3703  0.7231  1.7105
  227MPD1     N 3453   4.206   3.491   8.873 -0.1351 -0.0805 -0.0827
  227MPD1    H5 3454   4.123   3.500   8.815  0.4649  1.2142 -0.7573
  227MPD1    N1 3455   4.200   3.079   8.638  0.7603  0.4071 -0.3671
  227MPD1    H6 3456   4.233   2.983   8.649 -1.7405 -0.0568  3.3365
  227MPD1    H7 3457   4.101   3.085   8.663  1.5567 -0.8775  3.0517
  228MPD1     C 3458   2.168   2.503  12.384  0.2685 -0.0121 -0.5098
  228MPD1    C1 3459   2.079   2.425  12.319  0.6429 -0.0076 -0.1763
  228MPD1    C2 3460   1.953   2.390  12.374 -0.9282  0.3030  0.0618
  228MPD1    C3 3461   1.920   2.421  12.506  0.2991 -0.3494 -0.2780
  228MPD1    C4 3462   2.014   2.495  12.574 -0.3617 -0.0936 -0.1895
  228MPD1    C5 3463   2.134   2.543  12.510 -0.1429 -0.3380 -0.5535
  228MPD1     H 3464   1.882   2.328  12.320 -1.2197  1.4791 -0.9236
  228MPD1    H1 3465   1.992   2.527  12.676  1.8395  1.9929 -0.3607
  228MPD1    H2 3466   2.268   2.521  12.346  0.0011 -2.5453 -2.4282
  228MPD1    H3 3467   2.204   2.603  12.566 -1.1039 -0.9332  1.2802
  228MPD1     N 3468   1.794   2.382  12.564 -0.2414  0.4689 -0.2552
  228MPD1    H5 3469   1.728   2.339  12.499  0.9787 -0.0896 -1.1433
  228MPD1    N1 3470   2.099   2.402  12.180  0.2621 -0.1850  0.0505
  228MPD1    H6 3471   2.197   2.414  12.155  0.0927 -2.2344 -1.5706
  228MPD1    H7 3472   2.066   2.316  12.137 -0.9344 -0.1431  0.8781
  229MPD1     C 3473   1.974   1.536  14.052 -0.6296  0.1282  1.2202
  229MPD1    C1 3474   1.879   1.501  14.141 -0.3035 -0.1927  0.3676
  229MPD1    C2 3475   1.918   1.443  14.257  0.6433 -0.4796  0.0087
  229MPD1    C3 3476   2.056   1.406  14.278  0.7410  0.3904 -0.1330
  229MPD1    C4 3477   2.143   1.422  14.169  0.7523 -0.3874  0.2265
  229MPD1    C5 3478   2.103   1.492  14.059  0.3295  0.8846  0.5217
  229MPD1     H 3479   1.845   1.424  14.334 -0.8043 -2.7613 -1.9106
  229MPD1    H1 3480   2.247   1.399  14.186  1.8429  3.2883 -1.5411
  229MPD1    H2 3481   1.943   1.595  13.966  1.8917  1.2569  1.1028
  229MPD1    H3 3482   2.175   1.519  13.983 -1.5858  1.7962 -0.9659
  229MPD1     N 3483   2.094   1.326  14.387  0.3303 -0.2644 -0.1231
  229MPD1    H5 3484   2.182   1.276  14.386 -0.7422 -2.1472 -0.9337
  229MPD1    N1 3485   1.746   1.533  14.109  0.2907 -0.1377  0.4802
  229MPD1    H6 3486   1.718   1.508  14.015  2.3595  1.0833 -0.4652
  229MPD1    H7 3487   1.670   1.501  14.169 -1.2159 -0.4566 -1.5981
  230MPD1     C 3488   2.546   1.297  15.318 -0.0181  0.6832  0.2520
  230MPD1    C1 3489   2.590   1.192  15.237  0.3055 -0.5384  0.0620
  230MPD1    C2 3490   2.522   1.158  15.121  0.2222 -0.5454 -0.4497
  230MPD1    C3 3491   2.403   1.220  15.091 -0.0878  0.5825 -0.5352
  230MPD1    C4 3492   2.349   1.310  15.180 -0.6834  0.6496  0.8601
  230MPD1    C5 3493   2.424   1.351  15.284  0.0700 -0.0321 -0.3391
  230MPD1     H 3494   2.561   1.085  15.051  0.5173  0.9363 -1.8105
  230MPD1    H1 3495   2.257   1.363  15.159 -2.2322 -0.6517  4.3112
  230MPD1    H2 3496   2.597   1.317  15.412  0.3983  2.1162 -0.2710
  230MPD1    H3 3497   2.388   1.432  15.347  0.9064  0.3386 -0.3370
  230MPD1     N 3498   2.342   1.191  14.967 -0.7414 -0.6824  0.0810
  230MPD1    H5 3499   2.396   1.142  14.897 -1.2565 -0.3093 -0.5792
  230MPD1    N1 3500   2.698   1.117  15.285  0.1881  0.5828 -0.2695
  230MPD1    H6 3501   2.754   1.072  15.213 -0.5151 -0.8626  0.0783
  230MPD1    H7 3502   2.751   1.171  15.352 -1.0301  1.3139  0.1047
  231MPD1     C 3503   0.589   3.706  15.447  0.0327  0.3195 -0.0360
  231MPD1    C1 3504   0.575   3.651  15.323  0.2961 -0.0705  0.0690
  231MPD1    C2 3505   0.623   3.720  15.211 -0.3206 -0.3155  0.1597
  231MPD1    C3 3506   0.704   3.833  15.220 -0.2212  0.0605  0.3477
  231MPD1    C4 3507   0.715   3.892  15.343  0.3441  0.1439 -0.0136
  231MPD1    C5 3508   0.662   3.824  15.455  0.2114  0.4667 -0.2827
  231MPD1     H 3509   0.605   3.671  15.115  1.3308  0.7846 -0.7079
  231MPD1    H1 3510   0.778   3.979  15.356  0.2952 -0.0160  1.3289
  231MPD1    H2 3511   0.540   3.675  15.538 -1.2907 -0.4311 -1.0099
  231MPD1    H3 3512   0.670   3.865  15.555  1.8055  1.0523 -0.6483
  231MPD1     N 3513   0.766   3.877  15.106 -0.1074 -0.5279  0.3846
  231MPD1    H5 3514   0.728   3.831  15.024 -1.9394 -0.8110  1.3877
  231MPD1    N1 3515   0.497   3.534  15.295  0.0360 -0.5415 -0.0856
  231MPD1    H6 3516   0.517   3.493  15.204  2.0610  3.3865 -1.4165
  231MPD1    H7 3517   0.504   3.465  15.370  1.3209  1.1183  1.3317
  232MPD1     C 3518   1.239   1.588  17.183  0.1031  0.8132  0.1775
  232MPD1    C1 3519   1.224   1.630  17.312 -0.2989 -0.4668 -0.1396
  232MPD1    C2 3520   1.222   1.541  17.419 -0.2233 -0.0277  0.6852
  232MPD1    C3 3521   1.260   1.413  17.402  0.2674 -0.3901  1.1337
  232MPD1    C4 3522   1.268   1.364  17.269  0.1991  0.4608  0.2180
  232MPD1    C5 3523   1.255   1.453  17.167  0.5029 -0.6188 -0.0149
  232MPD1     H 3524   1.205   1.572  17.522 -0.6764  0.0891  0.5737
  232MPD1    H1 3525   1.286   1.259  17.251 -0.8910  0.0128  1.6574
  232MPD1    H2 3526   1.223   1.651  17.097 -2.1976 -1.5181 -1.0773
  232MPD1    H3 3527   1.266   1.415  17.066 -0.6669 -0.7278 -0.0992
  232MPD1     N 3528   1.275   1.326  17.515  0.3883 -0.3918 -0.2720
  232MPD1    H5 3529   1.251   1.364  17.606 -1.0904 -0.7421 -0.5160
  232MPD1    N1 3530   1.173   1.756  17.339 -0.0064  0.6693  0.6618
  232MPD1    H6 3531   1.173   1.826  17.265 -0.8608  1.1535  1.1169
  232MPD1    H7 3532   1.226   1.795  17.417  0.6043  0.2499  0.4547
  233MPD1     C 3533   2.859   4.385   1.407  0.0812 -0.2436 -0.2771
  233MPD1    C1 3534   2.949   4.488   1.394 -0.0643  0.4500 -0.2814
  233MPD1    C2 3535   3.083   4.455   1.374  0.4798  0.6865 -0.1606
  233MPD1    C3 3536   3.118   4.322   1.352  0.0576 -0.3650  0.1931
  233MPD1    C4 3537   3.019   4.225   1.358  0.4150  0.2511 -0.2201
  233MPD1    C5 3538   2.891   4.253   1.382  0.3251  0.7206  0.9029
  233MPD1     H 3539   3.162   4.528   1.375  0.6889  0.4370  1.5002
  233MPD1    H1 3540   3.049   4.123   1.338  0.4127  0.4139 -1.0338
  233MPD1    H2 3541   2.761   4.416   1.441  0.3035  0.1505  0.0051
  233MPD1    H3 3542   2.812   4.180   1.398  0.9220  0.0671  0.8700
  233MPD1     N 3543   3.251   4.271   1.319 -0.1761 -0.4217 -0.9969
  233MPD1    H5 3544   3.263   4.177   1.284 -0.3811 -0.7334 -0.2326
  233MPD1    N1 3545   2.914   4.615   1.433  0.1067  0.3506 -0.3987
  233MPD1    H6 3546   2.963   4.686   1.379 -0.9092  0.0301 -1.7175
  233MPD1    H7 3547   2.816   4.637   1.419 -0.2242 -1.0553 -0.2981
  234MPD1     C 3548   4.642   1.793   8.396  0.0016 -0.4040  0.5858
  234MPD1    C1 3549   4.514   1.835   8.428 -0.5082  0.5685 -0.4355
  234MPD1    C2 3550   4.496   1.966   8.477 -0.5511  0.3422  0.2666
  234MPD1    C3 3551   4.606   2.048   8.498  0.2508 -0.4561 -0.3226
  234MPD1    C4 3552   0.001   2.015   8.442  0.4821 -0.1550 -0.3464
  234MPD1    C5 3553   0.017   1.889   8.390 -0.3148  0.7371 -0.3900
  234MPD1     H 3554   4.399   1.988   8.519 -1.5510 -2.6585 -0.4700
  234MPD1    H1 3555   0.083   2.085   8.436  1.5328 -1.4663 -1.4006
  234MPD1    H2 3556   4.657   1.693   8.356  0.3989  0.1553 -0.6634
  234MPD1    H3 3557   0.115   1.878   8.345  0.0430  1.0501  0.3191
  234MPD1     N 3558   4.578   2.161   8.587  0.8353  0.4014  0.5822
  234MPD1    H5 3559   4.488   2.177   8.631  0.5945 -1.8947  0.9540
  234MPD1    N1 3560   4.404   1.752   8.435 -0.5799  0.1261 -0.0864
  234MPD1    H6 3561   4.414   1.675   8.369  0.4490  1.6244 -1.6983
  234MPD1    H7 3562   4.316   1.796   8.408 -0.2339  0.6183 -0.4116
  235MPD1     C 3563   1.299   4.713   9.475 -0.5556  0.1013  0.3579
  235MPD1    C1 3564   1.258   0.066   9.376 -0.7314 -0.0420  0.6095
  235MPD1    C2 3565   1.316   0.196   9.367 -0.5233  0.7912  0.1260
  235MPD1    C3 3566   1.419   0.231   9.450  0.3160  0.5616  0.4030
  235MPD1    C4 3567   1.463   0.143   9.544  0.1487  0.3766 -0.2100
  235MPD1    C5 3568   1.400   0.024   9.556 -0.3223 -0.3492 -0.3451
  235MPD1     H 3569   1.277   0.267   9.295 -1.9272 -2.1805 -2.0263
  235MPD1    H1 3570   1.548   0.157   9.609 -1.5514 -1.1863  2.3329
  235MPD1    H2 3571   1.261   4.614   9.500 -0.3971  0.1329  0.7193
  235MPD1    H3 3572   1.452   4.680   9.619 -1.2042  0.3865  1.1983
  235MPD1     N 3573   1.471   0.364   9.436  0.1869  0.7479  0.1431
  235MPD1    H5 3574   1.427   0.421   9.364  3.3761  0.5856 -1.9758
  235MPD1    N1 3575   1.144   0.033   9.301  0.1999  0.0186  0.0815
  235MPD1    H6 3576   1.149   0.068   9.205 -0.3219 -0.2457 -0.0422
  235MPD1    H7 3577   1.150   4.659   9.286  2.0873  0.3370 -1.3136
  236MPD1     C 3578   0.410   1.320   9.183 -0.4412 -0.7018  0.8706
  236MPD1    C1 3579   0.448   1.186   9.183  0.5814 -0.5992  0.3122
  236MPD1    C2 3580   0.539   1.146   9.270  0.1002  0.1027  0.4362
  236MPD1    C3 3581   0.605   1.234   9.354  0.3966  0.0112  0.7432
  236MPD1    C4 3582   0.575   1.369   9.350 -0.0548  0.1545  0.4651
  236MPD1    C5 3583   0.481   1.403   9.260 -0.1085  0.5174 -0.2653
  236MPD1     H 3584   0.550   1.039   9.279  2.8445  0.1967 -1.6260
  236MPD1    H1 3585   0.600   1.445   9.423  2.4663  0.9710 -1.2616
  236MPD1    H2 3586   0.332   1.360   9.120  2.4136 -0.1003 -2.2803
  236MPD1    H3 3587   0.444   1.505   9.255 -1.1795  0.2287  1.6317
  236MPD1     N 3588   0.696   1.188   9.455 -0.3110  0.0143  0.0050
  236MPD1    H5 3589   0.758   1.257   9.496  0.2843 -0.3971 -0.1969
  236MPD1    N1 3590   0.387   1.098   9.087 -0.0560 -0.1720 -0.5448
  236MPD1    H6 3591   0.297   1.126   9.049 -0.5635  0.6088  1.1916
  236MPD1    H7 3592   0.375   1.004   9.124 -1.5763  0.8565  1.5712
  237MPD1     C 3593   0.687   4.573  15.386  0.4341  0.1147  0.2170
  237MPD1    C1 3594   0.693   4.576  15.246  0.0711 -0.2022  0.4731
  237MPD1    C2 3595   0.576   4.594  15.180 -0.1120  0.4166  0.3508
  237MPD1    C3 3596   0.456   4.596  15.245 -0.1428  0.0179 -0.0324
  237MPD1    C4 3597   0.449   4.595  15.382  0.3226 -0.0696 -0.5298
  237MPD1    C5 3598   0.566   4.585  15.456  0.0516  0.0165 -0.8669
  237MPD1     H 3599   0.568   4.602  15.072 -1.0868 -1.9405  0.2450
  237MPD1    H1 3600   0.361   4.606  15.444  1.3086 -0.2294  0.8812
  237MPD1    H2 3601   0.780   4.559  15.439  0.3670  3.8296  1.2937
  237MPD1    H3 3602   0.565   4.598  15.564  0.3521  1.4198 -1.0284
  237MPD1     N 3603   0.332   4.605  15.177 -0.1747  0.4369  0.0344
  237MPD1    H5 3604   0.247   4.588  15.230 -1.1021  0.6952 -1.3908
  237MPD1    N1 3605   0.813   4.578  15.167 -0.3177  0.0730 -0.1961
  237MPD1    H6 3606   0.894   4.532  15.208  0.0057  0.3687 -0.4960
  237MPD1    H7 3607   0.802   4.528  15.079 -0.9973  1.8624 -1.1208
  238MPD1     C 3608   2.849   3.354  14.528 -0.2803 -0.2323 -0.5468
  238MPD1    C1 3609   2.793   3.299  14.641 -0.5045  0.1300 -0.1403
  238MPD1    C2 3610   2.687   3.213  14.625 -0.2417 -0.6475  0.5298
  238MPD1    C3 3611   2.643   3.164  14.502 -0.1290 -0.0633  0.6367
  238MPD1    C4 3612   2.704   3.212  14.388  0.1779  0.2113  0.2388
  238MPD1    C5 3613   2.808   3.307  14.404 -0.7705 -0.1461  0.4285
  238MPD1     H 3614   2.646   3.167  14.715 -1.7875  3.2871  1.8183
  238MPD1    H1 3615   2.682   3.176  14.288  0.2694  0.5848  0.0814
  238MPD1    H2 3616   2.931   3.424  14.534 -0.1225 -0.5078  0.5516
  238MPD1    H3 3617   2.846   3.361  14.318 -0.1137 -0.5997  0.4328
  238MPD1     N 3618   2.541   3.072  14.484  1.5418  0.4605  0.2670
  238MPD1    H5 3619   2.502   3.048  14.393  2.1785  2.1314 -0.4540
  238MPD1    N1 3620   2.856   3.309  14.767 -0.3004 -0.3378 -0.1097
  238MPD1    H6 3621   2.792   3.301  14.847  1.2684 -0.5148  1.1249
  238MPD1    H7 3622   2.923   3.385  14.769  0.8035 -1.3523  1.2832
  239MPD1     C 3623   2.755   4.147  14.490 -0.0082 -0.2262 -0.6209
  239MPD1    C1 3624   2.819   4.142  14.373  0.7222  0.9647 -0.1614
  239MPD1    C2 3625   2.753   4.149  14.260 -0.0326  0.1273 -0.0326
  239MPD1    C3 3626   2.615   4.155  14.261 -0.4069 -0.6716 -0.3299
  239MPD1    C4 3627   2.548   4.171  14.379 -0.3459  0.3936 -0.0052
  239MPD1    C5 3628   2.620   4.173  14.494  0.2729 -0.4393 -0.3343
  239MPD1     H 3629   2.796   4.163  14.161 -0.8828 -1.0962 -0.5778
  239MPD1    H1 3630   2.442   4.194  14.380 -0.7444 -1.4740  2.7309
  239MPD1    H2 3631   2.822   4.149  14.574 -1.1763  1.5044  0.2821
  239MPD1    H3 3632   2.578   4.195  14.591  2.1937  0.0062  0.4024
  239MPD1     N 3633   2.540   4.163  14.140 -0.2858 -0.0530  0.8692
  239MPD1    H5 3634   2.439   4.174  14.146 -0.2744  0.6140 -0.1622
  239MPD1    N1 3635   2.957   4.131  14.372 -0.1703 -0.6382  0.2033
  239MPD1    H6 3636   2.972   4.060  14.443  1.5776 -1.8509 -1.3947
  239MPD1    H7 3637   2.978   4.092  14.281  1.3957  0.5020  0.0821
  240MPD1     C 3638   1.651   4.104  13.488  0.1971 -0.0396  0.2585
  240MPD1    C1 3639   1.539   4.056  13.551 -0.3895 -0.7372  0.7989
  240MPD1    C2 3640   1.573   3.978  13.661 -0.1356 -0.1192  0.1646
  240MPD1    C3 3641   1.697   3.925  13.683  0.0324 -0.2081  0.7664
  240MPD1    C4 3642   1.798   3.961  13.595 -0.2531 -0.0961 -0.3634
  240MPD1    C5 3643   1.772   4.052  13.503  0.1836  0.1940 -0.1200
  240MPD1     H 3644   1.492   3.943  13.723  1.5621 -2.3275  1.1337
  240MPD1    H1 3645   1.899   3.922  13.602  0.1283  0.8138 -0.7323
  240MPD1    H2 3646   1.635   4.177  13.409 -2.5068 -1.3955 -0.4326
  240MPD1    H3 3647   1.856   4.094  13.449 -0.6132 -0.2613 -1.6838
  240MPD1     N 3648   1.720   3.837  13.790 -0.7459 -0.0166  0.9823
  240MPD1    H5 3649   1.641   3.830  13.853 -2.0737  0.9926 -0.5539
  240MPD1    N1 3650   1.415   4.111  13.525 -1.0762 -0.1692 -0.4468
  240MPD1    H6 3651   1.404   4.140  13.428 -0.7582  0.2717 -0.3524
  240MPD1    H7 3652   1.342   4.040  13.531 -0.2338 -1.1043 -1.3453
  241MPD1     C 3653   2.347   3.343  14.553 -0.3601  0.2657  0.6478
  241MPD1    C1 3654   2.399   3.396  14.437  0.2853  0.0681 -0.0957
  241MPD1    C2 3655   2.300   3.441  14.353  0.2462 -0.4959  0.3018
  241MPD1    C3 3656   2.163   3.409  14.368  0.7641 -0.0323 -0.1200
  241MPD1    C4 3657   2.120   3.339  14.481 -0.3357 -0.0127  1.0257
  241MPD1    C5 3658   2.215   3.323  14.574  0.8013 -0.3902  0.0735
  241MPD1     H 3659   2.326   3.503  14.267 -0.6492  2.0996  1.8973
  241MPD1    H1 3660   2.018   3.307  14.496 -0.0522 -1.8041 -0.8240
  241MPD1    H2 3661   2.416   3.314  14.631  0.8421 -0.7689 -0.8035
  241MPD1    H3 3662   2.188   3.296  14.676  0.8921 -2.3760 -0.4441
  241MPD1     N 3663   2.067   3.432  14.272  0.0543 -0.0005  0.1696
  241MPD1    H5 3664   1.974   3.403  14.300  0.7835  1.2016  3.8035
  241MPD1    N1 3665   2.525   3.453  14.435  0.1462 -0.0734 -0.6368
  241MPD1    H6 3666   2.593   3.393  14.481 -0.1436  1.1487  1.3555
  241MPD1    H7 3667   2.565   3.473  14.343 -0.6883  1.3760 -0.6927
  242MPD1     C 3668   1.451   2.190  15.706 -0.6256 -0.6117  0.6040
  242MPD1    C1 3669   1.415   2.266  15.601 -0.0276  0.1434 -0.0352
  242MPD1    C2 3670   1.431   2.215  15.475  1.0385 -0.5260 -0.3143
  242MPD1    C3 3671   1.469   2.088  15.455 -0.1434  0.1972  0.0167
  242MPD1    C4 3672   1.491   2.007  15.562  0.4784  0.0297 -1.2708
  242MPD1    C5 3673   1.469   2.054  15.689  0.4768  0.2737  0.0694
  242MPD1     H 3674   1.402   2.278  15.392 -1.9842  0.2801  1.3692
  242MPD1    H1 3675   1.508   1.902  15.540  0.6019  0.0653 -1.3486
  242MPD1    H2 3676   1.451   2.226  15.808 -0.4454 -1.2229  0.8224
  242MPD1    H3 3677   1.485   1.991  15.776  0.7775 -0.3663 -0.4484
  242MPD1     N 3678   1.509   2.043  15.333 -0.1441  0.1220  0.2191
  242MPD1    H5 3679   1.547   1.949  15.334  0.6661  0.4504  0.2134
  242MPD1    N1 3680   1.404   2.405  15.605 -0.0597  0.5924 -0.2791
  242MPD1    H6 3681   1.357   2.442  15.522 -0.4290 -1.5143 -1.0129
  242MPD1    H7 3682   1.354   2.440  15.687  1.3626 -1.9523  1.6553
  243MPD1     C 3683   2.203   0.889  17.624  0.0480  0.2554  0.1861
  243MPD1    C1 3684   2.294   0.984  17.647  0.1519  0.1405 -0.2981
  243MPD1    C2 3685   2.420   0.953  17.594 -0.5131 -0.3793 -0.0638
  243MPD1    C3 3686   2.454   0.830  17.532  0.3271  0.2258  0.6822
  243MPD1    C4 3687   2.353   0.736  17.521 -0.3778 -0.7575  0.1105
  243MPD1    C5 3688   2.229   0.765  17.568  0.2812  0.1144 -0.6580
  243MPD1     H 3689   2.489   1.037  17.591  0.4582 -1.0403  3.5780
  243MPD1    H1 3690   2.373   0.644  17.468  1.7456 -0.4425  0.3652
  243MPD1    H2 3691   2.098   0.908  17.647 -0.4022 -0.7875 -1.0317
  243MPD1    H3 3692   2.146   0.698  17.546  1.6142 -1.8695  0.3043
  243MPD1     N 3693   2.586   0.810  17.483  0.4576  0.0811 -0.3227
  243MPD1    H5 3694   2.659   0.872  17.519  3.1565 -2.2933 -1.7100
  243MPD1    N1 3695   2.254   1.111  17.694  0.4857 -0.2367  0.1761
  243MPD1    H6 3696   2.326   1.146   0.051  1.0610 -1.1800  0.0498
  243MPD1    H7 3697   2.169   1.104   0.042  1.3835  1.6488  1.8066
  244MPD1     C 3698   3.183   0.902   0.334 -0.2694 -0.3086  0.4171
  244MPD1    C1 3699   3.046   0.909   0.332 -0.0873  0.0164  0.6968
  244MPD1    C2 3700   2.982   0.866   0.220  0.4357 -0.5148 -0.7785
  244MPD1    C3 3701   3.058   0.803   0.125 -0.7963  0.1532 -0.3559
  244MPD1    C4 3702   3.197   0.792   0.131  0.4196  0.2242 -0.5105
  244MPD1    C5 3703   3.262   0.845   0.238 -0.3181 -0.9968 -0.2165
  244MPD1     H 3704   2.875   0.886   0.215  0.1316 -1.7691  0.7747
  244MPD1    H1 3705   3.262   0.746   0.057  2.3727  0.1107  1.2722
  244MPD1    H2 3706   3.234   0.954   0.414 -1.8950  0.5324  0.9193
  244MPD1    H3 3707   3.370   0.854   0.243 -0.2412 -0.4006 -3.1555
  244MPD1     N 3708   2.996   0.757   0.006 -0.8568 -0.8142 -0.5663
  244MPD1    H5 3709   2.901   0.790  17.701 -0.2836  0.7181 -0.8089
  244MPD1    N1 3710   2.977   0.990   0.425  0.7662 -0.3500 -0.2777
  244MPD1    H6 3711   2.885   0.952   0.447  0.3068  0.9853  0.1111
  244MPD1    H7 3712   3.023   0.979   0.514  1.0665  1.1240 -0.2460
  245MPD1     C 3713   0.205   1.083  13.016  0.5606  0.2645  0.4228
  245MPD1    C1 3714   0.149   1.122  13.134 -0.6256 -0.1957 -0.6119
  245MPD1    C2 3715   0.204   1.239  13.187  0.5226  0.0381  0.5713
  245MPD1    C3 3716   0.311   1.307  13.132 -0.4693 -0.3411  0.4812
  245MPD1    C4 3717   0.363   1.257  13.017 -0.3508  0.0132 -0.1386
  245MPD1    C5 3718   0.305   1.149  12.958  0.3511 -0.3870  0.2033
  245MPD1     H 3719   0.169   1.283  13.280  0.1349 -1.1194  0.9642
  245MPD1    H1 3720   0.439   1.302  12.954  0.1646 -1.0902 -0.2894
  245MPD1    H2 3721   0.170   0.991  12.972 -1.3181  0.6502  1.1126
  245MPD1    H3 3722   0.355   1.106  12.871  0.5746 -1.6023  0.9327
  245MPD1     N 3723   0.363   1.420  13.200  0.5965 -0.0633 -0.2569
  245MPD1    H5 3724   0.316   1.452  13.283 -0.0542  2.1477 -1.4707
  245MPD1    N1 3725   0.042   1.056  13.193  0.4509 -0.0182 -0.3814
  245MPD1    H6 3726   0.034   1.086  13.290 -2.0859 -0.3122 -0.4997
  245MPD1    H7 3727   0.066   0.957  13.189  0.5040  0.0382 -1.4737
  246MPD1     C 3728   0.821   1.472   7.315  0.9492 -0.1228 -0.2021
  246MPD1    C1 3729   0.720   1.518   7.389 -0.3639  0.9495  0.1693
  246MPD1    C2 3730   0.639   1.423   7.445  0.2512 -0.2172 -0.0336
  246MPD1    C3 3731   0.659   1.284   7.433  0.1036  0.1086 -0.2175
  246MPD1    C4 3732   0.760   1.245   7.341 -0.2258 -0.3157  0.0076
  246MPD1    C5 3733   0.838   1.337   7.285 -0.2415 -0.9363  0.0160
  246MPD1     H 3734   0.547   1.450   7.496  0.2964  0.5950 -0.3685
  246MPD1    H1 3735   0.778   1.140   7.322 -0.1082 -0.6954  2.2961
  246MPD1    H2 3736   0.896   1.542   7.280 -0.5158  1.4757 -0.0682
  246MPD1    H3 3737   0.931   1.301   7.243  0.8584 -0.6835  2.2060
  246MPD1     N 3738   0.576   1.205   7.506 -0.8154  0.0181  0.5086
  246MPD1    H5 3739   0.514   1.248   7.574 -0.2978 -1.1808  1.7630
  246MPD1    N1 3740   0.715   1.643   7.445  0.1767  0.3202 -0.1843
  246MPD1    H6 3741   0.725   1.719   7.378 -0.6339  1.2067  0.7001
  246MPD1    H7 3742   0.619   1.647   7.478  0.6238  0.0857  1.1689
  247MPD1     C 3743   4.287   1.004  16.772 -0.0757 -0.2316 -0.3697
  247MPD1    C1 3744   4.279   1.106  16.684 -0.8108  0.3338  0.5745
  247MPD1    C2 3745   4.367   1.103  16.573 -0.4758  0.5969 -0.0832
  247MPD1    C3 3746   4.447   0.991  16.544 -1.1502  0.3422  0.1531
  247MPD1    C4 3747   4.441   0.887  16.635 -0.2358  0.2152 -0.7813
  247MPD1    C5 3748   4.368   0.897  16.749  0.0868  0.5091  0.6274
  247MPD1     H 3749   4.368   1.186  16.504 -0.9104 -0.6278 -1.5702
  247MPD1    H1 3750   4.497   0.796  16.618 -2.1946 -1.1677  0.1895
  247MPD1    H2 3751   4.248   1.011  16.873  0.0843  0.5989 -0.3716
  247MPD1    H3 3752   4.374   0.820  16.825  1.0909 -1.5622 -1.5544
  247MPD1     N 3753   4.527   0.984  16.426 -0.0489 -0.6360 -0.0441
  247MPD1    H5 3754   4.579   0.898  16.411 -0.3772 -0.8252 -0.1072
  247MPD1    N1 3755   4.213   1.221  16.718  0.1203  0.2051  0.3319
  247MPD1    H6 3756   4.183   1.271  16.634  1.5717  1.0344  0.3096
  247MPD1    H7 3757   4.126   1.206  16.770 -0.2096  0.3297 -0.1795
  248MPD1     C 3758   4.689   2.207  17.640 -0.4104 -0.5530 -0.2250
  248MPD1    C1 3759   4.612   2.157   0.039 -0.2878  0.0549 -0.1135
  248MPD1    C2 3760   4.634   2.021   0.070 -0.4976 -0.7717  0.2543
  248MPD1    C3 3761   0.001   1.941   0.008  0.1066  0.3169  0.1783
  248MPD1    C4 3762   0.082   1.991  17.615 -0.0850  0.7261  0.0043
  248MPD1    C5 3763   0.060   2.124  17.583  0.5481 -0.6850  0.0178
  248MPD1     H 3764   4.562   1.970   0.133  0.8951 -1.1395  1.5547
  248MPD1    H1 3765   0.158   1.934  17.563 -2.5226 -2.5790  0.0868
  248MPD1    H2 3766   4.687   2.309  17.602  2.6344 -0.0093  1.0782
  248MPD1    H3 3767   0.112   2.156  17.493  1.4145 -0.1379  0.7228
  248MPD1     N 3768   4.726   1.800   0.040 -0.1111 -0.2588 -0.2105
  248MPD1    H5 3769   4.655   1.772   0.107  0.0137 -2.2613 -0.9364
  248MPD1    N1 3770   4.515   2.232   0.111 -0.5858  0.5210 -0.4140
  248MPD1    H6 3771   4.533   2.331   0.125  1.5847 -0.0031  0.4068
  248MPD1    H7 3772   4.499   2.202   0.206  3.0905 -1.5237 -0.4716
  249MPD1     C 3773   1.420   3.903   9.245  0.4206 -0.8098  0.1488
  249MPD1    C1 3774   1.438   3.896   9.111  0.1868 -0.6291  0.4238
  249MPD1    C2 3775   1.518   3.993   9.051 -0.3988 -0.3276  0.1497
  249MPD1    C3 3776   1.581   4.095   9.123  0.9629 -0.5877 -0.4325
  249MPD1    C4 3777   1.552   4.105   9.253 -0.1222  0.5839  0.6656
  249MPD1    C5 3778   1.473   4.011   9.313  0.0145  0.6615 -0.9195
  249MPD1     H 3779   1.538   3.985   8.944 -0.2968  4.0084 -0.1328
  249MPD1    H1 3780   1.587   4.184   9.318  1.2848 -0.1031  0.7379
  249MPD1    H2 3781   1.385   3.824   9.310  1.0318 -0.5653  0.7750
  249MPD1    H3 3782   1.464   4.015   9.421  1.1937  0.3120 -0.8080
  249MPD1     N 3783   1.658   4.189   9.047 -0.1618  0.2549 -0.1256
  249MPD1    H5 3784   1.657   4.170   8.947  1.3177  0.9117 -0.2636
  249MPD1    N1 3785   1.392   3.780   9.047 -0.1844 -0.1035 -0.6814
  249MPD1    H6 3786   1.378   3.791   8.947  1.3612  0.7200 -0.7940
  249MPD1    H7 3787   1.305   3.744   9.086  0.3395 -0.6282  0.0113
  250MPD2     C 3788   3.578   4.482  12.445  0.1142  0.2253 -0.2717
  250MPD2    C1 3789   3.460   4.552  12.418  0.2185  0.1988 -0.1518
  250MPD2    C2 3790   3.343   4.477  12.432  0.7339  0.4069 -0.2766
  250MPD2    C3 3791   3.347   4.340  12.464 -0.3059  0.2127  0.1505
  250MPD2    C4 3792   3.466   4.275  12.494 -0.4683  0.8913 -0.3609
  250MPD2    C5 3793   3.580   4.349  12.487 -0.6778  0.2630  0.1785
  250MPD2     H 3794   3.255   4.535  12.409 -0.4241 -1.2017  0.0859
  250MPD2    H1 3795   3.473   4.170  12.518  0.5515  1.1157  0.2906
  250MPD2    H2 3796   3.668   4.541  12.437 -2.1908  3.7546 -0.4297
  250MPD2    H3 3797   3.676   4.307  12.515 -0.0521  1.8093  0.3337
  250MPD2     N 3798   3.225   4.266  12.476  1.3486  0.7288  0.6836
  250MPD2    H5 3799   3.238   4.167  12.492  0.2787  0.1962 -1.6693
  250MPD2    N1 3800   3.464   4.691  12.379 -0.3126  0.5431  0.2862
  250MPD2    H7 3801   3.551   0.015  12.385  0.0432  0.1459 -1.7076
  251TMC3    C1 3802   3.404   0.173  12.312 -0.5517 -0.1232  0.7112
  251TMC3    C2 3803   3.342   0.271  12.381 -0.5420 -0.1731  0.2553
  251TMC3    C3 3804   3.391   0.398  12.378 -1.1711 -0.5084  0.1042
  251TMC3    C4 3805   3.518   0.192  12.238 -0.3272  0.0924 -0.4513
  251TMC3    C5 3806   3.569   0.320  12.241 -0.2201 -0.2001 -0.3341
  251TMC3    C6 3807   3.505   0.424  12.306  0.3427  0.2512  0.6387
  251TMC3     C 3808   3.359   0.039  12.341  0.3849  0.1896 -0.1454
  251TMC3     O 3809   3.238   0.020  12.363  0.6885 -0.3569  0.7236
  251TMC3     H 3810   3.253   0.249  12.438 -0.7339  0.3354  0.1493
  251TMC3    H1 3811   3.567   0.113  12.183 -1.6132  0.3710 -2.0152
  251TMC3    H2 3812   3.549   0.522  12.322 -0.8302  1.1137 -1.4704
  251TMC3    C7 3813   3.716   0.317  12.236  0.0932 -0.5595  0.7552
  251TMC3    C8 3814   3.351   0.487  12.484  0.4422  0.5500  0.2665
  251TMC3    O1 3815   3.764   0.210  12.192 -0.5400 -0.0656  0.5147
  251TMC3    O2 3816   3.337   0.434  12.590 -0.4750 -0.2124  0.6373
  252TMC3    C1 3817   3.020   1.009   8.805 -0.1290  0.3764 -0.5893
  252TMC3    C2 3818   3.147   1.064   8.802  0.2932 -0.0987  0.4105
  252TMC3    C3 3819   3.255   0.981   8.831 -0.0040 -0.0510 -0.1899
  252TMC3    C4 3820   2.997   0.881   8.858  0.2275  0.3261  0.5588
  252TMC3    C5 3821   3.108   0.810   8.899 -0.4123 -0.1573  0.1114
  252TMC3    C6 3822   3.237   0.852   8.882 -1.1874 -0.3291  0.2355
  252TMC3     C 3823   2.911   1.104   8.776  0.2700  0.6424  0.0604
  252TMC3     O 3824   2.940   1.220   8.754  0.0916 -0.2287  0.4163
  252TMC3     H 3825   3.151   1.167   8.767 -0.3928  0.6006  2.4206
  252TMC3    H1 3826   2.900   0.843   8.887  0.5570 -0.6749  0.3526
  252TMC3    H2 3827   3.316   0.780   8.895  1.4168  2.1632 -1.8766
  252TMC3    C7 3828   3.094   0.672   8.922 -0.0227  0.3509  1.0572
  252TMC3    C8 3829   3.387   1.037   8.822 -0.3131 -0.1099 -0.0120
  252TMC3    O1 3830   2.993   0.621   8.879 -0.0176 -0.2319 -0.3102
  252TMC3    O2 3831   3.386   1.150   8.777  0.0409  0.4367  0.1459
  253MPD2     C 3832   4.479   0.083  14.466  0.4463 -0.4827  0.6645
  253MPD2    C1 3833   4.366   0.023  14.511 -0.3400  0.3242 -0.0111
  253MPD2    C2 3834   4.343   0.027  14.651  0.8278 -0.2643 -0.4871
  253MPD2    C3 3835   4.416   0.107  14.741 -0.0878  0.0647 -0.8644
  253MPD2    C4 3836   4.527   0.164  14.688  0.3974  0.1853  0.2522
  253MPD2    C5 3837   4.555   0.146  14.558 -0.2172 -0.7110  0.7656
  253MPD2     H 3838   4.260   4.703  14.698  1.4144 -1.5068 -0.7868
  253MPD2    H1 3839   4.580   0.235  14.751 -2.2104 -0.2720  2.9639
  253MPD2    H2 3840   4.504   0.076  14.361  1.4919  0.0330  0.8687
  253MPD2    H3 3841   4.645   0.200  14.531 -1.1788  0.5820  0.1062
  253MPD2     N 3842   4.382   0.122  14.876 -0.6122 -0.3442  0.4008
  253MPD2    H5 3843   4.444   0.178  14.932  0.0852 -0.1396 -0.5844
  253MPD2    N1 3844   4.286   4.681  14.415  0.4499 -0.7588  0.3833
  253MPD2    H7 3845   4.337   4.656  14.331 -0.1219  0.3198 -0.2791
  254TMC3    C1 3846   4.255   0.116  15.073 -0.1106 -0.4072 -0.2198
  254TMC3    C2 3847   4.134   0.148  15.115  0.1006  0.6503 -0.8332
  254TMC3    C3 3848   4.122   0.225  15.229  0.0901 -0.1022 -0.6485
  254TMC3    C4 3849   4.366   0.131  15.148 -0.2528 -0.3917  0.9490
  254TMC3    C5 3850   4.353   0.233  15.247  0.9944 -0.5284  0.1214
  254TMC3    C6 3851   4.230   0.267  15.296 -0.0065  0.3248  0.8495
  254TMC3     C 3852   4.272   0.064  14.940 -0.2698  0.7600 -0.8818
  254TMC3     O 3853   4.168   0.019  14.892  0.4017  0.0362 -0.3182
  254TMC3     H 3854   4.043   0.136  15.058  0.1002 -1.0353 -0.4816
  254TMC3    H1 3855   4.466   0.108  15.112  0.2517  1.7575  0.9993
  254TMC3    H2 3856   4.222   0.342  15.374  0.6258  0.2515  0.9895
  254TMC3    C7 3857   4.452   0.236  15.357 -0.2549  0.4841 -0.4691
  254TMC3    C8 3858   3.995   0.214  15.306 -0.1480 -0.7561 -0.4417
  254TMC3    O1 3859   4.404   0.265  15.468 -0.3282 -0.0046  0.2356
  254TMC3    O2 3860   3.993   0.290  15.401 -0.4728 -0.3234 -0.1925
  255MPD2     C 3861   3.548   2.119  10.198  0.2274  1.0459 -0.0369
  255MPD2    C1 3862   3.429   2.071  10.134 -0.5025 -0.2578 -0.0365
  255MPD2    C2 3863   3.420   1.937  10.111  0.1161 -0.4485  0.1209
  255MPD2    C3 3864   3.527   1.854  10.143  0.2118  0.0624 -0.3368
  255MPD2    C4 3865   3.645   1.904  10.193  0.5210 -0.5180 -0.4978
  255MPD2    C5 3866   3.653   2.036  10.228 -0.0333  0.8290  0.4268
  255MPD2     H 3867   3.334   1.904  10.053  2.7510 -2.6232 -2.5629
  255MPD2    H1 3868   3.738   1.849  10.185  0.4299 -0.6079 -0.9190
  255MPD2    H2 3869   3.555   2.226  10.216 -0.2885  0.6976  2.2165
  255MPD2    H3 3870   3.750   2.076  10.253 -0.5291  3.2517 -1.5795
  255MPD2     N 3871   3.530   1.727  10.088 -0.4638 -0.1699  0.2334
  255MPD2    H5 3872   3.441   1.700  10.047 -0.2641 -1.7839  0.8841
  255MPD2    N1 3873   3.321   2.162  10.113  0.6130  0.2536  0.3124
  255MPD2    H7 3874   3.346   2.259  10.133 -0.6015  0.4982  0.6764
  256TMC3    C1 3875   3.138   2.243   9.997 -0.2006  0.6214 -0.3240
  256TMC3    C2 3876   3.181   2.368  10.033  0.1517  0.4533 -0.6244
  256TMC3    C3 3877   3.122   2.474   9.978 -0.5585 -0.2653 -0.5731
  256TMC3    C4 3878   3.037   2.230   9.906  0.0411  0.3247  0.2006
  256TMC3    C5 3879   2.973   2.339   9.857 -0.2639  0.0610 -0.2931
  256TMC3    C6 3880   3.017   2.462   9.896  0.9864 -0.3587 -0.0507
  256TMC3     C 3881   3.209   2.125  10.039 -0.1838  0.4602  0.5756
  256TMC3     O 3882   3.165   2.015  10.003  0.0937 -0.4154  0.2043
  256TMC3     H 3883   3.246   2.387  10.117 -3.0522  1.9194  1.5337
  256TMC3    H1 3884   3.022   2.134   9.859  1.1613 -0.2876  1.0809
  256TMC3    H2 3885   2.965   2.554   9.872 -0.4226 -0.5436  2.2727
  256TMC3    C7 3886   2.858   2.312   9.764  0.3901 -0.5445 -0.5580
  256TMC3    C8 3887   3.121   2.585  10.065  0.0092 -0.3193  0.2739
  256TMC3    O1 3888   2.821   2.192   9.774  0.1064  0.4832 -0.0048
  256TMC3    O2 3889   3.100   2.562  10.183  0.4097 -0.2629  0.2001
  257MPD2     C 3890   2.268   4.616  13.240 -0.7743 -0.2315  0.4935
  257MPD2    C1 3891   2.273   4.536  13.128 -0.2745  0.2613 -0.1267
  257MPD2    C2 3892   2.245   4.404  13.145  0.3245  0.1076 -0.1415
  257MPD2    C3 3893   2.215   4.348  13.272 -0.0306  0.2119 -0.0029
  257MPD2    C4 3894   2.203   4.438  13.380 -0.3268 -0.4299  0.7200
  257MPD2    C5 3895   2.248   4.566  13.364  0.2596  0.8064 -0.3113
  257MPD2     H 3896   2.243   4.333  13.063 -2.0261 -0.2085  0.1817
  257MPD2    H1 3897   2.169   4.402  13.477 -1.9931 -0.5647  0.0974
  257MPD2    H2 3898   2.293   4.721  13.226 -1.5018 -0.2376 -0.8513
  257MPD2    H3 3899   2.242   4.628  13.453  1.4835  0.8523 -0.2621
  257MPD2     N 3900   2.173   4.220  13.287 -0.0023  0.5873  0.5289
  257MPD2    H5 3901   2.171   4.167  13.200 -0.3265 -1.2405  1.6696
  257MPD2    N1 3902   2.319   4.593  13.000  0.3264 -0.5110 -0.6639
  257MPD2    H7 3903   2.353   4.688  12.991  0.7032 -0.4870  0.9174
  258TMC3    C1 3904   2.118   4.019  13.382 -0.1178 -0.1993 -0.1718
  258TMC3    C2 3905   2.029   3.980  13.284 -0.6773 -0.5791  0.1180
  258TMC3    C3 3906   2.017   3.846  13.260 -0.0983 -0.0475  0.0758
  258TMC3    C4 3907   2.174   3.935  13.468  0.4065  0.0402  0.2540
  258TMC3    C5 3908   2.148   3.802  13.445 -0.5027  0.8823 -0.5061
  258TMC3    C6 3909   2.090   3.753  13.333  0.1461  0.1536 -0.1130
  258TMC3     C 3910   2.128   4.161  13.400  0.5313 -0.6547 -0.1430
  258TMC3     O 3911   2.122   4.196  13.515 -0.2750  0.1171  0.7184
  258TMC3     H 3912   1.975   4.055  13.227 -0.9426 -1.1560 -0.3757
  258TMC3    H1 3913   2.213   3.969  13.563 -0.1000  0.3491  0.3508
  258TMC3    H2 3914   2.098   3.647  13.313 -2.5406  0.0513 -0.7275
  258TMC3    C7 3915   2.220   3.706  13.519 -0.2409 -0.1043 -0.0429
  258TMC3    C8 3916   1.920   3.807  13.165  0.4053  0.0298 -1.1615
  258TMC3    O1 3917   2.163   3.598  13.529  0.4341  0.2929 -0.2304
  258TMC3    O2 3918   1.883   3.901  13.096 -0.2281  0.2221 -0.3062
  259MPD2     C 3919   4.694   1.617   0.915 -0.1905  0.0852  0.0282
  259MPD2    C1 3920   0.094   1.661   0.954  0.4212 -0.1209  0.8282
  259MPD2    C2 3921   0.209   1.589   0.936  0.2243 -0.3698 -0.2572
  259MPD2    C3 3922   0.203   1.467   0.870  0.2886  0.0440  0.2372
  259MPD2    C4 3923   0.074   1.424   0.823 -0.1979 -1.0603  0.0365
  259MPD2    C5 3924   4.687   1.494   0.855 -0.1248  0.3437  0.0917
  259MPD2     H 3925   0.306   1.621   0.972  0.9842 -0.8020 -1.9176
  259MPD2    H1 3926   0.059   1.337   0.760  0.7001 -1.3246  0.1893
  259MPD2    H2 3927   4.604   1.675   0.933 -1.4315 -2.2099  1.1497
  259MPD2    H3 3928   4.593   1.450   0.825 -0.6070  2.1740 -1.0250
  259MPD2     N 3929   0.326   1.401   0.858  0.1818 -0.1897  0.3992
  259MPD2    H5 3930   0.409   1.452   0.885  0.8815 -0.3919 -1.3142
  259MPD2    N1 3931   0.099   1.778   1.028 -0.3219  0.5662 -0.7777
  259MPD2    H7 3932   0.015   1.828   1.055 -2.6940 -3.2245 -1.2026
  260TMC3    C1 3933   0.471   1.220   0.801  1.1503  0.3993  0.3105
  260TMC3    C2 3934   0.575   1.295   0.851  0.2324  0.1410 -0.5160
  260TMC3    C3 3935   0.707   1.242   0.838 -0.6405 -0.1707 -0.6723
  260TMC3    C4 3936   0.486   1.096   0.751  0.5679 -0.3096  0.4635
  260TMC3    C5 3937   0.613   1.053   0.748  0.1482  0.7505  0.0520
  260TMC3    C6 3938   0.726   1.117   0.792 -0.0335 -0.7814  0.4738
  260TMC3     C 3939   0.333   1.272   0.809 -0.5410 -0.2697  0.5761
  260TMC3     O 3940   0.244   1.188   0.786  0.0242 -0.1988 -0.4447
  260TMC3     H 3941   0.573   1.394   0.894 -1.2963 -0.1220  0.0337
  260TMC3    H1 3942   0.407   1.048   0.694 -0.2996  0.7764  0.7605
  260TMC3    H2 3943   0.823   1.069   0.788  0.0605 -0.6304  1.0170
  260TMC3    C7 3944   0.646   0.941   0.656 -0.6989 -0.4097  0.1863
  260TMC3    C8 3945   0.775   1.335   0.758  0.8968 -0.1046  0.0965
  260TMC3    O1 3946   0.768   0.925   0.638  0.6210  0.0576  0.6189
  260TMC3    O2 3947   0.752   1.454   0.783 -0.2165  0.3629  0.0342
  261MPD2     C 3948   2.601   3.951  12.032 -0.5738  0.4802  0.4985
  261MPD2    C1 3949   2.695   4.053  12.043 -0.1794  0.4168  0.4300
  261MPD2    C2 3950   2.709   4.136  11.931 -0.4649  1.1749  0.2664
  261MPD2    C3 3951   2.637   4.125  11.818 -0.3834  0.1086  0.1002
  261MPD2    C4 3952   2.542   4.023  11.818  0.1604 -0.3086 -0.2812
  261MPD2    C5 3953   2.525   3.936  11.926 -0.0950 -0.4323 -0.4113
  261MPD2     H 3954   2.769   4.226  11.932  3.0946 -1.2435  1.5909
  261MPD2    H1 3955   2.479   3.995  11.734 -2.1434  0.7577  1.0890
  261MPD2    H2 3956   2.573   3.889  12.117  0.7506 -0.5361  0.1878
  261MPD2    H3 3957   2.451   3.857  11.922  0.2508 -0.7784 -0.0095
  261MPD2     N 3958   2.662   4.217  11.706 -0.3910  0.2783 -0.1277
  261MPD2    H5 3959   2.736   4.285  11.718  0.2314 -0.4460  0.1081
  261MPD2    N1 3960   2.766   4.090  12.158 -0.6882  0.5638  0.3504
  261MPD2    H7 3961   2.831   4.166  12.144 -0.1467 -0.1136 -0.8519
  262TMC3    C1 3962   2.580   4.342  11.513 -0.6194  0.4252 -0.0977
  262TMC3    C2 3963   2.586   4.462  11.579 -0.5147 -0.1833  0.0335
  262TMC3    C3 3964   2.512   4.566  11.518 -0.4007  0.0820  0.4352
  262TMC3    C4 3965   2.506   4.329  11.399  0.5150 -0.7869 -0.2535
  262TMC3    C5 3966   2.447   4.438  11.336  0.2360  0.2292 -0.4416
  262TMC3    C6 3967   2.443   4.552  11.402  0.1070  0.6460  0.5575
  262TMC3     C 3968   2.585   4.220  11.591  0.1556  1.2042  0.0950
  262TMC3     O 3969   2.502   4.139  11.557 -0.1552  0.3032  0.8534
  262TMC3     H 3970   2.638   4.476  11.673 -1.6146 -3.7073  1.1621
  262TMC3    H1 3971   2.492   4.229  11.359 -0.4509 -0.7406 -0.0430
  262TMC3    H2 3972   2.403   4.644  11.361 -0.0393 -0.4534 -1.8028
  262TMC3    C7 3973   2.411   4.445  11.192 -0.0980  0.6713  0.1030
  262TMC3    C8 3974   2.530   4.703  11.560  0.4237  0.1642  0.0823
  262TMC3    O1 3975   2.320   4.528  11.162 -0.4383 -0.0383 -0.6950
  262TMC3    O2 3976   2.515   0.057  11.466 -0.5387 -0.1574 -0.3133
  263MPD2     C 3977   3.425   3.540  10.932  0.4301  0.0274 -0.2104
  263MPD2    C1 3978   3.559   3.515  10.910 -0.2883 -0.1897  0.1031
  263MPD2    C2 3979   3.639   3.612  10.846  0.4098  0.2292 -0.2119
  263MPD2    C3 3980   3.584   3.729  10.811  0.2653  0.1575  0.9392
  263MPD2    C4 3981   3.443   3.748  10.820  0.1404  0.4170 -0.3490
  263MPD2    C5 3982   3.366   3.653  10.880 -0.5035 -0.9251  0.6976
  263MPD2     H 3983   3.746   3.600  10.834  0.6651  0.3592  2.0337
  263MPD2    H1 3984   3.397   3.833  10.772  1.3139  1.1256 -0.2145
  263MPD2    H2 3985   3.359   3.469  10.980 -0.6991 -0.7008 -2.8108
  263MPD2    H3 3986   3.258   3.656  10.887 -0.6333 -1.8666 -1.0018
  263MPD2     N 3987   3.667   3.825  10.749 -0.1864  0.5043 -0.0848
  263MPD2    H5 3988   3.758   3.795  10.714 -0.8011  1.1649 -2.2769
  263MPD2    N1 3989   3.618   3.400  10.971 -0.1650 -0.2469  0.3954
  263MPD2    H7 3990   3.715   3.394  10.943  0.0865 -1.8708  1.6460
  264TMC3    C1 3991   3.712   4.026  10.628  0.3209  0.3077 -0.6863
  264TMC3    C2 3992   3.661   4.148  10.597 -1.1167  0.1990 -0.9765
  264TMC3    C3 3993   3.690   4.208  10.481 -0.0863 -0.9089 -0.2802
  264TMC3    C4 3994   3.807   3.962  10.557  0.6658  0.4294  0.2182
  264TMC3    C5 3995   3.842   4.024  10.444  0.1079  0.4937  0.5213
  264TMC3    C6 3996   3.776   4.140  10.405 -0.2431 -0.6074 -0.1850
  264TMC3     C 3997   3.638   3.955  10.735  0.1376  0.4403 -0.3641
  264TMC3     O 3998   3.550   4.019  10.783  0.7460  0.2747  0.8122
  264TMC3     H 3999   3.594   4.200  10.665 -1.4903 -2.8375  0.9883
  264TMC3    H1 4000   3.836   3.859  10.575  1.0987  0.3852 -0.7049
  264TMC3    H2 4001   3.785   4.168  10.301 -0.4796  1.2049  0.2932
  264TMC3    C7 4002   3.958   3.995  10.368  0.9755 -0.6343  0.8502
  264TMC3    C8 4003   3.734   4.346  10.484  0.1561  0.0897  0.5107
  264TMC3    O1 4004   4.002   3.884  10.392  0.2815 -0.4276  0.0378
  264TMC3    O2 4005   3.817   4.373  10.398  0.4030 -0.4001  0.5784
  265MPD2     C 4006   1.132   4.400  15.173 -0.1452  0.0648  0.5302
  265MPD2    C1 4007   1.198   4.517  15.144  0.4664 -0.0978  0.4078
  265MPD2    C2 4008   1.302   4.512  15.047 -0.1572 -0.5703 -0.1418
  265MPD2    C3 4009   1.317   4.401  14.963  0.2386  0.3286 -0.3511
  265MPD2    C4 4010   1.242   4.296  14.987  0.4865 -0.5182  0.4282
  265MPD2    C5 4011   1.149   4.296  15.086  0.0387  0.8952  1.3599
  265MPD2     H 4012   1.371   4.594  15.029 -1.8493 -0.2659 -5.4825
  265MPD2    H1 4013   1.250   4.210  14.922  0.8807 -0.5061  0.4608
  265MPD2    H2 4014   1.046   4.395  15.238 -0.7481 -0.3938 -0.3022
  265MPD2    H3 4015   1.084   4.211  15.096 -1.0941  1.6489  0.3925
  265MPD2     N 4016   1.412   4.378  14.852  0.7453 -0.5944  0.2311
  265MPD2    H5 4017   1.405   4.297  14.792 -0.7423  0.7711 -1.4239
  265MPD2    N1 4018   1.188   4.634  15.221  0.0906  0.4513  0.4375
  265MPD2    H7 4019   1.242   4.719  15.209  1.7254 -0.6200  0.2989
  266TMC3    C1 4020   1.108   0.040  15.403 -0.1111 -1.0368 -0.2069
  266TMC3    C2 4021   1.138   0.060  15.533  0.3918  1.1938 -0.3802
  266TMC3    C3 4022   1.098   0.173  15.595 -0.0897  0.1697  0.4264
  266TMC3    C4 4023   1.034   0.124  15.332 -0.2083 -0.3084  0.1850
  266TMC3    C5 4024   0.997   0.245  15.396  0.2583  0.4749  0.1413
  266TMC3    C6 4025   1.043   0.275  15.521  0.8249  1.1271  1.0357
  266TMC3     C 4026   1.120   4.639  15.346 -0.2712  0.2537 -0.1763
  266TMC3     O 4027   1.063   4.547  15.406 -0.3158  0.2600 -0.3255
  266TMC3     H 4028   1.181   4.698  15.578  0.2950  1.9831  1.2892
  266TMC3    H1 4029   0.986   0.098  15.238  3.4328  0.3158 -1.8319
  266TMC3    H2 4030   1.015   0.369  15.567 -0.4770  0.8842  0.7529
  266TMC3    C7 4031   0.893   0.321  15.331  0.3050  0.0911 -0.1579
  266TMC3    C8 4032   1.152   0.192  15.729 -0.1767  0.6740 -0.5106
  266TMC3    O1 4033   0.866   0.288  15.215 -0.4472  0.2471 -0.1442
  266TMC3    O2 4034   1.204   0.097  15.781  0.3070 -0.2571 -0.1663
  267MPD2     C 4035   2.309   1.591   0.141 -0.2246 -0.2818 -0.0594
  267MPD2    C1 4036   2.315   1.558   0.004 -0.3701  0.7372 -0.1851
  267MPD2    C2 4037   2.212   1.589  17.629  0.0602 -0.6280 -0.1333
  267MPD2    C3 4038   2.107   1.663  17.680  0.0052 -0.7072  0.4435
  267MPD2    C4 4039   2.099   1.694   0.105  0.0523  0.1170 -0.0415
  267MPD2    C5 4040   2.197   1.645   0.188 -0.6550 -0.7444 -0.6276
  267MPD2     H 4041   2.223   1.564  17.524 -0.1105  2.5463 -0.9284
  267MPD2    H1 4042   2.010   1.741   0.148  0.2769  1.3507 -0.9348
  267MPD2    H2 4043   2.393   1.593   0.210 -0.7437  0.3993  0.5552
  267MPD2    H3 4044   2.193   1.698   0.283  1.4630 -2.4724  0.4154
  267MPD2     N 4045   2.010   1.714  17.600 -0.5104 -0.0636  0.6344
  267MPD2    H5 4046   1.960   1.791  17.643  0.6680 -0.8616  3.4386
  267MPD2    N1 4047   2.436   1.492  17.673 -0.7252  0.5817 -0.2874
  267MPD2    H7 4048   2.514   1.501   0.028 -1.4257 -2.3355  1.0323
  268TMC3    C1 4049   2.606   1.375  17.558 -0.0031  0.0287  0.1324
  268TMC3    C2 4050   2.617   1.277  17.471  0.0378 -0.2010  0.3098
  268TMC3    C3 4051   2.733   1.198  17.485  0.4421  0.8963 -0.6156
  268TMC3    C4 4052   2.709   1.426  17.628 -0.1601  0.0358  0.2329
  268TMC3    C5 4053   2.822   1.349  17.637 -0.6062 -0.1857  0.3553
  268TMC3    C6 4054   2.835   1.238  17.565 -0.2845 -0.7551  0.7684
  268TMC3     C 4055   2.476   1.437  17.552  0.9579  0.4914  0.0544
  268TMC3     O 4056   2.404   1.417  17.456 -0.2069  0.1261 -0.4671
  268TMC3     H 4057   2.536   1.235  17.412  1.7484  0.3645 -2.3992
  268TMC3    H1 4058   2.698   1.521  17.679  2.0108  0.5357 -0.2259
  268TMC3    H2 4059   2.926   1.181  17.574 -0.6393 -1.7697 -1.9094
  268TMC3    C7 4060   2.934   1.381   0.023  0.3061  0.6651  0.3708
  268TMC3    C8 4061   2.773   1.111  17.388 -0.7758  0.5765  0.8875
  268TMC3    O1 4062   2.990   1.289   0.078  0.6363 -0.2712 -0.4561
  268TMC3    O2 4063   2.805   1.000  17.422  0.2527 -0.0148 -0.0875
  269MPD2     C 4064   3.412   4.649  15.252  0.5750  1.1916  0.6426
  269MPD2    C1 4065   3.332   0.002  15.326  0.4107  0.7517  0.3690
  269MPD2    C2 4066   3.368   0.130  15.357  0.0000 -0.4416  0.0436
  269MPD2    C3 4067   3.486   0.184  15.304 -0.0964  0.3173  0.2207
  269MPD2    C4 4068   3.574   0.096  15.234  0.1867  0.5963  0.0439
  269MPD2    C5 4069   3.535   4.695  15.214  0.0648 -0.0232  0.7276
  269MPD2     H 4070   3.295   0.190  15.411 -0.3839 -1.2368  0.4107
  269MPD2    H1 4071   3.666   0.134  15.189  1.9717 -1.9272  1.5875
  269MPD2    H2 4072   3.378   4.547  15.236 -1.1508  1.9213 -0.3825
  269MPD2    H3 4073   3.604   4.627  15.165 -1.9575 -1.0298 -0.6719
  269MPD2     N 4074   3.504   0.322  15.315  1.1178  0.4342  0.2144
  269MPD2    H5 4075   3.433   0.370  15.369 -0.5652 -2.7025  0.7811
  269MPD2    N1 4076   3.206   4.681  15.359  0.0373  0.3222 -0.4550
  269MPD2    H7 4077   3.191   4.580  15.355 -1.6584  0.4786  2.0083
  270TMC3    C1 4078   3.011   4.638  15.459  0.1667  0.2501 -0.7453
  270TMC3    C2 4079   2.892   4.644  15.395 -0.0177 -0.0146  0.2352
  270TMC3    C3 4080   2.849   4.525  15.336  0.3743  0.5768  0.4734
  270TMC3    C4 4081   3.065   4.515  15.481 -0.3660 -0.3853  0.0254
  270TMC3    C5 4082   3.020   4.401  15.421 -0.8508  0.5072 -0.1656
  270TMC3    C6 4083   2.900   4.396  15.346 -0.7601 -0.7474 -0.3796
  270TMC3     C 4084   3.100   0.016  15.420 -0.7304 -0.7986  0.7968
  270TMC3     O 4085   3.078   0.130  15.461 -0.3358 -0.0457  0.4607
  270TMC3     H 4086   2.873   0.011  15.344  0.2944  0.5774  1.2085
  270TMC3    H1 4087   3.159   4.514  15.534  0.4720 -0.3299 -1.4772
  270TMC3    H2 4088   2.859   4.309  15.297  2.4283 -1.4375 -1.8388
  270TMC3    C7 4089   3.117   4.327  15.360  0.0728 -0.1384 -0.1173
  270TMC3    C8 4090   2.789   4.538  15.202  0.1611  0.0985  0.7808
  270TMC3    O1 4091   3.232   4.375  15.356  0.2768  0.2652 -0.2040
  270TMC3    O2 4092   2.701   4.619  15.191 -0.2628 -0.0450 -0.2655
  271MPD2     C 4093   3.066   4.657  13.412 -0.5581 -0.6662 -0.1324
  271MPD2    C1 4094   2.981   4.705  13.512 -0.4167 -0.6583  0.0670
  271MPD2    C2 4095   2.874   0.059  13.471  0.6181 -0.1445 -0.2394
  271MPD2    C3 4096   2.862   0.102  13.344  0.6145  0.1248 -0.8777
  271MPD2    C4 4097   2.941   0.050  13.248 -1.0509  0.1214  0.1251
  271MPD2    C5 4098   3.043   4.687  13.280  0.0814  0.5946  0.0346
  271MPD2     H 4099   2.800   0.086  13.545 -0.4698  0.3181 -1.5001
  271MPD2    H1 4100   2.943   0.083  13.144  1.9685 -1.2093 -0.2592
  271MPD2    H2 4101   3.145   4.583  13.418 -1.0975 -1.2318  0.0092
  271MPD2    H3 4102   3.109   4.639  13.209 -1.5280  1.3428 -1.9764
  271MPD2     N 4103   2.759   0.193  13.310 -0.6076 -0.1664 -0.2797
  271MPD2    H5 4104   2.748   0.201  13.210 -0.1302 -3.0563 -0.5676
  271MPD2    N1 4105   2.982   4.644  13.642  0.1604 -0.0118  0.3648
  271MPD2    H7 4106   2.900   4.666  13.698  1.0280  1.8635  0.9034
  272TMC3    C1 4107   3.053   4.479  13.812 -0.1622 -0.4609  0.4145
  272TMC3    C2 4108   3.163   4.415  13.858  0.5214 -0.7036 -0.0181
  272TMC3    C3 4109   3.157   4.345  13.975 -0.1276  0.2025  0.2473
  272TMC3    C4 4110   2.939   4.490  13.887 -0.4796  0.8649  0.8203
  272TMC3    C5 4111   2.935   4.426  14.008 -0.0505  1.2257 -0.5225
  272TMC3    C6 4112   3.044   4.355  14.052 -0.0852  0.5342  0.0196
  272TMC3     C 4113   3.083   4.558  13.687  0.2524  0.0659 -0.1372
  272TMC3     O 4114   3.197   4.555  13.643 -0.7971 -0.1702  0.4802
  272TMC3     H 4115   3.257   4.418  13.803  0.6154 -3.0749  0.0108
  272TMC3    H1 4116   2.852   4.539  13.844 -0.2947 -0.3365 -0.9002
  272TMC3    H2 4117   3.039   4.295  14.142 -0.6960  0.2193 -0.2222
  272TMC3    C7 4118   2.824   4.446  14.096 -0.0279 -0.4540 -0.1965
  272TMC3    C8 4119   3.256   4.254  14.016  0.1609 -0.0214  0.1156
  272TMC3    O1 4120   2.711   4.459  14.050 -0.7001  0.1997  0.8422
  272TMC3    O2 4121   3.238   4.206  14.125  0.2865  0.2600 -0.2612
  273MPD2     C 4122   4.161   2.048  11.566  0.8520 -0.1978  0.4958
  273MPD2    C1 4123   4.217   2.177  11.565  0.4465 -0.6320 -0.0361
  273MPD2    C2 4124   4.222   2.242  11.440 -0.2163  0.2387 -0.5359
  273MPD2    C3 4125   4.185   2.186  11.321 -0.2774  0.4246  0.5566
  273MPD2    C4 4126   4.145   2.062  11.328  0.1947 -0.4657 -0.5919
  273MPD2    C5 4127   4.122   1.995  11.444  0.4786  0.0629  0.3981
  273MPD2     H 4128   4.262   2.343  11.439  0.5137 -0.0394  0.3983
  273MPD2    H1 4129   4.104   2.004  11.247  1.2286 -0.4826 -1.1002
  273MPD2    H2 4130   4.147   1.989  11.656 -0.3226  0.5657  0.8272
  273MPD2    H3 4131   4.084   1.893  11.433 -0.7727  0.6226 -0.4395
  273MPD2     N 4132   4.207   2.242  11.194 -0.3610  0.7695  0.0989
  273MPD2    H5 4133   4.166   2.189  11.117  2.1608  0.0415 -0.7244
  273MPD2    N1 4134   4.261   2.240  11.678  0.0229 -0.1131  0.3526
  273MPD2    H7 4135   4.309   2.329  11.671  1.8645 -1.2512 -1.3766
  274TMC3    C1 4136   4.284   2.410  11.038  0.1295  0.4195  0.1375
  274TMC3    C2 4137   4.205   2.363  10.930  0.4737 -0.0667 -0.0688
  274TMC3    C3 4138   4.188   2.449  10.830  0.0858  0.1143 -0.4578
  274TMC3    C4 4139   4.350   2.534  11.043 -0.2383  0.5479 -0.6682
  274TMC3    C5 4140   4.325   2.610  10.930  0.3680  0.7276 -0.5801
  274TMC3    C6 4141   4.250   2.572  10.819  0.9381 -0.0189  0.3761
  274TMC3     C 4142   4.270   2.359  11.170 -0.0506  0.0377  0.2110
  274TMC3     O 4143   4.320   2.439  11.257  0.0361 -0.3240  0.3435
  274TMC3     H 4144   4.150   2.270  10.939 -1.9941  1.4385  0.3178
  274TMC3    H1 4145   4.435   2.544  11.110 -0.5802  2.3410 -0.4988
  274TMC3    H2 4146   4.207   2.641  10.748 -0.8678 -1.2046  0.3203
  274TMC3    C7 4147   4.304   2.745  10.977  0.4389  0.3701 -0.1914
  274TMC3    C8 4148   4.087   2.408  10.738  0.0732  0.1927 -0.3706
  274TMC3    O1 4149   4.254   2.818  10.896 -0.3390 -0.1421 -0.4577
  274TMC3    O2 4150   4.040   2.297  10.759 -0.1121 -0.1389 -0.0480
  275MPD2     C 4151   4.616   0.445  14.375  0.2905 -0.1022 -0.4670
  275MPD2    C1 4152   4.520   0.478  14.464  0.8533  0.9640  0.5395
  275MPD2    C2 4153   4.390   0.432  14.452 -0.1045 -0.2364  0.0241
  275MPD2    C3 4154   4.346   0.370  14.336 -0.0641  0.3305  0.7335
  275MPD2    C4 4155   4.443   0.349  14.239  0.3825 -0.4499  0.0670
  275MPD2    C5 4156   4.576   0.377  14.261  0.4056  0.1017 -0.2762
  275MPD2     H 4157   4.317   0.452  14.530 -0.3038 -0.4342 -0.1101
  275MPD2    H1 4158   4.424   0.281  14.157 -1.8266  1.2148 -0.8180
  275MPD2    H2 4159   4.718   0.477  14.390  0.0466  0.5810 -0.3067
  275MPD2    H3 4160   4.647   0.359  14.181  0.5980 -0.8460  0.1120
  275MPD2     N 4161   4.203   0.332  14.323 -0.2612  0.4832  0.0576
  275MPD2    H5 4162   4.139   0.357  14.397 -2.6023  2.2365 -2.5863
  275MPD2    N1 4163   4.541   0.563  14.579 -0.0469 -0.2189 -0.0143
  275MPD2    H7 4164   4.456   0.585  14.630  0.7012  0.9560  0.7246
  276TMC3    C1 4165   4.638   0.712  14.732 -0.0398 -0.0936  0.6123
  276TMC3    C2 4166   4.544   0.668  14.819 -0.1954 -0.0774 -0.2130
  276TMC3    C3 4167   4.524   0.748  14.926 -0.4425 -0.2357  0.3053
  276TMC3    C4 4168   4.698   0.835  14.739 -0.0771  0.1957  0.1639
  276TMC3    C5 4169   4.654   0.919  14.837  0.2570 -0.3735  0.1889
  276TMC3    C6 4170   4.574   0.871  14.934 -0.5729 -0.4366 -0.1015
  276TMC3     C 4171   4.655   0.639  14.608 -0.1205 -0.3302  0.1557
  276TMC3     O 4172   0.022   0.673  14.538 -0.3365  0.1276  0.0103
  276TMC3     H 4173   4.512   0.564  14.817  0.9435 -0.4372  0.2747
  276TMC3    H1 4174   0.031   0.870  14.657  0.0243 -2.1447 -0.7654
  276TMC3    H2 4175   4.541   0.939  15.013  1.2791 -1.6504  1.7134
  276TMC3    C7 4176   4.726   1.039  14.870 -0.4593  0.3321  0.1260
  276TMC3    C8 4177   4.388   0.722  14.984 -0.7860  0.0172  0.0739
  276TMC3    O1 4178   4.712   1.064  14.986  0.2836  0.0814  0.5472
  276TMC3    O2 4179   4.374   0.758  15.099  0.3632 -0.2054 -0.1062
  277MPD2     C 4180   1.462   4.508  12.946  0.5172 -0.4817 -0.1444
  277MPD2    C1 4181   1.344   4.571  12.973 -0.3339 -0.5437 -0.4078
  277MPD2    C2 4182   1.262   4.519  13.068 -0.1266 -0.6810  0.3166
  277MPD2    C3 4183   1.289   4.398  13.131 -0.0548  0.4980 -0.0625
  277MPD2    C4 4184   1.413   4.333  13.098  0.1228  0.4355  0.3166
  277MPD2    C5 4185   1.493   4.387  13.008 -0.4172  0.1644  0.2581
  277MPD2     H 4186   1.166   4.563  13.090  2.1356  4.3246  0.2346
  277MPD2    H1 4187   1.446   4.242  13.146 -2.1727  0.5443  2.0897
  277MPD2    H2 4188   1.533   4.545  12.873 -1.1161  2.0238 -0.4498
  277MPD2    H3 4189   1.579   4.332  12.974  1.3015  3.7320 -1.1828
  277MPD2     N 4190   1.191   4.345  13.219  0.4346 -0.1078  0.3390
  277MPD2    H5 4191   1.108   4.403  13.225  0.4119  0.0418 -1.3292
  277MPD2    N1 4192   1.314   4.684  12.898  0.1918  0.1120 -0.3449
  277MPD2    H7 4193   1.391   4.711  12.837  0.0355  2.3060  0.4349
  278TMC3    C1 4194   1.054   4.200  13.341 -0.1857 -0.6268 -0.5732
  278TMC3    C2 4195   1.014   4.070  13.318  0.1216 -0.4477  0.1543
  278TMC3    C3 4196   0.883   4.048  13.313 -0.1853  0.3866 -0.2836
  278TMC3    C4 4197   0.980   4.307  13.351 -0.2114  0.6449 -0.4393
  278TMC3    C5 4198   0.848   4.279  13.364 -0.5175  0.1085  0.3019
  278TMC3    C6 4199   0.796   4.154  13.338  0.3072  0.5835  0.5249
  278TMC3     C 4200   1.187   4.231  13.285  0.0731 -0.5440  0.7442
  278TMC3     O 4201   1.264   4.136  13.267 -0.0788  0.2361  0.0695
  278TMC3     H 4202   1.081   3.987  13.300 -1.0326 -1.3080 -0.2375
  278TMC3    H1 4203   1.022   4.403  13.380  1.9980 -0.1790 -0.9604
  278TMC3    H2 4204   0.690   4.129  13.340  0.7996 -1.5100  0.1767
  278TMC3    C7 4205   0.765   4.381  13.431  0.2466  0.3886 -0.4485
  278TMC3    C8 4206   0.845   3.910  13.322  0.9674  0.3764 -0.5506
  278TMC3    O1 4207   0.796   4.492  13.408 -1.1625 -0.0340 -0.0362
  278TMC3    O2 4208   0.927   3.835  13.368 -0.5214 -0.2957 -0.0140
  279MPD2     C 4209   0.375   4.658  17.623 -0.4301 -0.1747 -0.2105
  279MPD2    C1 4210   0.312   4.605  17.515 -0.2309 -0.3079  0.2946
  279MPD2    C2 4211   0.353   4.641  17.383  0.4660  0.4677  0.7531
  279MPD2    C3 4212   0.460   0.006  17.370 -0.3916  0.1550  0.0249
  279MPD2    C4 4213   0.526   0.061  17.478  0.3762  0.6760  0.4267
  279MPD2    C5 4214   0.479   0.023  17.602 -0.6804 -0.8720 -0.4269
  279MPD2     H 4215   0.316   4.601  17.290 -2.2165  0.9967  1.5963
  279MPD2    H1 4216   0.612   0.127  17.473 -0.4796  1.7251 -0.3059
  279MPD2    H2 4217   0.354   4.618   0.014  0.9930  1.7963  0.9118
  279MPD2    H3 4218   0.540   0.057  17.686 -0.8412 -1.3575 -0.1171
  279MPD2     N 4219   0.503   0.053  17.248 -0.1472  0.1536 -0.2997
  279MPD2    H5 4220   0.585   0.111  17.254  0.2116 -0.3485 -0.3081
  279MPD2    N1 4221   0.200   4.529  17.542  0.0506  0.3272  0.1786
  279MPD2    H7 4222   0.171   4.510  17.638  1.7648 -1.7607  0.3024
  280TMC3    C1 4223   4.713   4.456  17.472 -0.1528 -0.6402  0.0497
  280TMC3    C2 4224   4.644   4.411  17.363  0.2361 -0.2615  0.5097
  280TMC3    C3 4225   4.516   4.457  17.349 -0.5784  0.0641 -0.2918
  280TMC3    C4 4226   4.657   4.550  17.549  0.2891  0.1775 -0.0186
  280TMC3    C5 4227   4.535   4.600  17.518 -0.5393  0.5951  0.5769
  280TMC3    C6 4228   4.449   4.537  17.427  0.2123  0.0181 -0.6586
  280TMC3     C 4229   0.124   4.477  17.441  0.5912 -0.2322 -0.7532
  280TMC3     O 4230   0.144   4.466  17.320 -0.4377 -0.4340  0.2839
  280TMC3     H 4231   4.692   4.355  17.284 -0.2648  0.1941 -0.1146
  280TMC3    H1 4232   4.721   4.609  17.612 -1.5459  1.0713  1.0201
  280TMC3    H2 4233   4.349   4.572  17.408  0.7549  1.2973 -1.1773
  280TMC3    C7 4234   4.537   0.015  17.510 -0.7433  0.8608  0.3912
  280TMC3    C8 4235   4.434   4.411  17.243 -0.9308 -0.5931 -0.5065
  280TMC3    O1 4236   4.615   0.071  17.588  0.9165  0.3826 -0.6296
  280TMC3    O2 4237   4.317   4.381  17.265  0.2237  0.1142  0.0916
  281TMC3    C1 4238   4.233   4.651  12.627 -0.0913  0.0102  0.3666
  281TMC3    C2 4239   4.244   0.032  12.536  0.3393  0.0364 -0.7443
  281TMC3    C3 4240   4.243   0.001  12.405  0.2612  0.0662 -0.0963
  281TMC3    C4 4241   4.204   4.523  12.587  0.4021  0.2342 -0.0010
  281TMC3    C5 4242   4.204   4.495  12.454 -0.0820 -0.1591 -0.2280
  281TMC3    C6 4243   4.229   4.598  12.367  1.3464  0.7681 -0.2576
  281TMC3     C 4244   4.159   4.685  12.747 -0.6711  0.0216 -0.2157
  281TMC3     O 4245   4.167   4.606  12.843 -0.4342 -0.3172  0.6153
  281TMC3     H 4246   4.271   0.129  12.576  0.9425 -0.6701  0.5369
  281TMC3    H1 4247   4.190   4.440  12.655  0.9848  0.4738  0.4153
  281TMC3    H2 4248   4.224   4.578  12.261 -0.2316 -0.4311  0.0378
  281TMC3    C7 4249   4.154   4.369  12.395  0.3224  0.4451 -0.7495
  281TMC3    C8 4250   4.206   0.106  12.313 -0.5619  0.2376  0.6116
  281TMC3    O1 4251   4.221   4.313  12.312 -0.2026 -0.0545 -0.1548
  281TMC3    O2 4252   4.165   0.086  12.199 -0.8119  0.4643 -0.2375
  282MPD2     C 4253   1.398   1.577  14.997  0.3577 -0.6912 -0.5471
  282MPD2    C1 4254   1.282   1.647  15.009  0.4083 -0.3178  0.2162
  282MPD2    C2 4255   1.206   1.668  14.897 -0.1018 -0.2646 -0.2398
  282MPD2    C3 4256   1.239   1.624  14.768  0.1268 -0.3680 -0.4174
  282MPD2    C4 4257   1.358   1.552  14.754  0.8287  0.0612  0.9426
  282MPD2    C5 4258   1.435   1.532  14.872 -0.5191  0.0941 -1.0811
  282MPD2     H 4259   1.109   1.718  14.900  0.9227  1.6325  1.1468
  282MPD2    H1 4260   1.400   1.513  14.662  0.0640  2.7920 -0.5834
  282MPD2    H2 4261   1.459   1.547  15.081 -0.3329 -1.7859 -0.4437
  282MPD2    H3 4262   1.519   1.466  14.855 -0.7309 -0.6969  1.0284
  282MPD2     N 4263   1.149   1.632  14.659  0.3037 -0.5436 -0.3278
  282MPD2    H5 4264   1.062   1.685  14.664 -0.1240 -1.3801  1.1073
  282MPD2    N1 4265   1.234   1.676  15.135 -0.3959  0.0935  0.6529
  282MPD2    H7 4266   1.297   1.647  15.209  1.6809  0.1370 -1.1036
  283TMC3    C1 4267   1.107   1.773  15.311 -0.0040 -0.1164 -0.3171
  283TMC3    C2 4268   1.085   1.895  15.362  0.3719 -0.4303 -0.0546
  283TMC3    C3 4269   1.064   1.905  15.496 -0.2491  0.5818 -0.5075
  283TMC3    C4 4270   1.102   1.656  15.383  0.2333  0.2259 -0.1506
  283TMC3    C5 4271   1.077   1.670  15.516  0.6288  0.1310 -0.7105
  283TMC3    C6 4272   1.059   1.790  15.572  0.1118  0.2211  0.2581
  283TMC3     C 4273   1.125   1.757  15.166  0.2173 -0.8187  0.4131
  283TMC3     O 4274   1.058   1.835  15.096 -0.0477  0.4447  0.1293
  283TMC3     H 4275   1.110   1.983  15.303 -1.4355  0.3169  0.2953
  283TMC3    H1 4276   1.118   1.562  15.332  0.8685  0.5353 -0.5178
  283TMC3    H2 4277   1.042   1.802  15.678  1.8560  1.0656  0.4487
  283TMC3    C7 4278   1.005   1.561  15.582  0.5169  0.3806 -0.0647
  283TMC3    C8 4279   1.041   2.030  15.568 -0.0057  0.9659  0.2037
  283TMC3    O1 4280   0.996   1.579  15.702  0.0147 -1.1202  1.0526
  283TMC3    O2 4281   1.009   2.030  15.686 -0.0669  0.5427 -0.1313
  284MPD2     C 4282   3.745   0.311  11.379 -0.1286  0.1966  0.2613
  284MPD2    C1 4283   3.834   0.208  11.380 -0.8285  0.1478 -0.2049
  284MPD2    C2 4284   3.808   0.089  11.321 -0.7242  0.3852  0.7538
  284MPD2    C3 4285   3.697   0.069  11.242  0.4172 -0.4054  0.3396
  284MPD2    C4 4286   3.598   0.167  11.244 -0.0439 -0.4161  0.4565
  284MPD2    C5 4287   3.630   0.285  11.309  0.5601  0.6368  0.7758
  284MPD2     H 4288   3.890   0.019  11.330 -0.9612  0.2110  1.5061
  284MPD2    H1 4289   3.506   0.159  11.187  0.0980 -0.4029  0.2240
  284MPD2    H2 4290   3.767   0.402  11.434  0.4528  1.2950 -1.7799
  284MPD2    H3 4291   3.548   0.356  11.310  0.1382  0.1987 -1.9605
  284MPD2     N 4292   3.682   4.681  11.165 -0.7509  0.4577  0.1257
  284MPD2    H5 4293   3.590   4.665  11.125 -0.8374 -0.8775  0.8773
  284MPD2    N1 4294   3.961   0.217  11.441  0.2760 -0.0748  0.3447
  284MPD2    H7 4295   4.018   0.133  11.440 -0.8975 -0.9081  1.5777
  285TMC3    C1 4296   4.147   0.308  11.558  1.1954 -0.0015 -0.3920
  285TMC3    C2 4297   4.226   0.248  11.466  0.3035  0.4829  0.3791
  285TMC3    C3 4298   4.350   0.302  11.445  0.3557  0.1116 -0.7309
  285TMC3    C4 4299   4.194   0.416  11.636 -0.8024  0.4737  0.4077
  285TMC3    C5 4300   4.327   0.465  11.624 -0.8986  0.3138 -0.5320
  285TMC3    C6 4301   4.402   0.407  11.521  0.4302  0.4158 -0.4243
  285TMC3     C 4302   4.006   0.323  11.517 -0.3159  0.2875  0.4609
  285TMC3     O 4303   3.936   0.418  11.561  0.0479 -0.2525 -0.4876
  285TMC3     H 4304   4.201   0.158  11.411 -0.1609  0.8154  0.0523
  285TMC3    H1 4305   4.120   0.474  11.690 -1.2259  0.1086  0.2210
  285TMC3    H2 4306   4.502   0.442  11.499  0.6093 -0.5029 -1.0678
  285TMC3    C7 4307   4.360   0.598  11.646 -0.0358 -0.5170  0.0771
  285TMC3    C8 4308   4.406   0.274  11.313  0.5732  0.6888 -0.1831
  285TMC3    O1 4309   4.273   0.671  11.671 -0.4499  0.2444  0.1908
  285TMC3    O2 4310   4.369   0.171  11.250  0.5356  0.0146 -0.2391
  286MPD2     C 4311   4.590   4.592   1.270  0.3650  0.0061  0.5956
  286MPD2    C1 4312   4.534   4.584   1.146 -0.2960  0.2468 -0.1871
  286MPD2    C2 4313   4.607   4.528   1.048  0.0405  0.0457 -0.6975
  286MPD2    C3 4314   0.004   4.477   1.072 -0.0819  0.4464 -0.1179
  286MPD2    C4 4315   0.061   4.487   1.195 -0.3065  0.9472  0.8178
  286MPD2    C5 4316   4.715   4.553   1.294 -0.5312  0.6181 -0.2578
  286MPD2     H 4317   4.567   4.537   0.947 -2.9115 -1.8415  0.3061
  286MPD2    H1 4318   0.160   4.447   1.215 -0.4796 -0.6441 -1.5712
  286MPD2    H2 4319   4.541   4.649   1.349 -0.9477  0.3538 -0.4694
  286MPD2    H3 4320   0.030   4.573   1.392  1.0127  0.8430 -0.9444
  286MPD2     N 4321   0.093   4.438   0.965  0.0363  0.0875  0.4775
  286MPD2    H5 4322   0.186   4.415   0.999 -0.2701  1.3080  2.1588
  286MPD2    N1 4323   4.408   4.643   1.112 -0.2390  0.2503 -0.2212
  286MPD2    H7 4324   4.383   4.645   1.014  0.5816 -0.3229 -0.4417
  287TMC3    C1 4325   0.177   4.388   0.748  0.1054  0.1430  0.7377
  287TMC3    C2 4326   0.176   4.412   0.617 -0.7455 -0.7540 -0.2943
  287TMC3    C3 4327   0.289   4.399   0.543 -0.1841  0.5928 -0.9507
  287TMC3    C4 4328   0.294   4.346   0.803  0.0079 -0.1094 -0.4483
  287TMC3    C5 4329   0.408   4.336   0.736  0.2664 -0.2809 -0.3113
  287TMC3    C6 4330   0.412   4.364   0.597 -1.3249  0.7328  0.3751
  287TMC3     C 4331   0.068   4.430   0.832 -0.3945 -0.5382  0.1019
  287TMC3     O 4332   4.691   4.456   0.768  0.4041 -0.6386  0.3500
  287TMC3     H 4333   0.093   4.468   0.576 -0.2297  0.1178 -0.1680
  287TMC3    H1 4334   0.303   4.341   0.911 -2.1603 -2.3958 -0.3831
  287TMC3    H2 4335   0.505   4.368   0.542 -1.7147  1.3104 -0.2451
  287TMC3    C7 4336   0.523   4.273   0.803  0.0592 -0.4051  0.0578
  287TMC3    C8 4337   0.257   4.357   0.406  0.9387  0.0706 -0.1639
  287TMC3    O1 4338   0.484   4.197   0.891  0.0776 -0.0768  0.1043
  287TMC3    O2 4339   0.147   4.381   0.358  0.1852 -0.6558  0.4584
  288TMC3    C1 4340   1.713   4.187  13.967  0.2144 -0.3681 -0.3516
  288TMC3    C2 4341   1.611   4.216  14.063  0.6211 -0.4196  0.2049
  288TMC3    C3 4342   1.511   4.296  14.023 -0.2926 -0.1780 -0.2347
  288TMC3    C4 4343   1.708   4.244  13.843 -0.7655  0.1024  0.0179
  288TMC3    C5 4344   1.615   4.339  13.818 -0.0445  0.3634  0.0532
  288TMC3    C6 4345   1.518   4.373  13.909  0.6714  0.2122 -0.2991
  288TMC3     C 4346   1.818   4.098  14.014 -0.0754  0.1043 -0.2702
  288TMC3     O 4347   1.803   4.042  14.120 -0.0772  0.1146 -0.4923
  288TMC3     H 4348   1.609   4.161  14.156 -1.9067  1.8770  1.5166
  288TMC3    H1 4349   1.779   4.216  13.767 -0.9704  0.8293 -0.4420
  288TMC3    H2 4350   1.435   4.439  13.888 -0.2404 -1.0025 -0.5570
  288TMC3    C7 4351   1.613   4.424  13.703  0.0970 -0.1685  0.0765
  288TMC3    C8 4352   1.450   4.374  14.137 -0.0523 -0.3857  1.1421
  288TMC3    O1 4353   1.520   4.507  13.702  0.6081 -0.2999  0.7899
  288TMC3    O2 4354   1.454   4.500  14.123 -0.1829 -0.3918  0.1149
  289MPD2     C 4355   1.495   3.248  14.263  0.4671  0.2987 -0.2882
  289MPD2    C1 4356   1.479   3.379  14.237  0.3853  0.2738 -0.5555
  289MPD2    C2 4357   1.351   3.441  14.233  0.0759  0.5925 -0.6447
  289MPD2    C3 4358   1.240   3.361  14.254  0.2705  0.8261  0.1433
  289MPD2    C4 4359   1.262   3.222  14.262 -0.8493 -0.3462 -0.0517
  289MPD2    C5 4360   1.386   3.170  14.278  0.1105 -0.8314  0.4328
  289MPD2     H 4361   1.344   3.545  14.202  1.8365  1.5945  2.2962
  289MPD2    H1 4362   1.178   3.154  14.267 -1.5609  0.5846  0.7191
  289MPD2    H2 4363   1.594   3.206  14.279  0.1099 -0.4073  0.0351
  289MPD2    H3 4364   1.395   3.064  14.302  2.3027 -0.5142  0.9612
  289MPD2     N 4365   1.108   3.406  14.251  0.0548  0.0700  0.2787
  289MPD2    H5 4366   1.039   3.333  14.266  0.4575 -0.9282 -2.6080
  289MPD2    N1 4367   1.599   3.447  14.221  0.1383 -0.1557  0.0413
  289MPD2    H7 4368   1.686   3.395  14.222  0.4205  0.3245  1.0671
  290TMC3    C1 4369   0.929   3.550  14.194 -0.1948 -0.3654  0.7340
  290TMC3    C2 4370   0.888   3.666  14.128 -0.1323  0.4357  0.4450
  290TMC3    C3 4371   0.755   3.664  14.091  0.5875 -0.0096  0.9134
  290TMC3    C4 4372   0.839   3.445  14.218  0.3150  0.5131 -0.0979
  290TMC3    C5 4373   0.710   3.447  14.175 -0.2780 -0.0926  0.0643
  290TMC3    C6 4374   0.665   3.558  14.107 -0.5043  0.2392  0.4447
  290TMC3     C 4375   1.070   3.542  14.230  0.3637  1.2125 -0.6325
  290TMC3     O 4376   1.133   3.643  14.220 -0.0963  0.2701 -0.0380
  290TMC3     H 4377   0.957   3.746  14.101 -1.8714  1.6936 -0.2895
  290TMC3    H1 4378   0.873   3.356  14.269 -2.7220 -0.7020 -0.2185
  290TMC3    H2 4379   0.566   3.563  14.063  0.1613  1.2489 -0.9199
  290TMC3    C7 4380   0.616   3.340  14.201  0.1114  0.1119 -0.3658
  290TMC3    C8 4381   0.700   3.780  14.027 -0.6110  0.7784  0.4229
  290TMC3    O1 4382   0.500   3.375  14.193 -0.4641  0.4329  0.3082
  290TMC3    O2 4383   0.602   3.756  13.956 -0.7574 -0.1495 -0.7939
  291MPD2     C 4384   4.621   3.285  17.367 -0.1609 -0.1478  0.1929
  291MPD2    C1 4385   4.671   3.192  17.452  0.3486  0.1343 -0.0077
  291MPD2    C2 4386   0.079   3.202  17.499 -0.6406 -0.0410 -0.0623
  291MPD2    C3 4387   0.152   3.322  17.477 -0.8297 -0.4498 -0.9056
  291MPD2    C4 4388   0.099   3.408  17.388 -0.4406 -0.4377 -0.5640
  291MPD2    C5 4389   4.702   3.391  17.331  0.4886 -0.0101 -0.1478
  291MPD2     H 4390   0.112   3.128  17.570  2.4945  1.9368  0.5013
  291MPD2    H1 4391   0.155   3.496  17.356 -1.1774 -0.2628 -1.3792
  291MPD2    H2 4392   4.521   3.294  17.328 -0.4964 -2.2741  0.5407
  291MPD2    H3 4393   4.659   3.474  17.276  0.7050  0.5802  0.5799
  291MPD2     N 4394   0.279   3.351  17.523 -0.5546  0.4388 -0.2337
  291MPD2    H5 4395   0.324   3.430  17.478 -1.4390  0.8802 -0.3303
  291MPD2    N1 4396   4.592   3.074  17.496 -0.4303 -0.2530  0.1041
  291MPD2    H7 4397   4.630   3.007  17.563  1.0761  0.0316 -0.4574
  292TMC3    C1 4398   4.410   2.980  17.593 -0.0519 -0.2671  0.5011
  292TMC3    C2 4399   4.282   3.012  17.610  0.1982  0.1564  0.4689
  292TMC3    C3 4400   4.194   2.911  17.652  0.6915 -0.1387 -0.4775
  292TMC3    C4 4401   4.452   2.851  17.595 -0.3280 -0.0338 -0.4975
  292TMC3    C5 4402   4.366   2.753  17.630  0.1602  0.1046  0.4110
  292TMC3    C6 4403   4.239   2.784  17.669 -0.6548 -0.5991  0.6649
  292TMC3     C 4404   4.463   3.072  17.492 -0.0222 -0.5666  0.4232
  292TMC3     O 4405   4.384   3.149  17.438 -0.3051 -0.1330 -0.1120
  292TMC3     H 4406   4.240   3.112  17.610  0.7933  0.4429  4.4135
  292TMC3    H1 4407   4.539   2.823  17.537  0.1463 -0.5058  0.4596
  292TMC3    H2 4408   4.175   2.706   0.001 -1.2569 -1.0404 -1.1768
  292TMC3    C7 4409   4.393   2.625  17.568 -0.1723  0.1721 -0.3342
  292TMC3    C8 4410   4.070   2.958   0.004  0.1004 -0.2543 -0.1989
  292TMC3    O1 4411   4.498   2.559  17.596 -0.5977  0.1031  0.3282
  292TMC3    O2 4412   4.082   3.072   0.051  0.4031 -0.0139 -0.3033
  293MPD2     C 4413   2.526   4.458  11.956  0.3191 -0.5727 -0.0080
  293MPD2    C1 4414   2.480   4.353  12.028 -0.6300  0.3212 -0.0650
  293MPD2    C2 4415   2.522   4.338  12.165 -0.5649 -0.3661  0.2320
  293MPD2    C3 4416   2.616   4.426  12.216 -0.0112 -0.6247 -0.0244
  293MPD2    C4 4417   2.666   4.529  12.141  0.4353 -0.1810 -0.5215
  293MPD2    C5 4418   2.626   4.536  11.999  0.7326  0.0077 -0.1409
  293MPD2     H 4419   2.489   4.252  12.223 -2.6547 -0.6620 -1.3837
  293MPD2    H1 4420   2.743   4.601  12.166 -0.7948  0.5615  1.0889
  293MPD2    H2 4421   2.489   4.472  11.855 -0.5042  0.2452  0.4139
  293MPD2    H3 4422   2.672   4.611  11.935  1.6714  0.3629  0.9436
  293MPD2     N 4423   2.656   4.420  12.355  0.3820 -0.4527  0.0751
  293MPD2    H5 4424   2.634   4.334  12.403 -0.2352 -0.4742 -0.2395
  293MPD2    N1 4425   2.381   4.275  11.962 -0.5549 -0.1675  0.2774
  293MPD2    H7 4426   2.349   4.305  11.871  1.7390  2.4762  0.3514
  294TMC3    C1 4427   2.208   4.120  11.932  0.6623 -0.5594 -0.1501
  294TMC3    C2 4428   2.093   4.066  11.993 -0.0063 -0.7359 -0.7319
  294TMC3    C3 4429   1.972   4.065  11.924  0.2632 -0.1315  0.1596
  294TMC3    C4 4430   2.202   4.149  11.799 -0.3292  0.3205  0.0248
  294TMC3    C5 4431   2.084   4.136  11.733 -0.2588  0.1346  0.2674
  294TMC3    C6 4432   1.962   4.106  11.796 -0.0001  0.4779  0.3915
  294TMC3     C 4433   2.312   4.175  12.021 -0.2212 -0.0658 -0.5312
  294TMC3     O 4434   2.316   4.125  12.134  0.5283 -0.4549  0.1350
  294TMC3     H 4435   2.096   4.034  12.096  1.0222  0.4092 -0.4012
  294TMC3    H1 4436   2.278   4.199  11.740  0.4084 -0.8523 -0.0212
  294TMC3    H2 4437   1.862   4.117  11.754  0.1768  0.1123 -0.1250
  294TMC3    C7 4438   2.065   4.194  11.600 -0.1196  0.4709  0.6468
  294TMC3    C8 4439   1.851   4.059  11.992  0.5772 -0.2792 -0.0916
  294TMC3    O1 4440   1.966   4.264  11.591 -0.7144  0.1575 -0.3899
  294TMC3    O2 4441   1.853   4.110  12.107 -0.7987 -0.3733 -0.6805
  295MPD2     C 4442   3.144   3.170   0.659 -0.8675 -0.6614 -0.0607
  295MPD2    C1 4443   3.089   3.247   0.564 -0.2137  0.3865 -0.8193
  295MPD2    C2 4444   3.012   3.354   0.596 -0.6240  0.0225  0.0653
  295MPD2    C3 4445   2.992   3.393   0.735  0.3956 -0.5211  0.4388
  295MPD2    C4 4446   3.037   3.304   0.832  0.5886  0.1211  0.7166
  295MPD2    C5 4447   3.113   3.200   0.789  0.0656 -0.4432 -0.7134
  295MPD2     H 4448   2.982   3.426   0.521 -1.1270 -1.5118 -1.2052
  295MPD2    H1 4449   3.043   3.334   0.936  0.3283  2.2903  0.0940
  295MPD2    H2 4450   3.210   3.087   0.639 -1.6468 -1.3444  0.1935
  295MPD2    H3 4451   3.158   3.142   0.869  1.3671 -0.4047 -1.4231
  295MPD2     N 4452   2.919   3.506   0.777  0.2109  0.4857  0.3879
  295MPD2    H5 4453   2.886   3.509   0.873 -2.3302 -2.9752 -0.4014
  295MPD2    N1 4454   3.130   3.240   0.426 -0.1554  0.1440 -0.0287
  295MPD2    H7 4455   3.092   3.312   0.365 -0.2255 -0.1261 -0.3066
  296TMC3    C1 4456   2.793   3.709   0.740  0.3880  0.3245  0.8715
  296TMC3    C2 4457   2.795   3.713   0.876  0.3585  0.2505  0.1490
  296TMC3    C3 4458   2.694   3.784   0.935 -0.1777 -0.0671  0.1981
  296TMC3    C4 4459   2.696   3.763   0.662 -0.1101  0.2135 -0.1630
  296TMC3    C5 4460   2.603   3.838   0.729  0.2207  0.0257 -0.4059
  296TMC3    C6 4461   2.593   3.846   0.862 -0.9851  0.2452  0.2525
  296TMC3     C 4462   2.872   3.602   0.686 -0.3335  0.1773  0.4215
  296TMC3     O 4463   2.889   3.614   0.566  0.3075 -0.0044  0.1494
  296TMC3     H 4464   2.878   3.671   0.931 -0.8925 -1.2555  0.9034
  296TMC3    H1 4465   2.691   3.763   0.554 -2.3100 -2.0022 -0.0553
  296TMC3    H2 4466   2.514   3.904   0.907 -0.8794  0.8180 -0.3114
  296TMC3    C7 4467   2.479   3.839   0.666  0.3130 -0.7009  0.3063
  296TMC3    C8 4468   2.722   3.833   1.068  0.2169 -0.1701  0.1057
  296TMC3    O1 4469   2.469   3.897   0.559 -0.3421  0.3961 -0.4406
  296TMC3    O2 4470   2.696   3.952   1.083  0.1906 -0.3946  0.6929
  297MPD2     C 4471   0.203   0.534  15.932 -0.7501  0.5022  0.6362
  297MPD2    C1 4472   0.204   0.609  15.822 -0.2192  0.9000  0.9216
  297MPD2    C2 4473   0.301   0.707  15.825 -0.2600  0.3563 -0.4596
  297MPD2    C3 4474   0.394   0.717  15.930  0.0646  0.0163  0.3287
  297MPD2    C4 4475   0.387   0.633  16.035  0.1072 -0.1297 -0.2754
  297MPD2    C5 4476   0.287   0.543  16.034  0.5618  0.8112 -0.1528
  297MPD2     H 4477   0.309   0.768  15.735  2.3085 -0.9525 -1.1099
  297MPD2    H1 4478   0.459   0.643  16.116 -1.3591 -0.7758  1.1030
  297MPD2    H2 4479   0.129   0.456  15.935  1.1849 -1.3625 -0.3505
  297MPD2    H3 4480   0.270   0.468  16.109  0.5131  1.1722  0.1960
  297MPD2     N 4481   0.494   0.807  15.909  0.0716  0.0392  0.3571
  297MPD2    H5 4482   0.499   0.860  15.823  2.0825  2.7096  2.1193
  297MPD2    N1 4483   0.115   0.604  15.709 -0.3213  0.0411  0.1671
  297MPD2    H7 4484   0.129   0.678  15.641 -0.0829  0.7596  0.9990
  298TMC3    C1 4485   4.642   0.565  15.597  0.6396  0.2820 -0.1868
  298TMC3    C2 4486   4.714   0.606  15.488  0.4785  0.0851  0.4171
  298TMC3    C3 4487   4.636   0.630  15.375 -0.0212 -0.4291  0.1707
  298TMC3    C4 4488   4.504   0.550  15.592  0.0905  0.4019 -0.2686
  298TMC3    C5 4489   4.433   0.580  15.477 -0.1676 -0.1854 -0.2523
  298TMC3    C6 4490   4.498   0.622  15.369 -0.1312 -0.0009 -0.2944
  298TMC3     C 4491   4.722   0.532  15.710 -0.1464 -0.6750 -0.0575
  298TMC3     O 4492   4.671   0.461  15.798  0.7098  0.0422 -0.0077
  298TMC3     H 4493   0.096   0.603  15.484  0.4941  1.4335  0.0205
  298TMC3    H1 4494   4.458   0.513  15.683 -1.4022  1.6276 -0.5339
  298TMC3    H2 4495   4.442   0.638  15.277 -1.2249 -0.2964  0.3353
  298TMC3    C7 4496   4.299   0.623  15.509  0.2994 -0.0781 -0.7982
  298TMC3    C8 4497   4.697   0.632  15.244 -0.0725 -0.8663  0.4575
  298TMC3    O1 4498   4.253   0.608  15.623 -0.1000  0.7185  0.0436
  298TMC3    O2 4499   4.673   0.535  15.172  0.2115  0.4904  0.1010
  299MPD2     C 4500   0.875   4.251  10.331 -0.4655  0.2220  0.2807
  299MPD2    C1 4501   0.900   4.356  10.251  0.0949  0.3477  0.5138
  299MPD2    C2 4502   0.835   4.361  10.129  0.1942  0.0086 -0.1170
  299MPD2    C3 4503   0.747   4.268  10.081 -0.4477  0.3517 -0.4031
  299MPD2    C4 4504   0.733   4.156  10.163 -0.5059  0.1004 -0.2186
  299MPD2    C5 4505   0.788   4.156  10.285  0.4178 -0.3100 -0.1444
  299MPD2     H 4506   0.859   4.443  10.063 -0.2703 -2.1559 -2.9562
  299MPD2    H1 4507   0.668   4.074  10.136 -0.7381 -0.3477  1.6966
  299MPD2    H2 4508   0.909   4.243  10.434 -0.9386 -2.1272  0.2612
  299MPD2    H3 4509   0.757   4.080  10.355 -3.0455 -0.3765 -1.7622
  299MPD2     N 4510   0.675   4.270   9.964  0.0449  0.2572  0.4810
  299MPD2    H5 4511   0.618   4.188   9.952 -0.5265  0.7657 -0.2667
  299MPD2    N1 4512   0.984   4.456  10.301  0.1896  0.0329 -0.5526
  299MPD2    H7 4513   1.022   4.427  10.390 -1.1689  0.3581  0.1228
  300TMC3    C1 4514   0.532   4.360   9.816 -0.2129 -0.8687  0.2823
  300TMC3    C2 4515   0.485   4.479   9.760 -0.7645  0.5535  0.0610
  300TMC3    C3 4516   0.353   4.510   9.767  0.1432  0.0579  0.5836
  300TMC3    C4 4517   0.445   4.273   9.868 -0.6041 -0.0609 -0.1658
  300TMC3    C5 4518   0.313   4.294   9.853  0.1785  0.3794  0.8020
  300TMC3    C6 4519   0.266   4.419   9.810 -0.0200  0.0433 -0.5308
  300TMC3     C 4520   0.651   4.384   9.894  0.0575 -0.3041  0.1533
  300TMC3     O 4521   0.704   4.494   9.900 -0.0256  0.4480 -0.1775
  300TMC3     H 4522   0.556   4.553   9.724  0.7959 -0.1935  1.6075
  300TMC3    H1 4523   0.466   4.177   9.913 -2.6066 -0.6890 -0.5606
  300TMC3    H2 4524   0.163   4.442   9.833  0.2998  0.8740  0.0820
  300TMC3    C7 4525   0.226   4.232   9.947  0.0154 -0.1312 -0.1289
  300TMC3    C8 4526   0.334   4.656   9.779  0.7275 -0.3782 -0.0904
  300TMC3    O1 4527   0.183   4.121   9.910 -0.3525  0.8170  0.4304
  300TMC3    O2 4528   0.430   4.721   9.818 -0.3043 -0.1689  0.2509
  301MPD2     C 4529   2.417   1.796   1.111  0.0402  0.2424  0.2371
  301MPD2    C1 4530   2.306   1.745   1.045 -0.4139  0.5752  0.0852
  301MPD2    C2 4531   2.312   1.620   0.989 -0.1459  0.1419 -0.3798
  301MPD2    C3 4532   2.422   1.531   1.005  0.4071 -0.0293  0.1410
  301MPD2    C4 4533   2.526   1.578   1.083  0.4481 -0.1783 -0.8612
  301MPD2    C5 4534   2.522   1.708   1.127  0.3032 -0.7720  0.5529
  301MPD2     H 4535   2.222   1.583   0.940  1.1142 -1.6766 -1.2966
  301MPD2    H1 4536   2.620   1.525   1.087 -0.0783 -0.9796  0.9328
  301MPD2    H2 4537   2.418   1.892   1.161  0.8133  1.3091 -1.7918
  301MPD2    H3 4538   2.610   1.736   1.185  0.7209 -2.7167  0.8425
  301MPD2     N 4539   2.429   1.401   0.952 -0.1712  0.4093 -0.3512
  301MPD2    H5 4540   2.501   1.341   0.990 -0.8408 -0.0168  0.2262
  301MPD2    N1 4541   2.186   1.817   1.029  0.1908 -0.2554 -0.0545
  301MPD2    H7 4542   2.111   1.778   0.974  0.4890 -0.7743 -0.0926
  302TMC3    C1 4543   2.360   1.207   0.839 -0.4623 -0.1242 -0.3557
  302TMC3    C2 4544   2.463   1.127   0.895 -0.3146  0.0985 -0.4273
  302TMC3    C3 4545   2.476   0.997   0.855  0.0909  0.2181 -0.3265
  302TMC3    C4 4546   2.284   1.154   0.740 -0.0254  0.6565  0.4134
  302TMC3    C5 4547   2.296   1.016   0.709 -0.2180  0.0314 -0.0961
  302TMC3    C6 4548   2.394   0.938   0.768 -0.2467 -0.2472 -0.7477
  302TMC3     C 4549   2.347   1.349   0.860 -0.0189 -0.1978 -0.5259
  302TMC3     O 4550   2.258   1.404   0.799  0.0485  0.0653 -0.1474
  302TMC3     H 4551   2.524   1.162   0.977 -0.1132 -2.4622  0.4908
  302TMC3    H1 4552   2.209   1.215   0.691 -1.4252 -0.4661  1.1605
  302TMC3    H2 4553   2.415   0.833   0.755 -1.2187 -0.5846  0.4490
  302TMC3    C7 4554   2.193   0.951   0.621  0.2555 -0.1469 -0.1392
  302TMC3    C8 4555   2.564   0.909   0.920 -0.0818  0.4665 -0.0748
  302TMC3    O1 4556   2.218   0.843   0.571  0.0859 -0.1998  0.2944
  302TMC3    O2 4557   2.610   0.812   0.864 -0.2373 -0.1991 -0.2223
  303MPD2     C 4558   2.555   3.464   9.991 -0.0641 -0.4021  0.5922
  303MPD2    C1 4559   2.470   3.536   9.908  0.6317 -0.9650  0.0907
  303MPD2    C2 4560   2.517   3.648   9.839  0.6413  0.4214  1.0489
  303MPD2    C3 4561   2.652   3.685   9.863 -0.4640  0.2941  0.4377
  303MPD2    C4 4562   2.728   3.618   9.957 -0.6592  0.7196  0.3380
  303MPD2    C5 4563   2.688   3.503  10.011  0.4865 -0.4383  0.5943
  303MPD2     H 4564   2.460   3.704   9.766  0.1098  0.2418  1.3230
  303MPD2    H1 4565   2.833   3.641   9.975 -0.2078 -0.2296 -1.0833
  303MPD2    H2 4566   2.523   3.370  10.034 -1.2608 -1.0251 -1.6450
  303MPD2    H3 4567   2.758   3.449  10.074 -0.8957 -3.6999 -0.6551
  303MPD2     N 4568   2.720   3.793   9.803  0.4205  0.5386 -0.7869
  303MPD2    H5 4569   2.820   3.799   9.822  0.1180 -1.7087  1.5314
  303MPD2    N1 4570   2.338   3.484   9.891  0.1062 -0.1406  0.8856
  303MPD2    H7 4571   2.317   3.387   9.909 -0.3384 -0.4471 -1.3265
  304TMC3    C1 4572   2.130   3.462   9.795 -0.2227 -0.0027 -0.0965
  304TMC3    C2 4573   2.006   3.530   9.773  0.5114  0.0376 -0.1940
  304TMC3    C3 4574   1.923   3.484   9.680  0.7035  0.1139  0.0596
  304TMC3    C4 4575   2.157   3.355   9.712  0.3039  0.7340 -0.4123
  304TMC3    C5 4576   2.075   3.315   9.612 -0.4912 -0.0003 -0.2725
  304TMC3    C6 4577   1.953   3.376   9.600  0.1471  0.2548  0.1020
  304TMC3     C 4578   2.234   3.550   9.837 -0.3801  0.3983 -0.2394
  304TMC3     O 4579   2.226   3.676   9.817  0.1585  0.6688  0.2685
  304TMC3     H 4580   1.993   3.618   9.835  1.4832  0.8577 -1.1677
  304TMC3    H1 4581   2.255   3.311   9.719  1.8089  3.3932 -4.3893
  304TMC3    H2 4582   1.877   3.341   9.531 -0.0299  0.0735  0.3895
  304TMC3    C7 4583   2.146   3.315   9.485 -0.4832 -0.4877 -0.6438
  304TMC3    C8 4584   1.875   3.594   9.588 -0.2554  0.7388  0.4900
  304TMC3    O1 4585   2.252   3.257   9.484  0.1435 -0.0794 -0.0365
  304TMC3    O2 4586   1.876   3.557   9.472  0.1899 -0.0877  0.4872
  305MPD2     C 4587   0.933   1.761  13.534  0.2018 -0.1088 -0.1837
  305MPD2    C1 4588   1.028   1.668  13.554  0.3424 -0.2600  1.3041
  305MPD2    C2 4589   1.063   1.589  13.445  0.5774  0.0780 -0.3216
  305MPD2    C3 4590   0.993   1.603  13.320  0.6626 -0.3213 -0.1775
  305MPD2    C4 4591   0.902   1.706  13.310  0.2263  0.1842 -0.7171
  305MPD2    C5 4592   0.867   1.779  13.418 -0.1306  0.4898  0.2967
  305MPD2     H 4593   1.136   1.510  13.459  1.2302  0.7369 -0.0093
  305MPD2    H1 4594   0.842   1.720  13.221 -0.6503 -0.3438 -0.2123
  305MPD2    H2 4595   0.900   1.829  13.611 -1.6655  1.3988 -2.3157
  305MPD2    H3 4596   0.791   1.855  13.403  1.0025  1.9091  1.8623
  305MPD2     N 4597   1.011   1.527  13.204  0.3921 -0.4453  0.4768
  305MPD2    H5 4598   0.957   1.550  13.122  0.4395  2.0115  1.1396
  305MPD2    N1 4599   1.092   1.672  13.682  0.5937 -0.2374  0.3490
  305MPD2    H7 4600   1.052   1.731  13.754 -0.4604 -0.5587  0.0267
  306TMC3    C1 4601   1.252   1.616  13.849  0.2852 -0.0766 -0.0130
  306TMC3    C2 4602   1.331   1.511  13.903 -0.0408 -0.0588  0.0018
  306TMC3    C3 4603   1.353   1.515  14.039 -0.1819 -0.4942  0.1036
  306TMC3    C4 4604   1.220   1.726  13.921 -0.0898 -0.3068  0.1788
  306TMC3    C5 4605   1.255   1.728  14.053 -0.4741  0.7018  0.3136
  306TMC3    C6 4606   1.320   1.624  14.119  0.1795 -0.3038  0.6160
  306TMC3     C 4607   1.197   1.589  13.714  0.5156  0.0045  0.4155
  306TMC3     O 4608   1.247   1.493  13.657 -0.2050  0.2028 -0.0706
  306TMC3     H 4609   1.353   1.415  13.856 -0.6100  0.1902 -0.7811
  306TMC3    H1 4610   1.169   1.808  13.872 -0.8017 -1.3639 -0.8369
  306TMC3    H2 4611   1.350   1.614  14.223 -2.3584 -2.0345  1.2014
  306TMC3    C7 4612   1.218   1.844  14.131  0.1221  0.0330 -0.5552
  306TMC3    C8 4613   1.438   1.406  14.092 -0.5553 -0.8965 -0.0920
  306TMC3    O1 4614   1.149   1.930  14.080  0.0869  0.0329  0.0206
  306TMC3    O2 4615   1.475   1.331  14.004 -0.9321 -0.0068 -0.1159
  307MPD2     C 4616   3.620   4.008   0.885  0.3539  0.2856  0.2054
  307MPD2    C1 4617   3.584   4.133   0.843  0.4594  0.0873  0.3225
  307MPD2    C2 4618   3.460   4.181   0.878 -0.0251  0.6466 -0.2540
  307MPD2    C3 4619   3.366   4.104   0.941 -0.1469 -0.6227 -0.0159
  307MPD2    C4 4620   3.394   3.970   0.973 -1.5227  0.5975  0.0163
  307MPD2    C5 4621   3.519   3.925   0.947  0.2542 -1.3174 -0.1404
  307MPD2     H 4622   3.436   4.281   0.846  1.1219  0.5280 -1.4299
  307MPD2    H1 4623   3.319   3.906   1.018  0.4743 -0.3781  1.9875
  307MPD2    H2 4624   3.720   3.967   0.872  0.1213 -0.2184  0.0031
  307MPD2    H3 4625   3.549   3.822   0.962 -0.0554 -1.4637 -0.5298
  307MPD2     N 4626   3.233   4.151   0.963 -0.2240 -0.0699 -0.6630
  307MPD2    H5 4627   3.168   4.080   0.995  1.1726 -1.2803 -0.4962
  307MPD2    N1 4628   3.665   4.209   0.752 -0.9184  0.2950  0.6851
  307MPD2    H7 4629   3.624   4.295   0.718  0.1164  0.5140 -0.0040
  308TMC3    C1 4630   2.836   4.241   0.929 -0.2727 -0.6001  0.1654
  308TMC3    C2 4631   2.783   4.347   0.993 -0.5117 -0.0556  0.1347
  308TMC3    C3 4632   2.870   4.427   1.054  0.5869 -0.1316  0.0382
  308TMC3    C4 4633   2.970   4.211   0.920  0.4010  0.0641 -0.8231
  308TMC3    C5 4634   3.052   4.297   0.983 -0.6215  0.0193 -0.1595
  308TMC3    C6 4635   3.002   4.411   1.045 -0.9029  0.0541 -0.6467
  308TMC3     C 4636   2.750   4.196   0.817  0.6168 -0.4294 -0.1964
  308TMC3     O 4637   2.780   4.087   0.768  0.3161 -0.4905 -0.5502
  308TMC3     H 4638   2.677   4.358   1.012 -0.7771 -2.7869  0.2442
  308TMC3    H1 4639   3.018   4.130   0.865  1.2428 -0.0796  0.1245
  308TMC3    H2 4640   3.080   4.474   1.086 -0.4542  1.2680 -3.3767
  308TMC3    C7 4641   3.197   4.281   0.966  0.2449  0.0887  0.4678
  308TMC3    C8 4642   2.818   4.559   1.071  0.6055  0.4619  0.1745
  308TMC3    O1 4643   3.250   4.389   0.952 -0.0639 -0.3407  0.2791
  308TMC3    O2 4644   2.718   4.582   1.137  0.0518 -0.0781  0.2947
  309MPD2     C 4645   1.977   4.678  16.666  0.3944 -0.7311  0.0675
  309MPD2    C1 4646   2.051   0.041  16.743  0.6524 -0.0978 -0.6196
  309MPD2    C2 4647   1.982   0.112  16.846  0.1570  0.8319 -0.4430
  309MPD2    C3 4648   1.848   0.094  16.872  0.1472  0.1827  0.1800
  309MPD2    C4 4649   1.785   4.722  16.802  0.3698 -0.0144 -0.8041
  309MPD2    C5 4650   1.842   4.656  16.700 -0.4897 -0.6978 -0.3980
  309MPD2     H 4651   2.037   0.188  16.899 -0.9262  1.5914 -0.3970
  309MPD2    H1 4652   1.678   4.709  16.817  0.9463  0.7648  3.8760
  309MPD2    H2 4653   2.029   4.621  16.590  0.2892 -1.7128  0.7287
  309MPD2    H3 4654   1.787   4.578  16.649 -1.4905 -0.9620  1.0757
  309MPD2     N 4655   1.780   0.182  16.959 -0.3155 -0.4894  0.5416
  309MPD2    H5 4656   1.679   0.174  16.956 -0.4006  0.5708  0.7885
  309MPD2    N1 4657   2.188   0.060  16.708  0.8345  0.4751  0.7652
  309MPD2    H7 4658   2.224   0.013  16.625 -1.7923 -1.5191  0.7664
  310TMC3    C1 4659   2.406   0.106  16.704 -0.5562 -0.7026 -0.1086
  310TMC3    C2 4660   2.399   0.101  16.566 -0.8476 -0.2647  0.2638
  310TMC3    C3 4661   2.498   0.041  16.501  0.6261 -0.0771 -1.1676
  310TMC3    C4 4662   2.520   0.072  16.771  0.4452 -0.5797 -1.4737
  310TMC3    C5 4663   2.620   0.008  16.695  0.2652 -0.8042 -0.5678
  310TMC3    C6 4664   2.609   4.715  16.562  0.5190  0.3282 -0.4346
  310TMC3     C 4665   2.283   0.134  16.775 -0.2918  0.3003  0.7837
  310TMC3     O 4666   2.287   0.189  16.886  0.2678  0.1425  0.7289
  310TMC3     H 4667   2.311   0.139  16.515 -0.7641 -0.2468  0.1349
  310TMC3    H1 4668   2.539   0.097  16.874  2.5246  0.7731 -2.1863
  310TMC3    H2 4669   2.691   4.662  16.514  0.3827  1.2007 -1.6426
  310TMC3    C7 4670   2.726   4.669  16.761  0.4697  0.7118  0.7517
  310TMC3    C8 4671   2.528   0.100  16.372 -0.0545  0.5771  0.6375
  310TMC3    O1 4672   2.764   4.561  16.721  0.5847  0.0854 -0.1631
  310TMC3    O2 4673   2.431   0.161  16.333 -0.2466  0.6541  0.8432
  311MPD2     C 4674   0.156   1.012  12.509  0.2069  0.0002  0.1959
  311MPD2    C1 4675   0.152   1.130  12.582 -0.7607  0.0910  0.0102
  311MPD2    C2 4676   0.056   1.150  12.675 -0.0492  0.1176  0.4144
  311MPD2    C3 4677   4.676   1.059  12.689 -0.2426  0.1851 -0.4803
  311MPD2    C4 4678   4.679   0.938  12.623 -0.7308 -0.8179  0.2613
  311MPD2    C5 4679   0.051   0.920  12.536 -0.4582 -0.3342 -0.4405
  311MPD2     H 4680   0.059   1.244  12.729 -1.9357  0.9906 -1.0218
  311MPD2    H1 4681   4.613   0.857  12.650 -2.5832  0.4723 -0.4056
  311MPD2    H2 4682   0.228   0.992  12.431  0.8118  0.6013  0.6095
  311MPD2    H3 4683   0.044   0.831  12.474  1.4769  0.7472 -2.2149
  311MPD2     N 4684   4.562   1.086  12.762 -0.0656  0.6133 -0.1157
  311MPD2    H5 4685   4.573   1.161  12.830 -1.2013 -0.4591  1.2505
  311MPD2    N1 4686   0.250   1.226  12.548  0.3634  0.3659  0.6546
  311MPD2    H7 4687   0.238   1.317  12.592 -1.0067  0.0791  0.8845
  312TMC3    C1 4688   4.326   1.087  12.818  0.4344  0.2418 -0.3220
  312TMC3    C2 4689   4.209   1.107  12.752 -0.6749 -0.0606 -0.1268
  312TMC3    C3 4690   4.099   1.103  12.832 -0.0819  0.6202 -0.3478
  312TMC3    C4 4691   4.335   1.079  12.954  0.3746 -0.2581 -0.7961
  312TMC3    C5 4692   4.218   1.067  13.025 -0.3887  0.4059 -0.1543
  312TMC3    C6 4693   4.100   1.080  12.963  0.4844  0.0279  0.4035
  312TMC3     C 4694   4.441   1.040  12.732  0.7838  0.2386  0.2415
  312TMC3     O 4695   4.403   0.994  12.629  0.5186  0.0364  0.0116
  312TMC3     H 4696   4.207   1.134  12.647  0.0429 -0.8036 -0.3304
  312TMC3    H1 4697   4.424   1.040  13.002 -1.2044 -1.1838  1.3759
  312TMC3    H2 4698   4.002   1.084  13.009  0.3184 -0.9246  0.1424
  312TMC3    C7 4699   4.214   1.007  13.154  0.0855 -0.1193 -0.0459
  312TMC3    C8 4700   3.970   1.106  12.764  0.0325  0.1486  0.3394
  312TMC3    O1 4701   4.117   0.933  13.177 -0.1733 -0.4081 -0.3402
  312TMC3    O2 4702   3.874   1.036  12.801  0.4477  0.0381  0.2093
  313MPD2     C 4703   4.617   4.686  10.090  0.2728 -0.0170 -0.0422
  313MPD2    C1 4704   4.481   4.712  10.115 -0.0258 -1.0479  0.4043
  313MPD2    C2 4705   4.389   4.639  10.040  0.5163  0.6292 -0.0201
  313MPD2    C3 4706   4.424   4.570   9.931 -0.3016  0.5552 -0.0180
  313MPD2    C4 4707   4.554   4.539   9.912  0.2530 -0.2375  0.1904
  313MPD2    C5 4708   4.652   4.603   9.992 -0.2634 -0.2989  0.3314
  313MPD2     H 4709   4.284   4.652  10.067  0.8263  0.8250  1.1043
  313MPD2    H1 4710   4.585   4.465   9.840  2.1787  2.1970 -1.5057
  313MPD2    H2 4711   4.697   4.715  10.156 -2.3217 -0.6307  3.3324
  313MPD2    H3 4712   0.030   4.585   9.972 -0.6147 -1.4691 -0.4951
  313MPD2     N 4713   4.328   4.504   9.852 -0.0257 -0.2957  0.8310
  313MPD2    H5 4714   4.230   4.511   9.876 -0.0492  1.6226  0.1971
  313MPD2    N1 4715   4.435   0.087  10.205  0.0457  0.2243  0.5905
  313MPD2    H7 4716   4.334   0.098  10.212  0.0395  0.6286 -0.1037
  314TMC3    C1 4717   4.431   0.266  10.357 -0.2015  0.0377  0.3809
  314TMC3    C2 4718   4.483   0.323  10.472  0.2397 -0.0250 -0.0568
  314TMC3    C3 4719   4.417   0.416  10.537 -0.2766  0.4968 -0.1514
  314TMC3    C4 4720   4.321   0.318  10.296 -0.3642 -0.1352  0.0473
  314TMC3    C5 4721   4.264   0.425  10.350 -0.3330 -0.1537 -0.1794
  314TMC3    C6 4722   4.303   0.475  10.474 -0.3195 -0.4216 -0.0942
  314TMC3     C 4723   4.506   0.168  10.284 -0.2457  0.4104  0.6036
  314TMC3     O 4724   4.622   0.154  10.315 -0.8502 -0.4420  0.5486
  314TMC3     H 4725   4.551   0.268  10.535  0.8774 -0.8028 -1.4098
  314TMC3    H1 4726   4.304   0.298  10.191 -4.7338  0.2047  0.6831
  314TMC3    H2 4727   4.256   0.564  10.513  0.1568  0.7885 -2.2978
  314TMC3    C7 4728   4.155   0.501  10.294  0.3965  0.5366 -0.3827
  314TMC3    C8 4729   4.489   0.511  10.624  0.3343  0.4210 -0.0973
  314TMC3    O1 4730   4.056   0.537  10.361 -0.9743 -0.2056 -0.4019
  314TMC3    O2 4731   4.413   0.595  10.672 -0.3643 -0.1794  0.1463
  315MPD2     C 4732   3.675   0.606  17.364 -1.0610  0.1352 -0.2908
  315MPD2    C1 4733   3.738   0.483  17.340  0.9655 -0.0661  0.0724
  315MPD2    C2 4734   3.821   0.480  17.235  0.2784 -0.3654 -0.0846
  315MPD2    C3 4735   3.846   0.588  17.152 -0.3254  0.7397  0.3469
  315MPD2    C4 4736   3.766   0.697  17.173  0.4526 -0.3297  0.1266
  315MPD2    C5 4737   3.686   0.714  17.279  0.2537 -0.3979  0.7045
  315MPD2     H 4738   3.856   0.383  17.201  2.7604 -0.3270  2.3346
  315MPD2    H1 4739   3.775   0.786  17.111  1.7288 -1.2021 -0.9626
  315MPD2    H2 4740   3.608   0.630  17.446 -0.5208 -1.3098  0.5878
  315MPD2    H3 4741   3.623   0.801  17.292  0.2102 -0.2637 -0.3613
  315MPD2     N 4742   3.944   0.575  17.047  0.2496  0.0723  0.2135
  315MPD2    H5 4743   4.010   0.502  17.072  3.0954  2.3405 -0.6924
  315MPD2    N1 4744   3.719   0.367  17.419 -0.0507  0.2262  0.1749
  315MPD2    H7 4745   3.763   0.283  17.384 -0.2142 -0.2202  1.0485
  316TMC3    C1 4746   4.100   0.626  16.900  0.3467 -0.3715  0.7787
  316TMC3    C2 4747   4.201   0.581  16.980  0.0516  0.1294  0.7419
  316TMC3    C3 4748   4.308   0.535  16.916 -0.6394 -0.6415  0.6472
  316TMC3    C4 4749   4.100   0.618  16.764  0.0151  0.0265  0.4226
  316TMC3    C5 4750   4.206   0.557  16.703  0.3263 -0.4960 -0.2396
  316TMC3    C6 4751   4.312   0.515  16.783  0.2953  0.4600  0.4139
  316TMC3     C 4752   3.976   0.666  16.951 -0.3987 -0.2377  0.3317
  316TMC3     O 4753   3.919   0.769  16.920 -0.0443 -0.2831 -0.4668
  316TMC3     H 4754   4.200   0.577  17.089 -2.5508  1.8907  0.7720
  316TMC3    H1 4755   4.012   0.657  16.713  0.7507  0.3664 -0.5756
  316TMC3    H2 4756   4.399   0.462  16.744 -1.7296  0.3722 -3.9378
  316TMC3    C7 4757   4.218   0.527  16.562 -0.0675  0.0501  0.3077
  316TMC3    C8 4758   4.428   0.506  16.981  0.3958 -0.2166  0.0039
  316TMC3    O1 4759   4.302   0.443  16.527 -0.0582 -0.5442 -0.4237
  316TMC3    O2 4760   4.538   0.549  16.935 -0.1345 -0.0985  0.0893
  317MPD2     C 4761   0.911   3.362  12.761  0.1414  0.1251  0.1138
  317MPD2    C1 4762   0.923   3.223  12.741 -1.0215  0.6423  0.4499
  317MPD2    C2 4763   0.963   3.153  12.852  0.4515  0.1234 -0.1134
  317MPD2    C3 4764   0.989   3.218  12.977 -0.3913  0.2511 -0.2068
  317MPD2    C4 4765   0.961   3.352  12.994  0.3135 -0.5256 -0.2288
  317MPD2    C5 4766   0.908   3.420  12.888 -1.3959  0.7624  0.0093
  317MPD2     H 4767   0.981   3.048  12.832 -0.1173 -0.3138  1.7461
  317MPD2    H1 4768   0.974   3.414  13.082  0.4783 -0.7254 -0.1119
  317MPD2    H2 4769   0.862   3.428  12.690 -0.7325  0.9372  1.4549
  317MPD2    H3 4770   0.881   3.525  12.899  0.2986  1.2379 -0.3411
  317MPD2     N 4771   1.047   3.138  13.079  0.1589 -0.3334  0.0398
  317MPD2    H5 4772   1.063   3.039  13.063 -3.0258 -0.6173 -1.3582
  317MPD2    N1 4773   0.905   3.158  12.622  0.8108 -0.3542  0.3117
  317MPD2    H7 4774   0.894   3.058  12.633 -1.3386 -0.1006  0.6477
  318TMC3    C1 4775   1.143   3.081  13.279 -0.1516 -0.4014  0.5297
  318TMC3    C2 4776   1.080   2.959  13.267 -0.1659  0.2114 -0.3964
  318TMC3    C3 4777   1.125   2.852  13.333 -0.5481  0.0523  0.1650
  318TMC3    C4 4778   1.250   3.104  13.363  0.9293  0.3973 -0.2122
  318TMC3    C5 4779   1.291   2.990  13.427  0.3046 -0.2143  0.7002
  318TMC3    C6 4780   1.234   2.868  13.411  0.1712 -0.3233  0.8848
  318TMC3     C 4781   1.097   3.191  13.194 -0.1886 -0.2753 -0.9437
  318TMC3     O 4782   1.097   3.296  13.247 -0.1672 -0.1464  0.4960
  318TMC3     H 4783   0.984   2.960  13.216 -0.1856 -1.7762 -0.3787
  318TMC3    H1 4784   1.292   3.203  13.374 -0.8749  1.0930  0.3858
  318TMC3    H2 4785   1.256   2.784  13.476  3.0494  1.6254  2.4697
  318TMC3    C7 4786   1.405   3.004  13.518  0.6885 -0.6370 -0.0054
  318TMC3    C8 4787   1.099   2.717  13.282  0.1171 -0.6343  0.6130
  318TMC3    O1 4788   1.445   3.119  13.545  0.3681  0.4174  0.5746
  318TMC3    O2 4789   1.171   2.626  13.316 -0.3592 -0.0583  0.4291
  319MPD2     C 4790   2.339   4.467  16.433  0.3768 -0.1362 -0.2476
  319MPD2    C1 4791   2.235   4.392  16.481 -0.1094 -0.5498 -0.6909
  319MPD2    C2 4792   2.144   4.345  16.388  0.6415 -0.0022 -0.0949
  319MPD2    C3 4793   2.165   4.348  16.252 -0.4511 -0.1164 -0.1156
  319MPD2    C4 4794   2.273   4.422  16.200  0.1724 -0.2357 -0.2230
  319MPD2    C5 4795   2.354   4.486  16.298 -0.0172  0.4666  0.5832
  319MPD2     H 4796   2.054   4.294  16.419  0.2059  0.0412 -1.2832
  319MPD2    H1 4797   2.268   4.435  16.093 -0.7599 -1.5970 -0.3498
  319MPD2    H2 4798   2.416   4.509  16.497  0.0212  0.6378 -0.3244
  319MPD2    H3 4799   2.423   4.561  16.260  1.6494 -1.5632 -0.3992
  319MPD2     N 4800   2.067   4.297  16.160  0.0751 -0.0388  0.1284
  319MPD2    H5 4801   2.083   4.342  16.070  0.5881  0.4270  0.4574
  319MPD2    N1 4802   2.202   4.370  16.620  0.0349 -0.3489  0.3274
  319MPD2    H7 4803   2.124   4.308  16.640 -0.2870  0.2004  0.7948
  320TMC3    C1 4804   1.901   4.175  16.050  0.6796 -0.4168 -0.3550
  320TMC3    C2 4805   1.871   4.279  15.969 -0.2141  0.2902 -0.8118
  320TMC3    C3 4806   1.774   4.255  15.870 -0.0166  0.3670  0.6377
  320TMC3    C4 4807   1.832   4.058  16.052 -0.0480  0.2123  0.0823
  320TMC3    C5 4808   1.741   4.037  15.950 -0.0954 -0.2596 -0.2476
  320TMC3    C6 4809   1.706   4.137  15.864 -0.5817  0.1163  0.3637
  320TMC3     C 4810   1.963   4.211  16.181 -0.3265  0.6338 -0.2239
  320TMC3     O 4811   1.950   4.131  16.273  0.2388  0.3072 -0.8324
  320TMC3     H 4812   1.921   4.375  15.961  0.3138 -0.0078 -1.0756
  320TMC3    H1 4813   1.876   3.982  16.115 -0.0951  0.5632  0.5371
  320TMC3    H2 4814   1.612   4.123  15.811  1.4738 -3.5097 -2.3754
  320TMC3    C7 4815   1.698   3.900  15.932  0.3940  0.2221 -0.2886
  320TMC3    C8 4816   1.746   4.364  15.784 -0.0625  0.4512  0.6357
  320TMC3    O1 4817   1.649   3.862  15.826  0.1510  0.2236 -0.9221
  320TMC3    O2 4818   1.818   4.460  15.799  0.3218 -0.6786  0.0875
  321TMC3    C1 4819   2.216   4.383  16.849  0.0842  0.7478 -1.1156
  321TMC3    C2 4820   2.197   4.250  16.856  0.4168  0.2563 -0.3552
  321TMC3    C3 4821   2.158   4.194  16.974 -0.1112  0.9459  0.7541
  321TMC3    C4 4822   2.218   4.460  16.961  0.3685 -0.2752 -0.6823
  321TMC3    C5 4823   2.178   4.404  17.078 -1.4120 -0.0244  0.0201
  321TMC3    C6 4824   2.124   4.276  17.079  0.0253  0.0000  1.1893
  321TMC3     C 4825   2.259   4.437  16.720  0.6028  0.3230 -0.1804
  321TMC3     O 4826   2.331   4.535  16.718  0.0921  0.1520  0.9184
  321TMC3     H 4827   2.213   4.179  16.775  0.0506 -0.4535  0.1912
  321TMC3    H1 4828   2.255   4.561  16.945  0.9309 -0.2284  0.9774
  321TMC3    H2 4829   2.089   4.236  17.174  0.6106  0.0619  1.4281
  321TMC3    C7 4830   2.256   4.432  17.200  0.2339  0.3305 -0.2763
  321TMC3    C8 4831   2.234   4.072  17.001  0.6628  0.7324 -0.5909
  321TMC3    O1 4832   2.266   4.337  17.277  0.2530 -0.1843  0.5431
  321TMC3    O2 4833   2.327   4.052  16.924  0.5766 -0.1206  0.5866
  322MPD2     C 4834   0.925   0.828  13.154  0.4421  0.3100  0.2071
  322MPD2    C1 4835   0.994   0.791  13.267  0.1122 -0.0414  0.1126
  322MPD2    C2 4836   1.056   0.668  13.280 -0.1415  0.6141  0.7662
  322MPD2    C3 4837   1.063   0.583  13.171  0.2789  0.2230  0.0203
  322MPD2    C4 4838   0.988   0.624  13.062 -0.2203 -0.5970 -0.2587
  322MPD2    C5 4839   0.925   0.737  13.051 -0.3076 -0.3701  0.7109
  322MPD2     H 4840   1.111   0.643  13.370 -1.1830 -0.0948  1.2085
  322MPD2    H1 4841   0.982   0.551  12.982  1.6349  0.6128 -1.4910
  322MPD2    H2 4842   0.881   0.927  13.146  0.9723  0.5248 -0.0025
  322MPD2    H3 4843   0.873   0.765  12.960  3.4236 -0.5516 -1.4539
  322MPD2     N 4844   1.136   0.464  13.194 -0.1999  0.4499  0.2951
  322MPD2    H5 4845   1.211   0.470  13.262  0.5433 -1.0992 -0.3928
  322MPD2    N1 4846   1.000   0.886  13.376  0.5199  0.3972  0.4194
  322MPD2    H7 4847   0.952   0.975  13.369 -0.1034 -0.0404 -0.7992
  323TMC3    C1 4848   1.075   0.981  13.575 -0.3149 -0.0416 -0.8636
  323TMC3    C2 4849   1.142   1.090  13.519  0.7902 -0.0866  0.0702
  323TMC3    C3 4850   1.217   1.168  13.599 -0.9520 -0.0733  0.2008
  323TMC3    C4 4851   1.080   0.956  13.713  0.9095  0.1414 -1.2290
  323TMC3    C5 4852   1.151   1.043  13.788  0.3014 -0.8618 -0.8874
  323TMC3    C6 4853   1.214   1.153  13.736 -0.2094  0.3302 -0.4896
  323TMC3     C 4854   1.042   0.860  13.501 -0.0679 -0.3273  0.4661
  323TMC3     O 4855   1.041   0.753  13.556 -0.4399  0.1197  0.3337
  323TMC3     H 4856   1.145   1.084  13.411 -2.9695 -2.2310  0.0818
  323TMC3    H1 4857   1.038   0.869  13.761 -0.6618  0.9077 -1.1882
  323TMC3    H2 4858   1.278   1.211  13.802 -0.0534 -0.2393 -0.1421
  323TMC3    C7 4859   1.186   0.995  13.923  1.0124  0.1510  0.1862
  323TMC3    C8 4860   1.349   1.208  13.547 -0.4598  0.1462 -0.1454
  323TMC3    O1 4861   1.233   0.885  13.941 -0.0823 -0.8391  0.0483
  323TMC3    O2 4862   1.434   1.199  13.636 -0.1633  0.2711  0.0912
  324MPD2     C 4863   2.671   1.592  13.637 -0.2220  0.3363  0.0130
  324MPD2    C1 4864   2.671   1.721  13.670 -0.2702  0.2131  0.1230
  324MPD2    C2 4865   2.544   1.777  13.687 -0.0284 -0.1815 -0.3203
  324MPD2    C3 4866   2.431   1.711  13.677  0.1572  0.8013  0.2358
  324MPD2    C4 4867   2.434   1.581  13.636 -0.0606 -0.5166  0.0888
  324MPD2    C5 4868   2.553   1.523  13.618 -0.0351 -0.2874 -0.5267
  324MPD2     H 4869   2.539   1.877  13.729 -1.1006 -0.2864 -0.2011
  324MPD2    H1 4870   2.344   1.525  13.615 -0.5491 -0.0284  0.9017
  324MPD2    H2 4871   2.765   1.545  13.612  0.3032  0.9308  0.8788
  324MPD2    H3 4872   2.559   1.420  13.585  0.3667 -0.7451  0.9629
  324MPD2     N 4873   2.306   1.766  13.708 -0.3486 -0.7348  0.4962
  324MPD2    H5 4874   2.227   1.702  13.712 -1.1266  0.2699  1.2170
  324MPD2    N1 4875   2.781   1.797  13.704  0.2240 -0.3709  0.3166
  324MPD2    H7 4876   2.758   1.883  13.752  1.8402 -1.7896  3.5678
  325TMC3    C1 4877   2.165   1.937  13.813 -0.6638 -0.3688  0.3926
  325TMC3    C2 4878   2.049   1.871  13.782  0.0334 -0.3002  0.5705
  325TMC3    C3 4879   1.928   1.937  13.818 -0.0662 -0.2748  0.1149
  325TMC3    C4 4880   2.162   2.065  13.860 -0.3296  0.8452 -0.4182
  325TMC3    C5 4881   2.041   2.122  13.898  0.6139 -0.5435  0.4359
  325TMC3    C6 4882   1.920   2.055  13.882 -0.2991  0.5210  0.3083
  325TMC3     C 4883   2.290   1.901  13.744  0.1197 -0.3353  0.4461
  325TMC3     O 4884   2.357   1.998  13.702 -0.2094  0.1731 -0.3915
  325TMC3     H 4885   2.054   1.784  13.718 -1.4647 -0.3164  0.4780
  325TMC3    H1 4886   2.253   2.122  13.877 -0.0023  0.2907 -0.3110
  325TMC3    H2 4887   1.828   2.092  13.923 -0.0765  3.2498 -1.6685
  325TMC3    C7 4888   2.045   2.266  13.896 -0.4660 -0.0292  0.1435
  325TMC3    C8 4889   1.805   1.873  13.779 -0.6021  0.0982  0.1031
  325TMC3    O1 4890   2.154   2.305  13.865 -0.6934  0.8593  0.4369
  325TMC3    O2 4891   1.812   1.777  13.700 -0.1124 -0.1480  0.1376
  326MPD2     C 4892   3.785   2.578  11.046 -0.2816  0.3017 -0.4106
  326MPD2    C1 4893   3.703   2.612  10.937 -0.3401 -0.1786  0.3776
  326MPD2    C2 4894   3.746   2.717  10.862 -0.3857  0.2229 -0.1337
  326MPD2    C3 4895   3.856   2.799  10.905  0.3348  0.6410  0.6258
  326MPD2    C4 4896   3.924   2.761  11.011 -0.4338  1.1643 -0.6058
  326MPD2    C5 4897   3.896   2.649  11.077 -0.3786  0.0005 -0.0241
  326MPD2     H 4898   3.685   2.744  10.777  0.9538 -0.8802 -1.4465
  326MPD2    H1 4899   4.015   2.810  11.043 -0.6613  0.4896  1.0845
  326MPD2    H2 4900   3.757   2.501  11.116 -4.8780  1.6629 -0.7514
  326MPD2    H3 4901   3.954   2.624  11.165  0.2655 -0.2458 -0.5173
  326MPD2     N 4902   3.902   2.910  10.831  0.2499 -0.4973 -0.4136
  326MPD2    H5 4903   3.978   2.969  10.865 -1.6203  1.0989  0.9399
  326MPD2    N1 4904   3.578   2.561  10.894 -0.2099 -0.2233 -0.4625
  326MPD2    H7 4905   3.522   2.619  10.831 -0.6982 -0.2993 -0.1000
  327TMC3    C1 4906   3.422   2.422  10.846 -0.0670 -0.4447 -0.3367
  327TMC3    C2 4907   3.348   2.534  10.832 -0.5427 -0.1577 -0.2203
  327TMC3    C3 4908   3.283   2.548  10.713  0.2467  0.2811  0.8177
  327TMC3    C4 4909   3.449   2.342  10.740  0.6860 -0.1716 -0.0678
  327TMC3    C5 4910   3.395   2.361  10.618  0.5200 -0.0290 -0.2097
  327TMC3    C6 4911   3.308   2.465  10.605  0.1029  0.4153 -0.1074
  327TMC3     C 4912   3.533   2.441  10.928  0.0849  0.0417 -1.1029
  327TMC3     O 4913   3.593   2.339  10.961  0.1680  0.3440  0.2015
  327TMC3     H 4914   3.333   2.604  10.913  2.0584 -1.0396  1.0452
  327TMC3    H1 4915   3.511   2.257  10.766  0.9731  0.4327  1.2622
  327TMC3    H2 4916   3.252   2.460  10.512 -1.8426 -0.3520  1.1134
  327TMC3    C7 4917   3.489   2.360  10.509 -0.0796 -0.4854 -0.4360
  327TMC3    C8 4918   3.184   2.649  10.678 -0.0484  0.2566 -0.2713
  327TMC3    O1 4919   3.452   2.395  10.396  0.3205  0.2657 -0.1526
  327TMC3    O2 4920   3.161   2.660  10.556 -0.0541  0.4242  0.1407
  328MPD2     C 4921   1.691   3.369  16.963 -0.0878 -0.1758  0.7133
  328MPD2    C1 4922   1.587   3.308  16.890 -0.2094  0.1012  0.7492
  328MPD2    C2 4923   1.555   3.361  16.760  0.3157  0.1971 -0.1263
  328MPD2    C3 4924   1.618   3.478  16.715  0.0882 -0.0599  0.0913
  328MPD2    C4 4925   1.712   3.541  16.805  0.3805  0.5614  0.0722
  328MPD2    C5 4926   1.747   3.492  16.927  1.2476 -0.4241  0.2060
  328MPD2     H 4927   1.471   3.325  16.702  1.2952  0.4845 -1.7264
  328MPD2    H1 4928   1.771   3.626  16.773  1.5588  0.1592  1.1789
  328MPD2    H2 4929   1.720   3.332  17.061  0.3479  0.0089  0.6549
  328MPD2    H3 4930   1.828   3.541  16.979  0.2854  2.4506 -0.9979
  328MPD2     N 4931   1.581   3.558  16.600  0.8697 -0.0392  0.1452
  328MPD2    H5 4932   1.622   3.651  16.595  3.0739 -1.0231 -0.2067
  328MPD2    N1 4933   1.545   3.179  16.937  0.1395  0.4592 -0.4304
  328MPD2    H7 4934   1.588   3.148  17.023 -0.5298 -2.1676 -1.0384
  329TMC3    C1 4935   1.412   2.980  16.933 -0.2509 -0.0984  0.7634
  329TMC3    C2 4936   1.397   2.966  17.071 -0.1500  0.5029 -0.5217
  329TMC3    C3 4937   1.376   2.838  17.120  0.0671  0.8708 -0.7458
  329TMC3    C4 4938   1.379   2.868  16.850  0.1338  1.3236 -0.1935
  329TMC3    C5 4939   1.352   2.750  16.900  0.1695  0.2776  0.4396
  329TMC3    C6 4940   1.366   2.733  17.034 -0.0648  0.5897  0.8597
  329TMC3     C 4941   1.434   3.113  16.886  0.2711 -0.3010 -0.2229
  329TMC3     O 4942   1.360   3.146  16.791 -0.5969  0.5878  0.1930
  329TMC3     H 4943   1.424   3.047  17.139 -0.3258 -0.7206  0.9941
  329TMC3    H1 4944   1.366   2.889  16.744  4.0478  2.0531 -0.5384
  329TMC3    H2 4945   1.381   2.637  17.081 -1.1518 -0.1543 -0.2926
  329TMC3    C7 4946   1.334   2.637  16.803  0.4957  0.7039 -0.5603
  329TMC3    C8 4947   1.315   2.814  17.251 -0.5352  0.2982  0.1242
  329TMC3    O1 4948   1.368   2.663  16.683 -0.3730  0.2941  0.3895
  329TMC3    O2 4949   1.317   2.706  17.302  0.2034 -0.3149  0.3014
  330TMC3    C1 4950   3.833   2.528   9.261 -0.0800  0.4332 -0.2146
  330TMC3    C2 4951   3.726   2.490   9.182 -0.4704 -0.1273  0.0336
  330TMC3    C3 4952   3.751   2.403   9.091  0.0886  0.7209  0.2446
  330TMC3    C4 4953   3.955   2.476   9.244  0.4057 -0.5237 -0.3699
  330TMC3    C5 4954   3.969   2.378   9.147  0.0353  0.6132 -0.3235
  330TMC3    C6 4955   3.869   2.337   9.063  0.2594 -0.5685 -0.0420
  330TMC3     C 4956   3.817   2.628   9.363 -0.4627  0.1766  0.0566
  330TMC3     O 4957   3.920   2.667   9.403 -0.2455  0.1168 -0.1660
  330TMC3     H 4958   3.631   2.542   9.179 -0.8987 -0.8236  1.6559
  330TMC3    H1 4959   4.038   2.513   9.303  2.6630 -0.6510 -3.4784
  330TMC3    H2 4960   3.879   2.257   8.990 -3.0513  0.1778 -1.3164
  330TMC3    C7 4961   4.095   2.313   9.139 -0.7406 -0.3861 -0.6828
  330TMC3    C8 4962   3.634   2.358   9.015 -0.1229 -0.2435 -0.2432
  330TMC3    O1 4963   4.093   2.195   9.100 -0.3228  0.5794  0.9579
  330TMC3    O2 4964   3.547   2.438   8.987  0.1301  0.7667  0.8733
  331MPD2     C 4965   1.634   1.402  12.149  0.3927  0.4328  0.1601
  331MPD2    C1 4966   1.756   1.420  12.079  0.0660 -0.0435  0.4194
  331MPD2    C2 4967   1.840   1.315  12.055  0.7320  0.2461 -0.2531
  331MPD2    C3 4968   1.809   1.193  12.118 -0.3116  0.1074 -0.3515
  331MPD2    C4 4969   1.699   1.175  12.203 -0.2556  0.3929  0.0311
  331MPD2    C5 4970   1.610   1.283  12.214 -0.6846  0.0831 -1.0388
  331MPD2     H 4971   1.932   1.326  11.999  0.5096 -0.6519 -0.7945
  331MPD2    H1 4972   1.680   1.083  12.258 -0.3837  0.9186  0.8705
  331MPD2    H2 4973   1.559   1.479  12.153 -1.0783 -1.0902  1.6154
  331MPD2    H3 4974   1.521   1.270  12.274  0.8082 -0.2296  1.1396
  331MPD2     N 4975   1.888   1.072  12.105 -0.2714 -0.6289  0.4354
  331MPD2    H5 4976   1.880   0.995  12.170 -0.9599 -0.9309 -0.0113
  331MPD2    N1 4977   1.803   1.541  12.017 -0.5057 -0.2276 -0.5870
  331MPD2    H7 4978   1.887   1.538  11.960  1.8050  2.0864  2.6989
  332TMC3    C1 4979   2.078   0.967  12.053 -0.3981 -0.5124 -0.0322
  332TMC3    C2 4980   2.126   0.912  11.939 -0.3353  0.1067 -0.8540
  332TMC3    C3 4981   2.262   0.903  11.921 -0.0743  0.4399  0.3074
  332TMC3    C4 4982   2.163   1.019  12.155  0.0220 -0.2513 -1.1426
  332TMC3    C5 4983   2.301   1.004  12.135 -0.4576  0.3176  0.0876
  332TMC3    C6 4984   2.350   0.936  12.025  0.6851 -0.7604  0.2343
  332TMC3     C 4985   1.975   1.054  12.007 -0.3637  0.1807 -0.2083
  332TMC3     O 4986   2.000   1.120  11.914  0.0548 -0.1907  0.3470
  332TMC3     H 4987   2.053   0.890  11.862 -0.7427  1.1285 -0.7527
  332TMC3    H1 4988   2.125   1.075  12.241 -3.4465 -0.3023 -2.6524
  332TMC3    H2 4989   2.457   0.938  12.013  1.0753  0.7458  3.9863
  332TMC3    C7 4990   2.376   1.119  12.176 -0.7729  0.7612 -1.0844
  332TMC3    C8 4991   2.297   0.970  11.798 -0.5759  0.1950  0.3026
  332TMC3    O1 4992   2.309   1.215  12.199  0.0070 -0.1312 -0.0956
  332TMC3    O2 4993   2.403   1.036  11.817  0.7836  0.3294 -0.6848
  333MPD2     C 4994   1.979   1.199  10.675  0.2516  0.5196 -0.4218
  333MPD2    C1 4995   2.081   1.112  10.627  1.0612 -0.7647  0.1484
  333MPD2    C2 4996   2.089   0.979  10.675 -0.4103  0.2204  0.1331
  333MPD2    C3 4997   2.011   0.944  10.784  0.1077 -0.7593 -0.1899
  333MPD2    C4 4998   1.898   1.020  10.819 -0.1277  0.4146  0.1332
  333MPD2    C5 4999   1.893   1.146  10.765 -0.5152 -0.1572 -0.0179
  333MPD2     H 5000   2.179   0.924  10.651 -1.0507 -1.1449  0.8535
  333MPD2    H1 5001   1.824   1.000  10.895 -0.3603 -2.7597 -0.9274
  333MPD2    H2 5002   1.977   1.304  10.647  0.9326  1.4391  3.0609
  333MPD2    H3 5003   1.827   1.218  10.811  0.9430 -0.9351  3.2937
  333MPD2     N 5004   2.052   0.834  10.857 -0.3089 -0.2677  0.8506
  333MPD2    H5 5005   2.141   0.798  10.827 -0.8029 -0.9715  0.2411
  333MPD2    N1 5006   2.170   1.155  10.526  0.2446  0.5868 -0.4341
  333MPD2    H7 5007   2.180   1.255  10.513  0.4288  0.4403 -1.4003
  334TMC3    C1 5008   2.351   1.142  10.387 -0.3595  0.0592  0.1122
  334TMC3    C2 5009   2.460   1.053  10.371  0.4731 -0.4729 -0.4615
  334TMC3    C3 5010   2.580   1.111  10.350 -0.3649 -0.2286  0.6889
  334TMC3    C4 5011   2.366   1.280  10.376 -0.3295  0.1547  0.5818
  334TMC3    C5 5012   2.491   1.334  10.367 -0.0254  1.1466  0.1918
  334TMC3    C6 5013   2.600   1.249  10.343  0.4301 -0.1167 -0.0698
  334TMC3     C 5014   2.233   1.076  10.433  0.3994 -0.0508  0.1079
  334TMC3     O 5015   2.215   0.957  10.408  0.3422 -0.1722 -0.3999
  334TMC3     H 5016   2.446   0.947  10.392  1.5076 -0.5934 -0.3890
  334TMC3    H1 5017   2.280   1.346  10.384 -0.4904  0.1011 -0.7560
  334TMC3    H2 5018   2.699   1.293  10.346  0.7591 -0.8819  0.2215
  334TMC3    C7 5019   2.512   1.482  10.380 -0.6042  0.4219 -0.3828
  334TMC3    C8 5020   2.693   1.018  10.352 -0.0642 -0.0415 -0.2781
  334TMC3    O1 5021   2.620   1.526  10.345  0.2634  0.5279 -0.3062
  334TMC3    O2 5022   2.662   0.902  10.381  0.2564  0.1569  0.1629
  335TMC3    C1 5023   2.181   3.003  16.804  0.4561 -0.4137  0.0450
  335TMC3    C2 5024   2.161   2.984  16.669 -0.0983 -0.2749  0.0937
  335TMC3    C3 5025   2.265   2.937  16.590 -0.2815  1.1399  0.6088
  335TMC3    C4 5026   2.297   2.981  16.860 -0.3460 -0.2538 -0.2720
  335TMC3    C5 5027   2.397   2.940  16.780  0.4993 -0.5683 -0.0176
  335TMC3    C6 5028   2.387   2.917  16.647  0.2794  0.4935 -0.1805
  335TMC3     C 5029   2.064   3.028  16.889 -0.0319 -0.1788 -1.2896
  335TMC3     O 5030   1.954   2.990  16.856  0.0245 -0.2004 -0.2913
  335TMC3     H 5031   2.067   3.023  16.631 -0.2098 -1.0526 -0.4304
  335TMC3    H1 5032   2.309   3.000  16.966  2.0941 -1.3228 -0.3640
  335TMC3    H2 5033   2.473   2.899  16.582  1.0734 -0.1238  1.0290
  335TMC3    C7 5034   2.530   2.935  16.843  0.3426 -0.4098 -0.1231
  335TMC3    C8 5035   2.237   2.837  16.482 -0.3014  1.0010  0.2586
  335TMC3    O1 5036   2.621   2.969  16.772 -0.2287 -0.1013 -0.0004
  335TMC3    O2 5037   2.326   2.760  16.447  0.0699 -0.3981  0.0720
  336MPD2     C 5038   1.995   0.891  16.216  0.2552 -0.2431  0.2099
  336MPD2    C1 5039   1.970   0.844  16.086 -0.0702  0.4854  0.3867
  336MPD2    C2 5040   1.995   0.714  16.052 -0.4285  0.2141  0.4744
  336MPD2    C3 5041   2.058   0.635  16.148  0.4530  0.2630 -0.2801
  336MPD2    C4 5042   2.095   0.689  16.273  0.6685 -0.1231 -0.5030
  336MPD2    C5 5043   2.063   0.817  16.303  0.4106 -0.7058  0.2679
  336MPD2     H 5044   1.962   0.674  15.957  2.2359  0.4075 -0.5519
  336MPD2    H1 5045   2.152   0.634  16.348 -0.9690  0.7501  1.3782
  336MPD2    H2 5046   1.976   0.995  16.237 -0.5076 -0.5447  1.0507
  336MPD2    H3 5047   2.076   0.864  16.400 -1.5857  0.4622 -0.0298
  336MPD2     N 5048   2.075   0.498  16.127 -0.5971 -0.3554  0.0554
  336MPD2    H5 5049   2.109   0.440  16.203  1.3141 -0.0579 -0.5862
  336MPD2    N1 5050   1.926   0.936  15.983 -0.1636  0.2070 -0.3690
  336MPD2    H7 5051   1.920   1.036  16.001  0.2417  0.1151  0.2941
  337TMC3    C1 5052   1.883   1.017  15.772  0.1396  0.0912  1.3008
  337TMC3    C2 5053   1.777   1.029  15.683 -0.2478  0.0800 -0.5807
  337TMC3    C3 5054   1.764   1.132  15.599 -0.1412 -0.2391  0.2825
  337TMC3    C4 5055   1.962   1.123  15.794 -0.5610  0.2887  0.7367
  337TMC3    C5 5056   1.945   1.231  15.718  0.7153  0.0101  0.1931
  337TMC3    C6 5057   1.853   1.237  15.619  0.1247  0.3591  0.9046
  337TMC3     C 5058   1.893   0.898  15.854  0.2833 -0.1454  0.1635
  337TMC3     O 5059   1.814   0.809  15.825  0.6621  0.3411 -0.7030
  337TMC3     H 5060   1.705   0.950  15.669 -0.5656  0.0017  1.5694
  337TMC3    H1 5061   2.033   1.127  15.875  0.4295 -1.2672 -0.0629
  337TMC3    H2 5062   1.853   1.326  15.557  2.6602  0.5308  1.1319
  337TMC3    C7 5063   2.052   1.337  15.714  0.2214 -0.3771  0.4258
  337TMC3    C8 5064   1.632   1.181  15.567 -0.1959 -0.2850  0.3858
  337TMC3    O1 5065   2.013   1.452  15.686 -0.0941 -0.2773  0.4209
  337TMC3    O2 5066   1.626   1.304  15.564 -0.3735 -0.2583 -0.1443
  338MPD2     C 5067   2.506   0.431   0.753 -0.4694  0.2276 -0.4386
  338MPD2    C1 5068   2.412   0.431   0.653 -0.1468 -0.3272 -0.2734
  338MPD2    C2 5069   2.293   0.492   0.683 -0.4177  0.3190  0.1500
  338MPD2    C3 5070   2.260   0.545   0.807 -0.1246  0.0471 -0.4161
  338MPD2    C4 5071   2.361   0.540   0.902  0.2777  0.0353 -0.7631
  338MPD2    C5 5072   2.481   0.487   0.878  0.4492  0.5431  0.4047
  338MPD2     H 5073   2.204   0.481   0.621  1.4760  0.7374 -2.6384
  338MPD2    H1 5074   2.345   0.592   0.995  0.6160 -0.6589 -0.3113
  338MPD2    H2 5075   2.608   0.403   0.730  0.0837  1.4088  0.5799
  338MPD2    H3 5076   2.559   0.502   0.953  3.1406 -3.6871 -1.5736
  338MPD2     N 5077   2.127   0.589   0.827 -0.9181 -0.2381 -0.1705
  338MPD2    H5 5078   2.071   0.599   0.743 -1.0973 -1.7504 -0.2173
  338MPD2    N1 5079   2.433   0.386   0.523  0.5837  0.0928  0.6285
  338MPD2    H7 5080   2.356   0.405   0.460  1.8230 -2.5184 -1.7063
  339TMC3    C1 5081   1.929   0.653   0.931  0.0697  0.6646  0.0061
  339TMC3    C2 5082   1.859   0.577   1.025 -0.9510  0.3366 -0.0721
  339TMC3    C3 5083   1.726   0.549   0.993 -0.0218 -0.5989 -0.5072
  339TMC3    C4 5084   1.882   0.692   0.804  0.4152 -0.2581 -0.0116
  339TMC3    C5 5085   1.752   0.650   0.780  0.0077 -0.2093 -0.1666
  339TMC3    C6 5086   1.672   0.585   0.869  0.3137 -0.4251 -0.3535
  339TMC3     C 5087   2.068   0.630   0.949  0.1073 -0.5491 -0.8772
  339TMC3     O 5088   2.108   0.593   1.062  0.0306 -0.4511 -0.7038
  339TMC3     H 5089   1.896   0.544   1.121 -1.8883  1.6602  0.7415
  339TMC3    H1 5090   1.942   0.752   0.737 -1.1512  1.1018 -0.1975
  339TMC3    H2 5091   1.566   0.581   0.846  0.6740 -0.6177 -1.9728
  339TMC3    C7 5092   1.698   0.691   0.654 -0.1567  0.2567  0.5780
  339TMC3    C8 5093   1.645   0.468   1.084  0.3917 -0.0246 -0.1373
  339TMC3    O1 5094   1.602   0.767   0.665  0.5573  0.1874  0.0620
  339TMC3    O2 5095   1.522   0.477   1.063 -0.3431 -0.3351  0.1804
  340MPD2     C 5096   2.476   2.403   9.449 -0.0831  0.5852  0.0009
  340MPD2    C1 5097   2.536   2.281   9.485  0.1353  0.0731 -0.7433
  340MPD2    C2 5098   2.635   2.283   9.580 -0.6246 -0.0999 -0.4913
  340MPD2    C3 5099   2.683   2.404   9.625 -0.0759 -0.3306  0.1670
  340MPD2    C4 5100   2.632   2.525   9.590 -0.0879  0.5728  0.2647
  340MPD2    C5 5101   2.528   2.520   9.498  0.2184  0.0316 -0.8251
  340MPD2     H 5102   2.682   2.191   9.614 -0.0156  0.0519 -0.9142
  340MPD2    H1 5103   2.675   2.617   9.630 -0.0349  0.6481  0.0316
  340MPD2    H2 5104   2.381   2.402   9.397  0.9538 -0.1005 -1.8611
  340MPD2    H3 5105   2.483   2.617   9.477  0.5516  0.5900  1.0024
  340MPD2     N 5106   2.798   2.419   9.712 -0.8163  0.1724  0.4172
  340MPD2    H5 5107   2.845   2.505   9.737  1.2921 -0.6397 -0.7684
  340MPD2    N1 5108   2.484   2.159   9.427  0.6672 -0.1803 -0.5822
  340MPD2    H7 5109   2.412   2.166   9.355 -0.7160 -0.7275  0.7421
  341TMC3    C1 5110   2.461   1.935   9.373  0.3816 -1.1017 -0.7811
  341TMC3    C2 5111   2.334   1.960   9.323 -0.3039 -0.0940  0.0552
  341TMC3    C3 5112   2.268   1.855   9.256 -0.6791  0.3230  0.5700
  341TMC3    C4 5113   2.521   1.814   9.345  0.1585  0.4312 -0.4223
  341TMC3    C5 5114   2.463   1.719   9.267 -0.6177 -0.3977  0.7855
  341TMC3    C6 5115   2.332   1.742   9.218  0.0201  0.3327  0.0884
  341TMC3     C 5116   2.534   2.031   9.447 -0.1371  0.0587  0.4101
  341TMC3     O 5117   2.624   1.988   9.520 -0.3154 -0.1463  0.4485
  341TMC3     H 5118   2.281   2.046   9.362 -0.1652  0.3456 -0.7319
  341TMC3    H1 5119   2.625   1.796   9.372 -0.5476 -0.3112  1.8297
  341TMC3    H2 5120   2.283   1.673   9.150 -1.7805  0.7489  0.9758
  341TMC3    C7 5121   2.520   1.580   9.274 -0.1403  0.4731  0.3560
  341TMC3    C8 5122   2.134   1.859   9.214  0.7397 -0.2004  0.4252
  341TMC3    O1 5123   2.603   1.557   9.359  0.5270  0.1964 -0.2495
  341TMC3    O2 5124   2.084   1.765   9.162 -0.1384 -0.9512 -0.4712
  342MPD2     C 5125   0.057   1.100  17.386  0.3326 -0.5476 -1.4336
  342MPD2    C1 5126   0.094   1.163  17.265  0.4738 -0.6281  0.5592
  342MPD2    C2 5127   0.068   1.301  17.249 -0.0578  0.2717  0.2894
  342MPD2    C3 5128   4.724   1.373  17.345  0.3812  0.1399  0.5388
  342MPD2    C4 5129   4.682   1.305  17.454  0.4766  0.0281  0.0973
  342MPD2    C5 5130   4.712   1.172  17.472 -0.3741  0.6196  0.0506
  342MPD2     H 5131   0.102   1.353  17.161  0.6378 -2.2847 -0.9501
  342MPD2    H1 5132   4.637   1.354  17.540 -1.9728 -1.7769 -0.1575
  342MPD2    H2 5133   0.072   0.995  17.411  0.1103 -0.3267 -0.3866
  342MPD2    H3 5134   4.666   1.117  17.553 -0.3363  0.2102 -0.2037
  342MPD2     N 5135   4.711   1.513  17.328  0.4799 -0.8765 -0.3446
  342MPD2    H5 5136   0.014   1.552  17.239 -1.1147  1.6380  0.2458
  342MPD2    N1 5137   0.157   1.096  17.159 -0.0006  0.1876  0.4856
  342MPD2    H7 5138   0.174   1.142  17.071 -1.2815 -0.0616  0.1136
  343TMC3    C1 5139   0.274   0.918  17.060 -0.3456 -0.3080 -0.2790
  343TMC3    C2 5140   0.371   0.982  16.991 -0.4284  0.3315  0.0728
  343TMC3    C3 5141   0.435   0.901  16.893 -0.4187 -0.0281 -0.2407
  343TMC3    C4 5142   0.243   0.786  17.041  0.2416  0.5213  1.1084
  343TMC3    C5 5143   0.292   0.721  16.929  0.1916  0.8223  0.2459
  343TMC3    C6 5144   0.400   0.772  16.860  0.5295  0.1865  0.1291
  343TMC3     C 5145   0.217   0.975  17.174 -0.8067  0.0803  0.2660
  343TMC3     O 5146   0.215   0.888  17.259 -0.9139  0.2732  0.0119
  343TMC3     H 5147   0.409   1.083  17.005 -1.2127  0.7441 -0.8029
  343TMC3    H1 5148   0.153   0.752  17.091  0.6630  1.2410  2.3485
  343TMC3    H2 5149   0.452   0.718  16.782  0.3495 -0.8365  0.7147
  343TMC3    C7 5150   0.263   0.583  16.914  0.1824 -0.4787  0.4359
  343TMC3    C8 5151   0.572   0.928  16.869  0.7574 -0.0351  0.7111
  343TMC3    O1 5152   0.280   0.539  16.804 -0.0564 -0.0056 -0.3542
  343TMC3    O2 5153   0.625   0.996  16.955  0.1498  0.3862 -0.1163
  344MPD2     C 5154   1.630   0.226  10.160  0.3771  0.2710 -1.6603
  344MPD2    C1 5155   1.504   0.269  10.132 -0.9987 -0.0353 -0.2250
  344MPD2    C2 5156   1.489   0.369  10.039 -0.1246  0.5891  0.4221
  344MPD2    C3 5157   1.600   0.417   9.968 -0.3803 -0.7634  0.2198
  344MPD2    C4 5158   1.726   0.363   9.997  0.0562 -0.4623  0.3135
  344MPD2    C5 5159   1.733   0.271  10.094  0.5925  0.1609 -0.7737
  344MPD2     H 5160   1.392   0.412  10.017 -0.8557 -1.9356 -1.2241
  344MPD2    H1 5161   1.817   0.406   9.957  0.0972 -1.4180 -0.6450
  344MPD2    H2 5162   1.651   0.147  10.232 -1.6292  1.7614  0.5662
  344MPD2    H3 5163   1.828   0.228  10.125 -0.9543 -1.9807  1.0813
  344MPD2     N 5164   1.589   0.515   9.867 -0.5061 -0.1265 -0.3755
  344MPD2    H5 5165   1.675   0.544   9.821 -0.0695 -0.7365  0.0667
  344MPD2    N1 5166   1.388   0.210  10.191  0.4019  0.0523 -0.2335
  344MPD2    H7 5167   1.299   0.234  10.148  0.7717  0.4859 -0.7601
  345TMC3    C1 5168   1.498   0.694   9.739  0.0063  0.3923  0.4596
  345TMC3    C2 5169   1.614   0.762   9.770 -0.4572  1.0493  0.4442
  345TMC3    C3 5170   1.639   0.867   9.693 -0.4042  0.1132  0.5594
  345TMC3    C4 5171   1.415   0.729   9.637 -0.0673 -0.3175 -0.1222
  345TMC3    C5 5172   1.446   0.839   9.565 -0.2462 -0.5065  0.1134
  345TMC3    C6 5173   1.559   0.911   9.590 -0.2291 -0.4002  0.2104
  345TMC3     C 5174   1.474   0.578   9.819 -0.1676  0.0224 -0.5234
  345TMC3     O 5175   1.356   0.539   9.823  0.4451 -0.3723 -1.0059
  345TMC3     H 5176   1.665   0.743   9.863  1.0323 -1.2106 -0.8237
  345TMC3    H1 5177   1.323   0.672   9.629  0.9478 -2.2067  1.6023
  345TMC3    H2 5178   1.590   0.985   9.517 -0.7472 -1.3887 -1.0128
  345TMC3    C7 5179   1.356   0.892   9.465  0.2799 -0.1241  0.2665
  345TMC3    C8 5180   1.704   0.967   9.770  0.2211 -0.3772 -0.2181
  345TMC3    O1 5181   1.395   1.003   9.425  0.0084 -0.2340 -0.0252
  345TMC3    O2 5182   1.685   0.959   9.889  0.2811 -0.0650  0.0399
  346MPD2     C 5183   0.681   2.589  13.894  0.5596  0.4593  0.1631
  346MPD2    C1 5184   0.774   2.483  13.897  0.1182 -0.2254 -0.3256
  346MPD2    C2 5185   0.900   2.516  13.942  0.3022  0.0722 -0.2948
  346MPD2    C3 5186   0.928   2.637  14.006 -0.5619  0.0577 -0.2971
  346MPD2    C4 5187   0.833   2.735  14.005 -0.3141 -0.5325  0.1922
  346MPD2    C5 5188   0.711   2.714  13.945  0.2991 -0.4957 -0.8247
  346MPD2     H 5189   0.976   2.439  13.944  1.3726  1.1639  2.4404
  346MPD2    H1 5190   0.848   2.836  14.043  1.2312  0.0951 -2.0947
  346MPD2    H2 5191   0.577   2.579  13.865  0.3435  0.2688  0.9978
  346MPD2    H3 5192   0.646   2.801  13.945  0.2845 -0.5060 -1.5272
  346MPD2     N 5193   1.058   2.652  14.065 -0.6559 -0.7843  0.3723
  346MPD2    H5 5194   1.134   2.593  14.035  0.0587  0.2644  0.1312
  346MPD2    N1 5195   0.761   2.357  13.836 -0.3525  0.0444 -0.2406
  346MPD2    H7 5196   0.846   2.303  13.837 -0.5662 -0.2709  0.8809
  347TMC3    C1 5197   1.220   2.746  14.207 -0.1538  0.0653 -0.3206
  347TMC3    C2 5198   1.319   2.682  14.142 -0.1900  0.2428 -0.1853
  347TMC3    C3 5199   1.444   2.689  14.195  0.4009  0.2560 -0.1056
  347TMC3    C4 5200   1.237   2.802  14.333  0.1347 -0.5453  0.5484
  347TMC3    C5 5201   1.365   2.801  14.376  0.1108  0.2538 -0.2500
  347TMC3    C6 5202   1.473   2.748  14.315 -0.2074 -0.0584 -0.0811
  347TMC3     C 5203   1.083   2.749  14.162 -0.6616 -0.0827 -0.0121
  347TMC3     O 5204   1.006   2.820  14.222  0.5895  0.2976 -0.2564
  347TMC3     H 5205   1.301   2.666  14.037 -3.3318 -2.1540  0.7177
  347TMC3    H1 5206   1.152   2.842  14.387 -1.8187 -0.4189 -2.6057
  347TMC3    H2 5207   1.572   2.742  14.358  0.4984  2.1202 -1.3513
  347TMC3    C7 5208   1.386   2.886  14.496  0.0326  0.9470  1.0215
  347TMC3    C8 5209   1.544   2.635  14.112 -0.3901 -0.2367  0.0332
  347TMC3    O1 5210   1.284   2.942  14.539 -0.5558  0.2430  0.7080
  347TMC3    O2 5211   1.519   2.542  14.039 -0.0774 -0.3288  0.0544
  348MPD2     C 5212   4.666   1.689  11.813  0.1320 -0.4944  0.6293
  348MPD2    C1 5213   0.033   1.724  11.709  0.3852 -0.0437 -0.3419
  348MPD2    C2 5214   4.707   1.774  11.593  0.5591  0.2664  0.6341
  348MPD2    C3 5215   4.574   1.786  11.573 -0.5608  0.0575 -0.5241
  348MPD2    C4 5216   4.485   1.750  11.674  0.2374 -0.5506  0.1195
  348MPD2    C5 5217   4.534   1.701  11.793  0.0647 -0.5970  0.0359
  348MPD2     H 5218   0.054   1.814  11.524 -0.2912  0.9046  0.0969
  348MPD2    H1 5219   4.377   1.763  11.671  0.2210 -0.6833  0.1625
  348MPD2    H2 5220   4.688   1.644  11.909 -1.0044 -1.2337  0.5420
  348MPD2    H3 5221   4.474   1.678  11.880 -0.8978 -0.0482 -0.4932
  348MPD2     N 5222   4.536   1.839  11.448  0.3998 -0.1681 -0.5601
  348MPD2    H5 5223   4.605   1.894  11.396  0.1621 -0.1808 -0.8863
  348MPD2    N1 5224   0.175   1.702  11.716  0.4070 -1.4998 -0.3545
  348MPD2    H7 5225   0.238   1.741  11.647  0.7397  0.6776  1.1813
  349TMC3    C1 5226   0.388   1.615  11.760 -0.0441 -0.0562 -0.0748
  349TMC3    C2 5227   0.442   1.500  11.822  0.2068 -1.0269  0.3017
  349TMC3    C3 5228   0.491   1.413  11.735 -0.3917  0.3463  0.1090
  349TMC3    C4 5229   0.403   1.649  11.627  0.7834  0.7976 -0.2392
  349TMC3    C5 5230   0.435   1.544  11.546 -0.0863 -0.3564  0.1216
  349TMC3    C6 5231   0.490   1.431  11.598  0.0630  0.6693  0.0054
  349TMC3     C 5232   0.253   1.640  11.813  0.1784  0.2540  0.3050
  349TMC3     O 5233   0.210   1.585  11.914  0.0269  0.3712 -0.3354
  349TMC3     H 5234   0.470   1.491  11.926  0.6657  1.1914  0.3741
  349TMC3    H1 5235   0.364   1.745  11.596 -1.1841  0.5724  1.4966
  349TMC3    H2 5236   0.530   1.356  11.532 -0.9643 -1.0145  1.3141
  349TMC3    C7 5237   0.333   1.517  11.453  0.3308  0.0734  0.4772
  349TMC3    C8 5238   0.568   1.308  11.793 -0.2855 -0.5670 -0.1824
  349TMC3    O1 5239   0.299   1.400  11.436  0.7389  0.2898 -0.2253
  349TMC3    O2 5240   0.509   1.259  11.889  0.9629  0.0810  0.1894
  350MPD2     C 5241   3.635   4.326   9.113  0.0608 -0.0664 -0.4762
  350MPD2    C1 5242   3.664   4.201   9.160  0.0845  0.2603 -0.5772
  350MPD2    C2 5243   3.781   4.178   9.228  0.3271 -0.0006  0.1253
  350MPD2    C3 5244   3.864   4.283   9.264  0.5374 -0.2271  0.6266
  350MPD2    C4 5245   3.830   4.410   9.221 -0.0788  0.1436 -0.0624
  350MPD2    C5 5246   3.717   4.431   9.150  0.5769  0.1414  0.2948
  350MPD2     H 5247   3.794   4.081   9.276 -2.8663 -0.8284 -0.6613
  350MPD2    H1 5248   3.882   4.499   9.255  0.8807 -0.6172  0.4572
  350MPD2    H2 5249   3.544   4.347   9.059  0.1360  0.2025 -0.5010
  350MPD2    H3 5250   3.700   4.528   9.105 -1.8734 -0.4874 -0.1108
  350MPD2     N 5251   3.970   4.252   9.351 -0.7347 -0.4210 -0.3169
  350MPD2    H5 5252   3.978   4.154   9.375  0.5169 -0.0300  0.8272
  350MPD2    N1 5253   3.587   4.091   9.130  0.3197  0.0014  0.1758
  350MPD2    H7 5254   3.614   4.003   9.172  3.3083  1.1272  0.5763
  351TMC3    C1 5255   3.420   3.952   9.051 -0.0653  0.3120  0.1623
  351TMC3    C2 5256   3.483   3.848   9.112 -0.1175 -0.1471 -0.4371
  351TMC3    C3 5257   3.446   3.722   9.067 -0.4762 -0.0115  0.6248
  351TMC3    C4 5258   3.317   3.929   8.966  0.0465 -0.4295  0.2163
  351TMC3    C5 5259   3.267   3.804   8.948  0.1427  0.3290 -0.0459
  351TMC3    C6 5260   3.345   3.696   8.985 -0.0163  0.2792  0.1603
  351TMC3     C 5261   3.478   4.087   9.049 -0.3691  0.1109  0.2528
  351TMC3     O 5262   3.427   4.160   8.965  0.6900  0.2412  0.6442
  351TMC3     H 5263   3.554   3.857   9.192 -0.3137  1.5309 -0.4448
  351TMC3    H1 5264   3.248   4.011   8.945  1.5406  0.7686 -0.0157
  351TMC3    H2 5265   3.309   3.595   8.971  1.9347 -0.4566  0.4960
  351TMC3    C7 5266   3.131   3.797   8.893 -0.7701 -0.7210 -0.0054
  351TMC3    C8 5267   3.540   3.613   9.099  0.1460  0.3725 -0.3277
  351TMC3    O1 5268   3.083   3.887   8.820  0.7046 -0.0273  0.2673
  351TMC3    O2 5269   3.631   3.635   9.176  0.7172  0.2914  0.6542
  352MPD2     C 5270   1.514   2.680   0.966  0.4692  0.0017  0.0593
  352MPD2    C1 5271   1.624   2.651   0.892 -0.3107 -0.5555 -0.1841
  352MPD2    C2 5272   1.703   2.541   0.915  0.0053 -0.0563  1.1042
  352MPD2    C3 5273   1.669   2.458   1.024 -0.0890  0.3131 -0.7074
  352MPD2    C4 5274   1.555   2.486   1.098  0.3221  0.2516  0.1379
  352MPD2    C5 5275   1.470   2.593   1.061  0.4660 -0.3474 -0.1054
  352MPD2     H 5276   1.787   2.509   0.854 -1.0670  1.4300 -1.1701
  352MPD2    H1 5277   1.527   2.419   1.178 -1.1939  0.9427  0.1883
  352MPD2    H2 5278   1.457   2.771   0.954 -0.2981 -0.2736  1.7109
  352MPD2    H3 5279   1.377   2.610   1.115  0.1649 -0.8072 -0.4747
  352MPD2     N 5280   1.732   2.328   1.040  0.4012  0.2725 -0.3874
  352MPD2    H5 5281   1.685   2.262   1.101 -1.3149  1.9200  0.0542
  352MPD2    N1 5282   1.655   2.740   0.789  0.0220  0.5577  0.3307
  352MPD2    H7 5283   1.587   2.815   0.783  3.1581  3.3217 -0.3035
  353TMC3    C1 5284   1.865   2.155   0.994 -0.5496  0.0173 -0.4071
  353TMC3    C2 5285   1.995   2.115   1.018 -0.3888  0.1297 -0.7083
  353TMC3    C3 5286   2.020   1.983   1.039  0.1256  0.3381 -0.4713
  353TMC3    C4 5287   1.759   2.068   1.003 -0.0937 -0.7901 -0.7025
  353TMC3    C5 5288   1.791   1.931   1.028  0.5781 -0.1278  0.6114
  353TMC3    C6 5289   1.919   1.891   1.045 -0.1614  0.2594  0.4650
  353TMC3     C 5290   1.855   2.294   0.986 -0.2896  0.0543 -0.1534
  353TMC3     O 5291   1.942   2.370   0.936 -0.0602 -0.3575  0.3243
  353TMC3     H 5292   2.072   2.191   1.017 -1.3145  1.0444 -1.5736
  353TMC3    H1 5293   1.659   2.101   0.980 -0.7101 -0.6739  2.0700
  353TMC3    H2 5294   1.948   1.789   1.064 -0.4284  0.3881  1.6063
  353TMC3    C7 5295   1.703   1.828   0.969 -0.3757  0.7701  0.8494
  353TMC3    C8 5296   2.161   1.947   1.070 -0.1199  0.2707  0.7941
  353TMC3    O1 5297   1.652   1.863   0.865  0.1034 -0.5640 -0.4989
  353TMC3    O2 5298   2.237   2.038   1.093  0.6626 -0.1316  0.2569
  354TMC3    C1 5299   3.702   3.173  13.220  0.6426 -0.0631  0.3723
  354TMC3    C2 5300   3.690   3.277  13.141 -0.3229  0.3615  0.6303
  354TMC3    C3 5301   3.670   3.267  13.001 -0.2992 -1.1264  0.8859
  354TMC3    C4 5302   3.697   3.053  13.161 -0.4417  0.0315 -0.3600
  354TMC3    C5 5303   3.692   3.040  13.025  0.4846  0.0166  0.1658
  354TMC3    C6 5304   3.672   3.147  12.946  0.8468  0.4086 -0.2288
  354TMC3     C 5305   3.706   3.188  13.364  0.1856 -0.1706  0.3568
  354TMC3     O 5306   3.745   3.299  13.409  0.1718 -0.2784 -0.2005
  354TMC3     H 5307   3.706   3.378  13.179  0.4480  0.8101 -0.8603
  354TMC3    H1 5308   3.722   2.972  13.229 -1.7618 -1.2195 -1.3706
  354TMC3    H2 5309   3.643   3.131  12.842  0.5937 -1.7158  0.1593
  354TMC3    C7 5310   3.775   2.932  12.973 -0.0299 -0.4792 -0.4768
  354TMC3    C8 5311   3.730   3.362  12.916  0.1060 -0.9525  0.7734
  354TMC3    O1 5312   3.795   2.840  13.051 -0.0577 -0.3105 -0.6066
  354TMC3    O2 5313   3.678   3.472  12.906  0.2553 -0.0818 -0.5609
  355MPD2     C 5314   4.357   3.617  11.768 -0.1126 -0.3368  0.3046
  355MPD2    C1 5315   4.352   3.674  11.646  0.4342  0.3646 -0.1238
  355MPD2    C2 5316   4.469   3.728  11.593  0.6533 -0.7048 -0.4008
  355MPD2    C3 5317   4.590   3.711  11.649  0.6531  0.4008  0.8175
  355MPD2    C4 5318   4.594   3.648  11.771  0.2479  0.2959  0.0207
  355MPD2    C5 5319   4.480   3.604  11.830  0.6874 -0.5137  1.0786
  355MPD2     H 5320   4.465   3.796  11.508 -0.5882 -1.4785 -0.9553
  355MPD2    H1 5321   4.687   3.639  11.826  0.7010  0.1369 -0.7787
  355MPD2    H2 5322   4.266   3.590  11.820  1.7179 -0.7630  3.2911
  355MPD2    H3 5323   4.490   3.563  11.930  1.8862 -1.9523  0.3694
  355MPD2     N 5324   4.710   3.757  11.600 -0.5971 -0.3948  0.6852
  355MPD2    H5 5325   0.068   3.740  11.654  0.7244 -1.5180 -1.7611
  355MPD2    N1 5326   4.226   3.688  11.583  0.2109 -0.2141  0.0265
  355MPD2    H7 5327   4.144   3.676  11.642 -1.4448  2.1202 -1.8009
  356TMC3    C1 5328   0.127   3.885  11.475  0.4287  0.7972 -0.4941
  356TMC3    C2 5329   0.152   3.930  11.345 -0.1460  0.5970  0.0346
  356TMC3    C3 5330   0.215   4.045  11.328 -0.0782  0.4182 -0.0872
  356TMC3    C4 5331   0.196   3.938  11.584 -0.3028 -0.4319  0.3737
  356TMC3    C5 5332   0.263   4.056  11.558  0.3025 -0.5672  0.4817
  356TMC3    C6 5333   0.273   4.115  11.433  0.0579 -0.2313 -0.0881
  356TMC3     C 5334   0.003   3.814  11.480 -0.3039 -0.3976 -0.2101
  356TMC3     O 5335   4.650   3.845  11.393  0.3892  0.2580 -0.1543
  356TMC3     H 5336   0.095   3.890  11.262 -0.6224  0.6576  0.3380
  356TMC3    H1 5337   0.189   3.904  11.686 -2.7155 -0.2993  0.2596
  356TMC3    H2 5338   0.345   4.193  11.409  0.1648 -0.9813 -2.1443
  356TMC3    C7 5339   0.312   4.131  11.668 -0.0559 -0.3989  0.2931
  356TMC3    C8 5340   0.239   4.088  11.196 -0.3751 -0.0978  0.2358
  356TMC3    O1 5341   0.311   4.069  11.771  0.0755 -0.0827  0.3732
  356TMC3    O2 5342   0.224   3.999  11.116 -0.6928  0.3390  0.6631
  357MPD2     C 5343   3.985   4.641   0.732  0.2435  0.1433 -0.1186
  357MPD2    C1 5344   4.030   4.524   0.784 -0.1043 -0.8007 -0.5362
  357MPD2    C2 5345   3.956   4.461   0.878 -0.3651  0.3427  0.2863
  357MPD2    C3 5346   3.829   4.508   0.913  0.3214  0.4457  0.4531
  357MPD2    C4 5347   3.781   4.629   0.851  0.1660 -0.8948  0.0300
  357MPD2    C5 5348   3.868   4.699   0.769  0.2457  0.2036  0.2428
  357MPD2     H 5349   3.985   4.363   0.916  1.1941  0.3339 -0.9419
  357MPD2    H1 5350   3.683   4.668   0.874  1.1017 -0.1020  2.7555
  357MPD2    H2 5351   4.063   4.676   0.665 -0.1439  1.0558 -0.1006
  357MPD2    H3 5352   3.834   0.066   0.726  0.4154 -0.1086 -0.5774
  357MPD2     N 5353   3.748   4.441   1.005 -0.4433 -0.3170 -0.1335
  357MPD2    H5 5354   3.654   4.474   1.023  0.0151  0.2455  1.2570
  357MPD2    N1 5355   4.149   4.464   0.730  0.1993  0.2865 -0.0021
  357MPD2    H7 5356   4.182   4.501   0.642  1.8864  1.8635  1.3131
  358TMC3    C1 5357   4.337   4.317   0.705 -0.5310  0.0105 -0.3058
  358TMC3    C2 5358   4.320   4.305   0.570  0.2971  0.1040  0.0237
  358TMC3    C3 5359   4.427   4.254   0.491 -0.2411  0.1714  0.4496
  358TMC3    C4 5360   4.449   4.268   0.762  0.2385  0.4535  0.2471
  358TMC3    C5 5361   4.541   4.205   0.687  0.0451 -0.0242 -0.8106
  358TMC3    C6 5362   4.536   4.203   0.554 -0.4727 -0.2330 -0.3399
  358TMC3     C 5363   4.227   4.363   0.788  0.5240 -0.4088 -0.0686
  358TMC3     O 5364   4.223   4.322   0.904  0.4312  0.2851 -0.3979
  358TMC3     H 5365   4.224   4.312   0.521 -1.4545  1.1027  3.6980
  358TMC3    H1 5366   4.463   4.284   0.868  0.0174  0.8907  0.2078
  358TMC3    H2 5367   4.610   4.143   0.503  0.6371  1.3214 -0.5261
  358TMC3    C7 5368   4.649   4.132   0.754  0.8036 -0.8216  0.2708
  358TMC3    C8 5369   4.423   4.247   0.346  0.7327  0.5515  0.0868
  358TMC3    O1 5370   0.027   4.118   0.695  0.1784  0.8778 -0.5824
  358TMC3    O2 5371   4.502   4.177   0.286 -0.0135  0.0146  0.4089
  359MPD2     C 5372   4.023   2.651  12.249  0.3247 -0.3715  0.3428
  359MPD2    C1 5373   4.064   2.532  12.295 -0.4482  0.7058  0.2891
  359MPD2    C2 5374   3.989   2.469  12.393  0.3052  0.5046  0.5382
  359MPD2    C3 5375   3.869   2.521  12.432  0.0226  0.2038  0.2788
  359MPD2    C4 5376   3.827   2.636  12.376  0.0974  0.1553 -0.1075
  359MPD2    C5 5377   3.900   2.701  12.284 -0.1033  0.0938  0.4394
  359MPD2     H 5378   4.035   2.379  12.430  2.2909  0.7361 -1.3652
  359MPD2    H1 5379   3.733   2.675  12.414  0.7635  0.3355  1.3719
  359MPD2    H2 5380   4.068   2.714  12.173 -0.2208  0.2625  0.5447
  359MPD2    H3 5381   3.877   2.802  12.254  3.4032  1.3166  1.8459
  359MPD2     N 5382   3.795   2.475  12.537  0.0203 -0.7848 -0.9800
  359MPD2    H5 5383   3.718   2.537  12.562  0.5825 -0.0822 -0.9879
  359MPD2    N1 5384   4.175   2.466  12.228  0.3809  0.6423  0.6106
  359MPD2    H7 5385   4.186   2.365  12.240  1.9077  0.5412 -1.6225
  360TMC3    C1 5386   4.344   2.426  12.071  0.4762 -0.3917 -0.2546
  360TMC3    C2 5387   4.449   2.496  12.014 -0.2221 -0.2044  0.3391
  360TMC3    C3 5388   4.501   2.448  11.893 -0.0975 -0.4478 -0.0366
  360TMC3    C4 5389   4.287   2.314  12.018  0.5757  0.3246  0.6704
  360TMC3    C5 5390   4.340   2.270  11.898  0.4518  0.4396  0.1885
  360TMC3    C6 5391   4.445   2.335  11.835  0.2452  0.8211  0.2848
  360TMC3     C 5392   4.253   2.520  12.129 -0.3590  0.0586  0.7477
  360TMC3     O 5393   4.257   2.639  12.089  0.3068 -0.1307 -0.5068
  360TMC3     H 5394   4.478   2.597  12.041 -1.7238  0.2892  0.1155
  360TMC3    H1 5395   4.199   2.267  12.059 -0.6929  0.7809 -1.5099
  360TMC3    H2 5396   4.474   2.313  11.733 -0.7368  1.6170 -0.1588
  360TMC3    C7 5397   4.249   2.199  11.810  0.2140 -0.0984  0.0913
  360TMC3    C8 5398   4.587   2.531  11.813 -0.4840  0.4576 -0.0255
  360TMC3    O1 5399   4.160   2.127  11.854  0.1737  0.3935  0.0481
  360TMC3    O2 5400   4.549   2.649  11.822 -0.2334  0.3146  0.1818
  361MPD2     C 5401   0.745   1.627  16.615 -0.2211 -0.4222 -0.5256
  361MPD2    C1 5402   0.811   1.743  16.652  0.3660 -0.2562 -0.2706
  361MPD2    C2 5403   0.945   1.745  16.676 -0.1721 -0.7720  0.0072
  361MPD2    C3 5404   1.019   1.628  16.660 -0.1349  0.8793  0.1374
  361MPD2    C4 5405   0.960   1.519  16.603  0.3212 -0.2567  0.5583
  361MPD2    C5 5406   0.826   1.519  16.590 -0.1358 -0.2245  0.0536
  361MPD2     H 5407   0.991   1.831  16.723 -1.7533  1.0149 -1.7156
  361MPD2    H1 5408   1.000   1.422  16.574 -2.0953 -0.4537 -2.1229
  361MPD2    H2 5409   0.639   1.617  16.594  0.3044 -1.3224 -2.7798
  361MPD2    H3 5410   0.786   1.431  16.540 -0.3073 -0.2226  0.1864
  361MPD2     N 5411   1.157   1.616  16.688  0.2376  0.8404  0.2398
  361MPD2    H5 5412   1.195   1.523  16.676  0.8455  1.2647 -1.0462
  361MPD2    N1 5413   0.742   1.858  16.689  0.7483  0.5219  0.2518
  361MPD2    H7 5414   0.800   1.939  16.709 -0.2296  1.6191 -1.3709
  362TMC3    C1 5415   0.542   1.992  16.703  0.4216 -0.2934  0.4019
  362TMC3    C2 5416   0.423   1.989  16.759 -0.2432 -0.7732  0.3003
  362TMC3    C3 5417   0.353   2.104  16.747  0.0575 -0.1173 -0.3288
  362TMC3    C4 5418   0.600   2.099  16.636 -0.5816  0.6180 -0.8564
  362TMC3    C5 5419   0.527   2.213  16.631  0.0488 -0.0255 -0.1424
  362TMC3    C6 5420   0.405   2.219  16.689 -0.5771 -1.3205 -0.5514
  362TMC3     C 5421   0.611   1.862  16.710 -0.0444 -0.4060 -0.0579
  362TMC3     O 5422   0.537   1.764  16.712  0.0072  0.0777  0.0532
  362TMC3     H 5423   0.383   1.903  16.810 -1.0373 -1.4492 -1.4584
  362TMC3    H1 5424   0.688   2.088  16.575 -0.6565  0.0536 -0.8654
  362TMC3    H2 5425   0.350   2.310  16.672 -0.2454 -0.8693  0.8209
  362TMC3    C7 5426   0.584   2.334  16.586 -0.0336 -0.4278  0.8317
  362TMC3    C8 5427   0.230   2.109  16.818  0.6451 -0.9950 -0.0225
  362TMC3    O1 5428   0.510   2.423  16.549  0.3105  0.0290 -0.5411
  362TMC3    O2 5429   0.178   2.001  16.851 -0.0179 -0.5948 -0.2168
  363TMC3    C1 5430   0.437   4.224   9.100  0.2680 -0.5316 -0.4198
  363TMC3    C2 5431   0.520   4.114   9.117 -0.3410  0.2723  0.1402
  363TMC3    C3 5432   0.459   4.001   9.154 -0.4898  0.1627 -0.5285
  363TMC3    C4 5433   0.299   4.218   9.119  0.3229  0.1742  0.4306
  363TMC3    C5 5434   0.250   4.099   9.160 -0.6028 -0.6449 -0.9219
  363TMC3    C6 5435   0.324   3.988   9.177  0.0548  0.4873  0.9688
  363TMC3     C 5436   0.504   4.359   9.088  0.5802  0.6792 -0.0342
  363TMC3     O 5437   0.617   4.372   9.129 -0.8968 -0.3571  0.7440
  363TMC3     H 5438   0.627   4.117   9.098 -0.4248  2.0778 -0.0264
  363TMC3    H1 5439   0.234   4.301   9.092  0.3413 -0.5129 -1.7754
  363TMC3    H2 5440   0.283   3.890   9.195 -3.2055  1.1833 -2.8168
  363TMC3    C7 5441   0.104   4.084   9.177 -0.2710 -0.0261  0.6962
  363TMC3    C8 5442   0.552   3.902   9.207 -0.2836  0.7598  0.4662
  363TMC3    O1 5443   0.067   3.970   9.198 -0.1111 -0.2800 -0.0092
  363TMC3    O2 5444   0.670   3.927   9.215 -0.0690  0.2261 -0.7439
  364MPD2     C 5445   2.933   3.081  10.790 -0.2333 -0.0678  1.2523
  364MPD2    C1 5446   2.993   3.034  10.673  0.1427 -0.1893 -0.5891
  364MPD2    C2 5447   3.046   2.910  10.669  0.7874 -0.4748  0.3139
  364MPD2    C3 5448   3.066   2.835  10.788  0.2514 -0.2836 -0.1065
  364MPD2    C4 5449   3.020   2.889  10.903  0.2721 -0.0224 -0.2707
  364MPD2    C5 5450   2.948   3.008  10.908 -0.2665  0.0913 -0.0035
  364MPD2     H 5451   3.078   2.875  10.572 -1.1647  2.1207 -1.2578
  364MPD2    H1 5452   3.043   2.834  10.994  1.6971  0.7462 -0.1566
  364MPD2    H2 5453   2.893   3.182  10.786  0.9048  0.2632 -1.6722
  364MPD2    H3 5454   2.910   3.057  10.997  1.4870 -0.7025  1.1754
  364MPD2     N 5455   3.137   2.713  10.789  0.3788  0.0505 -0.0575
  364MPD2    H5 5456   3.151   2.672  10.881 -0.8838  0.6201  0.3953
  364MPD2    N1 5457   2.988   3.121  10.562  0.0147  0.2108  0.5087
  364MPD2    H7 5458   2.942   3.209  10.581 -1.7997 -0.3823 -1.1590
  365TMC3    C1 5459   3.072   3.235  10.377  0.2885  0.3890  0.9053
  365TMC3    C2 5460   3.197   3.263  10.333 -1.0713  0.0763 -0.0076
  365TMC3    C3 5461   3.224   3.388  10.284  0.5119  0.3373 -0.6938
  365TMC3    C4 5462   2.973   3.327  10.382  0.0477  0.3387 -0.1013
  365TMC3    C5 5463   3.009   3.455  10.339  0.3757  0.0139  0.2364
  365TMC3    C6 5464   3.135   3.487  10.281  0.2692 -0.1059 -0.0139
  365TMC3     C 5465   3.056   3.106  10.444 -0.2974 -0.2052  0.1777
  365TMC3     O 5466   3.133   3.017  10.404  0.4106 -0.9239 -0.4600
  365TMC3     H 5467   3.277   3.194  10.354 -1.1682 -0.1636 -0.4068
  365TMC3    H1 5468   2.870   3.297  10.397  0.3835 -1.0508 -0.5870
  365TMC3    H2 5469   3.159   3.585  10.241  0.8232 -1.2103 -2.3674
  365TMC3    C7 5470   2.910   3.554  10.341 -0.2553  0.0760  0.6475
  365TMC3    C8 5471   3.334   3.388  10.189 -0.0916 -0.0449 -0.0822
  365TMC3    O1 5472   2.901   3.639  10.256  0.0994  0.1555  0.2381
  365TMC3    O2 5473   3.383   3.496  10.155 -0.0308 -0.4400 -0.1862
  366MPD2     C 5474   2.212   0.040  14.661  0.1158  0.2214  0.2739
  366MPD2    C1 5475   2.220   4.711  14.785  0.6587  0.0846 -0.8464
  366MPD2    C2 5476   2.336   4.724  14.858 -0.6210 -0.0777  0.0751
  366MPD2    C3 5477   2.439   0.076  14.817 -0.1221  0.6687 -0.3832
  366MPD2    C4 5478   2.425   0.147  14.698  0.0687 -1.0193 -0.2816
  366MPD2    C5 5479   2.318   0.114  14.612  0.4785  0.2546  0.0291
  366MPD2     H 5480   2.342   4.680  14.957 -0.6512  0.0815  0.1481
  366MPD2    H1 5481   2.500   0.213  14.657 -0.5942  0.3971  0.7818
  366MPD2    H2 5482   2.126   0.031  14.596  1.1154 -3.2493 -0.5669
  366MPD2    H3 5483   2.321   0.160  14.514 -0.0345  0.8330  0.2837
  366MPD2     N 5484   2.549   0.092  14.904  0.0321 -0.4347 -0.1923
  366MPD2    H5 5485   2.530   0.067  15.000 -1.6277 -0.4565 -0.5182
  366MPD2    N1 5486   2.110   4.649  14.851  0.0632 -0.5675 -0.2386
  366MPD2    H7 5487   2.123   4.637  14.951 -0.9880 -1.5053 -0.2196
  367TMC3    C1 5488   1.898   0.025  14.904  0.1134  0.3712 -0.3156
  367TMC3    C2 5489   1.975   0.105  14.985 -0.6532 -0.3081 -0.4461
  367TMC3    C3 5490   1.927   0.231  15.005 -0.5953 -0.1019  0.0075
  367TMC3    C4 5491   1.777   0.059  14.848 -0.2928  0.0993 -0.9579
  367TMC3    C5 5492   1.741   0.191  14.861 -0.1371 -0.3846 -0.0294
  367TMC3    C6 5493   1.821   0.279  14.932 -0.1927 -0.4716  0.7789
  367TMC3     C 5494   1.972   4.671  14.810  0.5950  0.7593  0.5242
  367TMC3     O 5495   1.914   4.651  14.704  0.0779 -0.3065 -0.2670
  367TMC3     H 5496   2.064   0.073  15.039 -0.9706  0.2407  0.3950
  367TMC3    H1 5497   1.718   4.709  14.801  2.2707 -1.5111 -1.5631
  367TMC3    H2 5498   1.791   0.383  14.923  1.4997  0.1102  1.7730
  367TMC3    C7 5499   1.604   0.240  14.837  0.1568 -0.5564  0.0054
  367TMC3    C8 5500   2.015   0.323  15.081 -0.3438 -0.0095  0.3294
  367TMC3    O1 5501   1.573   0.357  14.855 -0.4184  0.2955 -0.3464
  367TMC3    O2 5502   2.119   0.279  15.130  0.2707 -0.3916  0.1725
  368MPD2     C 5503   2.417   1.950  13.314 -0.2306 -0.2537 -0.8886
  368MPD2    C1 5504   2.436   2.011  13.189  0.3729 -0.5467 -0.4626
  368MPD2    C2 5505   2.491   1.936  13.089 -0.2254  0.8938  0.2325
  368MPD2    C3 5506   2.532   1.800  13.099 -0.5123 -0.0061  0.2116
  368MPD2    C4 5507   2.506   1.748  13.219  0.2905  0.5173  0.5308
  368MPD2    C5 5508   2.454   1.821  13.323 -0.0430  0.2128  0.6890
  368MPD2     H 5509   2.516   1.990  12.998  2.1996  1.3218  1.1474
  368MPD2    H1 5510   2.541   1.647  13.238 -3.6205 -1.1252 -1.1687
  368MPD2    H2 5511   2.384   1.998  13.406  1.2067  0.6930 -0.8629
  368MPD2    H3 5512   2.435   1.769  13.416 -1.7527 -2.3970 -1.1159
  368MPD2     N 5513   2.599   1.729  13.000  0.2555  0.3405  0.5161
  368MPD2    H5 5514   2.630   1.636  13.023 -1.7679  0.2456  2.9167
  368MPD2    N1 5515   2.411   2.147  13.177 -0.1808 -0.2300  0.1102
  368MPD2    H7 5516   2.385   2.188  13.266  0.9570  0.5855  0.0583
  369TMC3    C1 5517   2.360   2.175  12.943 -0.4473  0.7471 -0.4219
  369TMC3    C2 5518   2.415   2.231  12.830 -0.2740  0.1516 -0.7042
  369TMC3    C3 5519   2.340   2.243  12.715 -0.5873  0.1498 -0.8491
  369TMC3    C4 5520   2.234   2.127  12.942 -0.0627 -0.2084  0.2349
  369TMC3    C5 5521   2.164   2.125  12.825  0.0623  0.2711 -0.6483
  369TMC3    C6 5522   2.212   2.191  12.713  0.5174  0.1262  0.3146
  369TMC3     C 5523   2.423   2.225  13.067  0.3533  0.1890  1.0034
  369TMC3     O 5524   2.435   2.348  13.074  0.3275  0.0039 -0.2736
  369TMC3     H 5525   2.504   2.292  12.842 -0.5156  0.2987  0.2853
  369TMC3    H1 5526   2.197   2.083  13.034 -0.1971  0.6652  0.6009
  369TMC3    H2 5527   2.152   2.181  12.623  1.0206 -0.0514  0.0024
  369TMC3    C7 5528   2.017   2.094  12.836 -0.5898  0.8188  0.2223
  369TMC3    C8 5529   2.405   2.288  12.587  0.2502 -0.2667  0.0499
  369TMC3    O1 5530   1.971   2.109  12.950  0.0415 -0.2149  0.9261
  369TMC3    O2 5531   2.332   2.275  12.490  0.2163 -0.0468  0.0491
  370TMC3    C1 5532   2.430   2.441  15.943 -0.3121  0.5408  0.2302
  370TMC3    C2 5533   2.317   2.371  15.973 -0.4622 -0.7935 -0.4295
  370TMC3    C3 5534   2.311   2.247  15.935  0.2210 -0.5564 -0.6086
  370TMC3    C4 5535   2.537   2.393  15.881 -0.7691  0.4816  0.1576
  370TMC3    C5 5536   2.516   2.263  15.837  0.2710 -0.1202  0.0414
  370TMC3    C6 5537   2.400   2.189  15.855 -1.0229 -1.4578  0.5132
  370TMC3     C 5538   2.452   2.553  16.032  0.8939 -0.2355  0.2959
  370TMC3     O 5539   2.386   2.539  16.136  0.0892  0.2994  0.3098
  370TMC3     H 5540   2.235   2.425  16.019  0.0989 -1.3036  1.1589
  370TMC3    H1 5541   2.637   2.434  15.881 -1.4220  2.0894  0.2982
  370TMC3    H2 5542   2.386   2.087  15.824 -2.0140 -1.2212  0.1721
  370TMC3    C7 5543   2.620   2.207  15.748 -0.2646 -0.6985 -0.3937
  370TMC3    C8 5544   2.248   2.155  16.035  0.2193 -0.3465  0.2392
  370TMC3    O1 5545   2.706   2.277  15.697 -0.1864 -0.5822 -0.4850
  370TMC3    O2 5546   2.249   2.034  16.013  0.7174  0.4408  0.4334
  371TMC3    C1 5547   3.612   0.527  15.310  0.0841 -0.1781 -0.3157
  371TMC3    C2 5548   3.569   0.559  15.438  0.1951  0.6872  0.1253
  371TMC3    C3 5549   3.556   0.687  15.479  0.7004  0.1021 -0.2172
  371TMC3    C4 5550   3.648   0.636  15.225  0.1927  0.6409 -0.8442
  371TMC3    C5 5551   3.636   0.768  15.269  0.2318  0.5981 -0.0171
  371TMC3    C6 5552   3.586   0.796  15.401 -0.5934  0.0234 -0.4947
  371TMC3     C 5553   3.605   0.394  15.254 -0.6033 -0.3931 -0.6048
  371TMC3     O 5554   3.681   0.360  15.165 -0.6452  0.9322 -0.1240
  371TMC3     H 5555   3.533   0.482  15.506 -1.4446  1.4223  0.0736
  371TMC3    H1 5556   3.675   0.610  15.123  0.1457 -0.3428 -0.6033
  371TMC3    H2 5557   3.577   0.897  15.440  1.5800 -1.2222  3.2552
  371TMC3    C7 5558   3.685   0.877  15.192  0.0249  0.1180 -0.0056
  371TMC3    C8 5559   3.522   0.714  15.608  0.0488 -0.1162 -0.4507
  371TMC3    O1 5560   3.655   0.993  15.211 -0.2662 -0.4122  0.4461
  371TMC3    O2 5561   3.550   0.625  15.690 -0.3422 -0.1528  0.1766
  372MPD2     C 5562   3.854   1.856  13.512  0.1193 -0.2648  0.7900
  372MPD2    C1 5563   3.855   1.730  13.445  0.2728  0.4048  0.4129
  372MPD2    C2 5564   3.740   1.677  13.393 -0.6779  0.6857  0.8712
  372MPD2    C3 5565   3.616   1.730  13.420  0.7622  0.3686  0.2896
  372MPD2    C4 5566   3.613   1.856  13.469 -0.5518  0.0461 -0.4246
  372MPD2    C5 5567   3.729   1.916  13.514  0.6670  0.1963 -0.1456
  372MPD2     H 5568   3.740   1.581  13.343 -1.3041  0.4547  1.3137
  372MPD2    H1 5569   3.525   1.919  13.474 -2.9551 -3.0530 -3.2719
  372MPD2    H2 5570   3.940   1.910  13.550 -0.0295 -0.9138  2.0306
  372MPD2    H3 5571   3.715   2.001  13.578  0.1755  0.8591 -1.1336
  372MPD2     N 5572   3.503   1.648  13.381 -0.2524  0.5713 -0.0030
  372MPD2    H5 5573   3.534   1.553  13.362  0.0205  0.6865 -0.1359
  372MPD2    N1 5574   3.978   1.652  13.444  0.1401  0.1119  0.0210
  372MPD2    H7 5575   3.972   1.571  13.383 -1.5435 -0.0567  0.4049
  373TMC3    C1 5576   3.279   1.575  13.375 -0.3672 -0.0782 -0.0156
  373TMC3    C2 5577   3.181   1.545  13.468  0.8171 -0.2627 -0.2124
  373TMC3    C3 5578   3.117   1.431  13.469 -0.8572 -0.2056 -0.0602
  373TMC3    C4 5579   3.314   1.477  13.287  0.0584  0.5247  0.0355
  373TMC3    C5 5580   3.241   1.360  13.284  0.5387 -0.4972 -0.4152
  373TMC3    C6 5581   3.142   1.333  13.373  0.1999  0.3994  0.0000
  373TMC3     C 5582   3.365   1.686  13.407 -0.2860  0.2114  0.2806
  373TMC3     O 5583   3.328   1.788  13.470  0.5590  0.1626 -0.3225
  373TMC3     H 5584   3.179   1.606  13.558  2.8496  0.3604 -0.5898
  373TMC3    H1 5585   3.393   1.482  13.214  1.1970 -2.2466  1.0688
  373TMC3    H2 5586   3.081   1.244  13.372  1.6353 -0.5924  0.6713
  373TMC3    C7 5587   3.304   1.237  13.233  0.2661  0.1945  0.6364
  373TMC3    C8 5588   3.144   1.360  13.588 -0.3966 -0.2520 -0.9614
  373TMC3    O1 5589   3.347   1.241  13.118 -0.8129 -0.5987  0.4762
  373TMC3    O2 5590   3.223   1.267  13.567 -1.0322 -0.0504  0.0077
  374TMC3    C1 5591   3.485   2.010   9.320  0.1350  0.0155 -0.1326
  374TMC3    C2 5592   3.589   2.013   9.412  0.1984 -0.3032 -0.6715
  374TMC3    C3 5593   3.642   2.128   9.460  0.1427 -0.7153  0.2248
  374TMC3    C4 5594   3.422   2.130   9.300 -0.3086 -0.3474 -0.0613
  374TMC3    C5 5595   3.475   2.252   9.339 -0.4166 -0.0742 -0.0710
  374TMC3    C6 5596   3.588   2.249   9.416  0.8150 -0.1757 -0.3195
  374TMC3     C 5597   3.402   1.889   9.302  0.2853 -0.2279 -0.1780
  374TMC3     O 5598   3.289   1.902   9.249 -0.3389 -0.7946  0.0900
  374TMC3     H 5599   3.630   1.916   9.438  0.3862 -0.4122 -1.3980
  374TMC3    H1 5600   3.326   2.138   9.251  0.9163 -0.3293 -2.4592
  374TMC3    H2 5601   3.622   2.337   9.468 -1.2297 -0.2860  1.2084
  374TMC3    C7 5602   3.400   2.376   9.340 -0.0894  0.1445  0.2731
  374TMC3    C8 5603   3.784   2.139   9.462 -0.1394  0.0117  0.4263
  374TMC3    O1 5604   3.465   2.477   9.340 -0.0886  0.5399  0.0981
  374TMC3    O2 5605   3.832   2.245   9.422 -0.5221 -0.7657 -0.3338
  375MPD2     C 5606   3.683   2.436  16.753 -0.1793 -0.5001  0.1475
  375MPD2    C1 5607   3.616   2.538  16.672 -0.3866  0.7681 -0.7495
  375MPD2    C2 5608   3.602   2.522  16.534  0.0107  0.2041  0.2817
  375MPD2    C3 5609   3.691   2.428  16.476 -0.4835 -0.7702  0.1574
  375MPD2    C4 5610   3.770   2.345  16.548 -0.4812  0.5253  0.7894
  375MPD2    C5 5611   3.770   2.354  16.686  0.2481 -0.2210  0.1836
  375MPD2     H 5612   3.544   2.591  16.473 -1.5176  0.1354  1.6439
  375MPD2    H1 5613   3.852   2.289  16.505 -1.3002  0.3794 -0.5766
  375MPD2    H2 5614   3.691   2.433  16.861 -0.9085 -0.9776  0.1915
  375MPD2    H3 5615   3.831   2.285  16.742  0.3708 -0.9372 -0.8309
  375MPD2     N 5616   3.710   2.442  16.340  0.2161  0.1527 -0.6243
  375MPD2    H5 5617   3.791   2.398  16.299 -0.9126 -3.6553  1.2060
  375MPD2    N1 5618   3.536   2.640  16.731 -0.1038  0.2642 -0.0379
  375MPD2    H7 5619   3.483   2.700  16.669  1.1363 -1.9086 -3.2308
  376TMC3    C1 5620   3.710   2.543  16.128 -0.4191  0.4047  1.3475
  376TMC3    C2 5621   3.844   2.570  16.138 -0.2610 -0.3679  0.2925
  376TMC3    C3 5622   3.908   2.616  16.030 -0.3184  0.6527 -0.0364
  376TMC3    C4 5623   3.640   2.578  16.019  0.8261 -0.5409  0.3474
  376TMC3    C5 5624   3.702   2.643  15.921  0.6577 -0.5436  0.5236
  376TMC3    C6 5625   3.837   2.662  15.921 -0.5359  0.0279 -0.1659
  376TMC3     C 5626   3.630   2.510  16.253 -0.0229 -0.2575  0.1458
  376TMC3     O 5627   3.513   2.549  16.264  0.1461  0.2571 -0.2386
  376TMC3     H 5628   3.896   2.540  16.228  0.1051  0.5168  0.3826
  376TMC3    H1 5629   3.536   2.547  16.020  0.4155  0.8870  2.6778
  376TMC3    H2 5630   3.890   2.712  15.841 -1.6578  1.4522 -0.0118
  376TMC3    C7 5631   3.640   2.667  15.789  0.0628 -0.1229  0.0284
  376TMC3    C8 5632   4.027   2.692  16.054  0.0010 -0.3815 -0.1572
  376TMC3    O1 5633   3.707   2.723  15.706 -0.4048  0.1783 -0.1263
  376TMC3    O2 5634   4.043   2.792  15.984 -0.1763  0.5237 -0.2253
  377MPD2     C 5635   1.270   2.474  11.705 -0.0338  0.3889 -0.3127
  377MPD2    C1 5636   1.366   2.435  11.802 -0.1255  0.3040  0.7557
  377MPD2    C2 5637   1.331   2.350  11.897 -0.0662  0.6272 -0.2105
  377MPD2    C3 5638   1.199   2.306  11.919 -0.3619 -0.0387  0.0565
  377MPD2    C4 5639   1.109   2.360  11.830  0.3192  0.3169  0.5370
  377MPD2    C5 5640   1.145   2.429  11.722 -0.0319  0.1397 -0.2817
  377MPD2     H 5641   1.405   2.317  11.969  0.0973 -0.5293 -0.9138
  377MPD2    H1 5642   1.004   2.335  11.846  0.2138  0.2129 -0.3417
  377MPD2    H2 5643   1.296   2.530  11.616  2.4412 -1.4840 -0.7552
  377MPD2    H3 5644   1.079   2.461  11.643 -0.4318 -1.1922 -0.4851
  377MPD2     N 5645   1.159   2.242  12.042 -0.2196 -0.1007 -0.3049
  377MPD2    H5 5646   1.064   2.207  12.051 -0.2214  0.1913  0.7616
  377MPD2    N1 5647   1.503   2.473  11.777  0.3701 -0.5651  0.2590
  377MPD2    H7 5648   1.516   2.533  11.695  0.5301 -0.2217  0.5358
  378TMC3    C1 5649   1.878   2.532  11.600 -0.5644  0.1333  0.7512
  378TMC3    C2 5650   1.753   2.529  11.665  0.5215  0.3918  0.6563
  378TMC3    C3 5651   1.743   2.474  11.785  0.1201 -0.1100  0.3312
  378TMC3    C4 5652   1.979   2.447  11.652  0.3099 -0.2815 -0.5880
  378TMC3    C5 5653   1.966   2.391  11.775 -0.2002 -0.3991  0.5096
  378TMC3    C6 5654   1.852   2.415  11.840  0.0592 -0.1552  0.1912
  378TMC3     C 5655   1.893   2.587  11.466  0.3727  0.1995 -0.2182
  378TMC3     O 5656   1.790   2.630  11.416 -0.3586  0.3304 -0.5885
  378TMC3     H 5657   1.676   2.585  11.613 -0.3580 -1.5765 -0.1830
  378TMC3    H1 5658   2.074   2.442  11.600  1.1125  0.1720  0.8442
  378TMC3    H2 5659   1.837   2.367  11.936 -0.0586  0.8666  0.6790
  378TMC3    C7 5660   2.065   2.300  11.831  0.6440  0.3578 -0.9013
  378TMC3    C8 5661   1.611   2.436  11.847  0.6780 -0.5734 -0.3748
  378TMC3    O1 5662   2.035   2.247  11.939 -0.2026  0.2686 -0.1329
  378TMC3    O2 5663   1.616   2.374  11.956 -0.3959  0.1790  0.5730
  379MPD2     C 5664   2.853   0.332  16.054 -0.2717 -0.6052 -0.4919
  379MPD2    C1 5665   2.716   0.331  16.049  0.0599  0.2956  0.6557
  379MPD2    C2 5666   2.635   0.251  16.132  0.3530  0.4427  0.2116
  379MPD2    C3 5667   2.704   0.164  16.214 -0.5329 -1.1193 -0.1139
  379MPD2    C4 5668   2.838   0.166  16.213  0.7411  0.6249  0.8213
  379MPD2    C5 5669   2.909   0.237  16.126  0.1173  0.1607  0.2133
  379MPD2     H 5670   2.527   0.249  16.124  0.5496 -0.3800 -2.2788
  379MPD2    H1 5671   2.894   0.104  16.282  1.2659 -1.7121 -1.7418
  379MPD2    H2 5672   2.907   0.403  15.994 -0.8740 -0.4738 -0.8805
  379MPD2    H3 5673   3.016   0.229  16.114 -0.0280 -0.5070 -0.7006
  379MPD2     N 5674   2.653   0.091  16.323  0.5413 -0.1891 -0.5035
  379MPD2    H5 5675   2.720   0.037  16.378 -0.8168 -0.9938  0.3753
  379MPD2    N1 5676   2.658   0.420  15.956  0.0829  0.2725 -0.2358
  379MPD2    H7 5677   2.717   0.480  15.900 -0.9892  0.9203 -0.6740
  380TMC3    C1 5678   2.522   0.526  15.812 -0.1742  0.1108 -0.5343
  380TMC3    C2 5679   2.625   0.519  15.721  0.1532 -0.0966  0.0307
  380TMC3    C3 5680   2.604   0.572  15.590 -0.2001 -0.3167  0.1107
  380TMC3    C4 5681   2.399   0.554  15.759 -0.0884  0.1664 -0.0815
  380TMC3    C5 5682   2.382   0.604  15.630 -0.5938  0.4478  1.0066
  380TMC3    C6 5683   2.484   0.612  15.543  0.3553 -0.0910 -0.4011
  380TMC3     C 5684   2.529   0.446  15.933 -0.0781 -0.4816  0.1755
  380TMC3     O 5685   2.435   0.431  16.010 -0.4163 -0.2507 -0.3524
  380TMC3     H 5686   2.712   0.458  15.742  1.4776  2.4736  1.9151
  380TMC3    H1 5687   2.305   0.553  15.813  0.9805  1.7912  1.7845
  380TMC3    H2 5688   2.462   0.667  15.451  0.1820 -2.2514 -1.6523
  380TMC3    C7 5689   2.256   0.645  15.580 -0.0522 -0.1463  0.6502
  380TMC3    C8 5690   2.710   0.589  15.493  0.9045  0.0194  0.3822
  380TMC3    O1 5691   2.184   0.717  15.647  0.4878 -0.1550 -0.1702
  380TMC3    O2 5692   2.688   0.636  15.384 -0.6547 -0.2218 -0.0422
  381TMC3    C1 5693   2.249   1.759  15.839  0.5599 -0.0316 -0.1038
  381TMC3    C2 5694   2.369   1.757  15.896 -0.3574  0.6986 -0.0556
  381TMC3    C3 5695   2.401   1.675  16.001  0.1823  0.1744  0.5556
  381TMC3    C4 5696   2.151   1.683  15.900 -1.0661 -0.0127 -0.5598
  381TMC3    C5 5697   2.187   1.602  16.004  0.1063  1.3501 -0.1360
  381TMC3    C6 5698   2.312   1.588  16.052 -0.1556  0.4671 -0.3284
  381TMC3     C 5699   2.221   1.850  15.735  0.1118  0.4261 -0.2109
  381TMC3     O 5700   2.316   1.872  15.660 -0.6740 -0.7455 -0.8110
  381TMC3     H 5701   2.452   1.821  15.868 -0.9942  1.0747 -1.0690
  381TMC3    H1 5702   2.050   1.686  15.862 -0.6788 -0.6796 -1.6206
  381TMC3    H2 5703   2.323   1.534  16.146 -0.6301 -1.4039 -1.3596
  381TMC3    C7 5704   2.082   1.550  16.092 -0.4923 -0.3059  0.4980
  381TMC3    C8 5705   2.514   1.719  16.079 -0.5488 -0.8402 -0.3115
  381TMC3    O1 5706   2.110   1.444  16.148  0.1753  0.3524  0.0766
  381TMC3    O2 5707   2.624   1.682  16.035  1.0106  0.0162  0.4049
  382MPD2     C 5708   1.409   4.313  17.053 -0.4523  0.1521 -0.9962
  382MPD2    C1 5709   1.386   4.218  17.151 -0.8829 -0.5337  0.3443
  382MPD2    C2 5710   1.361   4.088  17.107 -0.1857 -0.0229 -0.5802
  382MPD2    C3 5711   1.358   4.049  16.978 -0.9400  0.1572 -0.2277
  382MPD2    C4 5712   1.389   4.141  16.875  0.0755 -0.5114 -0.1794
  382MPD2    C5 5713   1.406   4.267  16.920 -0.0722 -0.1261  0.1943
  382MPD2     H 5714   1.343   4.012  17.182  0.2056 -2.4762 -2.9878
  382MPD2    H1 5715   1.383   4.126  16.768  2.2040 -2.2228 -0.0605
  382MPD2    H2 5716   1.430   4.418  17.069  0.7093 -0.4990  1.6242
  382MPD2    H3 5717   1.438   4.335  16.842  0.2915 -0.0752  0.3907
  382MPD2     N 5718   1.326   3.913  16.962 -0.0954 -0.4939  0.0749
  382MPD2    H5 5719   1.300   3.853  17.039  0.6462  1.5555  1.9331
  382MPD2    N1 5720   1.377   4.241  17.290 -0.6660  0.4165 -0.8701
  382MPD2    H7 5721   1.350   4.162  17.349  0.0630  0.0937 -0.9679
  383TMC3    C1 5722   1.310   3.707  16.856  0.0765 -1.2239 -0.0485
  383TMC3    C2 5723   1.271   3.636  16.751 -0.2525 -0.1553 -0.8118
  383TMC3    C3 5724   1.234   3.503  16.767 -0.0122 -0.2682  0.2176
  383TMC3    C4 5725   1.328   3.649  16.979 -0.7388 -0.4462  0.2658
  383TMC3    C5 5726   1.296   3.516  16.991  0.1494  0.0128  0.3063
  383TMC3    C6 5727   1.238   3.445  16.890  0.4380 -0.5424 -0.0937
  383TMC3     C 5728   1.331   3.848  16.835 -0.2471  0.2778 -0.2631
  383TMC3     O 5729   1.368   3.889  16.726 -0.4332  1.1671 -0.2946
  383TMC3     H 5730   1.246   3.686  16.659  0.4063  1.7714  0.0515
  383TMC3    H1 5731   1.365   3.705  17.064 -0.9558 -0.8495  0.6248
  383TMC3    H2 5732   1.212   3.340  16.903  1.1676 -0.9742 -2.1100
  383TMC3    C7 5733   1.331   3.442  17.122 -0.8435  0.9535  0.3625
  383TMC3    C8 5734   1.157   3.446  16.661 -0.2068 -0.5094  0.7510
  383TMC3    O1 5735   1.264   3.342  17.150  0.3765  0.3035  0.2557
  383TMC3    O2 5736   1.116   3.518  16.572 -0.1830  0.2508 -0.6265
  384MPD2     C 5737   2.797   0.046  11.377  0.6426  0.8015  1.0064
  384MPD2    C1 5738   2.889   4.722  11.463  0.0138 -0.3100 -0.3299
  384MPD2    C2 5739   2.938   4.595  11.446 -0.0978 -0.1545 -0.3824
  384MPD2    C3 5740   2.870   4.514  11.358 -0.7061 -0.2383 -0.3738
  384MPD2    C4 5741   2.775   4.566  11.281  0.8369 -0.2760  0.3064
  384MPD2    C5 5742   2.748   4.698  11.279 -0.6944 -0.2989 -0.0801
  384MPD2     H 5743   3.012   4.549  11.511 -0.4248 -0.0120  0.0910
  384MPD2    H1 5744   2.728   4.507  11.203 -0.0593  0.3717  0.3605
  384MPD2    H2 5745   2.753   0.144  11.392 -2.3249 -0.5900  1.4033
  384MPD2    H3 5746   2.672   0.008  11.211  2.1890  2.3953 -1.8252
  384MPD2     N 5747   2.902   4.375  11.359 -0.4318  0.3238  0.2070
  384MPD2    H5 5748   2.983   4.351  11.415  0.9968 -0.5626 -2.2135
  384MPD2    N1 5749   2.950   0.057  11.569 -0.6480  0.0492  0.1266
  384MPD2    H7 5750   3.009   4.719  11.619  1.1092  1.0229 -0.6562
  385TMC3    C1 5751   2.880   4.151  11.349 -0.0562 -0.0902 -0.7005
  385TMC3    C2 5752   2.795   4.059  11.400  0.9414 -0.6286 -0.1708
  385TMC3    C3 5753   2.822   3.993  11.521 -0.2000 -0.0741 -0.2447
  385TMC3    C4 5754   3.004   4.171  11.415  0.7335 -0.2912 -0.0287
  385TMC3    C5 5755   3.019   4.115  11.538  0.2453  1.0400  0.1411
  385TMC3    C6 5756   2.933   4.028  11.592 -0.0864 -0.4070 -0.2496
  385TMC3     C 5757   2.828   4.278  11.301  0.1600 -0.1962  0.3177
  385TMC3     O 5758   2.744   4.281  11.213 -0.2262 -0.2113  0.5122
  385TMC3     H 5759   2.699   4.054  11.351  1.0361 -1.0751 -0.3138
  385TMC3    H1 5760   3.087   4.230  11.379 -0.3081  0.1849 -1.6546
  385TMC3    H2 5761   2.958   3.980  11.686  0.0944 -2.7240 -1.4912
  385TMC3    C7 5762   3.085   4.210  11.632 -0.0263 -0.3451 -0.4624
  385TMC3    C8 5763   2.724   3.892  11.573  0.2566 -0.2252  1.1270
  385TMC3    O1 5764   3.099   4.324  11.589  0.0132  0.0148  0.8965
  385TMC3    O2 5765   2.758   3.837  11.680  0.1381  0.0606  0.9863
  386TMC3    C1 5766   3.449   1.954  11.284 -0.4401 -0.0755 -0.5002
  386TMC3    C2 5767   3.463   1.977  11.150 -0.1950 -0.8463  0.3397
  386TMC3    C3 5768   3.419   2.095  11.104  0.0671  0.4266  0.3816
  386TMC3    C4 5769   3.411   2.047  11.375  0.1732 -0.0916 -0.7707
  386TMC3    C5 5770   3.371   2.168  11.331  0.0834 -0.2973  0.2563
  386TMC3    C6 5771   3.386   2.198  11.197 -0.0166  0.4982  0.3915
  386TMC3     C 5772   3.469   1.818  11.327 -0.0825 -0.9471 -0.3968
  386TMC3     O 5773   3.433   1.730  11.251  0.6890  0.7347 -0.3461
  386TMC3     H 5774   3.473   1.894  11.081 -0.5459 -0.0526 -0.6595
  386TMC3    H1 5775   3.377   2.004  11.468 -1.8798 -1.5020 -2.1784
  386TMC3    H2 5776   3.347   2.290  11.156 -1.5370 -0.4941 -0.3856
  386TMC3    C7 5777   3.236   2.200  11.375  0.0372 -0.0207 -0.0821
  386TMC3    C8 5778   3.346   2.100  10.981  0.5314  0.0571 -0.7098
  386TMC3    O1 5779   3.217   2.223  11.492 -0.7214 -0.4925 -0.1091
  386TMC3    O2 5780   3.246   2.177  10.978  0.5300 -0.9306  0.5623
  387MPD2     C 5781   0.614   2.158   9.017  0.7218  0.2936  0.0128
  387MPD2    C1 5782   0.717   2.145   9.112 -0.0823 -0.2829 -0.4416
  387MPD2    C2 5783   0.788   2.024   9.114 -0.5028 -0.1506  1.0231
  387MPD2    C3 5784   0.758   1.916   9.026  0.2033  0.3524 -0.1780
  387MPD2    C4 5785   0.655   1.936   8.942 -0.6962  0.6618 -0.2000
  387MPD2    C5 5786   0.590   2.059   8.934 -0.0012  0.5157 -0.0176
  387MPD2     H 5787   0.860   2.007   9.193 -0.0698  0.3996  0.7427
  387MPD2    H1 5788   0.619   1.858   8.875 -0.7000  1.2487 -0.8765
  387MPD2    H2 5789   0.559   2.251   9.018 -0.7511 -0.5654 -0.3602
  387MPD2    H3 5790   0.502   2.070   8.872 -0.9464  2.0999  1.6260
  387MPD2     N 5791   0.822   1.791   9.058 -0.5010  0.5891  0.1331
  387MPD2    H5 5792   0.896   1.788   9.127  0.4621  0.4441 -0.9237
  387MPD2    N1 5793   0.757   2.234   9.213 -0.1577  0.9923 -0.0847
  387MPD2    H7 5794   0.827   2.196   9.275  0.9947 -1.0407 -2.5963
  388TMC3    C1 5795   0.737   2.403   9.377 -0.1489  0.1530 -0.0263
  388TMC3    C2 5796   0.750   2.530   9.411 -0.1375 -0.0526  0.2328
  388TMC3    C3 5797   0.755   2.551   9.542  0.0898  0.2583 -0.4600
  388TMC3    C4 5798   0.749   2.294   9.467  0.0215  0.9536 -0.1187
  388TMC3    C5 5799   0.778   2.323   9.596 -0.7931  0.4237 -0.1011
  388TMC3    C6 5800   0.773   2.453   9.635  0.6025 -0.8467  0.1694
  388TMC3     C 5801   0.710   2.361   9.238  0.7689  0.5592 -0.0475
  388TMC3     O 5802   0.645   2.428   9.163 -0.5721 -0.3322  0.1054
  388TMC3     H 5803   0.718   2.612   9.348  0.0892  0.9721  1.4676
  388TMC3    H1 5804   0.723   2.192   9.440 -0.0457  1.0650 -0.4803
  388TMC3    H2 5805   0.795   2.475   9.738  0.7770  0.3816 -0.1374
  388TMC3    C7 5806   0.820   2.222   9.691  0.1715 -0.1164 -0.1907
  388TMC3    C8 5807   0.725   2.687   9.594 -0.9052  0.1805 -0.2708
  388TMC3    O1 5808   0.796   2.236   9.807  0.3153 -0.1253  0.7690
  388TMC3    O2 5809   0.736   2.775   9.510 -0.8794  0.8196  0.2802
  389MPD2     C 5810   0.549   0.423  10.914 -0.6822  0.4762  0.0635
  389MPD2    C1 5811   0.479   0.367  10.809  0.7246 -0.1482 -0.1124
  389MPD2    C2 5812   0.410   0.247  10.843 -0.1459 -0.0975 -0.3268
  389MPD2    C3 5813   0.387   0.204  10.973  0.5839  0.2514  0.2325
  389MPD2    C4 5814   0.452   0.272  11.076  0.2246  0.3266  0.1536
  389MPD2    C5 5815   0.530   0.376  11.041 -0.2332 -0.6463  0.4820
  389MPD2     H 5816   0.355   0.208  10.758  0.8951 -2.7549  0.2423
  389MPD2    H1 5817   0.462   0.228  11.175  1.1430  0.2601  0.0356
  389MPD2    H2 5818   0.607   0.514  10.906  1.3943 -0.5708  3.0159
  389MPD2    H3 5819   0.593   0.418  11.118 -0.2930 -1.1806  0.8189
  389MPD2     N 5820   0.303   0.091  11.004  0.4955  0.0489 -0.1696
  389MPD2    H5 5821   0.303   0.055  11.100 -1.3826  1.2845  0.2794
  389MPD2    N1 5822   0.489   0.421  10.678 -0.0311 -0.0841 -0.0987
  389MPD2    H7 5823   0.555   0.497  10.660 -0.8311  0.5423 -0.3943
  390TMC3    C1 5824   0.140   4.648  10.955 -0.1934  0.0111  0.0256
  390TMC3    C2 5825   0.080   4.668  11.078  1.1093  0.0574  0.2901
  390TMC3    C3 5826   4.700   4.592  11.105  0.0232 -0.0230 -0.4598
  390TMC3    C4 5827   0.105   4.540  10.868  0.7357 -0.3531  0.0384
  390TMC3    C5 5828   4.720   4.476  10.905  0.7479 -0.1088  0.0837
  390TMC3    C6 5829   4.651   4.496  11.021 -0.1630 -0.0559  0.1602
  390TMC3     C 5830   0.242   0.012  10.905  0.6978  0.1004  0.4614
  390TMC3     O 5831   0.267   0.012  10.784  0.1209 -1.0965  0.1637
  390TMC3     H 5832   0.114   0.009  11.155 -0.6907 -1.8643  2.7830
  390TMC3    H1 5833   0.149   4.542  10.769  1.9294  0.3261  0.5867
  390TMC3    H2 5834   4.576   4.424  11.051  0.3901 -1.1379 -1.0245
  390TMC3    C7 5835   4.647   4.415  10.797 -0.0885  0.1399  0.0120
  390TMC3    C8 5836   4.644   4.599  11.241 -0.4512  0.8220 -0.2609
  390TMC3    O1 5837   4.698   4.354  10.706  0.2017 -0.2396 -0.1880
  390TMC3    O2 5838   4.692   4.668  11.329 -0.3665  0.2822 -0.6639
  391MPD2     C 5839   4.065   1.549  10.756  0.0615  0.5921 -0.0763
  391MPD2    C1 5840   4.180   1.625  10.757 -0.3265 -0.4178  1.1330
  391MPD2    C2 5841   4.240   1.653  10.632  0.4325  0.0319  0.1324
  391MPD2    C3 5842   4.184   1.604  10.517 -0.3323 -0.6354  0.5748
  391MPD2    C4 5843   4.062   1.530  10.516  0.2289 -0.4008  0.3375
  391MPD2    C5 5844   4.012   1.496  10.635 -0.4975  0.1266  0.3673
  391MPD2     H 5845   4.324   1.721  10.625 -0.8639  1.3349 -2.4336
  391MPD2    H1 5846   4.029   1.476  10.428 -0.7297  1.3944 -0.3833
  391MPD2    H2 5847   4.027   1.532  10.856  1.1239 -0.1058  0.2166
  391MPD2    H3 5848   3.923   1.435  10.647 -0.7657  0.5221  0.3959
  391MPD2     N 5849   4.249   1.643  10.400  0.1863 -0.2201  0.9719
  391MPD2    H5 5850   4.344   1.673  10.420  0.1093  1.1820 -0.8252
  391MPD2    N1 5851   4.234   1.665  10.879 -0.0679  0.4753  0.0415
  391MPD2    H7 5852   4.178   1.650  10.962 -0.4220  2.8610  0.2304
  392TMC3    C1 5853   4.280   1.701  10.172  0.3229 -0.0532  0.2297
  392TMC3    C2 5854   4.230   1.676  10.046  0.6980  0.2284 -0.1005
  392TMC3    C3 5855   4.259   1.764   9.950  0.4903 -0.3664  0.1594
  392TMC3    C4 5856   4.363   1.812  10.197  0.0740  0.1832  0.2352
  392TMC3    C5 5857   4.394   1.892  10.093 -0.0352 -0.2470 -0.6324
  392TMC3    C6 5858   4.341   1.871   9.968 -0.2056 -0.5063 -0.5180
  392TMC3     C 5859   4.198   1.642  10.269 -0.3965  0.2482 -0.0191
  392TMC3     O 5860   4.089   1.604  10.236  0.0032  0.6758 -0.1616
  392TMC3     H 5861   4.170   1.587  10.027 -1.3550  1.6088 -0.1278
  392TMC3    H1 5862   4.397   1.839  10.296  1.3009  1.9560 -0.6638
  392TMC3    H2 5863   4.338   1.958   9.903 -3.9415 -0.1521  0.0942
  392TMC3    C7 5864   4.470   2.013  10.119  0.6571  0.5072  0.0951
  392TMC3    C8 5865   4.162   1.770   9.830  0.0541  0.1700  0.2797
  392TMC3    O1 5866   4.497   2.044  10.230 -0.2384  0.0690 -0.2930
  392TMC3    O2 5867   4.052   1.716   9.836  0.0354 -0.1690 -0.2327
  393TMC3    C1 5868   3.290   4.658  10.130 -0.3991  0.7103  0.1144
  393TMC3    C2 5869   3.162   4.638  10.076 -0.4782  0.2584 -0.4828
  393TMC3    C3 5870   3.114   4.510  10.065 -0.0950  0.6794  0.4793
  393TMC3    C4 5871   3.373   4.547  10.145  0.1002  0.4805  0.0263
  393TMC3    C5 5872   3.320   4.422  10.123 -0.3738 -0.7351  0.0688
  393TMC3    C6 5873   3.187   4.401  10.096 -0.2972 -0.1880 -0.1146
  393TMC3     C 5874   3.359   0.063  10.106  0.1859  0.0513  0.1199
  393TMC3     O 5875   3.476   0.067  10.138 -0.0479 -0.0534 -0.0135
  393TMC3     H 5876   3.091   4.716  10.053 -2.2277 -1.2679 -0.1980
  393TMC3    H1 5877   3.475   4.568  10.174  0.7838 -2.0871 -0.5076
  393TMC3    H2 5878   3.155   4.298  10.085  0.1684 -0.5798  2.1268
  393TMC3    C7 5879   3.408   4.311  10.132 -0.0388  0.1005  0.4562
  393TMC3    C8 5880   3.001   4.502   9.981 -0.5820 -0.3724 -0.1657
  393TMC3    O1 5881   3.364   4.206  10.181  0.7321  0.4993  0.0003
  393TMC3    O2 5882   2.974   4.598   9.909  0.2093 -0.2448  0.0278
  394TMC3    C1 5883   0.403   0.487  10.465  0.1636 -0.3332  0.4911
  394TMC3    C2 5884   0.291   0.478  10.391  0.2916  0.0868  1.1434
  394TMC3    C3 5885   0.310   0.489  10.251 -0.4473  0.1946 -0.4219
  394TMC3    C4 5886   0.532   0.511  10.410  0.1872  0.5393 -0.5558
  394TMC3    C5 5887   0.537   0.520  10.273  0.4603  0.0255 -0.5997
  394TMC3    C6 5888   0.428   0.507  10.192  0.9088  0.0103  0.1364
  394TMC3     C 5889   0.400   0.393  10.580 -0.9155  0.1064 -0.9988
  394TMC3     O 5890   0.296   0.327  10.593  0.1380  0.1057 -0.1964
  394TMC3     H 5891   0.190   0.466  10.430  0.2357 -0.6598  0.7764
  394TMC3    H1 5892   0.620   0.518  10.473 -0.3652 -1.2382  0.4298
  394TMC3    H2 5893   0.421   0.517  10.084 -0.8227 -0.6647  0.1920
  394TMC3    C7 5894   0.668   0.523  10.207 -0.4437  0.1863  0.1146
  394TMC3    C8 5895   0.206   0.432  10.171  0.7121  0.4131  0.4166
  394TMC3    O1 5896   0.761   0.583  10.261 -0.1886 -0.1729 -0.2333
  394TMC3    O2 5897   0.095   0.477  10.180  0.3114  0.1563 -0.2864
  395TMC3    C1 5898   0.227   3.039  14.652  0.8051 -0.5832  0.3982
  395TMC3    C2 5899   0.111   3.070  14.594 -0.3758 -0.2179  0.1541
  395TMC3    C3 5900   0.106   3.188  14.527 -0.6262  0.2386 -0.8488
  395TMC3    C4 5901   0.343   3.114  14.641  0.4726  0.8236 -0.3122
  395TMC3    C5 5902   0.328   3.240  14.581 -0.2518 -0.2933 -1.1450
  395TMC3    C6 5903   0.211   3.274  14.518  0.3144 -0.7411 -0.4213
  395TMC3     C 5904   0.209   2.965  14.776 -0.1176  0.5637  0.9167
  395TMC3     O 5905   0.092   2.959  14.818  0.4012 -0.3795  0.2795
  395TMC3     H 5906   0.026   3.007  14.615 -0.7584  1.1653  2.7566
  395TMC3    H1 5907   0.429   3.091  14.704 -1.0753 -0.3063  1.3899
  395TMC3    H2 5908   0.205   3.373  14.474 -0.5144  0.0613  1.5254
  395TMC3    C7 5909   0.438   3.344  14.584 -0.5110 -0.0443  0.6393
  395TMC3    C8 5910   4.726   3.208  14.423 -0.9250 -0.0608 -0.4487
  395TMC3    O1 5911   0.416   3.463  14.575 -0.0264  0.1996  0.7413
  395TMC3    O2 5912   4.702   3.321  14.397 -0.2374  0.2065  0.1627
  396MPD2     C 5913   4.419   3.955  16.267  0.1721 -0.4691  0.3156
  396MPD2    C1 5914   4.516   4.009  16.348 -0.3218 -0.1137  0.0707
  396MPD2    C2 5915   4.583   4.127  16.306 -0.5411 -0.3283  0.2762
  396MPD2    C3 5916   4.569   4.177  16.173  0.3914 -1.1571  0.8848
  396MPD2    C4 5917   4.480   4.110  16.090 -0.4007 -0.5441 -0.3573
  396MPD2    C5 5918   4.407   4.007  16.139 -0.0577 -0.3628 -0.0044
  396MPD2     H 5919   4.656   4.175  16.371 -2.6658  1.8436  1.0826
  396MPD2    H1 5920   4.454   4.143  15.991  3.5567  0.6360 -0.9981
  396MPD2    H2 5921   4.363   3.869  16.302  1.0521 -1.1929 -0.0381
  396MPD2    H3 5922   4.332   3.964  16.074 -0.4589  0.2844  0.0248
  396MPD2     N 5923   4.633   4.300  16.138  0.6366  0.0568 -0.4464
  396MPD2    H5 5924   4.707   4.336  16.197  0.2006 -1.9628  1.2880
  396MPD2    N1 5925   4.524   3.955  16.479 -0.1802 -0.1087  0.1909
  396MPD2    H7 5926   4.483   3.864  16.497 -0.4568 -0.2180 -0.9940
  397TMC3    C1 5927   4.595   3.936  16.698 -0.2164 -0.1197 -0.4331
  397TMC3    C2 5928   4.724   3.900  16.727  0.0713 -0.1174  0.7213
  397TMC3    C3 5929   0.035   3.775  16.757 -0.4308 -0.0663  0.7887
  397TMC3    C4 5930   4.506   3.832  16.705  0.6678 -0.0747 -0.2012
  397TMC3    C5 5931   4.534   3.707  16.752 -0.3430  0.0883  0.5997
  397TMC3    C6 5932   4.669   3.676  16.778  0.0487  0.1242  1.1680
  397TMC3     C 5933   4.601   4.013  16.576  0.1123 -0.0104 -0.2252
  397TMC3     O 5934   4.669   4.116  16.582  0.1448  1.0279  0.3198
  397TMC3     H 5935   0.072   3.969  16.689 -0.4924 -0.1450 -0.4386
  397TMC3    H1 5936   4.402   3.861  16.714  0.4386 -0.7925 -0.5472
  397TMC3    H2 5937   4.703   3.573  16.791 -1.9512 -0.6733  0.0680
  397TMC3    C7 5938   4.434   3.653  16.838 -0.4591 -0.6117 -0.3200
  397TMC3    C8 5939   0.174   3.740  16.761 -0.1828 -0.8026  0.2801
  397TMC3    O1 5940   4.325   3.634  16.791  0.3204 -0.1175  0.7725
  397TMC3    O2 5941   0.205   3.653  16.841 -0.4279  0.0874 -0.1913
  398MPD2     C 5942   2.511   0.505  17.697 -0.3289  0.3456  0.4050
  398MPD2    C1 5943   2.597   0.398  17.690  0.7643 -0.2198 -0.5086
  398MPD2    C2 5944   2.713   0.398   0.059  0.1670 -1.0109  0.2616
  398MPD2    C3 5945   2.735   0.497   0.148 -0.2462 -0.4511  0.8459
  398MPD2    C4 5946   2.647   0.604   0.163 -0.2440 -0.5793 -0.6865
  398MPD2    C5 5947   2.543   0.612   0.069  0.4177 -0.0551  0.0032
  398MPD2     H 5948   2.782   0.315   0.051  0.4309 -0.8784  1.2017
  398MPD2    H1 5949   2.665   0.683   0.234 -0.6609 -0.6003 -0.5572
  398MPD2    H2 5950   2.418   0.509  17.642  0.0405  0.8522 -0.1798
  398MPD2    H3 5951   2.485   0.703   0.074  0.1756 -0.2390  0.5521
  398MPD2     N 5952   2.848   0.484   0.235  0.1006 -0.0300  0.2906
  398MPD2    H5 5953   2.919   0.415   0.216 -0.3028 -0.4169  0.1836
  398MPD2    N1 5954   2.567   0.269  17.640  0.3246  0.0703 -0.1119
  398MPD2    H7 5955   2.640   0.199  17.653 -0.9520 -1.3191 -0.3939
  399TMC3    C1 5956   2.440   0.099  17.541  0.3710  0.4493  0.0967
  399TMC3    C2 5957   2.540   0.007  17.572  0.4453  0.4287  0.2749
  399TMC3    C3 5958   2.495   4.609  17.615 -0.0151 -0.7560  0.3860
  399TMC3    C4 5959   2.303   0.062  17.533 -0.8317  0.3022  0.5242
  399TMC3    C5 5960   2.265   4.669  17.581  0.3837 -0.2674  0.8100
  399TMC3    C6 5961   2.362   4.582  17.625 -0.0478 -0.9266 -0.0949
  399TMC3     C 5962   2.463   0.237  17.558  0.1266 -0.1459  0.3727
  399TMC3     O 5963   2.374   0.310  17.522  0.0622  0.2608 -0.4326
  399TMC3     H 5964   2.644   0.026  17.547  0.2802  1.4769  0.3678
  399TMC3    H1 5965   2.231   0.143  17.533 -0.4477  0.6377  0.9717
  399TMC3    H2 5966   2.337   4.485  17.666 -0.7149 -0.1144  1.4091
  399TMC3    C7 5967   2.133   4.608  17.547  0.0452  0.5080  0.4963
  399TMC3    C8 5968   2.582   4.502  17.663 -0.2415  0.2509 -0.3135
  399TMC3    O1 5969   2.107   4.503  17.607 -0.1282  0.2771 -0.3317
  399TMC3    O2 5970   2.530   4.394  17.671 -0.4339 -0.1807 -0.5783
  400TMC3    C1 5971   1.459   3.625  16.407  0.0227  0.1538 -0.7655
  400TMC3    C2 5972   1.336   3.623  16.354 -0.4329  0.2415 -0.3324
  400TMC3    C3 5973   1.291   3.743  16.301 -0.0268  0.0560 -0.0133
  400TMC3    C4 5974   1.541   3.739  16.397  0.1035 -0.3683 -0.0121
  400TMC3    C5 5975   1.480   3.851  16.354 -0.3128  0.4073  0.6561
  400TMC3    C6 5976   1.355   3.860  16.305 -0.7726 -0.0395 -0.7432
  400TMC3     C 5977   1.506   3.521  16.495 -0.2405  0.1844  0.1135
  400TMC3     O 5978   1.455   3.406  16.482 -0.2254 -0.2656 -0.1231
  400TMC3     H 5979   1.275   3.539  16.385 -0.1972  0.4718  0.7579
  400TMC3    H1 5980   1.643   3.748  16.433  0.5941  0.3628 -1.5872
  400TMC3    H2 5981   1.318   3.952  16.260  0.1860  0.7719  0.1599
  400TMC3    C7 5982   1.556   3.970  16.358 -0.1694 -0.5215  0.3550
  400TMC3    C8 5983   1.160   3.747  16.239  0.1507  0.3280 -0.9085
  400TMC3    O1 5984   1.660   3.971  16.296  0.0169 -0.4959  0.1076
  400TMC3    O2 5985   1.133   3.851  16.184  0.1614 -0.7176  0.4615
  401MPD2     C 5986   3.423   1.837  17.671  0.4742  0.1138 -0.1181
  401MPD2    C1 5987   3.483   1.894   0.075  0.1897 -0.5410  0.0944
  401MPD2    C2 5988   3.557   1.817   0.159  0.0882  0.3036 -0.0871
  401MPD2    C3 5989   3.552   1.681   0.135 -0.2181 -0.2818 -0.4821
  401MPD2    C4 5990   3.492   1.618   0.030  0.5762 -0.0946 -0.5342
  401MPD2    C5 5991   3.427   1.700  17.650 -0.0970 -0.4709 -0.5582
  401MPD2     H 5992   3.623   1.856   0.237 -0.1870 -0.3495  0.4677
  401MPD2    H1 5993   3.510   1.514   0.009  0.2423 -0.4011  0.7334
  401MPD2    H2 5994   3.360   1.897  17.607 -1.5613 -0.8396  1.0145
  401MPD2    H3 5995   3.378   1.659  17.562  1.9816  0.5124 -2.1911
  401MPD2     N 5996   3.603   1.603   0.239  0.4105  0.1290  0.1376
  401MPD2    H5 5997   3.658   1.657   0.306  1.2400 -0.4445 -0.0768
  401MPD2    N1 5998   3.465   2.031   0.109  0.0846  0.0178 -0.5027
  401MPD2    H7 5999   3.505   2.074   0.192  1.0583 -1.3227 -0.2743
  402TMC3    C1 6000   3.682   1.431   0.372  0.7056  0.2046  0.6611
  402TMC3    C2 6001   3.713   1.521   0.467 -0.4708  0.4469  0.3966
  402TMC3    C3 6002   3.796   1.476   0.566  0.2605  0.0965 -0.1317
  402TMC3    C4 6003   3.739   1.305   0.368  0.0233  0.5729  0.7151
  402TMC3    C5 6004   3.814   1.258   0.470  0.5581 -0.1045  0.1215
  402TMC3    C6 6005   3.848   1.348   0.560  0.3211  0.1644 -0.3130
  402TMC3     C 6006   3.611   1.465   0.256 -0.3905 -0.3793 -0.2872
  402TMC3     O 6007   3.569   1.380   0.182  0.7373 -0.1208  0.1093
  402TMC3     H 6008   3.671   1.621   0.468 -1.9540 -0.1674 -0.4071
  402TMC3    H1 6009   3.723   1.241   0.282  0.1528 -0.2096  1.2643
  402TMC3    H2 6010   3.916   1.307   0.634 -1.1320  0.2882  1.0814
  402TMC3    C7 6011   3.916   1.160   0.431  0.3208 -0.5205  0.4373
  402TMC3    C8 6012   3.801   1.539   0.698 -0.2204 -0.8187 -0.1963
  402TMC3    O1 6013   3.882   1.043   0.416 -0.5958  1.3224  0.5223
  402TMC3    O2 6014   3.880   1.491   0.773 -0.3545  0.1246  0.1020
  403MPD2     C 6015   3.267   0.072  12.697  0.4777  0.4862 -0.8031
  403MPD2    C1 6016   3.200   4.720  12.790 -0.2566 -0.4691  0.7628
  403MPD2    C2 6017   3.253   4.714  12.919  0.4153 -0.3092  0.3839
  403MPD2    C3 6018   3.379   0.033  12.946 -0.7564 -0.2493  0.1665
  403MPD2    C4 6019   3.444   0.104  12.845  0.2151 -0.5056 -0.0705
  403MPD2    C5 6020   3.392   0.129  12.724 -0.5406 -0.6080  0.3061
  403MPD2     H 6021   3.196   4.663  12.996 -1.9573  1.2606 -0.3217
  403MPD2    H1 6022   3.545   0.138  12.863  0.0737 -0.5304  0.7393
  403MPD2    H2 6023   3.226   0.085  12.597  1.7752  0.4171 -1.3470
  403MPD2    H3 6024   3.452   0.180  12.649  0.4153 -0.8015  0.9366
  403MPD2     N 6025   3.442   0.015  13.067 -0.2628 -0.2168  0.9791
  403MPD2    H5 6026   3.408   4.663  13.120  1.2729 -0.9663  0.8671
  403MPD2    N1 6027   3.080   4.654  12.745 -0.1847  0.0346 -0.0183
  403MPD2    H7 6028   3.053   4.659  12.647  0.3399  0.4616 -0.1469
  404TMC3    C1 6029   2.881   4.535  12.759 -0.0281  0.2409  0.6544
  404TMC3    C2 6030   2.794   4.460  12.832 -0.1361  0.3144  0.1389
  404TMC3    C3 6031   2.688   4.398  12.772  0.6331  0.1122  0.2568
  404TMC3    C4 6032   2.869   4.543  12.622 -0.1057  0.1938  0.1632
  404TMC3    C5 6033   2.762   4.477  12.566  0.8098 -0.2183  0.1017
  404TMC3    C6 6034   2.678   4.398  12.635 -0.4846  0.3709 -0.5372
  404TMC3     C 6035   2.993   4.589  12.836 -0.2465  0.5431  0.0802
  404TMC3     O 6036   3.012   4.553  12.946  0.0039  0.4822 -0.2496
  404TMC3     H 6037   2.811   4.450  12.938 -0.1351 -0.2308  0.0854
  404TMC3    H1 6038   2.927   4.618  12.570 -0.1027  1.7230  2.3904
  404TMC3    H2 6039   2.588   4.353  12.593 -1.1842  0.5904  0.7501
  404TMC3    C7 6040   2.735   4.507  12.424 -0.4187 -0.6179  0.0035
  404TMC3    C8 6041   2.622   4.295  12.850 -0.3439 -0.6277  0.1254
  404TMC3    O1 6042   2.794   4.611  12.389 -0.1134  0.4637 -0.1445
  404TMC3    O2 6043   2.588   4.197  12.786 -0.3421 -0.6047 -0.5623
  405MPD2     C 6044   3.177   0.443  14.457 -0.1559 -1.0387  0.5279
  405MPD2    C1 6045   3.073   0.457  14.365 -0.4840  0.0616 -0.0155
  405MPD2    C2 6046   3.058   0.576  14.299  0.0301  0.4489 -0.0043
  405MPD2    C3 6047   3.141   0.682  14.312 -0.0322 -1.4722  0.9010
  405MPD2    C4 6048   3.245   0.668  14.401 -0.3083 -0.1946 -0.1580
  405MPD2    C5 6049   3.271   0.548  14.465 -0.0417 -0.0640  0.0832
  405MPD2     H 6050   2.976   0.587  14.230  2.0374  1.1283 -2.2838
  405MPD2    H1 6051   3.317   0.747  14.418 -0.0799 -0.7122  1.2621
  405MPD2    H2 6052   3.206   0.350  14.505 -0.5785 -1.7002 -0.4978
  405MPD2    H3 6053   3.357   0.543  14.531  0.5093  0.2569 -0.6164
  405MPD2     N 6054   3.124   0.786  14.226 -0.4274  0.5344  0.4430
  405MPD2    H5 6055   3.050   0.781  14.156  2.2643  0.8802 -2.4100
  405MPD2    N1 6056   2.979   0.349  14.350 -0.2779 -0.1452 -0.0358
  405MPD2    H7 6057   3.009   0.259  14.387 -1.1940  0.7334  2.8441
  406TMC3    C1 6058   2.996   1.038  13.944 -0.9189 -0.3982 -0.3488
  406TMC3    C2 6059   3.057   0.977  13.835  0.0434  0.4039 -0.5386
  406TMC3    C3 6060   3.171   0.904  13.844  0.2314 -0.2559 -0.3003
  406TMC3    C4 6061   3.048   1.025  14.070 -0.1567 -0.7438 -0.0923
  406TMC3    C5 6062   3.167   0.955  14.071  0.4114 -0.5208  0.3300
  406TMC3    C6 6063   3.222   0.883  13.966  0.3279 -0.0062  0.2076
  406TMC3     C 6064   2.895   1.133  13.911  0.2488 -0.2703  1.4659
  406TMC3     O 6065   2.898   1.186  13.803  0.0390 -0.1180 -0.1402
  406TMC3     H 6066   3.019   1.010  13.739 -1.0883 -1.9564 -0.9065
  406TMC3    H1 6067   2.999   1.071  14.155  2.3906  0.1438  0.8753
  406TMC3    H2 6068   3.310   0.822  13.984  0.4459  0.2630  0.5387
  406TMC3    C7 6069   3.196   0.903  14.202  0.1381  0.3884  0.4387
  406TMC3    C8 6070   3.156   0.791  13.758 -0.1885 -0.0574  0.1798
  406TMC3    O1 6071   3.298   0.938  14.260  0.1860 -0.7784  0.5182
  406TMC3    O2 6072   3.134   0.797  13.636  0.0684 -0.0159 -0.0923
  407MPD2     C 6073   0.246   1.662   8.876 -0.4192  0.5158 -0.1845
  407MPD2    C1 6074   0.367   1.619   8.929  0.3600 -0.2721  0.7128
  407MPD2    C2 6075   0.417   1.689   9.033  0.5614  0.5757  0.2661
  407MPD2    C3 6076   0.353   1.790   9.095 -0.2166  0.5620  0.5060
  407MPD2    C4 6077   0.242   1.839   9.042 -0.1171 -0.0241 -0.9123
  407MPD2    C5 6078   0.197   1.777   8.928  0.3832 -0.3346  0.9664
  407MPD2     H 6079   0.513   1.659   9.074  0.9742 -2.2034 -2.7662
  407MPD2    H1 6080   0.199   1.923   9.094  1.3149  1.3333 -1.9031
  407MPD2    H2 6081   0.195   1.619   8.791 -0.7838 -0.9557  0.7961
  407MPD2    H3 6082   0.104   1.813   8.883  0.0412 -1.2803  0.9117
  407MPD2     N 6083   0.419   1.863   9.196 -0.5595 -0.3397 -0.1790
  407MPD2    H5 6084   0.395   1.960   9.212  1.3149  0.1067 -0.0545
  407MPD2    N1 6085   0.445   1.516   8.862  0.1549 -0.0151 -0.1398
  407MPD2    H7 6086   0.535   1.503   8.906 -0.0863 -0.2460  0.2830
  408TMC3    C1 6087   0.518   1.384   8.682  0.2248  0.0104  0.2069
  408TMC3    C2 6088   0.617   1.474   8.655  0.6158  0.2411 -0.3071
  408TMC3    C3 6089   0.685   1.453   8.538  0.0264 -0.1120 -0.5537
  408TMC3    C4 6090   0.481   1.283   8.596 -0.4924 -0.0201 -0.2118
  408TMC3    C5 6091   0.557   1.267   8.482  0.4750  0.1470  0.2380
  408TMC3    C6 6092   0.659   1.350   8.455  0.0088 -0.3542  0.0624
  408TMC3     C 6093   0.404   1.433   8.757  0.2293  0.1736 -0.2423
  408TMC3     O 6094   0.292   1.417   8.706 -0.7319  0.0153 -0.3118
  408TMC3     H 6095   0.638   1.567   8.706  1.8408 -0.4788  0.4963
  408TMC3    H1 6096   0.394   1.223   8.620  0.1738 -1.7070 -2.0222
  408TMC3    H2 6097   0.731   1.328   8.376 -0.4450 -0.8624 -0.2050
  408TMC3    C7 6098   0.509   1.186   8.370 -0.1767 -0.0003 -0.2714
  408TMC3    C8 6099   0.746   1.564   8.473  0.2849 -0.0511  0.4435
  408TMC3    O1 6100   0.535   1.233   8.259 -0.1540 -0.2305 -0.0820
  408TMC3    O2 6101   0.758   1.570   8.349 -0.7334  0.8285 -0.2121
  409MPD2     C 6102   4.490   3.224  16.737  0.0078  0.0677  0.1135
  409MPD2    C1 6103   4.613   3.212  16.794 -0.9933 -0.2429  0.5076
  409MPD2    C2 6104   4.720   3.270  16.728  0.2061  0.4144  0.6454
  409MPD2    C3 6105   4.709   3.342  16.613 -0.1984 -0.0192 -1.2187
  409MPD2    C4 6106   4.587   3.364  16.558 -0.1109  0.0726 -0.5119
  409MPD2    C5 6107   4.481   3.313  16.626  0.5656  0.4121 -0.0089
  409MPD2     H 6108   0.090   3.260  16.775 -0.1504  2.7185  1.8972
  409MPD2    H1 6109   4.572   3.425  16.470 -1.2065  1.3688  0.5730
  409MPD2    H2 6110   4.407   3.163  16.773  0.2896 -1.3253 -1.5779
  409MPD2    H3 6111   4.377   3.336  16.606  0.3355  0.8307  1.6658
  409MPD2     N 6112   0.087   3.386  16.540 -0.6838  0.1442 -0.1099
  409MPD2    H5 6113   0.061   3.454  16.469  0.4435 -0.5645 -1.2131
  409MPD2    N1 6114   4.636   3.147  16.923 -0.3062 -0.3215 -0.2306
  409MPD2    H7 6115   0.005   3.151  16.956 -0.8796  0.9304  1.2489
  410TMC3    C1 6116   0.322   3.394  16.461 -0.2849  0.6214  0.0473
  410TMC3    C2 6117   0.447   3.384  16.505  0.5034 -0.9099  0.4743
  410TMC3    C3 6118   0.548   3.447  16.439 -0.4962 -0.1132  0.1860
  410TMC3    C4 6119   0.291   3.485  16.360  0.1962 -0.4639  0.0606
  410TMC3    C5 6120   0.392   3.553  16.302  0.5607  0.5805  0.1202
  410TMC3    C6 6121   0.523   3.532  16.335 -0.5146  0.0340 -0.2727
  410TMC3     C 6122   0.217   3.346  16.554  0.1430 -0.0683 -0.3781
  410TMC3     O 6123   0.258   3.280  16.648 -0.1422 -0.2730 -0.1909
  410TMC3     H 6124   0.462   3.336  16.601  0.8680 -0.6503  0.5452
  410TMC3    H1 6125   0.189   3.497  16.325  1.0383  0.3687 -2.1264
  410TMC3    H2 6126   0.603   3.596  16.300 -1.6965  1.8312  0.3235
  410TMC3    C7 6127   0.371   3.616  16.173 -0.0376 -0.5707  0.3900
  410TMC3    C8 6128   0.682   3.424  16.481 -0.0911 -0.2117  0.7777
  410TMC3    O1 6129   0.300   3.549  16.100  0.5130  0.1727 -0.5522
  410TMC3    O2 6130   0.759   3.515  16.458 -0.2371 -0.2182 -0.7520
  411MPD2     C 6131   0.679   3.866  14.410 -0.3809 -0.1084 -0.0861
  411MPD2    C1 6132   0.556   3.925  14.402 -0.6218  0.0314  0.4356
  411MPD2    C2 6133   0.440   3.850  14.378  0.0741 -0.5585  0.0353
  411MPD2    C3 6134   0.456   3.707  14.365 -0.0445  0.7637 -0.7464
  411MPD2    C4 6135   0.582   3.652  14.394 -0.2019  0.2043  0.3026
  411MPD2    C5 6136   0.694   3.734  14.398  0.6145 -0.4507  0.1947
  411MPD2     H 6137   0.347   3.895  14.345  1.0814 -0.1434 -2.2483
  411MPD2    H1 6138   0.595   3.545  14.388  2.2277  0.5284 -0.3134
  411MPD2    H2 6139   0.773   3.921  14.418 -0.5307 -0.3159  2.8348
  411MPD2    H3 6140   0.793   3.691  14.402  1.2724  1.2132  1.3995
  411MPD2     N 6141   0.348   3.629  14.323 -0.3428  0.2027  0.2205
  411MPD2    H5 6142   0.369   3.532  14.298  2.4396  0.5547  1.1353
  411MPD2    N1 6143   0.546   4.065  14.400 -0.4280 -0.0780  0.3351
  411MPD2    H7 6144   0.452   4.102  14.384 -0.7343 -0.9256  0.1902
  412TMC3    C1 6145   0.139   3.578  14.225 -0.0509 -0.5626 -0.3814
  412TMC3    C2 6146   0.006   3.604  14.212  0.1643  0.6830  0.0608
  412TMC3    C3 6147   4.667   3.513  14.142  0.0690  0.1399 -0.2600
  412TMC3    C4 6148   0.210   3.490  14.144  0.1945 -0.1003 -0.2342
  412TMC3    C5 6149   0.137   3.422  14.060 -0.3453  0.0689  0.5451
  412TMC3    C6 6150   0.001   3.423  14.060  0.4229 -0.1997 -0.4527
  412TMC3     C 6151   0.219   3.674  14.310 -0.1648 -0.2100 -0.3069
  412TMC3     O 6152   0.161   3.774  14.358  0.3926  0.5678 -0.3584
  412TMC3     H 6153   4.683   3.684  14.266  1.3153  1.3852  0.0770
  412TMC3    H1 6154   0.317   3.501  14.134  0.2208 -2.5827 -2.5456
  412TMC3    H2 6155   4.659   3.367  13.998  1.6582 -1.1957 -0.9169
  412TMC3    C7 6156   0.200   3.404  13.929 -0.0344 -0.0013 -0.1363
  412TMC3    C8 6157   4.558   3.567  14.067  0.1568 -0.0751 -0.2031
  412TMC3    O1 6158   0.321   3.392  13.917 -0.9488 -0.2362  0.5715
  412TMC3    O2 6159   4.593   3.587  13.952 -0.2264 -0.2512  0.0864
  413MPD2     C 6160   2.024   1.760  15.313  0.1269 -0.0909 -0.3556
  413MPD2    C1 6161   1.991   1.724  15.181 -0.0352 -0.2703  0.0664
  413MPD2    C2 6162   2.090   1.689  15.093 -0.9284 -0.3121  0.8892
  413MPD2    C3 6163   2.213   1.653  15.134 -0.3746 -0.4528 -0.3408
  413MPD2    C4 6164   2.247   1.683  15.269 -0.0109 -0.2059 -0.1151
  413MPD2    C5 6165   2.154   1.742  15.352 -0.4062  0.8431  0.4652
  413MPD2     H 6166   2.067   1.672  14.988 -3.1567 -0.9585  1.4948
  413MPD2    H1 6167   2.347   1.671  15.309 -0.4725  0.1816  1.1690
  413MPD2    H2 6168   1.952   1.807  15.379  1.2092 -1.9406  2.1400
  413MPD2    H3 6169   2.185   1.774  15.451  0.2412  0.2012  0.4744
  413MPD2     N 6170   2.302   1.603  15.031 -0.0063  0.3946 -0.4928
  413MPD2    H5 6171   2.265   1.573  14.941 -2.2661 -1.2508  0.9762
  413MPD2    N1 6172   1.866   1.761  15.140 -0.1623 -0.1902 -0.2467
  413MPD2    H7 6173   1.807   1.787  15.218 -1.6274  0.4089 -1.5491
  414TMC3    C1 6174   2.512   1.544  14.939 -0.3417 -0.2258  0.5139
  414TMC3    C2 6175   2.595   1.438  14.957  0.6828 -0.5624  0.3413
  414TMC3    C3 6176   2.624   1.355  14.850  0.4776  0.2891 -0.2397
  414TMC3    C4 6177   2.463   1.574  14.819  0.4247  0.0539 -0.2527
  414TMC3    C5 6178   2.492   1.489  14.715  0.4682  0.8031  0.5450
  414TMC3    C6 6179   2.559   1.372  14.732 -0.4756 -0.1581 -0.4104
  414TMC3     C 6180   2.437   1.585  15.052 -0.3706  0.0971 -0.4910
  414TMC3     O 6181   2.510   1.607  15.146 -0.4273 -0.4704  0.0070
  414TMC3     H 6182   2.630   1.412  15.056  0.0924 -0.7238  0.5087
  414TMC3    H1 6183   2.392   1.655  14.809  1.6539  1.0868 -0.6146
  414TMC3    H2 6184   2.578   1.297  14.656  1.8066  2.4434 -2.4208
  414TMC3    C7 6185   2.411   1.505  14.594  0.0173  0.4283 -0.6231
  414TMC3    C8 6186   2.744   1.272  14.849 -0.7361 -0.3398  0.7209
  414TMC3    O1 6187   2.291   1.537  14.610  0.0351 -1.1043 -0.0653
  414TMC3    O2 6188   2.762   1.202  14.748 -0.0566 -0.2688 -0.1628
  415TMC3    C1 6189   2.767   3.985   9.666  0.1216  0.2667  0.2578
  415TMC3    C2 6190   2.874   4.028   9.736  0.3462  0.1341 -0.1687
  415TMC3    C3 6191   2.927   4.146   9.690  0.1176 -0.8055  0.7170
  415TMC3    C4 6192   2.722   4.040   9.553 -0.2411 -0.9889  0.1785
  415TMC3    C5 6193   2.773   4.157   9.512 -0.2692 -0.4357  0.2795
  415TMC3    C6 6194   2.879   4.215   9.576  0.3377 -0.1067 -0.0391
  415TMC3     C 6195   2.668   3.900   9.727  0.3338 -0.3486  0.3974
  415TMC3     O 6196   2.552   3.925   9.707 -0.1439 -0.2833  0.5623
  415TMC3     H 6197   2.907   3.987   9.831 -1.5352  0.0210  0.4500
  415TMC3    H1 6198   2.641   3.997   9.496  1.2202 -1.9394 -1.1922
  415TMC3    H2 6199   2.915   4.308   9.533  0.4573 -0.4832 -0.7551
  415TMC3    C7 6200   2.730   4.213   9.385  0.4694 -0.1205  0.4240
  415TMC3    C8 6201   3.057   4.172   9.748 -1.3081  0.1187  0.4583
  415TMC3    O1 6202   2.802   4.300   9.339  0.2248 -0.0102 -0.7163
  415TMC3    O2 6203   3.100   4.095   9.834 -0.3805  0.0464 -0.3168
  416MPD2     C 6204   4.354   3.141  11.290  0.0686  0.2772 -0.5857
  416MPD2    C1 6205   4.253   3.113  11.199 -0.2405  0.6979  0.0243
  416MPD2    C2 6206   4.268   3.002  11.116  0.1701 -0.5505  0.1266
  416MPD2    C3 6207   4.373   2.914  11.143  0.3057  0.1263 -1.0911
  416MPD2    C4 6208   4.466   2.937  11.240 -0.3278  0.1287 -0.3066
  416MPD2    C5 6209   4.462   3.055  11.306 -0.0615  0.3168  0.2893
  416MPD2     H 6210   4.196   2.984  11.037  1.7463 -0.7982 -1.2643
  416MPD2    H1 6211   4.547   2.870  11.269 -0.8936  0.2535  1.5491
  416MPD2    H2 6212   4.346   3.224  11.359 -1.9761 -0.2136 -0.2218
  416MPD2    H3 6213   4.547   3.081  11.367 -0.9405  1.7156  0.9242
  416MPD2     N 6214   4.374   2.788  11.089 -0.2960  0.7876  0.5424
  416MPD2    H5 6215   4.438   2.722  11.133  1.9880  1.9074 -1.1157
  416MPD2    N1 6216   4.135   3.195  11.190  0.3832  0.2938  0.0756
  416MPD2    H7 6217   4.136   3.286  11.235  2.7403  0.2983  0.0371
  417TMC3    C1 6218   3.913   3.251  11.163  0.2505 -0.6576  0.1549
  417TMC3    C2 6219   3.912   3.305  11.290 -0.6574 -0.3129  0.1888
  417TMC3    C3 6220   3.795   3.343  11.349  0.1791 -0.4382  0.5811
  417TMC3    C4 6221   3.799   3.243  11.091  0.1051 -0.2058 -0.3534
  417TMC3    C5 6222   3.686   3.277  11.155 -0.4802 -0.8500  0.0913
  417TMC3    C6 6223   3.678   3.317  11.286 -0.3562 -0.7087  0.2201
  417TMC3     C 6224   4.021   3.172  11.124 -0.1296  0.3152  0.2729
  417TMC3     O 6225   4.005   3.077  11.051 -0.0989 -0.1517  0.6048
  417TMC3     H 6226   4.000   3.309  11.353 -1.3624 -0.4796  1.1888
  417TMC3    H1 6227   3.788   3.196  10.993 -1.7578 -0.8313  0.1619
  417TMC3    H2 6228   3.584   3.358  11.322 -1.3611 -2.3444 -0.5516
  417TMC3    C7 6229   3.574   3.318  11.071 -0.4497 -0.4177  0.5121
  417TMC3    C8 6230   3.794   3.376  11.490 -0.2359 -0.6717 -0.1357
  417TMC3    O1 6231   3.465   3.315  11.120  0.1130  0.2877  0.6542
  417TMC3    O2 6232   3.715   3.465  11.523 -0.4438  0.1629  0.1150
  418TMC3    C1 6233   3.196   0.387   0.356  0.2076 -0.2072 -0.4769
  418TMC3    C2 6234   3.094   0.470   0.309  0.0615 -0.1225 -0.3076
  418TMC3    C3 6235   3.005   0.512   0.404 -1.1922  0.4237 -0.0496
  418TMC3    C4 6236   3.190   0.339   0.484  0.1467 -0.6313  0.1437
  418TMC3    C5 6237   3.088   0.376   0.572  0.2508 -0.4274 -0.2680
  418TMC3    C6 6238   2.987   0.458   0.528 -0.1678 -0.2934 -1.0332
  418TMC3     C 6239   3.264   0.310   0.255  0.6362  0.2503  0.1211
  418TMC3     O 6240   3.214   0.319   0.146  0.4942 -0.0165 -0.5782
  418TMC3     H 6241   3.100   0.516   0.211 -0.3498  3.3203  1.2821
  418TMC3    H1 6242   3.260   0.265   0.522  1.3231  1.0238  1.2350
  418TMC3    H2 6243   2.900   0.482   0.588  1.3138  0.5826  0.7706
  418TMC3    C7 6244   3.065   0.277   0.674 -0.0816 -0.1862 -0.0859
  418TMC3    C8 6245   2.879   0.558   0.347 -0.8386  0.4169 -0.3066
  418TMC3    O1 6246   3.131   0.174   0.693  0.0539 -0.3312  0.5405
  418TMC3    O2 6247   2.807   0.636   0.413  0.3199 -0.3360  0.5791
  419MPD2     C 6248   1.248   3.055  12.213  0.0955 -1.0300 -0.1958
  419MPD2    C1 6249   1.222   3.189  12.198  1.0221  0.5696  0.6300
  419MPD2    C2 6250   1.219   3.260  12.314  0.5927 -0.9448  0.1974
  419MPD2    C3 6251   1.239   3.201  12.436 -0.2695 -0.2559  0.4092
  419MPD2    C4 6252   1.269   3.074  12.448  0.9823 -0.0043 -0.7786
  419MPD2    C5 6253   1.273   2.995  12.334 -0.7717 -0.5239 -0.3036
  419MPD2     H 6254   1.211   3.368  12.311  1.9325 -0.7932  1.7772
  419MPD2    H1 6255   1.289   3.026  12.544  0.2939  1.1088 -0.0842
  419MPD2    H2 6256   1.259   2.986  12.130 -1.2292 -1.2421 -0.1983
  419MPD2    H3 6257   1.275   2.887  12.344  2.2736 -0.5743 -1.7094
  419MPD2     N 6258   1.232   3.282  12.552  0.4478  0.3740 -0.0296
  419MPD2    H5 6259   1.198   3.377  12.540 -2.3349 -0.5197  0.9822
  419MPD2    N1 6260   1.213   3.256  12.072 -0.2392 -0.2364  0.1609
  419MPD2    H7 6261   1.211   3.358  12.070 -0.6820 -0.2632 -0.9225
  420TMC3    C1 6262   1.252   3.368  12.771 -0.6098 -0.6390 -0.6711
  420TMC3    C2 6263   1.213   3.490  12.713  0.8165  0.5752  0.5131
  420TMC3    C3 6264   1.199   3.591  12.802  1.1124 -0.0256 -0.4489
  420TMC3    C4 6265   1.302   3.359  12.891  0.0717 -0.0459 -0.3766
  420TMC3    C5 6266   1.313   3.477  12.963  0.2460 -0.3170  0.2294
  420TMC3    C6 6267   1.258   3.595  12.928 -1.2637 -0.3079  0.6149
  420TMC3     C 6268   1.276   3.252  12.685  0.8215 -0.2492 -0.0530
  420TMC3     O 6269   1.322   3.156  12.730 -0.5146 -0.7137 -0.2972
  420TMC3     H 6270   1.165   3.509  12.618 -1.4358  0.9899  1.7227
  420TMC3    H1 6271   1.323   3.263  12.936 -0.5095 -1.2587 -2.7061
  420TMC3    H2 6272   1.250   3.677  12.998 -0.0382  0.7646 -0.5004
  420TMC3    C7 6273   1.363   3.465  13.097 -0.9563  0.1375  0.4119
  420TMC3    C8 6274   1.126   3.709  12.746 -0.0532 -0.6660  0.4488
  420TMC3    O1 6275   1.387   3.354  13.142  0.1300 -0.4061 -0.8111
  420TMC3    O2 6276   1.095   3.712  12.631  0.0135 -0.0393 -0.4132
  421TMC3    C1 6277   3.620   0.035  13.219  0.6607 -0.7222 -0.5755
  421TMC3    C2 6278   3.640   0.107  13.338 -0.7468  0.5998 -0.1084
  421TMC3    C3 6279   3.699   0.040  13.439 -0.0891  0.1070 -0.1963
  421TMC3    C4 6280   3.663   4.632  13.205  0.5412 -0.5157 -0.4490
  421TMC3    C5 6281   3.739   4.575  13.305  0.6704  1.0799  0.0573
  421TMC3    C6 6282   3.768   4.646  13.414  0.3180  0.2327  1.1553
  421TMC3     C 6283   3.538   0.096  13.118 -0.6441 -0.3083 -0.2676
  421TMC3     O 6284   3.556   0.214  13.102  0.4542  0.3836 -1.0695
  421TMC3     H 6285   3.593   0.203  13.351  0.1255  1.0389 -0.1738
  421TMC3    H1 6286   3.632   4.591  13.109  3.4116 -0.4107 -1.4212
  421TMC3    H2 6287   3.840   4.615  13.489  0.6709 -1.0668  0.2894
  421TMC3    C7 6288   3.845   4.478  13.266  0.5588 -0.5151 -1.2539
  421TMC3    C8 6289   3.731   0.130  13.552  0.1200  0.1429 -0.0592
  421TMC3    O1 6290   3.919   4.436  13.354  0.3951  0.4005 -0.4864
  421TMC3    O2 6291   3.850   0.114  13.588 -0.4988 -0.3533  0.3140
  422TMC3    C1 6292   0.600   1.444  12.313 -0.4032 -0.3186 -0.6608
  422TMC3    C2 6293   0.546   1.570  12.334  0.2119  0.0252  0.1225
  422TMC3    C3 6294   0.444   1.576  12.426  0.1476  0.4080  0.1305
  422TMC3    C4 6295   0.541   1.324  12.350  0.5244  0.0479  0.4071
  422TMC3    C5 6296   0.441   1.336  12.440 -0.1856 -0.1885  0.1431
  422TMC3    C6 6297   0.398   1.460  12.481  0.3973 -0.2487  0.0889
  422TMC3     C 6298   0.697   1.437  12.203  0.3840 -0.5842  0.3997
  422TMC3     O 6299   0.724   1.543  12.145 -0.6333  0.6365  0.4296
  422TMC3     H 6300   0.593   1.655  12.287 -0.1735  0.2624  0.1732
  422TMC3    H1 6301   0.578   1.229  12.315  3.4827  2.4062 -2.9242
  422TMC3    H2 6302   0.341   1.469  12.573  0.9803 -1.4370  0.5632
  422TMC3    C7 6303   0.358   1.218  12.454  0.4940  0.5475  0.0229
  422TMC3    C8 6304   0.392   1.706  12.471 -0.4261  0.4336 -0.5899
  422TMC3    O1 6305   0.395   1.125  12.381 -0.8381  0.7567 -0.0397
  422TMC3    O2 6306   0.454   1.810  12.441 -0.2370 -0.0847 -0.4689
  423MPD2     C 6307   2.127   3.011   0.144  0.0504  0.2231 -0.3073
  423MPD2    C1 6308   2.036   2.917   0.192  0.4832  0.4967  0.2317
  423MPD2    C2 6309   2.019   2.799   0.118 -0.3520 -0.2606 -0.2282
  423MPD2    C3 6310   2.100   2.773   0.007 -0.6588 -0.0474  0.3842
  423MPD2    C4 6311   2.194   2.859  17.673 -0.0650 -0.0370  0.1258
  423MPD2    C5 6312   2.208   2.979   0.038 -0.4680  0.2712  0.3072
  423MPD2     H 6313   1.947   2.724   0.149 -1.3126  0.8103  0.1647
  423MPD2    H1 6314   2.257   2.847  17.585 -2.5859  1.1898 -1.8529
  423MPD2    H2 6315   2.139   3.106   0.195 -1.3394 -0.2380  0.9055
  423MPD2    H3 6316   2.273   3.054  17.702 -0.5236  1.4118  2.2344
  423MPD2     N 6317   2.088   2.663  17.638 -0.0359 -0.1762 -0.1269
  423MPD2    H5 6318   2.151   2.658  17.559  1.7343  0.7782  1.2405
  423MPD2    N1 6319   1.958   2.937   0.314  0.4073  0.1843  0.5136
  423MPD2    H7 6320   1.893   2.862   0.336  1.2043 -0.7570 -0.3195
  424TMC3    C1 6321   1.841   3.023   0.483  0.0312 -0.2314  0.5318
  424TMC3    C2 6322   1.854   2.901   0.545 -0.0830 -0.0695  0.0080
  424TMC3    C3 6323   1.752   2.866   0.623 -0.3447 -0.0540 -0.5514
  424TMC3    C4 6324   1.728   3.094   0.472  0.7460 -0.1104 -0.1912
  424TMC3    C5 6325   1.618   3.045   0.542  0.2513  0.2356 -0.5292
  424TMC3    C6 6326   1.632   2.932   0.620 -0.6859  0.3941 -0.3684
  424TMC3     C 6327   1.933   3.052   0.377  1.5705 -0.2648 -0.0722
  424TMC3     O 6328   1.977   3.162   0.360 -0.2213  0.1346  0.6875
  424TMC3     H 6329   1.949   2.850   0.539  0.1423  0.4514 -0.8521
  424TMC3    H1 6330   1.720   3.173   0.398  0.2275 -1.1319 -1.2077
  424TMC3    H2 6331   1.538   2.908   0.668 -0.9796  0.4371 -0.9317
  424TMC3    C7 6332   1.501   3.126   0.549  0.3863 -0.8182  0.3792
  424TMC3    C8 6333   1.762   2.744   0.702  0.1187  0.2128  0.3628
  424TMC3    O1 6334   1.410   3.078   0.617 -0.2474 -0.3702 -0.3666
  424TMC3    O2 6335   1.852   2.661   0.671  0.1034  0.1280  0.2034
  425MPD2     C 6336   0.661   1.945  17.081 -0.1598 -0.9548 -0.1859
  425MPD2    C1 6337   0.618   1.814  17.113 -0.3935  0.2959  0.7298
  425MPD2    C2 6338   0.486   1.802  17.150  0.1931 -0.1204 -0.4154
  425MPD2    C3 6339   0.401   1.907  17.160 -0.2769 -0.2458  0.1774
  425MPD2    C4 6340   0.445   2.036  17.118 -0.2825 -0.0591  0.5978
  425MPD2    C5 6341   0.576   2.048  17.073  0.2550  0.1261 -0.3885
  425MPD2     H 6342   0.439   1.704  17.156 -0.7011  0.4314  1.9266
  425MPD2    H1 6343   0.373   2.117  17.117  1.1256  1.1782 -0.3025
  425MPD2    H2 6344   0.760   1.948  17.037 -0.4821  0.6379 -0.8008
  425MPD2    H3 6345   0.614   2.136  17.023 -0.0844  0.6219  0.2402
  425MPD2     N 6346   0.266   1.875  17.202 -0.3439 -0.7129 -0.0598
  425MPD2    H5 6347   0.243   1.777  17.212  1.2421 -0.9964  0.9332
  425MPD2    N1 6348   0.715   1.707  17.113 -0.5117 -0.0412 -0.5465
  425MPD2    H7 6349   0.807   1.731  17.079 -1.4632  1.4881 -2.0149
  426TMC3    C1 6350   0.821   1.512  17.164 -0.5172  0.1976 -0.3358
  426TMC3    C2 6351   0.868   1.469  17.043 -0.7024  0.1862  0.4297
  426TMC3    C3 6352   0.936   1.357  17.051  0.4528  0.1458  0.3947
  426TMC3    C4 6353   0.852   1.450  17.282 -0.5208  0.1534  0.0100
  426TMC3    C5 6354   0.936   1.338  17.276 -0.0582 -0.6967 -0.1218
  426TMC3    C6 6355   0.976   1.289  17.158 -0.2900  0.1465 -0.4748
  426TMC3     C 6356   0.699   1.592  17.174 -0.8758 -0.7191 -0.3677
  426TMC3     O 6357   0.604   1.548  17.235  0.2761  0.3683  0.3512
  426TMC3     H 6358   0.841   1.531  16.959  0.6264 -2.3253 -1.8505
  426TMC3    H1 6359   0.785   1.467  17.366 -0.8470  0.7446 -0.3687
  426TMC3    H2 6360   1.059   1.220  17.159 -0.9351 -0.5995  1.2012
  426TMC3    C7 6361   0.948   1.249  17.393  0.5678  0.5093  0.0155
  426TMC3    C8 6362   0.957   1.295  16.919  0.4354 -0.1058  0.2701
  426TMC3    O1 6363   0.985   1.134  17.374  0.0623 -0.0877 -0.4605
  426TMC3    O2 6364   1.053   1.220  16.918  0.6192  0.3628 -0.0522
  427MPD2     C 6365   4.522   3.863  14.440  0.2554  0.8360 -0.4106
  427MPD2    C1 6366   4.452   3.863  14.561  0.2844 -0.0432  0.1024
  427MPD2    C2 6367   4.315   3.850  14.569  0.0255 -0.2303 -0.1150
  427MPD2    C3 6368   4.238   3.862  14.453  0.3540  0.1711 -0.2249
  427MPD2    C4 6369   4.311   3.867  14.334 -0.0568  0.2594  0.1320
  427MPD2    C5 6370   4.446   3.859  14.324 -0.0711  0.7287 -0.2289
  427MPD2     H 6371   4.262   3.840  14.664  0.1827  0.0744  0.0052
  427MPD2    H1 6372   4.251   3.865  14.244  2.4081 -0.2086 -1.5000
  427MPD2    H2 6373   4.629   3.845  14.435 -0.1669 -1.4897 -0.8165
  427MPD2    H3 6374   4.505   3.854  14.233  0.1900  0.6678 -0.0578
  427MPD2     N 6375   4.093   3.859  14.445  0.2327 -0.4399 -0.3201
  427MPD2    H5 6376   4.048   3.859  14.355  2.4220  1.7699 -1.4120
  427MPD2    N1 6377   4.522   3.842  14.684  0.3934 -0.1379  0.4067
  427MPD2    H7 6378   4.465   3.836  14.769 -2.0703 -0.1511 -1.2511
  428TMC3    C1 6379   4.690   3.815  14.835 -0.0680  0.6548 -0.4073
  428TMC3    C2 6380   4.607   3.731  14.894  0.4639 -0.4990  0.2197
  428TMC3    C3 6381   4.622   3.699  15.026 -0.3068 -0.3878  0.3864
  428TMC3    C4 6382   0.074   3.865  14.883 -0.2160 -0.0029  0.0630
  428TMC3    C5 6383   0.096   3.828  15.012 -0.0288  0.2509  0.1340
  428TMC3    C6 6384   0.007   3.753  15.087  0.5370  0.1780  0.9959
  428TMC3     C 6385   4.661   3.853  14.696  0.4797 -0.3162 -0.4644
  428TMC3     O 6386   0.027   3.891  14.624  0.2392 -0.5846 -0.3589
  428TMC3     H 6387   4.525   3.679  14.845 -1.7892  1.2509  2.0693
  428TMC3    H1 6388   0.139   3.924  14.820  1.5778  0.3073  2.2203
  428TMC3    H2 6389   0.032   3.727  15.189  0.0288 -2.4454  0.4347
  428TMC3    C7 6390   0.212   3.880  15.084  0.2905 -0.1357  0.5240
  428TMC3    C8 6391   4.515   3.626  15.094  1.0733 -0.2020 -0.4037
  428TMC3    O1 6392   0.211   3.873  15.205 -0.3535 -0.1139  0.0600
  428TMC3    O2 6393   4.399   3.633  15.055 -0.4194  0.1115  0.0056
  429MPD2     C 6394   0.578   4.241  17.074 -0.0049  0.7405  0.3353
  429MPD2    C1 6395   0.702   4.190  17.054 -0.2577 -0.4742 -0.0078
  429MPD2    C2 6396   0.800   4.274  17.012 -0.2205  0.4746  0.1695
  429MPD2    C3 6397   0.773   4.405  16.983  0.1052 -0.4666 -0.6426
  429MPD2    C4 6398   0.651   4.461  17.013  0.0740 -0.2299  0.7121
  429MPD2    C5 6399   0.556   4.378  17.070  0.7768  0.2340  0.4115
  429MPD2     H 6400   0.901   4.241  16.993 -0.5107  0.4963 -1.3852
  429MPD2    H1 6401   0.625   4.566  17.013  1.7048  0.1621 -1.9946
  429MPD2    H2 6402   0.493   4.185  17.109 -0.1550  0.3655 -0.6118
  429MPD2    H3 6403   0.460   4.415  17.102  1.4903  2.3756  0.0555
  429MPD2     N 6404   0.878   4.483  16.922  0.0417  0.8354  0.1993
  429MPD2    H5 6405   0.969   4.437  16.925  0.5682  1.7857 -1.4323
  429MPD2    N1 6406   0.736   4.056  17.081 -0.4818  0.2048 -0.1027
  429MPD2    H7 6407   0.832   4.026  17.068 -0.1544  1.1370  0.2066
  430TMC3    C1 6408   0.987   4.658  16.801 -0.0479 -0.6255 -0.1729
  430TMC3    C2 6409   0.959   0.035  16.712 -0.8641 -0.0332 -0.1435
  430TMC3    C3 6410   1.048   0.036  16.604 -0.2081 -0.1083  0.1602
  430TMC3    C4 6411   1.089   4.571  16.784 -0.1683 -0.2186 -0.3066
  430TMC3    C5 6412   1.180   4.583  16.683  0.8134 -0.4983  0.7048
  430TMC3    C6 6413   1.155   4.674  16.584 -0.4336  0.8306 -0.5039
  430TMC3     C 6414   0.870   4.609  16.872 -0.2107 -0.4654 -0.7912
  430TMC3     O 6415   0.777   4.684  16.863 -0.1347 -0.0139 -0.5608
  430TMC3     H 6416   0.888   0.111  16.743 -0.9581 -1.2896  2.7871
  430TMC3    H1 6417   1.103   4.480  16.843 -0.6090 -2.7984 -4.1745
  430TMC3    H2 6418   1.207   4.663  16.489 -2.6787  2.7298 -1.9351
  430TMC3    C7 6419   1.260   4.475  16.651 -0.0309  0.0230 -0.0178
  430TMC3    C8 6420   0.976   0.072  16.483 -0.1843  0.5069  0.8000
  430TMC3    O1 6421   1.219   4.358  16.678 -1.1367 -0.1868 -0.3588
  430TMC3    O2 6422   1.012   0.002  16.392  0.4423 -0.1312 -0.1944
  431MPD2     C 6423   1.583   3.982  12.103  0.5653  0.2566  0.0852
  431MPD2    C1 6424   1.641   3.923  11.995 -0.7717  0.2173 -0.3571
  431MPD2    C2 6425   1.587   3.807  11.935 -0.4113 -0.2836 -0.6114
  431MPD2    C3 6426   1.475   3.748  11.993 -0.4731 -0.3639  0.2332
  431MPD2    C4 6427   1.415   3.811  12.096 -0.9427 -0.0527 -0.3520
  431MPD2    C5 6428   1.466   3.932  12.146  0.1688 -0.4211  0.0344
  431MPD2     H 6429   1.643   3.765  11.852 -1.1818  0.7945 -1.6804
  431MPD2    H1 6430   1.321   3.778  12.138 -1.1672  0.4181 -0.4895
  431MPD2    H2 6431   1.619   4.074  12.146 -0.9073  1.4427 -1.2232
  431MPD2    H3 6432   1.408   3.986  12.220 -0.0863 -0.7057  0.0448
  431MPD2     N 6433   1.410   3.642  11.931  0.4693  0.2036 -0.2639
  431MPD2    H5 6434   1.336   3.596  11.983  0.0341  0.4236 -0.6818
  431MPD2    N1 6435   1.768   3.961  11.937 -0.2429 -0.1172 -0.0257
  431MPD2    H7 6436   1.796   3.911  11.853 -0.8754 -0.0961 -0.2527
  432TMC3    C1 6437   1.376   3.464  11.767  0.4028 -0.0951  0.1364
  432TMC3    C2 6438   1.423   3.397  11.654  0.2368  0.0063 -0.4154
  432TMC3    C3 6439   1.399   3.266  11.650 -0.0710 -0.4055  0.0047
  432TMC3    C4 6440   1.294   3.406  11.856  0.1749  0.5774  0.6294
  432TMC3    C5 6441   1.252   3.278  11.830  0.2661 -0.5125 -0.3633
  432TMC3    C6 6442   1.307   3.206  11.728 -0.8664 -0.0952 -0.2573
  432TMC3     C 6443   1.448   3.584  11.808  1.1480 -0.3032 -0.0807
  432TMC3     O 6444   1.528   3.627  11.729 -0.1077 -0.3207  0.1107
  432TMC3     H 6445   1.494   3.439  11.583 -0.3785  1.3516 -0.2483
  432TMC3    H1 6446   1.238   3.458  11.932 -0.9015  2.3829 -1.4334
  432TMC3    H2 6447   1.273   3.104  11.712  2.8950 -1.4571  0.5192
  432TMC3    C7 6448   1.208   3.195  11.945 -0.0308  0.5175  0.4202
  432TMC3    C8 6449   1.500   3.180  11.593  0.0668 -0.5586  0.4506
  432TMC3    O1 6450   1.178   3.077  11.918 -0.5808 -0.8169 -0.4742
  432TMC3    O2 6451   1.556   3.230  11.500 -0.1360 -0.2280 -0.2623
  433MPD2     C 6452   0.271   2.391  10.429  0.3714 -0.0484  0.4976
  433MPD2    C1 6453   0.220   2.292  10.507 -0.0960 -0.6266 -0.1583
  433MPD2    C2 6454   0.228   2.299  10.646 -0.3368  0.1226 -0.1459
  433MPD2    C3 6455   0.302   2.403  10.699 -0.0230 -0.6194 -0.4587
  433MPD2    C4 6456   0.348   2.507  10.620  0.6874 -0.5032  0.2472
  433MPD2    C5 6457   0.331   2.499  10.486  0.2082  0.0471  1.0073
  433MPD2     H 6458   0.188   2.225  10.715  1.1300 -2.3800 -1.9897
  433MPD2    H1 6459   0.401   2.592  10.660 -0.8608 -0.6204  2.6192
  433MPD2    H2 6460   0.253   2.394  10.322  2.0682  0.2610  0.2150
  433MPD2    H3 6461   0.361   2.580  10.420 -1.3228 -0.3956 -0.2302
  433MPD2     N 6462   0.331   2.402  10.843  0.0421  0.9453  0.1972
  433MPD2    H5 6463   0.275   2.337  10.897  0.2728 -1.1071 -2.0244
  433MPD2    N1 6464   0.152   2.185  10.439  0.4747 -0.1991 -0.2073
  433MPD2    H7 6465   0.157   2.174  10.338 -2.6765 -1.0559 -0.2695
  434TMC3    C1 6466   0.097   1.959  10.422 -0.4483  0.3620  0.9988
  434TMC3    C2 6467   0.115   1.843  10.492 -0.1612  0.5760  0.2165
  434TMC3    C3 6468   0.134   1.725  10.429 -0.5571 -0.4866  0.4392
  434TMC3    C4 6469   0.079   1.952  10.281  0.1965 -0.6090 -0.2981
  434TMC3    C5 6470   0.118   1.837  10.220  0.1825 -0.0100 -0.2025
  434TMC3    C6 6471   0.155   1.723  10.291 -0.1738  0.0397 -1.0139
  434TMC3     C 6472   0.101   2.078  10.503 -0.1937  0.3976  0.7389
  434TMC3     O 6473   0.088   2.051  10.619  0.2483  0.0164 -0.4291
  434TMC3     H 6474   0.118   1.841  10.600 -1.7146  2.3191  0.2942
  434TMC3    H1 6475   0.053   2.040  10.222 -0.2403 -1.7024 -1.7165
  434TMC3    H2 6476   0.202   1.637  10.245  2.2118  1.9790 -2.1874
  434TMC3    C7 6477   0.126   1.839  10.075  0.3706  0.1124  1.1026
  434TMC3    C8 6478   0.226   1.651  10.505  0.6088 -0.2526  0.2344
  434TMC3    O1 6479   0.111   1.948  10.015  0.4726 -0.4098  0.6068
  434TMC3    O2 6480   0.312   1.714  10.566 -0.2405  0.1947  0.2085
  435MPD2     C 6481   2.772   2.538  15.211  0.6600  0.2347  0.2465
  435MPD2    C1 6482   2.694   2.512  15.321 -0.1378  0.0423  0.5075
  435MPD2    C2 6483   2.755   2.459  15.431 -0.2345  0.4859  0.0130
  435MPD2    C3 6484   2.885   2.404  15.424  1.1196  0.3093  0.1334
  435MPD2    C4 6485   2.955   2.434  15.311 -0.2517  0.1226 -0.0657
  435MPD2    C5 6486   2.902   2.509  15.214 -0.3515  0.1234  0.0323
  435MPD2     H 6487   2.698   2.438  15.520  0.5863  2.2331  0.9505
  435MPD2    H1 6488   3.055   2.398  15.290 -0.5104 -0.2079 -0.7202
  435MPD2    H2 6489   2.730   2.591  15.126  2.9164  1.0663 -0.3536
  435MPD2    H3 6490   2.965   2.532  15.128  1.5600 -0.5358  1.2504
  435MPD2     N 6491   2.929   2.325  15.533 -0.5385  0.2294 -0.2533
  435MPD2    H5 6492   2.868   2.342  15.613 -0.4106 -2.9838  0.5404
  435MPD2    N1 6493   2.561   2.557  15.329  0.2484  0.8702  0.0630
  435MPD2    H7 6494   2.498   2.531  15.404 -1.3048 -0.0982 -1.5721
  436TMC3    C1 6495   2.288   2.704  15.490 -0.3196 -0.2614  0.8864
  436TMC3    C2 6496   2.385   2.709  15.396  0.0027  0.4385  0.2662
  436TMC3    C3 6497   2.365   2.654  15.275 -0.0671  0.5095 -0.2224
  436TMC3    C4 6498   2.176   2.630  15.470  0.1447 -0.6622  0.3188
  436TMC3    C5 6499   2.162   2.565  15.353 -0.3161  0.2414 -0.8585
  436TMC3    C6 6500   2.256   2.578  15.250  0.0642 -0.2930 -0.5185
  436TMC3     C 6501   2.310   2.786  15.612  0.3357 -0.2467 -0.7862
  436TMC3     O 6502   2.427   2.821  15.633 -0.4500  0.0206 -0.2713
  436TMC3     H 6503   2.472   2.771  15.409 -0.0685  0.7968 -1.0079
  436TMC3    H1 6504   2.108   2.622  15.554 -1.0249 -0.4344 -0.6098
  436TMC3    H2 6505   2.262   2.518  15.160  2.1805 -0.8521  0.0106
  436TMC3    C7 6506   2.026   2.517  15.316  0.7146  0.3723  0.1686
  436TMC3    C8 6507   2.486   2.603  15.222 -0.3038  0.1100 -0.2630
  436TMC3    O1 6508   1.941   2.538  15.395 -0.4800  0.5802 -0.0810
  436TMC3    O2 6509   2.510   2.632  15.104  0.7973  0.2364  0.1901
  437TMC3    C1 6510   1.417   4.700  12.194  0.0717  0.1477  0.1584
  437TMC3    C2 6511   1.326   0.044  12.121 -0.3591 -0.1855 -0.0832
  437TMC3    C3 6512   1.361   0.092  11.999 -0.0820 -0.7229  0.1804
  437TMC3    C4 6513   1.547   4.692  12.149  0.2141  0.3731  0.0183
  437TMC3    C5 6514   1.576   0.026  12.032  0.4420  0.3719 -0.1833
  437TMC3    C6 6515   1.485   0.086  11.954  0.3216 -0.6349 -0.0750
  437TMC3     C 6516   1.388   4.643  12.330  0.3167  0.1342  0.3757
  437TMC3     O 6517   1.489   4.588  12.371  0.1817  0.1133  0.1029
  437TMC3     H 6518   1.223   0.058  12.148 -0.2779 -0.1539  0.2025
  437TMC3    H1 6519   1.615   4.626  12.201 -1.3285 -1.8102 -0.7323
  437TMC3    H2 6520   1.515   0.113  11.854 -1.1976  0.4531 -0.2535
  437TMC3    C7 6521   1.717   0.038  11.991 -0.2124 -0.0053  0.4375
  437TMC3    C8 6522   1.266   0.127  11.897  0.3588 -0.7480  0.1043
  437TMC3    O1 6523   1.734   0.088  11.881 -0.0668 -0.3861  0.0656
  437TMC3    O2 6524   1.301   0.197  11.805  0.0006  0.1089 -0.2622
  438MPD2     C 6525   3.550   0.719  16.297 -0.8367 -0.0042 -0.6923
  438MPD2    C1 6526   3.615   0.609  16.354 -0.3154  0.1897 -0.2112
  438MPD2    C2 6527   3.607   0.589  16.490  0.3472 -0.0799 -0.4718
  438MPD2    C3 6528   3.532   0.680  16.567  0.0723  0.7990 -0.3919
  438MPD2    C4 6529   3.475   0.792  16.515 -0.3375 -0.0274 -0.5497
  438MPD2    C5 6530   3.484   0.810  16.379  0.1128 -0.5387  0.4859
  438MPD2     H 6531   3.658   0.504  16.534 -0.4747  0.7658  2.0886
  438MPD2    H1 6532   3.408   0.861  16.564  0.4290  0.1132  0.2890
  438MPD2    H2 6533   3.546   0.733  16.189 -0.6368  0.4622 -0.6385
  438MPD2    H3 6534   3.427   0.893  16.336 -1.1543 -0.5800  2.0526
  438MPD2     N 6535   3.525   0.669  16.707  0.0303  0.7954  0.1906
  438MPD2    H5 6536   3.471   0.735  16.761 -0.1905  0.4051  0.4474
  438MPD2    N1 6537   3.678   0.507  16.280 -0.4325 -0.4760  0.1331
  438MPD2    H7 6538   3.718   0.429  16.332  2.4325  1.8167  1.3466
  439TMC3    C1 6539   3.725   0.358  16.096 -0.2454  0.1221  0.2376
  439TMC3    C2 6540   3.702   0.334  15.961  0.1573  0.3470 -0.1737
  439TMC3    C3 6541   3.756   0.214  15.924 -0.0516 -0.1768 -0.8572
  439TMC3    C4 6542   3.811   0.291  16.181 -0.0520 -0.0238  0.5142
  439TMC3    C5 6543   3.869   0.182  16.123  0.7045  0.0126  1.0468
  439TMC3    C6 6544   3.840   0.140  15.996  0.3116 -0.7066  0.0343
  439TMC3     C 6545   3.669   0.489  16.140  0.8248 -0.2557  0.0182
  439TMC3     O 6546   3.612   0.562  16.059 -0.6103 -0.3024  1.1020
  439TMC3     H 6547   3.631   0.384  15.896  0.5244  0.0780 -0.7795
  439TMC3    H1 6548   3.814   0.302  16.289  0.2007  0.5024  0.4510
  439TMC3    H2 6549   3.889   0.049  15.962  0.9792  0.1452 -1.2659
  439TMC3    C7 6550   3.983   0.133  16.196 -0.0118  0.2669 -0.5881
  439TMC3    C8 6551   3.759   0.193  15.782 -0.6686 -0.1019  0.2814
  439TMC3    O1 6552   3.976   0.137  16.317  0.3388  0.1025  0.4288
  439TMC3    O2 6553   3.756   0.288  15.708 -0.5623  0.3245 -0.4949
  440MPD2     C 6554   2.375   0.632  14.555 -0.7461 -0.3819 -0.3281
  440MPD2    C1 6555   2.444   0.742  14.602 -0.3236  0.1499  0.1500
  440MPD2    C2 6556   2.581   0.742  14.619 -0.0628 -0.0972 -0.3524
  440MPD2    C3 6557   2.649   0.624  14.606 -0.1304  0.0981 -0.1569
  440MPD2    C4 6558   2.582   0.511  14.554 -0.0159  0.1259 -0.1293
  440MPD2    C5 6559   2.445   0.513  14.533  1.0808 -0.4792 -0.0995
  440MPD2     H 6560   2.631   0.831  14.657  0.8098 -0.5649 -0.3972
  440MPD2    H1 6561   2.638   0.420  14.535 -0.1423 -0.0793  0.5064
  440MPD2    H2 6562   2.268   0.631  14.538 -0.8500 -0.8159  0.3409
  440MPD2    H3 6563   2.397   0.427  14.488 -1.4644 -0.5520  2.7066
  440MPD2     N 6564   2.782   0.608  14.640 -0.4371  0.6667 -0.9588
  440MPD2    H5 6565   2.811   0.511  14.628  0.4394  0.8426 -0.2361
  440MPD2    N1 6566   2.391   0.872  14.623 -0.0585 -0.6389 -0.4734
  440MPD2    H7 6567   2.456   0.935  14.669  1.5283 -1.0422 -2.1680
  441TMC3    C1 6568   2.988   0.645  14.739 -0.1118 -0.1768 -0.2969
  441TMC3    C2 6569   3.096   0.730  14.735  0.1653  0.2889  0.8320
  441TMC3    C3 6570   3.183   0.719  14.836  0.1967 -0.3828  0.1633
  441TMC3    C4 6571   2.963   0.546  14.829  0.1525 -0.6743 -0.5893
  441TMC3    C5 6572   3.064   0.542  14.927 -0.1040 -0.1817 -0.4665
  441TMC3    C6 6573   3.179   0.618  14.925 -0.4736 -0.2832  0.4597
  441TMC3     C 6574   2.873   0.707  14.673 -0.0323  0.4290 -0.4777
  441TMC3     O 6575   2.883   0.826  14.653  0.2544 -0.0561  0.4461
  441TMC3     H 6576   3.089   0.819  14.674 -0.4217  1.2934  2.3762
  441TMC3    H1 6577   2.870   0.494  14.847 -0.4390  0.3588 -0.6283
  441TMC3    H2 6578   3.249   0.614  15.008  0.2290  3.3824  0.0617
  441TMC3    C7 6579   3.018   0.478  15.055 -0.3326 -0.8070  0.3644
  441TMC3    C8 6580   3.218   0.843  14.896  0.1153 -0.3100 -1.0030
  441TMC3    O1 6581   2.901   0.444  15.062  0.1997 -0.2881  0.1834
  441TMC3    O2 6582   3.304   0.851  14.982  0.5252 -0.2437  0.1571
  442MPD2     C 6583   0.751   1.812  16.127  0.0832  1.0470 -0.1336
  442MPD2    C1 6584   0.676   1.723  16.203 -0.1399 -0.0061 -0.6752
  442MPD2    C2 6585   0.700   1.588  16.197  0.4147 -0.4468 -0.5544
  442MPD2    C3 6586   0.780   1.538  16.098  0.4004 -0.0083  0.3556
  442MPD2    C4 6587   0.850   1.620  16.020 -0.3424  0.5098 -0.3492
  442MPD2    C5 6588   0.839   1.758  16.035  0.2169  0.2481  0.0997
  442MPD2     H 6589   0.649   1.521  16.266  0.1211  2.0441  1.6531
  442MPD2    H1 6590   0.905   1.577  15.937  1.7370  1.5770  0.4736
  442MPD2    H2 6591   0.743   1.920  16.123  0.6560  1.0377 -1.3985
  442MPD2    H3 6592   0.888   1.820  15.960 -0.3847 -1.6851 -1.8885
  442MPD2     N 6593   0.793   1.398  16.063 -0.1118 -0.1725  0.6019
  442MPD2    H5 6594   0.858   1.383  15.986  1.1477 -1.9637  2.0055
  442MPD2    N1 6595   0.583   1.767  16.300 -0.0193  0.1948  0.8369
  442MPD2    H7 6596   0.518   1.697  16.335 -0.7376  0.3300 -0.2439
  443TMC3    C1 6597   0.409   1.900  16.390  0.3422 -0.1014 -0.2215
  443TMC3    C2 6598   0.350   2.028  16.392 -0.6865 -0.4637 -0.3044
  443TMC3    C3 6599   0.230   2.043  16.451 -0.0780 -0.8444  0.1228
  443TMC3    C4 6600   0.345   1.793  16.448 -0.2626  0.5384  0.5214
  443TMC3    C5 6601   0.230   1.817  16.515 -0.1341 -0.2398 -0.3575
  443TMC3    C6 6602   0.170   1.940  16.526 -0.1497 -0.2828  0.0323
  443TMC3     C 6603   0.542   1.895  16.322  0.1238 -0.4228  0.1997
  443TMC3     O 6604   0.597   2.002  16.300 -0.3072  0.2580 -0.2756
  443TMC3     H 6605   0.396   2.112  16.342  0.2901  0.4194  2.0869
  443TMC3    H1 6606   0.384   1.692  16.450  1.3764  1.1388 -0.5548
  443TMC3    H2 6607   0.068   1.946  16.563 -0.0846  0.7602  0.0478
  443TMC3    C7 6608   0.186   1.717  16.612 -0.2864 -0.4013  0.7528
  443TMC3    C8 6609   0.152   2.158  16.406 -0.3213 -0.3506 -0.5724
  443TMC3    O1 6610   0.219   1.600  16.595  0.1151 -0.3607  0.4506
  443TMC3    O2 6611   0.207   2.260  16.441  0.2302  0.1320 -0.0702
  444MPD2     C 6612   0.873   0.894  16.828 -0.2326  0.0140  0.0471
  444MPD2    C1 6613   0.778   0.829  16.766  0.2754  1.3581 -0.2931
  444MPD2    C2 6614   0.822   0.735  16.676  1.1020 -0.1261  0.3027
  444MPD2    C3 6615   0.956   0.708  16.658 -0.4205  0.1907  0.0803
  444MPD2    C4 6616   1.048   0.788  16.713 -0.6312 -0.1517  0.4778
  444MPD2    C5 6617   1.007   0.886  16.798 -0.2038  0.4791 -0.0467
  444MPD2     H 6618   0.749   0.680  16.617  1.3300  0.6835 -0.7504
  444MPD2    H1 6619   1.156   0.782  16.701 -0.7587  1.3480 -1.2981
  444MPD2    H2 6620   0.850   0.980  16.890  0.6914 -1.4188  2.3958
  444MPD2    H3 6621   1.084   0.945  16.846 -0.9830  0.3908  1.3079
  444MPD2     N 6622   0.987   0.599  16.568 -0.2359 -0.2175 -0.3180
  444MPD2    H5 6623   0.913   0.544  16.526 -0.4707 -0.0335 -0.1411
  444MPD2    N1 6624   0.637   0.854  16.772  0.6175  0.4528 -0.3196
  444MPD2    H7 6625   0.575   0.805  16.708 -0.5002 -0.4171  1.4339
  445TMC3    C1 6626   1.110   0.459  16.438  0.5342 -0.4132  0.5340
  445TMC3    C2 6627   1.002   0.450  16.350 -0.3748  0.6748 -0.1396
  445TMC3    C3 6628   1.019   0.364  16.244 -0.1262 -0.1495  0.1682
  445TMC3    C4 6629   1.222   0.387  16.429  0.0364 -0.1102  0.3982
  445TMC3    C5 6630   1.229   0.296  16.325 -0.2353 -0.4669 -0.0724
  445TMC3    C6 6631   1.126   0.278  16.237 -0.5036  0.1447  0.2685
  445TMC3     C 6632   1.106   0.565  16.537  0.0758  0.0425 -0.1496
  445TMC3     O 6633   1.219   0.612  16.576  0.1227  0.6353 -0.3823
  445TMC3     H 6634   0.913   0.512  16.356 -0.6390  0.2547  0.3160
  445TMC3    H1 6635   1.311   0.419  16.483  2.6251 -1.9411 -2.7940
  445TMC3    H2 6636   1.139   0.211  16.153 -0.6723  1.6392 -0.9553
  445TMC3    C7 6637   1.360   0.225  16.320 -0.1510  0.3077 -0.6041
  445TMC3    C8 6638   0.910   0.370  16.142 -0.0495  0.8164 -0.4327
  445TMC3    O1 6639   1.444   0.254  16.405  0.1906 -0.3884  0.5788
  445TMC3    O2 6640   0.842   0.470  16.132 -0.1261  0.4277  0.1877
  446MPD2     C 6641   0.353   1.526  11.060  0.3520 -0.5957 -0.5407
  446MPD2    C1 6642   0.267   1.560  10.956 -0.2637 -0.4828  0.5445
  446MPD2    C2 6643   0.285   1.658  10.871  0.0271  0.5277  0.0823
  446MPD2    C3 6644   0.379   1.753  10.901 -0.5915  0.6119 -0.1979
  446MPD2    C4 6645   0.467   1.734  11.006 -0.3909 -0.0867 -1.1453
  446MPD2    C5 6646   0.452   1.617  11.087  0.5367 -0.4135 -0.7409
  446MPD2     H 6647   0.215   1.681  10.791 -0.3027 -2.5163 -0.5002
  446MPD2    H1 6648   0.545   1.803  11.037  0.4233 -0.2382 -2.8897
  446MPD2    H2 6649   0.353   1.432  11.114  0.1838 -0.8545 -0.9976
  446MPD2    H3 6650   0.525   1.598  11.164  2.3852  1.1551 -2.1190
  446MPD2     N 6651   0.405   1.866  10.813  0.0406 -0.3438 -1.0727
  446MPD2    H5 6652   0.357   1.862  10.724 -1.0493  0.6206 -0.5300
  446MPD2    N1 6653   0.153   1.481  10.920  0.0059  0.0586 -0.2899
  446MPD2    H7 6654   0.095   1.508  10.841  0.9294 -0.0027 -0.9878
  447TMC3    C1 6655   0.509   2.058  10.718  0.2360  0.4206 -0.2219
  447TMC3    C2 6656   0.484   2.014  10.593 -0.2171 -0.2644 -0.5260
  447TMC3    C3 6657   0.527   2.088  10.486 -0.2297  0.1510 -0.2034
  447TMC3    C4 6658   0.569   2.175  10.739  0.0785 -0.0763 -0.5819
  447TMC3    C5 6659   0.620   2.242  10.629  0.1065 -0.1500 -0.1009
  447TMC3    C6 6660   0.591   2.203  10.495 -0.2020  0.0954  0.1556
  447TMC3     C 6661   0.494   1.969  10.835 -0.4477 -0.2420 -0.7266
  447TMC3     O 6662   0.542   2.012  10.941  0.3981  0.2779  0.5198
  447TMC3     H 6663   0.450   1.914  10.569 -0.6927 -0.3819  0.6677
  447TMC3    H1 6664   0.590   2.215  10.837  3.9520 -0.5966 -1.1971
  447TMC3    H2 6665   0.644   2.254  10.416 -0.3977 -1.1880 -0.8045
  447TMC3    C7 6666   0.757   2.275  10.649 -0.0460  0.1988 -0.7426
  447TMC3    C8 6667   0.504   2.040  10.347 -0.4944  0.8074  0.1811
  447TMC3    O1 6668   0.833   2.223  10.569 -0.0166  0.1482 -0.3797
  447TMC3    O2 6669   0.503   2.119  10.253 -0.4919 -0.3261 -0.1069
  448TMC3    C1 6670   2.961   1.565  16.559  0.2854 -0.8901 -0.7505
  448TMC3    C2 6671   2.982   1.540  16.423  0.1687  0.8930  0.1506
  448TMC3    C3 6672   3.009   1.410  16.391  0.3225 -0.1938 -0.1670
  448TMC3    C4 6673   2.955   1.470  16.660 -0.3766 -0.1976  0.0231
  448TMC3    C5 6674   2.969   1.336  16.609  0.2243  0.0201 -0.3753
  448TMC3    C6 6675   3.002   1.306  16.479  0.1398  0.4459 -0.1794
  448TMC3     C 6676   2.947   1.705  16.596  0.4786  0.2362  0.5090
  448TMC3     O 6677   2.993   1.783  16.515 -0.4879  0.0110 -0.3471
  448TMC3     H 6678   2.984   1.622  16.352 -0.2021  0.8794  0.1252
  448TMC3    H1 6679   2.943   1.494  16.765  0.0177  0.2109 -0.0268
  448TMC3    H2 6680   2.972   1.209  16.441  2.0857  0.3696 -1.5017
  448TMC3    C7 6681   2.963   1.221  16.690 -0.3629  0.2671  0.5985
  448TMC3    C8 6682   3.085   1.371  16.264  0.2350  0.4913  0.0396
  448TMC3    O1 6683   2.993   1.118  16.643 -0.1983 -0.3238 -0.0681
  448TMC3    O2 6684   3.141   1.264  16.282  0.1049  0.3427 -0.5595
  449MPD2     C 6685   0.549   0.703  13.158  0.4347 -0.3326  0.2369
  449MPD2    C1 6686   0.430   0.635  13.136 -0.1038 -0.1484 -0.2584
  449MPD2    C2 6687   0.379   0.542  13.224  0.2679  0.0850  0.5982
  449MPD2    C3 6688   0.450   0.501  13.334  0.1335  0.0982  0.1232
  449MPD2    C4 6689   0.565   0.569  13.357 -0.2715  0.2953 -0.2836
  449MPD2    C5 6690   0.615   0.655  13.264  0.0250  0.2890 -0.2407
  449MPD2     H 6691   0.277   0.508  13.207  0.6676 -0.9826  0.3783
  449MPD2    H1 6692   0.629   0.523  13.432  2.7959  3.4939 -0.9393
  449MPD2    H2 6693   0.588   0.779  13.091 -0.4370  1.2568  1.5224
  449MPD2    H3 6694   0.714   0.695  13.285 -0.8706  1.0214  2.5513
  449MPD2     N 6695   0.402   0.383  13.401 -1.0098  0.2530 -0.0017
  449MPD2    H5 6696   0.328   0.330  13.356 -0.3964  1.5296 -2.5144
  449MPD2    N1 6697   0.344   0.667  13.030  0.3289 -0.3276 -0.4785
  449MPD2    H7 6698   0.253   0.623  13.026  0.7467 -1.0672 -1.9145
  450TMC3    C1 6699   0.277   0.710  12.808  0.4512  0.4963  0.0874
  450TMC3    C2 6700   0.322   0.643  12.694  0.7609 -0.3730  0.0396
  450TMC3    C3 6701   0.237   0.548  12.638  0.0568 -0.6075  0.2593
  450TMC3    C4 6702   0.151   0.682  12.855 -0.0000  1.1478 -0.2025
  450TMC3    C5 6703   0.070   0.589  12.800 -0.4439  1.0467  0.3563
  450TMC3    C6 6704   0.108   0.526  12.686 -0.8844 -0.2410  0.2757
  450TMC3     C 6705   0.378   0.735  12.908  0.8236  0.7692 -0.4203
  450TMC3     O 6706   0.490   0.772  12.881 -0.2949 -0.0223  0.1153
  450TMC3     H 6707   0.427   0.662  12.673  0.5425  0.9092  0.1373
  450TMC3    H1 6708   0.123   0.741  12.941  0.7137  0.5881  0.4220
  450TMC3    H2 6709   0.059   0.436  12.651 -0.4956  0.2728 -1.5951
  450TMC3    C7 6710   0.028   0.504  12.908 -0.0709  0.5794 -0.2641
  450TMC3    C8 6711   0.294   0.458  12.531  0.0019  0.4280 -0.2632
  450TMC3    O1 6712   0.089   0.522  13.010 -0.0905  0.3072  0.1296
  450TMC3    O2 6713   0.225   0.399  12.451  0.0696  0.5634  0.3286
  451MPD2     C 6714   1.949   4.404   1.070  0.2883  0.3180  0.5224
  451MPD2    C1 6715   1.812   4.371   1.077  0.3208  0.4299  0.1064
  451MPD2    C2 6716   1.782   4.237   1.061  0.0327 -0.0113 -0.4082
  451MPD2    C3 6717   1.874   4.140   1.037 -0.1949  0.2773  0.8873
  451MPD2    C4 6718   2.009   4.179   1.035 -0.1205 -0.3103  0.1950
  451MPD2    C5 6719   2.046   4.311   1.057 -0.0393 -0.1894 -0.2171
  451MPD2     H 6720   1.677   4.212   1.048  0.2163 -1.6875  1.2598
  451MPD2    H1 6721   2.085   4.104   1.016  1.2031  0.8247  0.9820
  451MPD2    H2 6722   1.989   4.505   1.070 -1.2177  0.9070  0.5876
  451MPD2    H3 6723   2.149   4.347   1.057  0.1666 -0.8041 -3.1093
  451MPD2     N 6724   1.847   4.006   0.982  0.5433  0.3331 -0.2970
  451MPD2    H5 6725   1.924   3.941   0.974 -0.6902 -1.1741  0.0598
  451MPD2    N1 6726   1.719   4.467   1.122  0.3408 -0.2626 -0.1216
  451MPD2    H7 6727   1.730   4.566   1.104  0.1917 -0.3456 -0.6932
  452TMC3    C1 6728   1.730   3.842   0.866  0.2756  0.6661 -0.0029
  452TMC3    C2 6729   1.776   3.733   0.934  0.2777  0.1473 -0.3843
  452TMC3    C3 6730   1.722   3.610   0.900 -0.2497 -0.6852 -0.8123
  452TMC3    C4 6731   1.651   3.841   0.756 -0.2968 -0.1316 -0.1873
  452TMC3    C5 6732   1.622   3.713   0.711  0.2872  0.8902 -0.1158
  452TMC3    C6 6733   1.649   3.599   0.783  0.2513  0.0859  0.1308
  452TMC3     C 6734   1.726   3.970   0.928  0.5192  0.1381 -0.2140
  452TMC3     O 6735   1.633   4.046   0.904  0.1559 -0.1521  0.3898
  452TMC3     H 6736   1.812   3.751   1.034  1.4151 -0.3223 -0.7129
  452TMC3    H1 6737   1.627   3.930   0.699  0.5872  1.5877  2.1392
  452TMC3    H2 6738   1.621   3.499   0.752  1.2718  0.3530 -1.6960
  452TMC3    C7 6739   1.614   3.703   0.567 -0.0328  0.7067  0.6175
  452TMC3    C8 6740   1.700   3.516   1.001 -0.6149 -0.6878 -0.3274
  452TMC3    O1 6741   1.558   3.795   0.509  0.0627 -0.5490 -0.2092
  452TMC3    O2 6742   1.604   3.445   1.004  0.1089  0.4314  0.0755
  453TMC3    C1 6743   2.591   0.928  11.548  0.1450  0.1816  0.4758
  453TMC3    C2 6744   2.552   0.841  11.642  0.3697  0.8719  0.6743
  453TMC3    C3 6745   2.511   0.715  11.609  0.1089 -0.0044  0.1827
  453TMC3    C4 6746   2.580   0.896  11.418  0.1014  0.3874  0.2979
  453TMC3    C5 6747   2.544   0.768  11.395  0.0278  0.0202  0.8825
  453TMC3    C6 6748   2.503   0.673  11.486 -0.4991 -0.1437 -0.3153
  453TMC3     C 6749   2.676   1.039  11.581  0.0193  0.5077  0.4354
  453TMC3     O 6750   2.740   1.088  11.490 -1.0245 -0.7969  0.1291
  453TMC3     H 6751   2.575   0.859  11.746 -1.4070  2.9621  0.6869
  453TMC3    H1 6752   2.621   0.961  11.341  1.7901  0.9935  1.7160
  453TMC3    H2 6753   2.464   0.582  11.444  0.6554 -1.0342  0.5601
  453TMC3    C7 6754   2.528   0.744  11.246 -0.2951 -0.7315 -0.4442
  453TMC3    C8 6755   2.489   0.620  11.709  0.0575  0.4148  0.5102
  453TMC3    O1 6756   2.539   0.629  11.208 -0.1167  0.2033  0.1837
  453TMC3    O2 6757   2.492   0.664  11.821  0.1489  0.2798 -0.0023
  454MPD2     C 6758   1.718   0.485  16.206 -0.6245  0.9171 -0.2674
  454MPD2    C1 6759   1.706   0.575  16.109 -0.0616 -0.5451 -0.6086
  454MPD2    C2 6760   1.673   0.706  16.142  0.5792  0.2755  0.0851
  454MPD2    C3 6761   1.627   0.732  16.273 -0.3458  0.1914  0.7745
  454MPD2    C4 6762   1.633   0.634  16.367 -0.2877  0.2755 -0.1641
  454MPD2    C5 6763   1.695   0.511  16.337 -0.4433 -0.0143 -0.7507
  454MPD2     H 6764   1.654   0.779  16.065  0.4761  1.3349  1.1114
  454MPD2    H1 6765   1.597   0.646  16.469  0.6354  1.5331  0.0123
  454MPD2    H2 6766   1.762   0.388  16.184 -1.0297  1.2127 -2.4355
  454MPD2    H3 6767   1.703   0.434  16.413  1.1458 -1.2621 -2.1851
  454MPD2     N 6768   1.547   0.845  16.310  0.6508 -0.2787 -0.3040
  454MPD2    H5 6769   1.495   0.836  16.396  0.7515  0.5622 -0.1549
  454MPD2    N1 6770   1.728   0.544  15.975 -0.6462 -0.2743  0.3283
  454MPD2    H7 6771   1.743   0.622  15.911 -2.7572  1.4190  1.9069
  455TMC3    C1 6772   1.390   0.990  16.231  0.2276  1.4034 -0.4944
  455TMC3    C2 6773   1.326   1.027  16.349 -0.2655 -0.4257  0.2432
  455TMC3    C3 6774   1.200   1.001  16.363 -0.0184 -0.4553  0.3253
  455TMC3    C4 6775   1.327   0.917  16.143  0.0547 -0.2888  0.5956
  455TMC3    C5 6776   1.194   0.888  16.156 -0.3146  0.2866  0.5052
  455TMC3    C6 6777   1.129   0.930  16.264 -0.1876 -0.2599  0.0103
  455TMC3     C 6778   1.527   0.958  16.238  0.2657 -0.9129 -0.2775
  455TMC3     O 6779   1.587   0.988  16.137 -0.0447 -0.1180  0.1265
  455TMC3     H 6780   1.373   1.083  16.428 -1.2805  2.5729 -1.2740
  455TMC3    H1 6781   1.394   0.859  16.080 -0.2135 -0.7186  0.7058
  455TMC3    H2 6782   1.025   0.900  16.276 -0.5970  0.9349 -0.4414
  455TMC3    C7 6783   1.150   0.758  16.096 -0.0671 -0.5778  0.0074
  455TMC3    C8 6784   1.121   1.070  16.462  0.0045  0.0766  0.5952
  455TMC3    O1 6785   1.030   0.727  16.113  0.2735  0.1882  0.3452
  455TMC3    O2 6786   1.187   1.122  16.549  0.8027  0.3064  0.3845
  456MPD2     C 6787   4.131   0.891  15.310  0.0102  0.5934  0.5601
  456MPD2    C1 6788   4.137   0.802  15.415  0.6236  0.0698  0.6805
  456MPD2    C2 6789   4.049   0.816  15.518  0.2887 -0.1329  0.7729
  456MPD2    C3 6790   3.957   0.919  15.517 -0.0104 -0.9657  0.3847
  456MPD2    C4 6791   3.956   1.019  15.415 -0.3693  0.2874  0.0332
  456MPD2    C5 6792   4.046   1.004  15.311  0.3640 -0.0817  0.0313
  456MPD2     H 6793   4.049   0.750  15.604  0.1464 -1.4932 -0.2817
  456MPD2    H1 6794   3.898   1.110  15.421  0.3287  0.5767  2.6441
  456MPD2    H2 6795   4.198   0.893  15.226 -1.0995  1.7310 -0.2996
  456MPD2    H3 6796   4.051   1.072  15.227 -2.4942 -1.6079 -1.3424
  456MPD2     N 6797   3.885   0.924  15.638 -0.2941  0.4130 -0.0359
  456MPD2    H5 6798   3.890   0.852  15.710 -2.1680  0.9920  0.6795
  456MPD2    N1 6799   4.246   0.705  15.409  0.1611  0.5402  0.1903
  456MPD2    H7 6800   4.298   0.717  15.322 -1.5836  2.1339 -0.6251
  457TMC3    C1 6801   3.744   1.008  15.806  0.1380 -0.1483 -0.3749
  457TMC3    C2 6802   3.643   1.094  15.837 -0.6364  0.2497  0.1282
  457TMC3    C3 6803   3.615   1.112  15.976  0.1705 -0.0836  0.1923
  457TMC3    C4 6804   3.811   0.934  15.900 -0.1768 -0.7305 -0.6338
  457TMC3    C5 6805   3.778   0.955  16.032  0.5158 -0.1738  1.1646
  457TMC3    C6 6806   3.679   1.038  16.070  0.3511 -1.0253  0.3890
  457TMC3     C 6807   3.790   1.020  15.668 -0.1333  0.5015 -0.1996
  457TMC3     O 6808   3.744   1.106  15.601 -0.2379 -0.2174 -0.1126
  457TMC3     H 6809   3.592   1.149  15.759 -0.5834  0.7756  0.4606
  457TMC3    H1 6810   3.901   0.884  15.867  0.0814 -1.1967  0.7478
  457TMC3    H2 6811   3.663   1.060  16.175  0.4087  0.5081  0.0695
  457TMC3    C7 6812   3.847   0.879  16.135 -0.0334 -0.0927  0.1266
  457TMC3    C8 6813   3.516   1.211  16.015  0.0034 -0.1877 -0.9972
  457TMC3    O1 6814   3.853   0.926  16.249 -0.1421 -0.0061 -0.3766
  457TMC3    O2 6815   3.501   1.222  16.138 -0.5577 -0.3726 -0.4394
  458MPD2     C 6816   2.216   0.000  12.083  0.1514 -0.8753 -0.5137
  458MPD2    C1 6817   2.150   4.726  12.200  0.4216  0.4650  0.8638
  458MPD2    C2 6818   2.013   0.000  12.197 -0.1506  0.4397  0.0728
  458MPD2    C3 6819   1.938   0.008  12.085  0.0309 -0.4378  0.2061
  458MPD2    C4 6820   2.006   0.022  11.972 -0.1257  0.5823 -0.1530
  458MPD2    C5 6821   2.137   0.024  11.973 -0.3020 -0.1737  0.2377
  458MPD2     H 6822   1.960   0.005  12.292 -2.7702  1.8108 -1.4437
  458MPD2    H1 6823   1.960   0.023  11.873  0.2272 -0.5355 -0.3248
  458MPD2    H2 6824   2.323   4.711  12.086  0.4361  1.1923 -0.0172
  458MPD2    H3 6825   2.187   0.033  11.878  0.1905  1.4277  0.6545
  458MPD2     N 6826   1.800   0.003  12.089  0.2068 -0.5804  0.0564
  458MPD2    H5 6827   1.754   4.711  12.177  0.9749  0.8600  0.7605
  458MPD2    N1 6828   2.229   4.711  12.318 -0.3018  0.3384  0.4322
  458MPD2    H7 6829   2.330   4.717  12.316 -0.1255 -1.9271  3.1032
  459TMC3    C1 6830   2.266   4.666  12.545  0.4217  0.2818 -0.4098
  459TMC3    C2 6831   2.373   0.022  12.545  0.2367  0.6135  0.1322
  459TMC3    C3 6832   2.453   0.024  12.652  0.6817 -0.5516 -0.5825
  459TMC3    C4 6833   2.247   4.585  12.657 -0.3498 -0.4487 -0.2978
  459TMC3    C5 6834   2.331   4.596  12.763 -0.7460 -0.4653 -0.7763
  459TMC3    C6 6835   2.434   4.675  12.768 -0.2278  0.1018 -0.4421
  459TMC3     C 6836   2.171   4.677  12.441  0.6038  0.0594  0.8566
  459TMC3     O 6837   2.061   4.625  12.463 -0.2565 -0.4612  0.5828
  459TMC3     H 6838   2.384   0.095  12.465  1.0943 -0.8081 -1.0323
  459TMC3    H1 6839   2.176   4.503  12.645 -0.9552 -0.0312  0.3893
  459TMC3    H2 6840   2.490   4.695  12.859 -0.6377  2.5212 -0.7196
  459TMC3    C7 6841   2.298   4.524  12.887  0.1793 -0.4936 -0.5293
  459TMC3    C8 6842   2.561   0.123  12.655 -0.1407  0.0021  0.2767
  459TMC3    O1 6843   2.234   4.424  12.870 -0.1677  0.2587 -0.5573
  459TMC3    O2 6844   2.611   0.147  12.763 -0.3432  0.0245  0.2584
  460MPD2     C 6845   0.511   1.688  10.257 -0.0487 -0.2681 -0.7071
  460MPD2    C1 6846   0.490   1.820  10.232  0.2724  0.0084 -0.2626
  460MPD2    C2 6847   0.490   1.866  10.107  0.6246 -0.1342 -0.0744
  460MPD2    C3 6848   0.496   1.784   9.993 -0.5287 -0.0994  0.5518
  460MPD2    C4 6849   0.518   1.651  10.015  0.5270  0.2596 -0.8734
  460MPD2    C5 6850   0.519   1.604  10.145 -0.4394 -0.2888  0.0244
  460MPD2     H 6851   0.473   1.971  10.087 -2.0314 -0.3905  0.7472
  460MPD2    H1 6852   0.533   1.583   9.932 -0.2560 -1.5426  0.4566
  460MPD2    H2 6853   0.512   1.650  10.358 -0.5376  0.0749 -0.5728
  460MPD2    H3 6854   0.540   1.498  10.145 -1.3020 -0.4571 -1.2502
  460MPD2     N 6855   0.478   1.849   9.869 -0.3626  0.1884 -0.2079
  460MPD2    H5 6856   0.457   1.948   9.862  0.6416  0.3805 -0.5098
  460MPD2    N1 6857   0.488   1.901  10.345  0.1387 -0.9381 -0.4827
  460MPD2    H7 6858   0.513   1.851  10.430  0.7799  0.3864  0.1097
  461TMC3    C1 6859   0.486   1.883   9.634 -0.5216 -0.4153  0.4061
  461TMC3    C2 6860   0.540   1.825   9.517  0.0204 -0.8634  0.3616
  461TMC3    C3 6861   0.526   1.895   9.405  0.3279 -0.2759  0.1807
  461TMC3    C4 6862   0.431   2.010   9.636  0.3003  0.2016 -0.2172
  461TMC3    C5 6863   0.427   2.072   9.511 -0.7444 -0.1023 -1.1555
  461TMC3    C6 6864   0.470   2.018   9.393  0.8423 -0.5625 -0.8601
  461TMC3     C 6865   0.509   1.796   9.747  0.5321 -0.0695  0.1203
  461TMC3     O 6866   0.563   1.687   9.728 -0.0428 -0.7863  0.0648
  461TMC3     H 6867   0.564   1.720   9.512 -0.4491 -0.8546 -2.0592
  461TMC3    H1 6868   0.379   2.045   9.724 -0.6693 -0.6811 -0.4324
  461TMC3    H2 6869   0.502   2.084   9.313  4.1492 -0.6118  0.4467
  461TMC3    C7 6870   0.420   2.219   9.509  0.3452 -0.0923 -0.0525
  461TMC3    C8 6871   0.511   1.816   9.284 -1.0740 -0.3366 -0.7224
  461TMC3    O1 6872   0.402   2.264   9.399 -0.2899 -0.3259 -0.3829
  461TMC3    O2 6873   0.575   1.713   9.293  0.0821  0.3920  0.3367
  462TMC3    C1 6874   0.677   3.439  17.558 -0.5603 -0.1241 -0.0264
  462TMC3    C2 6875   0.772   3.346  17.586 -0.9688 -0.1957 -0.3975
  462TMC3    C3 6876   0.724   3.227  17.630 -0.0895 -0.5499  0.2853
  462TMC3    C4 6877   0.544   3.420  17.580  0.3685 -0.0481 -0.3925
  462TMC3    C5 6878   0.500   3.292  17.611  0.0089  0.0450 -0.0680
  462TMC3    C6 6879   0.592   3.196  17.635 -0.3414  0.5903 -0.8649
  462TMC3     C 6880   0.729   3.573  17.538 -0.2316  0.1221  0.4682
  462TMC3     O 6881   0.827   3.598  17.603  0.4414  0.1022 -0.1747
  462TMC3     H 6882   0.876   3.364  17.561 -0.5345 -0.6569  1.0724
  462TMC3    H1 6883   0.483   3.510  17.575  2.6217  1.3948 -2.0740
  462TMC3    H2 6884   0.571   3.094  17.665  1.4067  0.6362  0.5570
  462TMC3    C7 6885   0.355   3.264  17.600 -0.7399 -0.5067 -0.3148
  462TMC3    C8 6886   0.817   3.121  17.660 -0.0225 -0.8615 -0.0300
  462TMC3    O1 6887   0.326   3.169  17.667  0.5891  0.2141  0.3537
  462TMC3    O2 6888   0.791   3.037   0.034  0.1354 -0.4470 -0.3052
  463MPD2     C 6889   1.549   2.773   1.423 -0.0522  0.1354 -0.0327
  463MPD2    C1 6890   1.481   2.817   1.310 -0.2837 -1.1290  0.5883
  463MPD2    C2 6891   1.556   2.889   1.218 -0.1297 -0.3298  0.2989
  463MPD2    C3 6892   1.690   2.913   1.236 -0.9046 -0.4059 -0.1367
  463MPD2    C4 6893   1.755   2.876   1.357  0.8282 -0.4917  0.7862
  463MPD2    C5 6894   1.681   2.797   1.443 -0.6067  0.4681 -0.5334
  463MPD2     H 6895   1.500   2.914   1.129  1.7944 -1.2610 -1.1922
  463MPD2    H1 6896   1.864   2.876   1.363  0.9178  0.6526 -0.6523
  463MPD2    H2 6897   1.503   2.710   1.498  1.1069 -0.1027  0.4839
  463MPD2    H3 6898   1.734   2.743   1.522 -2.1481  0.5299  0.5355
  463MPD2     N 6899   1.766   2.980   1.143  0.8538 -0.0844 -0.3849
  463MPD2    H5 6900   1.858   3.012   1.170  0.6029 -1.5723  2.2742
  463MPD2    N1 6901   1.345   2.800   1.292  0.3612  0.1444  0.2621
  463MPD2    H7 6902   1.300   2.846   1.212  1.0199  1.4764  0.6473
  464TMC3    C1 6903   1.120   2.717   1.334 -0.7790 -0.4573  0.4676
  464TMC3    C2 6904   1.088   2.766   1.212  0.4862 -0.2785  0.3817
  464TMC3    C3 6905   0.959   2.795   1.181 -0.2588 -0.3143  0.1829
  464TMC3    C4 6906   1.026   2.707   1.434  0.8452  0.2005  1.0381
  464TMC3    C5 6907   0.899   2.746   1.406 -0.5397  0.0575 -0.7040
  464TMC3    C6 6908   0.862   2.783   1.279 -0.3732 -0.5442 -0.6469
  464TMC3     C 6909   1.262   2.718   1.368  0.3848  0.3665  0.0688
  464TMC3     O 6910   1.290   2.653   1.469 -0.1304 -0.1569  0.3366
  464TMC3     H 6911   1.164   2.766   1.135  1.9521 -0.4598  1.8181
  464TMC3    H1 6912   1.062   2.661   1.525 -1.5959 -0.2314  1.7767
  464TMC3    H2 6913   0.758   2.816   1.278 -0.3750 -0.5855 -1.6237
  464TMC3    C7 6914   0.798   2.702   1.500 -0.2472  0.1240  0.8686
  464TMC3    C8 6915   0.937   2.857   1.050  0.3544  0.3448  0.4151
  464TMC3    O1 6916   0.826   2.693   1.617  0.4593 -0.1418 -0.0803
  464TMC3    O2 6917   1.042   2.872   0.988  0.5936 -0.0873 -0.7750
  465MPD2     C 6918   3.135   0.472  16.889  0.3120  0.5486  0.0241
  465MPD2    C1 6919   3.012   0.532  16.906  0.4093  0.4078 -0.5883
  465MPD2    C2 6920   2.935   0.553  16.796 -0.0890 -0.1245 -0.2852
  465MPD2    C3 6921   2.982   0.526  16.666 -0.5949  0.4110 -0.1839
  465MPD2    C4 6922   3.113   0.488  16.649  0.3221 -0.1224 -0.1048
  465MPD2    C5 6923   3.179   0.462  16.763 -0.3302 -0.5749 -1.0039
  465MPD2     H 6924   2.834   0.589  16.812  0.0741  0.1768  0.0607
  465MPD2    H1 6925   3.165   0.469  16.556 -0.0993  0.9812 -0.5651
  465MPD2    H2 6926   3.203   0.437  16.966 -1.1112 -0.1037  0.9979
  465MPD2    H3 6927   3.269   0.408  16.736  0.7983 -0.1949  1.9134
  465MPD2     N 6928   2.887   0.531  16.558  0.5723 -0.6619 -0.1354
  465MPD2    H5 6929   2.789   0.542  16.582  0.7634 -0.9838  0.7721
  465MPD2    N1 6930   2.954   0.557  17.034  0.7262  0.5951 -0.7785
  465MPD2    H7 6931   2.853   0.567  17.043  0.7541 -1.5863  1.6925
  466TMC3    C1 6932   2.566   0.485  16.439 -1.0172  0.3205 -0.7086
  466TMC3    C2 6933   2.519   0.568  16.338 -0.0971 -0.6937 -0.0335
  466TMC3    C3 6934   2.619   0.613  16.247 -0.0331 -0.1074 -0.1423
  466TMC3    C4 6935   2.697   0.447  16.448 -0.2046 -0.1253  0.3651
  466TMC3    C5 6936   2.792   0.489  16.357 -0.1480  0.3141 -0.1540
  466TMC3    C6 6937   2.755   0.582  16.259  0.3098 -0.5606 -0.3922
  466TMC3     C 6938   2.476   0.454  16.552 -0.0807 -0.0096 -0.3688
  466TMC3     O 6939   2.536   0.431  16.656 -0.0313 -0.2452  0.1952
  466TMC3     H 6940   2.415   0.597  16.328  0.1499 -0.1583 -1.0719
  466TMC3    H1 6941   2.726   0.367  16.515  1.4851  0.4645  0.3475
  466TMC3    H2 6942   2.816   0.634  16.187 -2.1403  1.1900 -1.2334
  466TMC3    C7 6943   2.913   0.515  16.425 -0.1424 -0.1571  0.6573
  466TMC3    C8 6944   2.589   0.723  16.163 -0.5016  0.3945 -0.5181
  466TMC3    O1 6945   3.018   0.521  16.362  0.0544 -0.5075  0.1166
  466TMC3    O2 6946   2.625   0.725  16.047  0.0320  0.1421  0.2236
  467TMC3    C1 6947   3.836   3.994  13.154  0.5483 -0.3258  0.0519
  467TMC3    C2 6948   3.833   3.993  13.016 -0.3089 -0.1341 -0.4895
  467TMC3    C3 6949   3.734   4.065  12.959  0.4462 -0.0028  0.1023
  467TMC3    C4 6950   3.753   4.070  13.230 -0.0637  0.1130  0.2144
  467TMC3    C5 6951   3.662   4.145  13.168  0.1198  0.2758 -0.7836
  467TMC3    C6 6952   3.648   4.140  13.029  0.5064  0.3638 -0.3802
  467TMC3     C 6953   3.968   3.982  13.223  0.1454  0.9123  0.1698
  467TMC3     O 6954   3.982   4.039  13.334 -0.1371  0.4763  0.1349
  467TMC3     H 6955   3.923   3.962  12.965 -0.3053  0.0549 -0.5997
  467TMC3    H1 6956   3.744   4.075  13.338  0.9262  1.5414  0.2368
  467TMC3    H2 6957   3.564   4.189  12.980 -2.2653 -2.3322  1.6941
  467TMC3    C7 6958   3.554   4.204  13.243 -0.0224 -0.1730  0.0189
  467TMC3    C8 6959   3.747   4.104  12.824 -0.5610  0.8556 -0.4094
  467TMC3    O1 6960   3.529   4.319  13.214 -0.2788  0.0396  0.0116
  467TMC3    O2 6961   3.714   4.216  12.790  0.5925  0.3637 -0.1646
  468MPD2     C 6962   2.325   1.968  10.416 -0.0773  0.6912 -0.6501
  468MPD2    C1 6963   2.450   1.923  10.385  0.6813  0.2776 -0.3052
  468MPD2    C2 6964   2.479   1.787  10.381 -0.4794 -0.0102  0.3149
  468MPD2    C3 6965   2.385   1.692  10.428 -0.2740  0.7666  0.4966
  468MPD2    C4 6966   2.259   1.735  10.452 -0.2846  0.1115  0.1113
  468MPD2    C5 6967   2.232   1.874  10.446 -0.2142  0.6631  0.7062
  468MPD2     H 6968   2.577   1.756  10.347  0.0078 -1.2528  2.8349
  468MPD2    H1 6969   2.182   1.664  10.482 -0.5333 -0.9201 -2.9582
  468MPD2    H2 6970   2.297   2.072  10.417  1.2030  1.0372 -1.4779
  468MPD2    H3 6971   2.130   1.895  10.475  0.0564  1.7850  0.8090
  468MPD2     N 6972   2.406   1.551  10.431  0.0007  0.2018  0.8941
  468MPD2    H5 6973   2.328   1.499  10.470  0.0334  0.1050  0.8300
  468MPD2    N1 6974   2.558   2.013  10.358  0.2906  0.1276  1.1061
  468MPD2    H7 6975   2.650   1.970  10.347  0.1810  0.1354  0.1522
  469TMC3    C1 6976   2.664   2.229  10.361  0.2757 -0.2486 -0.1135
  469TMC3    C2 6977   2.784   2.165  10.352 -0.8362 -0.7304 -0.7103
  469TMC3    C3 6978   2.879   2.197  10.445  0.0816 -0.0596 -0.0212
  469TMC3    C4 6979   2.651   2.317  10.469 -0.0490 -0.9433 -0.0282
  469TMC3    C5 6980   2.756   2.364  10.532 -0.5300  0.3467  0.2369
  469TMC3    C6 6981   2.874   2.296  10.538  0.0310  0.0784  0.0537
  469TMC3     C 6982   2.541   2.151  10.338  0.8449  0.0581 -0.1497
  469TMC3     O 6983   2.444   2.215  10.304 -0.9267  0.0831 -0.1915
  469TMC3     H 6984   2.804   2.083  10.285  2.0488 -0.7781  0.2150
  469TMC3    H1 6985   2.553   2.363  10.472 -0.7570 -2.4728  0.1321
  469TMC3    H2 6986   2.965   2.337  10.578 -0.4819  0.2432  1.0593
  469TMC3    C7 6987   2.722   2.463  10.632  0.5180 -0.3548  0.9096
  469TMC3    C8 6988   3.009   2.131  10.428  0.4674  0.0227 -0.1473
  469TMC3    O1 6989   2.620   2.527  10.611  0.5570 -0.5961 -0.1273
  469TMC3    O2 6990   3.040   2.095  10.318 -0.2936 -0.1493  0.5950
  470TMC3    C1 6991   0.660   3.878   0.467  0.1453  0.2929  0.0251
  470TMC3    C2 6992   0.658   4.000   0.409  0.2220 -0.0616 -0.0365
  470TMC3    C3 6993   0.764   4.084   0.442 -0.4787 -1.0990 -0.1994
  470TMC3    C4 6994   0.767   3.823   0.534 -0.1783 -0.2786  0.4531
  470TMC3    C5 6995   0.869   3.912   0.559  0.6381  0.9707  1.0079
  470TMC3    C6 6996   0.871   4.038   0.510  0.6159  0.3797 -0.1488
  470TMC3     C 6997   0.566   3.778   0.404 -0.0418 -0.2426  0.7615
  470TMC3     O 6998   0.553   3.664   0.457  0.0044 -0.4881 -0.3630
  470TMC3     H 6999   0.580   4.040   0.345 -2.2463  0.6750  3.4497
  470TMC3    H1 7000   0.762   3.717   0.556 -1.2237 -0.4616 -0.6534
  470TMC3    H2 7001   0.967   4.087   0.528  1.1741 -1.2254  1.2901
  470TMC3    C7 7002   0.975   3.873   0.642  0.0114  0.1719  0.3529
  470TMC3    C8 7003   0.760   4.225   0.407  1.0768  0.0063  0.2466
  470TMC3    O1 7004   1.087   3.906   0.610 -0.1789 -0.0434 -0.0238
  470TMC3    O2 7005   0.651   4.266   0.397  0.1135 -0.2934  0.0102
  471MPD2     C 7006   0.534   0.161  16.254  0.0922 -0.9677  0.1169
  471MPD2    C1 7007   0.628   0.063  16.227 -0.2574 -0.4107 -0.4243
  471MPD2    C2 7008   0.742   0.053  16.303  0.3585  0.4813  0.2638
  471MPD2    C3 7009   0.761   0.151  16.400  0.1205  0.2607  0.1394
  471MPD2    C4 7010   0.665   0.246  16.429  0.2200 -0.1975 -0.6903
  471MPD2    C5 7011   0.555   0.252  16.352  0.7004  0.4125 -0.6573
  471MPD2     H 7012   0.805   4.693  16.291  0.6128  1.2313 -3.7038
  471MPD2    H1 7013   0.680   0.308  16.516 -0.6628 -0.0545 -0.6371
  471MPD2    H2 7014   0.440   0.181  16.205  0.8075  0.0647 -0.8272
  471MPD2    H3 7015   0.485   0.332  16.371  0.8418 -0.0193  1.6147
  471MPD2     N 7016   0.869   0.148  16.496  0.2434 -0.3610 -0.1438
  471MPD2    H5 7017   0.864   0.215  16.572 -1.4971 -0.3131 -0.2847
  471MPD2    N1 7018   0.607   4.681  16.140 -0.2186  0.6642 -0.0921
  471MPD2    H7 7019   0.691   4.629  16.116 -0.3404  1.4411 -2.1822
  472TMC3    C1 7020   0.502   4.562  15.954  0.4765  0.3150  0.7117
  472TMC3    C2 7021   0.402   4.578  15.856  0.2775  0.1803  0.5185
  472TMC3    C3 7022   0.372   4.467  15.787 -0.1075 -0.5476  0.3261
  472TMC3    C4 7023   0.577   4.452  15.982 -0.1080 -0.5706 -0.6014
  472TMC3    C5 7024   0.542   4.343  15.903  0.3711  0.3829  0.2528
  472TMC3    C6 7025   0.432   4.344  15.815 -0.1719  0.7659  0.4317
  472TMC3     C 7026   0.494   4.663  16.056  0.0629 -0.5898 -0.4102
  472TMC3     O 7027   0.391   0.006  16.055  0.1682  0.1835  0.2544
  472TMC3     H 7028   0.354   4.675  15.846  0.5945  0.5167  2.1919
  472TMC3    H1 7029   0.660   4.444  16.051 -1.6107  0.6799  1.3428
  472TMC3    H2 7030   0.408   4.264  15.745 -1.9189  1.9908 -0.4053
  472TMC3    C7 7031   0.577   4.211  15.968 -0.0054 -0.1757 -0.3030
  472TMC3    C8 7032   0.234   4.457  15.742 -0.4492  0.2162  0.2448
  472TMC3    O1 7033   0.607   4.199  16.088 -0.3937  0.0889  0.1017
  472TMC3    O2 7034   0.190   4.544  15.669  0.1614  0.0356 -0.1597
  473MPD2     C 7035   0.769   1.748  13.796 -0.5087 -0.7248 -0.0550
  473MPD2    C1 7036   0.675   1.840  13.771 -0.1710 -0.3807 -0.8718
  473MPD2    C2 7037   0.660   1.951  13.850 -0.3110  0.4668 -0.5307
  473MPD2    C3 7038   0.738   1.965  13.968  0.4641  0.3631 -0.5869
  473MPD2    C4 7039   0.829   1.861  13.999  0.0235 -0.6471  0.7811
  473MPD2    C5 7040   0.847   1.757  13.910  0.7658  0.6529  0.0881
  473MPD2     H 7041   0.585   2.024  13.822 -0.2254  2.1175  3.5956
  473MPD2    H1 7042   0.896   1.854  14.083  0.4572  0.2734  0.5104
  473MPD2    H2 7043   0.788   1.664  13.730 -2.0828  0.5351 -2.1194
  473MPD2    H3 7044   0.930   1.689  13.923 -0.3591 -0.4659  1.4477
  473MPD2     N 7045   0.738   2.074  14.052  0.4154 -0.4413 -0.0338
  473MPD2    H5 7046   0.818   2.080  14.115  1.0469 -0.7397 -0.8120
  473MPD2    N1 7047   0.593   1.832  13.652 -0.1030 -0.2256 -0.1167
  473MPD2    H7 7048   0.538   1.915  13.630 -0.7649 -1.1607 -1.9325
  474TMC3    C1 7049   0.693   2.282  14.149  0.1593 -0.4156 -0.5882
  474TMC3    C2 7050   0.603   2.381  14.190 -0.0053  0.5474 -0.5009
  474TMC3    C3 7051   0.652   2.503  14.242 -0.1368  0.0073  0.7202
  474TMC3    C4 7052   0.830   2.291  14.172 -0.1999 -0.0906  0.1000
  474TMC3    C5 7053   0.867   2.405  14.240  0.4715 -0.5128  1.5612
  474TMC3    C6 7054   0.786   2.515  14.267 -0.0302 -0.3754 -0.6014
  474TMC3     C 7055   0.649   2.178  14.056  0.1023  0.4890  0.5202
  474TMC3     O 7056   0.534   2.181  14.015 -0.0106 -0.4764 -0.1182
  474TMC3     H 7057   0.498   2.366  14.166 -0.7355 -0.0699  3.1052
  474TMC3    H1 7058   0.904   2.226  14.129  0.7602  1.1902 -0.1816
  474TMC3    H2 7059   0.826   2.597  14.326  1.6189  0.8912 -3.5241
  474TMC3    C7 7060   1.000   2.398  14.283  0.0880 -0.8374  0.3216
  474TMC3    C8 7061   0.560   2.626  14.240 -0.2372  0.2823  0.1685
  474TMC3    O1 7062   1.063   2.309  14.228 -0.6608  0.1141 -0.3162
  474TMC3    O2 7063   0.448   2.606  14.196  0.2001 -0.9062  0.0263
  475MPD2     C 7064   3.834   4.040  10.012 -0.1475  0.0065 -1.0123
  475MPD2    C1 7065   3.857   4.169   9.977  0.8241 -0.3834 -0.3903
  475MPD2    C2 7066   3.761   4.264  10.006  0.8158  0.0882 -0.1864
  475MPD2    C3 7067   3.643   4.230  10.070  0.0090 -0.6685  1.0448
  475MPD2    C4 7068   3.619   4.098  10.096 -0.4691  0.0882  0.3862
  475MPD2    C5 7069   3.715   4.001  10.066 -0.4961  0.2516  0.9586
  475MPD2     H 7070   3.773   4.362   9.963  1.0077  0.9397  1.8130
  475MPD2    H1 7071   3.525   4.065  10.140 -1.2228 -0.6134 -1.7257
  475MPD2    H2 7072   3.901   3.958   9.988  0.7880  0.4216  0.1462
  475MPD2    H3 7073   3.700   3.899  10.100  1.2084 -0.4613 -0.4699
  475MPD2     N 7074   3.541   4.331  10.101  0.0493  0.6911 -0.0864
  475MPD2    H5 7075   3.566   4.428  10.087  1.2335  0.2939 -0.7174
  475MPD2    N1 7076   3.967   4.215   9.900  0.1712 -0.2039 -0.3507
  475MPD2    H7 7077   3.973   4.315   9.881  1.7011 -0.1810  0.2241
  476TMC3    C1 7078   4.121   4.205   9.736 -0.9840 -0.5481  0.0666
  476TMC3    C2 7079   4.087   4.190   9.601 -0.5904  0.2992 -0.0895
  476TMC3    C3 7080   4.141   4.279   9.511  0.4641 -0.3811 -0.1066
  476TMC3    C4 7081   4.200   4.299   9.787  0.3424 -0.2756  0.5771
  476TMC3    C5 7082   4.256   4.376   9.688 -0.0633 -0.2290 -0.3349
  476TMC3    C6 7083   4.238   4.371   9.554  0.4836 -0.6207 -0.2065
  476TMC3     C 7084   4.049   4.126   9.829  0.1704  0.2283  0.1640
  476TMC3     O 7085   4.040   4.004   9.803 -0.3807 -0.4734  0.1989
  476TMC3     H 7086   4.007   4.122   9.575  0.0041 -0.0963 -0.8711
  476TMC3    H1 7087   4.223   4.290   9.893  0.1360 -1.9937  0.4779
  476TMC3    H2 7088   4.281   4.451   9.495 -3.8874  1.7598 -0.1185
  476TMC3    C7 7089   4.362   4.458   9.727  1.1892 -0.0177  0.2170
  476TMC3    C8 7090   4.060   4.336   9.410  0.4299 -0.7045  0.1392
  476TMC3    O1 7091   4.457   4.477   9.652 -0.3046  0.1330 -0.5952
  476TMC3    O2 7092   4.068   4.457   9.404  0.5572  0.0491 -0.2743
  477MPD2     C 7093   1.065   0.900  11.203  0.6991 -0.1366 -0.0476
  477MPD2    C1 7094   1.052   1.023  11.266 -0.8423 -0.1174  0.0470
  477MPD2    C2 7095   1.106   1.042  11.387  0.6574  0.1001  0.5896
  477MPD2    C3 7096   1.183   0.943  11.449  0.4576  0.4864 -0.7156
  477MPD2    C4 7097   1.201   0.829  11.379 -0.0051 -0.3654  0.2902
  477MPD2    C5 7098   1.143   0.803  11.257 -0.6474  0.4349 -0.4971
  477MPD2     H 7099   1.074   1.128  11.446 -0.4297  0.0139  0.1122
  477MPD2    H1 7100   1.264   0.755  11.428  2.0618  0.2160 -1.4919
  477MPD2    H2 7101   1.018   0.885  11.107  0.2351  0.1886  0.1308
  477MPD2    H3 7102   1.148   0.703  11.217 -0.1938 -0.6371  2.2228
  477MPD2     N 7103   1.248   0.967  11.576 -0.2548  0.3310  0.2729
  477MPD2    H5 7104   1.223   1.041  11.641  0.2775  0.7956 -0.0527
  477MPD2    N1 7105   0.969   1.123  11.206  0.7233  0.1670 -0.4999
  477MPD2    H7 7106   0.926   1.109  11.115 -2.7474 -1.9036  1.4593
  478TMC3    C1 7107   0.866   1.344  11.173  0.6565 -0.7924 -0.0529
  478TMC3    C2 7108   0.897   1.478  11.166  0.1025  0.3894  0.4317
  478TMC3    C3 7109   0.852   1.542  11.053 -0.1060  0.0049  0.3769
  478TMC3    C4 7110   0.776   1.280  11.084 -0.1318 -0.4525 -0.2954
  478TMC3    C5 7111   0.721   1.353  10.984 -0.0759  0.6607  0.1314
  478TMC3    C6 7112   0.764   1.477  10.966 -0.5932  0.1218  0.0233
  478TMC3     C 7113   0.947   1.257  11.254 -0.5356  0.2907  0.2932
  478TMC3     O 7114   0.987   1.317  11.352 -0.1075  0.0815 -0.2832
  478TMC3     H 7115   0.952   1.528  11.244  1.1638 -0.3626  0.1563
  478TMC3    H1 7116   0.745   1.177  11.099 -0.4450 -0.4716 -1.0468
  478TMC3    H2 7117   0.728   1.532  10.880  0.1541  2.6455  1.3268
  478TMC3    C7 7118   0.616   1.285  10.899  0.0149  0.3864  0.4764
  478TMC3    C8 7119   0.870   1.686  11.041 -0.3115 -0.6494 -0.2340
  478TMC3    O1 7120   0.592   1.167  10.916 -0.6450 -0.2319  0.1410
  478TMC3    O2 7121   0.801   1.751  10.960  0.3502  0.1550  0.6645
  479MPD2     C 7122   0.474   4.118  14.946 -0.0733  0.5578  0.3470
  479MPD2    C1 7123   0.410   4.035  15.041 -0.0597  0.8044  0.5242
  479MPD2    C2 7124   0.446   4.055  15.173 -0.5175  0.2586 -0.2468
  479MPD2    C3 7125   0.522   4.163  15.214 -0.4518  0.3645 -0.1470
  479MPD2    C4 7126   0.583   4.243  15.116  0.9391  0.4969 -0.3371
  479MPD2    C5 7127   0.568   4.212  14.981 -0.7308 -0.6079  0.5426
  479MPD2     H 7128   0.401   3.982  15.239  1.7178  0.6107  1.6828
  479MPD2    H1 7129   0.649   4.326  15.136  1.3504 -0.5304  2.6284
  479MPD2    H2 7130   0.452   4.110  14.841  1.1884  0.5239  0.0783
  479MPD2    H3 7131   0.599   4.290  14.913  1.9798 -1.6574  0.5787
  479MPD2     N 7132   0.554   4.194  15.348  0.1851  0.0291  0.0528
  479MPD2    H5 7133   0.640   4.242  15.373  0.4434  0.3638 -1.4963
  479MPD2    N1 7134   0.301   3.949  14.999 -0.3359  0.2821 -0.1726
  479MPD2    H7 7135   0.279   3.935  14.900 -1.9335  0.9688  0.0893
  480TMC3    C1 7136   0.172   3.977  15.500  0.1097 -0.1349  0.3312
  480TMC3    C2 7137   0.084   4.069  15.441  0.5789  0.0318  0.5377
  480TMC3    C3 7138   0.129   4.177  15.378 -0.6262 -0.7527 -0.4534
  480TMC3    C4 7139   0.305   4.003  15.506  0.1983  0.1990  0.5333
  480TMC3    C5 7140   0.352   4.116  15.440  0.7213 -0.6651 -0.2834
  480TMC3    C6 7141   0.265   4.203  15.375 -0.4243  0.8973  0.0245
  480TMC3     C 7142   0.123   3.847  15.550 -0.1153 -0.1982 -0.6655
  480TMC3     O 7143   0.201   3.773  15.604  0.4726 -0.2132  0.3897
  480TMC3     H 7144   4.705   4.044  15.431  1.3191 -2.3439 -1.2817
  480TMC3    H1 7145   0.370   3.926  15.545  0.3602 -0.0951 -0.3246
  480TMC3    H2 7146   0.292   4.294  15.323  1.6074 -0.2781 -0.9933
  480TMC3    C7 7147   0.496   4.140  15.459  0.1311 -0.4994 -0.0684
  480TMC3    C8 7148   0.047   4.232  15.271  0.5357 -0.0538 -0.4318
  480TMC3    O1 7149   0.530   4.153  15.576  0.1899 -0.8347 -0.0822
  480TMC3    O2 7150   4.657   4.238  15.292  0.3492  0.3093  0.1181
  481MPD2     C 7151   2.001   3.300  13.868 -0.4944 -0.3038 -0.2123
  481MPD2    C1 7152   1.910   3.232  13.943  0.0544 -0.0204  0.5669
  481MPD2    C2 7153   1.964   3.152  14.044 -0.2195  0.3685  0.1986
  481MPD2    C3 7154   2.100   3.145  14.071 -0.1451  0.3675 -0.1844
  481MPD2    C4 7155   2.188   3.198  13.982  0.6282  0.2041 -0.3066
  481MPD2    C5 7156   2.139   3.280  13.884  0.5891  0.0183 -0.1716
  481MPD2     H 7157   1.893   3.100  14.108 -0.0091  0.6817  0.6859
  481MPD2    H1 7158   2.297   3.194  13.986  0.6005 -0.0728  0.1693
  481MPD2    H2 7159   1.972   3.374  13.795  1.8003 -1.4147 -2.2632
  481MPD2    H3 7160   2.199   3.316  13.801  1.3731 -0.2491  0.2865
  481MPD2     N 7161   2.149   3.087  14.195  0.0970  0.2365  0.1196
  481MPD2    H5 7162   2.250   3.094  14.203  0.1169 -0.9932  0.8323
  481MPD2    N1 7163   1.768   3.246  13.922 -0.0222  0.5743 -0.0560
  481MPD2    H7 7164   1.741   3.312  13.849 -0.6571  1.6731  1.1608
  482TMC3    C1 7165   1.543   3.218  13.929  0.5557 -0.5405 -0.1231
  482TMC3    C2 7166   1.448   3.124  13.900  0.2114  0.3958 -0.4383
  482TMC3    C3 7167   1.333   3.174  13.849 -0.8641  0.4913  0.2191
  482TMC3    C4 7168   1.536   3.350  13.898  0.2156 -0.3501 -0.3704
  482TMC3    C5 7169   1.415   3.391  13.843 -0.2241 -0.2308  0.8838
  482TMC3    C6 7170   1.313   3.309  13.817 -0.0070 -0.3842  0.6983
  482TMC3     C 7171   1.670   3.167  13.976 -0.0576 -1.0005 -1.1447
  482TMC3     O 7172   1.670   3.069  14.052 -0.1157 -0.7334 -0.2364
  482TMC3     H 7173   1.474   3.019  13.901 -0.5435  0.2396  2.2768
  482TMC3    H1 7174   1.610   3.423  13.930 -0.4715  1.2648 -2.4117
  482TMC3    H2 7175   1.220   3.356  13.786  0.9315  0.4218 -0.9354
  482TMC3    C7 7176   1.435   3.507  13.762  0.2064 -0.1036 -0.1191
  482TMC3    C8 7177   1.237   3.076  13.796 -0.3657  0.1169  0.7837
  482TMC3    O1 7178   1.500   3.601  13.805 -0.5817  0.1359  0.0966
  482TMC3    O2 7179   1.261   2.955  13.811  0.9272 -0.1663  0.4434
  483TMC3    C1 7180   3.384   2.252   0.117 -0.4367  0.7841 -0.4606
  483TMC3    C2 7181   3.424   2.367   0.066  0.5015 -0.1443  0.1285
  483TMC3    C3 7182   3.458   2.467   0.154 -0.0361 -0.1716  0.4596
  483TMC3    C4 7183   3.368   2.233   0.253 -0.4723 -0.7539 -0.6478
  483TMC3    C5 7184   3.406   2.332   0.338 -0.5860  0.6790  0.6718
  483TMC3    C6 7185   3.448   2.452   0.288  0.9634 -0.5811  0.0284
  483TMC3     C 7186   3.401   2.132   0.033 -0.1469  0.0724 -0.3628
  483TMC3     O 7187   3.379   2.140  17.619 -0.0410  0.4527 -0.1480
  483TMC3     H 7188   3.433   2.376  17.666 -2.5800 -1.0082 -0.2202
  483TMC3    H1 7189   3.358   2.136   0.300  2.4719  0.4109  2.3083
  483TMC3    H2 7190   3.487   2.527   0.356 -0.6207 -0.1292  0.4165
  483TMC3    C7 7191   3.504   2.280   0.430 -0.2121 -0.2416  0.2729
  483TMC3    C8 7192   3.550   2.565   0.111 -0.2494  0.2921  0.4704
  483TMC3    O1 7193   3.593   2.211   0.387 -0.7234 -0.5182 -0.3136
  483TMC3    O2 7194   3.630   2.539   0.022 -0.0215  0.4129  0.1606
  484MPD2     C 7195   2.806   0.286  12.591 -0.6152  0.2848 -0.1910
  484MPD2    C1 7196   2.745   0.200  12.500 -0.6119 -0.0588 -0.4059
  484MPD2    C2 7197   2.793   0.188  12.370  0.4626 -0.1500 -1.1808
  484MPD2    C3 7198   2.913   0.253  12.334  0.3925 -0.1226 -0.1296
  484MPD2    C4 7199   2.981   0.332  12.429 -0.3292 -0.1784  0.5565
  484MPD2    C5 7200   2.926   0.348  12.554  0.1878 -0.1784 -0.3718
  484MPD2     H 7201   2.738   0.131  12.296 -0.7789 -2.3279  1.4034
  484MPD2    H1 7202   3.071   0.386  12.402 -0.1743 -0.9677 -0.5402
  484MPD2    H2 7203   2.770   0.283  12.693  0.9713 -2.0623  0.3012
  484MPD2    H3 7204   2.976   0.417  12.620  1.8005  0.5628 -2.3688
  484MPD2     N 7205   2.966   0.251  12.202  0.0385 -0.0673 -0.0794
  484MPD2    H5 7206   3.063   0.280  12.192  0.4222 -1.6144 -0.9121
  484MPD2    N1 7207   2.623   0.130  12.533 -0.1011  0.3657 -0.4599
  484MPD2    H7 7208   2.576   0.089  12.453 -3.2881  0.7224  1.2421
  485TMC3    C1 7209   2.978   0.191  11.978 -0.3887 -0.4774  0.3549
  485TMC3    C2 7210   3.093   0.119  11.991  0.1765 -0.4131  0.0088
  485TMC3    C3 7211   3.162   0.069  11.881 -0.0842  0.4649 -0.2947
  485TMC3    C4 7212   2.927   0.222  11.857 -0.1706 -0.8576  0.6238
  485TMC3    C5 7213   3.001   0.185  11.748 -0.4435  0.0315  0.3271
  485TMC3    C6 7214   3.121   0.120  11.761 -0.1427  0.1690  0.4749
  485TMC3     C 7215   2.896   0.207  12.090  0.2746 -0.0079  0.0557
  485TMC3     O 7216   2.780   0.180  12.080 -0.1121  0.1199  0.1126
  485TMC3     H 7217   3.124   0.081  12.088 -0.4074 -1.3006 -0.1425
  485TMC3    H1 7218   2.834   0.274  11.841  1.5538  1.0202 -3.0831
  485TMC3    H2 7219   3.174   0.078  11.675  0.3430  2.4337 -0.3402
  485TMC3    C7 7220   2.925   0.178  11.621  0.2063 -0.0498 -0.0582
  485TMC3    C8 7221   3.141   4.656  11.866  0.2043 -0.2140 -0.2522
  485TMC3    O1 7222   2.855   0.273  11.588  0.1052  0.1511  0.6755
  485TMC3    O2 7223   3.066   4.624  11.773 -0.2755  0.0954  1.0392
  486MPD2     C 7224   4.608   3.669  12.193 -0.2853 -0.1706 -0.3008
  486MPD2    C1 7225   4.478   3.629  12.195  0.0900  0.6490  0.0102
  486MPD2    C2 7226   4.379   3.718  12.159  0.3343  0.9782 -0.4800
  486MPD2    C3 7227   4.411   3.839  12.100 -0.2166  0.4943 -0.2062
  486MPD2    C4 7228   4.543   3.880  12.092  0.2669  1.1935 -0.2916
  486MPD2    C5 7229   4.639   3.800  12.155  0.4094  0.4724  0.7213
  486MPD2     H 7230   4.276   3.684  12.161 -0.0218  2.0095 -1.7733
  486MPD2    H1 7231   4.586   3.963  12.037 -1.0376  1.7174 -0.5254
  486MPD2    H2 7232   4.686   3.601  12.225  0.8152  2.0288  1.7509
  486MPD2    H3 7233   0.015   3.833  12.154  0.6438 -0.2524  0.9705
  486MPD2     N 7234   4.303   3.920  12.054  0.0675 -0.4457 -0.5454
  486MPD2    H5 7235   4.206   3.890  12.057  0.0619 -0.1017  3.0160
  486MPD2    N1 7236   4.460   3.504  12.246  0.0004  0.1317  1.1264
  486MPD2    H7 7237   4.543   3.447  12.261 -0.0168 -0.2129 -0.0273
  487TMC3    C1 7238   4.358   3.315  12.340 -0.0081  0.1705  0.5333
  487TMC3    C2 7239   4.256   3.223  12.319 -0.3936  0.4952 -0.1453
  487TMC3    C3 7240   4.258   3.104  12.388  0.5269  0.0901 -0.2335
  487TMC3    C4 7241   4.459   3.287  12.429 -0.1635 -0.2013 -0.1038
  487TMC3    C5 7242   4.460   3.174  12.498 -0.4725  0.6509  0.2272
  487TMC3    C6 7243   4.368   3.075  12.466  0.3941 -0.0246  0.9433
  487TMC3     C 7244   4.345   3.436  12.256  0.2191 -0.1438 -0.5134
  487TMC3     O 7245   4.233   3.478  12.235  0.1930 -0.2606  0.6489
  487TMC3     H 7246   4.167   3.251  12.265 -1.0615 -0.3179  0.5316
  487TMC3    H1 7247   4.527   3.368  12.450 -0.9967  0.2858  0.7187
  487TMC3    H2 7248   4.365   2.990  12.533 -0.3969  0.1266  1.0940
  487TMC3    C7 7249   4.491   3.189  12.636  0.0040 -0.7738  1.1289
  487TMC3    C8 7250   4.137   3.045  12.446 -0.1481  0.3591  0.1391
  487TMC3    O1 7251   4.477   3.301  12.674  0.5840  0.2073  0.3831
  487TMC3    O2 7252   4.037   3.120  12.456  0.3852  0.3606  0.4861
  488MPD2     C 7253   0.255   0.966  16.294 -0.3279  0.3731  0.0708
  488MPD2    C1 7254   0.201   1.090  16.326 -0.1860  0.8148  0.3549
  488MPD2    C2 7255   0.149   1.095  16.456 -0.3023 -1.0250 -0.2459
  488MPD2    C3 7256   0.145   0.988  16.541 -0.2224  0.1730 -0.1655
  488MPD2    C4 7257   0.225   0.875  16.514 -0.1692 -0.3517  0.3753
  488MPD2    C5 7258   0.278   0.864  16.390 -0.6465  0.6617 -0.2378
  488MPD2     H 7259   0.125   1.192  16.497  1.3523 -0.9074  0.4530
  488MPD2    H1 7260   0.238   0.797  16.589  1.1961 -1.0839 -0.6235
  488MPD2    H2 7261   0.288   0.954  16.192  0.7988  0.8600  0.3740
  488MPD2    H3 7262   0.339   0.779  16.362 -0.0471  0.8998  0.3264
  488MPD2     N 7263   0.072   1.018  16.656 -0.0732  0.2965 -0.7401
  488MPD2    H5 7264   0.039   1.114  16.662  0.0021  0.2866 -0.1187
  488MPD2    N1 7265   0.202   1.210  16.238 -0.1485 -0.3994 -0.2998
  488MPD2    H7 7266   0.170   1.302  16.265  1.9798 -0.5401  2.7015
  489TMC3    C1 7267   4.700   0.978  16.877 -0.2217  0.1585 -0.4330
  489TMC3    C2 7268   4.668   1.115  16.877 -0.5138  0.2826  0.0569
  489TMC3    C3 7269   4.580   1.160  16.973 -0.2142 -0.3729 -0.2277
  489TMC3    C4 7270   4.645   0.892  16.965  0.2367 -0.7148 -0.1367
  489TMC3    C5 7271   4.562   0.944  17.052 -0.9672  0.2670  0.3567
  489TMC3    C6 7272   4.527   1.076  17.065 -0.3138 -0.3086  0.7050
  489TMC3     C 7273   0.021   0.926  16.751  0.7169 -0.4932 -0.0198
  489TMC3     O 7274   0.044   0.806  16.752 -0.0058 -0.3535  0.3260
  489TMC3     H 7275   4.722   1.176  16.807 -1.6153  1.3158  0.1146
  489TMC3    H1 7276   4.671   0.787  16.957  1.5840 -0.4434  0.6454
  489TMC3    H2 7277   4.450   1.108  17.135  0.2181  3.3170 -0.3960
  489TMC3    C7 7278   4.517   0.853  17.151  0.0810  0.9239 -0.0388
  489TMC3    C8 7279   4.558   1.295  16.991 -0.1409 -0.3091 -0.9014
  489TMC3    O1 7280   4.596   0.770  17.191  0.1736  0.4598  0.5936
  489TMC3    O2 7281   4.498   1.324  17.091 -0.3520  0.3789 -0.0012
  490MPD2     C 7282   0.919   0.590  17.039  0.3674  0.2985  0.4117
  490MPD2    C1 7283   0.831   0.525  17.125 -0.1004 -0.1512 -0.1478
  490MPD2    C2 7284   0.857   0.533  17.257  0.6715 -0.8218 -0.3120
  490MPD2    C3 7285   0.966   0.602  17.312  0.5562  0.3438 -0.0772
  490MPD2    C4 7286   1.051   0.670  17.229  0.3855 -0.2312  0.8962
  490MPD2    C5 7287   1.027   0.659  17.091 -0.1506  0.1038  0.0585
  490MPD2     H 7288   0.786   0.481  17.321  0.8504  0.9352  1.2943
  490MPD2    H1 7289   1.118   0.748  17.265 -2.3757  1.0489  3.3326
  490MPD2    H2 7290   0.895   0.605  16.934 -0.4266  1.8160  0.8107
  490MPD2    H3 7291   1.084   0.729  17.030 -2.1173  0.8271 -0.9403
  490MPD2     N 7292   0.977   0.590  17.454 -0.1087  0.2658  0.2968
  490MPD2    H5 7293   0.896   0.561  17.508  1.0414 -0.9718  1.3650
  490MPD2    N1 7294   0.725   0.441  17.099  0.5804 -0.1037 -0.5298
  490MPD2    H7 7295   0.678   0.391  17.174  0.4336 -0.7078 -1.0237
  491TMC3    C1 7296   0.566   0.323  16.963  1.0606  0.6711 -0.3592
  491TMC3    C2 7297   0.563   0.223  17.055 -0.1840 -0.3048  0.1681
  491TMC3    C3 7298   0.484   0.121  17.029 -0.9531 -0.2966  0.0090
  491TMC3    C4 7299   0.505   0.322  16.846  0.2606  0.3418 -0.6574
  491TMC3    C5 7300   0.421   0.213  16.817 -0.4586  0.3023 -0.2414
  491TMC3    C6 7301   0.414   0.112  16.909 -0.0870 -0.5623  1.2645
  491TMC3     C 7302   0.680   0.411  16.970 -0.0062 -0.2037  0.1868
  491TMC3     O 7303   0.722   0.473  16.871 -0.0440  0.2255  0.0989
  491TMC3     H 7304   0.629   0.224  17.140  0.5218  0.1429 -0.3851
  491TMC3    H1 7305   0.525   0.400  16.773 -0.6020  1.1418 -0.0337
  491TMC3    H2 7306   0.347   0.031  16.883  1.4696 -1.1247 -1.0036
  491TMC3    C7 7307   0.357   0.191  16.690 -0.3227 -0.6958 -0.0711
  491TMC3    C8 7308   0.445   0.031  17.123  0.1358 -0.2187 -0.6884
  491TMC3    O1 7309   0.361   0.075  16.653 -0.3066  0.1515  0.1085
  491TMC3    O2 7310   0.358   4.678  17.090  0.2908  0.2493  0.1874
  492MPD2     C 7311   1.272   0.167  10.955  0.1187  0.2360  0.0097
  492MPD2    C1 7312   1.190   0.078  10.895 -0.4628  0.6402 -0.1946
  492MPD2    C2 7313   1.119   4.722  10.974 -0.9181 -0.8606  0.0523
  492MPD2    C3 7314   1.142   4.711  11.112 -0.4607  0.4790 -0.3289
  492MPD2    C4 7315   1.231   0.075  11.171  0.5976  0.7038 -0.7882
  492MPD2    C5 7316   1.287   0.173  11.090 -0.5387  0.0363 -0.4809
  492MPD2     H 7317   1.038   4.673  10.921 -0.9690  1.3742 -1.9070
  492MPD2    H1 7318   1.253   0.062  11.276 -0.8858 -0.1032 -0.5709
  492MPD2    H2 7319   1.327   0.244  10.903  0.8593  0.4247  1.0684
  492MPD2    H3 7320   1.353   0.250  11.129 -0.9461 -0.1647  0.6079
  492MPD2     N 7321   1.084   4.616  11.202 -0.5267 -0.7383 -0.3842
  492MPD2    H5 7322   1.111   4.630  11.299 -1.5715 -2.4994  0.1552
  492MPD2    N1 7323   1.187   0.083  10.754  0.4516  0.6104  0.1852
  492MPD2    H7 7324   1.269   0.126  10.712  1.0040  0.1936  0.8518
  493TMC3    C1 7325   1.159   4.716  10.541 -0.2267 -0.2541 -0.0891
  493TMC3    C2 7326   1.249   0.077  10.488  0.0077  0.4298  0.5671
  493TMC3    C3 7327   1.259   0.084  10.358 -0.2204 -0.5438  0.8695
  493TMC3    C4 7328   1.082   4.637  10.462  0.0279 -0.0217 -0.8672
  493TMC3    C5 7329   1.099   4.652  10.329  0.4507 -0.1260 -1.0807
  493TMC3    C6 7330   1.189   0.009  10.269  0.0526 -0.5464 -0.3634
  493TMC3     C 7331   1.105   0.009  10.675 -0.2300 -0.4161 -0.2511
  493TMC3     O 7332   1.016   4.662  10.711  0.5864  0.1326 -0.4341
  493TMC3     H 7333   1.307   0.144  10.552  2.7590 -0.9877 -0.4391
  493TMC3    H1 7334   1.009   4.575  10.511  0.5384 -1.7701 -2.2972
  493TMC3    H2 7335   1.216   0.011  10.164 -0.5821 -1.0696 -0.5384
  493TMC3    C7 7336   1.021   4.573  10.241 -0.1989  0.9999  0.1570
  493TMC3    C8 7337   1.390   0.141  10.315 -0.5701  0.4065 -0.3004
  493TMC3    O1 7338   1.013   4.609  10.121 -0.1756 -0.3551  0.3759
  493TMC3    O2 7339   1.480   0.115  10.393  0.1772  0.1302  0.4736
  494TMC3    C1 7340   1.496   2.540  17.672  0.0982  0.7087  0.9333
  494TMC3    C2 7341   1.483   2.419   0.023 -0.3177 -0.5681  0.9318
  494TMC3    C3 7342   1.447   2.311  17.651  0.6189  0.1257 -0.8673
  494TMC3    C4 7343   1.495   2.557  17.537 -0.6947  0.3857 -0.7769
  494TMC3    C5 7344   1.472   2.446  17.462 -0.6877 -0.0190 -0.4978
  494TMC3    C6 7345   1.436   2.323  17.513 -0.1916  0.3579 -0.4452
  494TMC3     C 7346   1.482   2.652   0.056 -0.2688  0.6199  0.3985
  494TMC3     O 7347   1.395   2.650   0.145 -0.5437 -0.2104 -0.6289
  494TMC3     H 7348   1.472   2.402   0.130 -2.6879  1.0453  0.9401
  494TMC3    H1 7349   1.511   2.656  17.495 -1.4119  0.5900 -0.5695
  494TMC3    H2 7350   1.441   2.232  17.454  1.6432 -0.2676  0.6482
  494TMC3    C7 7351   1.535   2.440  17.333  0.7311 -0.7000 -0.4587
  494TMC3    C8 7352   1.420   2.181  17.703  0.0569 -0.3040 -0.6764
  494TMC3    O1 7353   1.517   2.333  17.275 -0.0508  0.6366  0.3944
  494TMC3    O2 7354   1.476   2.159   0.101 -0.0589  0.1839  0.2202
  495TMC3    C1 7355   0.558   4.285  14.417 -0.2733  0.8963 -0.3553
  495TMC3    C2 7356   0.484   4.274  14.305  0.3984 -0.5064 -0.5096
  495TMC3    C3 7357   0.356   4.304  14.316  0.5262 -0.3907 -0.3898
  495TMC3    C4 7358   0.507   4.306  14.540  0.0784  0.4382 -0.2331
  495TMC3    C5 7359   0.377   4.339  14.546 -0.3285  0.9981 -0.2434
  495TMC3    C6 7360   0.296   4.344  14.433  0.7815 -0.4532  0.5348
  495TMC3     C 7361   0.632   4.165  14.427  0.7555  0.1539  0.0953
  495TMC3     O 7362   0.747   4.166  14.477  0.1779 -0.1725  0.2126
  495TMC3     H 7363   0.532   4.255  14.210 -0.0426 -0.0301 -0.8234
  495TMC3    H1 7364   0.574   4.283  14.622 -1.2161 -1.2543  0.3435
  495TMC3    H2 7365   0.189   4.364  14.433  1.0261  0.8251  0.4703
  495TMC3    C7 7366   0.318   4.347  14.680  0.1283 -0.2078 -0.4878
  495TMC3    C8 7367   0.268   4.272  14.206  0.4445  0.2980 -0.3380
  495TMC3    O1 7368   0.393   4.376  14.775 -0.2930 -0.1558  0.6249
  495TMC3    O2 7369   0.160   4.324  14.213  0.3220 -0.0133  0.1567
  496MPD2     C 7370   2.142   4.158  14.634  0.6031 -0.2443 -0.3910
  496MPD2    C1 7371   2.174   4.089  14.743 -0.3187 -0.4371 -0.2844
  496MPD2    C2 7372   2.105   4.114  14.856 -0.4284 -0.5819 -0.0423
  496MPD2    C3 7373   2.019   4.221  14.868  0.5668 -0.2148  0.7048
  496MPD2    C4 7374   2.003   4.299  14.759 -0.3452 -0.4196 -0.1786
  496MPD2    C5 7375   2.062   4.269  14.635  0.3139 -0.1573 -0.5630
  496MPD2     H 7376   2.127   4.053  14.944 -0.5825 -0.9652 -0.2673
  496MPD2    H1 7377   1.945   4.390  14.764  0.7224  0.1863  1.1600
  496MPD2    H2 7378   2.199   4.130  14.545 -0.8447 -0.3499 -1.2826
  496MPD2    H3 7379   2.043   4.325  14.544  0.6922  0.5996 -0.1777
  496MPD2     N 7380   1.953   4.239  14.992 -0.3215 -0.1654  0.0701
  496MPD2    H5 7381   1.984   4.176  15.065 -2.4868 -1.4855 -0.1374
  496MPD2    N1 7382   2.271   3.988  14.724 -0.4559 -0.0358 -0.1682
  496MPD2    H7 7383   2.300   3.978  14.627 -0.9051  1.3610 -0.4579
  497TMC3    C1 7384   1.862   4.361  15.169 -0.5605 -0.6383  0.3453
  497TMC3    C2 7385   1.851   4.489  15.211 -0.1780  0.2632 -0.2703
  497TMC3    C3 7386   1.866   4.506  15.350  0.4460 -0.4116  0.5779
  497TMC3    C4 7387   1.879   4.253  15.255  0.0961 -0.6718 -0.6671
  497TMC3    C5 7388   1.908   4.287  15.385  0.4387  0.0255 -0.0133
  497TMC3    C6 7389   1.918   4.415  15.435  1.2523 -0.3314 -0.2080
  497TMC3     C 7390   1.862   4.341  15.023  0.7416  0.2289  0.1307
  497TMC3     O 7391   1.813   4.430  14.953 -0.0022 -0.0646  0.0906
  497TMC3     H 7392   1.836   4.572  15.143 -1.2004  0.1323 -0.2104
  497TMC3    H1 7393   1.879   4.148  15.229 -1.6935 -1.0320  0.8058
  497TMC3    H2 7394   1.943   4.435  15.539  0.3497  0.8446 -0.2092
  497TMC3    C7 7395   1.909   4.168  15.467  0.1746  0.3201 -0.4116
  497TMC3    C8 7396   1.852   4.643  15.394 -0.0412 -0.4295 -0.0811
  497TMC3    O1 7397   1.844   4.075  15.423 -0.4375  0.0085 -0.3011
  497TMC3    O2 7398   1.908   4.673  15.506 -0.4316  0.0230 -0.4392
  498MPD2     C 7399   3.500   4.433   9.776  0.5852 -0.1795 -0.4190
  498MPD2    C1 7400   3.402   4.519   9.736 -0.7198 -0.3102  0.7540
  498MPD2    C2 7401   3.279   4.462   9.713 -0.4064 -0.2639  0.2336
  498MPD2    C3 7402   3.247   4.332   9.724  0.7387  0.5088  0.0118
  498MPD2    C4 7403   3.342   4.249   9.772  0.3051 -0.1506 -0.5944
  498MPD2    C5 7404   3.469   4.300   9.791  0.2942 -0.4096 -0.2148
  498MPD2     H 7405   3.201   4.526   9.672 -0.7168 -0.9576 -0.2609
  498MPD2    H1 7406   3.319   4.143   9.776  2.3978 -0.5831  0.0557
  498MPD2    H2 7407   3.604   4.461   9.783 -0.1486  2.6554 -0.9973
  498MPD2    H3 7408   3.554   4.234   9.806  1.3165  1.4807  2.1822
  498MPD2     N 7409   3.112   4.291   9.698 -0.3423  0.2294  0.2305
  498MPD2    H5 7410   3.051   4.364   9.664 -0.8766 -1.2513 -2.0350
  498MPD2    N1 7411   3.415   4.655   9.697 -0.0217  0.2379 -0.2251
  498MPD2    H7 7412   3.334   4.704   9.660 -1.5530 -1.4717  0.8382
  499TMC3    C1 7413   3.530   0.124   9.680 -0.0547  0.2736  0.3468
  499TMC3    C2 7414   3.649   0.180   9.719  0.3041 -0.6149 -0.2363
  499TMC3    C3 7415   3.681   0.299   9.658  0.5319  0.4031 -0.6970
  499TMC3    C4 7416   3.450   0.175   9.587  0.1382 -0.2122  0.5453
  499TMC3    C5 7417   3.495   0.291   9.524  0.4209  0.1952 -0.6508
  499TMC3    C6 7418   3.598   0.364   9.573 -0.1333 -0.4157 -0.8713
  499TMC3     C 7419   3.535   4.717   9.693  0.6414  0.2366  0.3256
  499TMC3     O 7420   3.647   4.669   9.705  0.1685  0.4423 -0.4180
  499TMC3     H 7421   3.707   0.123   9.790 -0.5945 -2.0954 -0.6823
  499TMC3    H1 7422   3.372   0.109   9.550 -1.1833  3.2806 -2.9912
  499TMC3    H2 7423   3.634   0.454   9.523 -0.8516 -0.4688 -1.4810
  499TMC3    C7 7424   3.415   0.363   9.426 -0.7004  0.2372 -0.1613
  499TMC3    C8 7425   3.826   0.319   9.636  0.4414  0.1557  0.2269
  499TMC3    O1 7426   3.434   0.486   9.419  0.6694  0.3268 -0.4498
  499TMC3    O2 7427   3.865   0.380   9.536 -0.7875  0.3660 -0.1641
  500MPD2     C 7428   0.119   0.725   9.220  0.2573  0.3615  0.2917
  500MPD2    C1 7429   0.058   0.780   9.334 -0.2534  0.1014 -0.5497
  500MPD2    C2 7430   4.652   0.750   9.370  0.3432 -0.2012 -0.0051
  500MPD2    C3 7431   4.578   0.691   9.271 -0.2644 -0.1686 -0.0577
  500MPD2    C4 7432   4.640   0.645   9.155  0.0100 -0.0204  0.8203
  500MPD2    C5 7433   0.046   0.650   9.137 -0.6124  0.6998 -0.1861
  500MPD2     H 7434   4.612   0.782   9.466 -1.8061 -1.1148 -0.6050
  500MPD2    H1 7435   4.587   0.586   9.081  2.4988 -1.4738  0.2215
  500MPD2    H2 7436   0.222   0.743   9.191  0.9891 -1.9461  1.4121
  500MPD2    H3 7437   0.090   0.623   9.041 -2.3455  0.4990 -0.9301
  500MPD2     N 7438   4.448   0.648   9.292  0.1535 -0.0153 -0.2324
  500MPD2    H5 7439   4.403   0.610   9.209  0.4699 -1.6783  0.3582
  500MPD2    N1 7440   0.129   0.868   9.424  0.3162  0.7519 -0.0799
  500MPD2    H7 7441   0.076   0.922   9.491  0.1335  0.7186 -0.1985
  501TMC3    C1 7442   0.310   0.968   9.548  0.2182 -0.1023  0.2331
  501TMC3    C2 7443   0.247   1.091   9.533 -0.6722 -0.0779  0.6912
  501TMC3    C3 7444   0.302   1.188   9.607 -0.3921  0.6635  0.0550
  501TMC3    C4 7445   0.422   0.944   9.622  0.2654 -0.4776  0.0807
  501TMC3    C5 7446   0.463   1.042   9.713 -0.2759  0.0622 -0.4474
  501TMC3    C6 7447   0.400   1.166   9.706 -0.4104  0.4542 -0.5624
  501TMC3     C 7448   0.261   0.867   9.448  0.0740  0.2191  0.9387
  501TMC3     O 7449   0.348   0.788   9.418 -0.1411 -0.2175  0.3024
  501TMC3     H 7450   0.187   1.122   9.447 -1.8224  0.7702  1.8005
  501TMC3    H1 7451   0.480   0.854   9.609 -0.2848 -0.9372  0.7948
  501TMC3    H2 7452   0.438   1.245   9.770 -0.9899  0.4184 -0.1843
  501TMC3    C7 7453   0.557   1.011   9.821 -0.8510  0.4334  0.0198
  501TMC3    C8 7454   0.253   1.322   9.583  0.1297 -0.8741  0.1746
  501TMC3    O1 7455   0.622   0.910   9.817 -0.0222 -0.2674  0.2465
  501TMC3    O2 7456   0.201   1.350   9.475  0.1438  0.2315 -0.1268
  502TMC3    C1 7457   4.070   4.691  14.518 -0.1257 -0.3419  0.4282
  502TMC3    C2 7458   4.072   0.098  14.537 -0.4393 -0.5105 -0.7348
  502TMC3    C3 7459   3.981   0.153  14.623  0.2149  0.1285  0.2151
  502TMC3    C4 7460   3.982   4.613  14.577  0.4067  0.6288 -0.1852
  502TMC3    C5 7461   3.887   4.671  14.662  0.1142  0.6551 -0.4586
  502TMC3    C6 7462   3.879   0.080  14.683  0.1704  0.1065  0.4034
  502TMC3     C 7463   4.164   4.618  14.427  0.4427  0.5027  0.2443
  502TMC3     O 7464   4.099   4.542  14.351 -0.3928 -0.4974  0.5611
  502TMC3     H 7465   4.147   0.159  14.488 -1.6368  0.6406 -1.1304
  502TMC3    H1 7466   3.994   4.507  14.561  3.6675  1.0051 -0.2811
  502TMC3    H2 7467   3.809   0.115  14.758  0.7908  1.7344  0.2204
  502TMC3    C7 7468   3.819   4.580  14.754 -0.2048 -1.1161  0.7017
  502TMC3    C8 7469   4.012   0.282  14.671 -0.0217 -1.0212  0.7577
  502TMC3    O1 7470   3.889   4.503  14.819  0.5512 -0.1817 -0.3996
  502TMC3    O2 7471   4.076   0.358  14.597 -0.0989  0.9747  0.2942
  503MPD2     C 7472   1.657   1.082  16.625 -0.1352  0.4820 -0.7332
  503MPD2    C1 7473   1.626   1.112  16.757 -0.0825  0.1842  0.0979
  503MPD2    C2 7474   1.637   1.016  16.861 -0.6966 -0.2393 -0.0775
  503MPD2    C3 7475   1.665   0.884  16.826  0.7174  0.3263 -0.2018
  503MPD2    C4 7476   1.697   0.852  16.694 -0.8007 -0.1905 -0.3069
  503MPD2    C5 7477   1.696   0.950  16.601  0.0252  0.0115 -0.6907
  503MPD2     H 7478   1.617   1.032  16.966 -1.1509  0.0884 -0.2170
  503MPD2    H1 7479   1.718   0.756  16.650  2.5983  0.2536  0.3081
  503MPD2    H2 7480   1.649   1.147  16.538 -1.5383  2.1512  0.6499
  503MPD2    H3 7481   1.735   0.929  16.502  0.1149  0.5190 -0.7630
  503MPD2     N 7482   1.670   0.785  16.928  0.7406 -0.3288  0.4160
  503MPD2    H5 7483   1.629   0.822  17.013 -1.7912  1.3268 -1.5457
  503MPD2    N1 7484   1.574   1.238  16.789 -0.0836 -0.6235  0.2504
  503MPD2    H7 7485   1.554   1.249  16.888 -1.0177 -0.7418  0.0717
  504TMC3    C1 7486   1.686   0.573  17.035 -0.0502  0.4212  0.3083
  504TMC3    C2 7487   1.713   0.623  17.161 -0.0315  0.2524  1.2645
  504TMC3    C3 7488   1.758   0.537  17.260 -0.0747 -0.1204 -0.5682
  504TMC3    C4 7489   1.693   0.436  17.006  0.7656 -0.8009  0.1264
  504TMC3    C5 7490   1.745   0.356  17.102 -0.9730  0.0504 -0.2194
  504TMC3    C6 7491   1.780   0.406  17.228  0.1839  0.5077 -0.2762
  504TMC3     C 7492   1.703   0.656  16.916  0.8288  0.6841 -0.1475
  504TMC3     O 7493   1.717   0.594  16.812  0.1867 -0.0946  0.3546
  504TMC3     H 7494   1.712   0.730  17.178  0.8073  0.0729  2.4785
  504TMC3    H1 7495   1.673   0.393  16.909 -1.1596 -0.1444  0.2198
  504TMC3    H2 7496   1.833   0.337  17.293  0.2377  1.8119  1.0724
  504TMC3    C7 7497   1.838   0.257  17.053 -1.0035  0.2898  0.7554
  504TMC3    C8 7498   1.812   0.594  17.381 -0.3682  0.2980 -0.3732
  504TMC3    O1 7499   1.954   0.275  17.088  0.2244 -0.0233 -0.3132
  504TMC3    O2 7500   1.830   0.715  17.377  0.1108 -0.7829 -0.1879
  505MPD2     C 7501   1.809   4.085   9.485 -0.2481  0.7700  0.1408
  505MPD2    C1 7502   1.848   3.975   9.406 -0.0956 -0.2118 -0.6053
  505MPD2    C2 7503   1.857   3.854   9.464  0.1259  0.2681 -0.7355
  505MPD2    C3 7504   1.824   3.838   9.596  0.8866 -0.0010  0.7273
  505MPD2    C4 7505   1.770   3.942   9.671 -0.2494 -0.1343 -0.4997
  505MPD2    C5 7506   1.766   4.068   9.616 -0.3546 -0.2122  0.1166
  505MPD2     H 7507   1.903   3.771   9.412  0.6390 -0.3831  0.7688
  505MPD2    H1 7508   1.733   3.943   9.773  1.5602 -0.2268  0.1652
  505MPD2    H2 7509   1.818   4.185   9.443 -0.7082  0.7782  0.0642
  505MPD2    H3 7510   1.734   4.152   9.677  0.5480 -0.7892  1.3995
  505MPD2     N 7511   1.834   3.707   9.655 -1.2872 -0.0175  0.0936
  505MPD2    H5 7512   1.820   3.706   9.756 -2.1297 -0.0089 -0.0239
  505MPD2    N1 7513   1.885   3.996   9.272  0.5821  0.1358 -0.3824
  505MPD2    H7 7514   1.890   4.092   9.242 -0.6166  0.5127  0.5943
  506TMC3    C1 7515   1.896   3.960   9.040  0.6537 -0.9128  0.2940
  506TMC3    C2 7516   1.995   4.047   9.023 -0.2078 -0.7348  0.4481
  506TMC3    C3 7517   2.076   4.027   8.917 -0.5028 -0.0015 -0.2480
  506TMC3    C4 7518   1.888   3.855   8.950  0.1108  0.1921 -0.1575
  506TMC3    C5 7519   1.977   3.828   8.850 -0.5444  0.0223 -0.2301
  506TMC3    C6 7520   2.073   3.924   8.827 -0.0793  0.6079  0.0451
  506TMC3     C 7521   1.873   3.907   9.170  0.4050  0.1024  0.9274
  506TMC3     O 7522   1.848   3.789   9.176  0.1847  0.0426 -0.6141
  506TMC3     H 7523   2.003   4.139   9.079 -0.1925  0.5676 -1.7087
  506TMC3    H1 7524   1.811   3.779   8.961 -1.7160  1.9112 -1.0644
  506TMC3    H2 7525   2.137   3.916   8.740  1.0299 -1.0656  1.0098
  506TMC3    C7 7526   2.047   3.706   8.871  0.5878  0.2179  0.1578
  506TMC3    C8 7527   2.180   4.127   8.905 -0.6028  0.9020  0.1006
  506TMC3    O1 7528   2.156   3.691   8.818 -0.3697 -0.7444  0.0332
  506TMC3    O2 7529   2.228   4.149   8.791  0.0910 -0.3473  0.8228
  507TMC3    C1 7530   2.612   0.165  14.146 -0.2888 -0.4342 -0.2417
  507TMC3    C2 7531   2.689   0.086  14.058  0.7287 -0.2999 -0.0079
  507TMC3    C3 7532   2.824   0.101  14.072  0.3489  0.2627 -0.1305
  507TMC3    C4 7533   2.666   0.236  14.247  0.5766 -0.2293  0.2937
  507TMC3    C5 7534   2.802   0.228  14.262  0.2366 -0.1972  0.5680
  507TMC3    C6 7535   2.880   0.163  14.174  0.6094  0.4757  0.6541
  507TMC3     C 7536   2.474   0.198  14.114 -0.0986 -0.2591  0.1976
  507TMC3     O 7537   2.416   0.281  14.179 -0.5299 -0.3901  0.4061
  507TMC3     H 7538   2.637   0.050  13.970 -0.9270  0.4571  0.6571
  507TMC3    H1 7539   2.603   0.301  14.306 -1.0792 -0.6213 -1.0499
  507TMC3    H2 7540   2.988   0.168  14.188  0.7265  1.6642 -0.7182
  507TMC3    C7 7541   2.859   0.355  14.287  0.4270  0.3872 -0.7934
  507TMC3    C8 7542   2.889   0.136  13.948  0.8203 -0.1221 -0.0099
  507TMC3    O1 7543   2.796   0.448  14.237 -0.4771 -0.1273 -0.4084
  507TMC3    O2 7544   2.856   0.077  13.844 -0.3727 -0.3785  0.9479
  508MPD2     C 7545   3.304   2.576  15.648 -0.7533  0.1402  0.5549
  508MPD2    C1 7546   3.429   2.637  15.651 -0.6081  0.3402 -0.2236
  508MPD2    C2 7547   3.471   2.707  15.535 -0.2080 -0.3254 -0.2682
  508MPD2    C3 7548   3.400   2.706  15.419  0.1004  0.3986 -0.4068
  508MPD2    C4 7549   3.280   2.644  15.420 -0.1093 -0.6678 -0.6225
  508MPD2    C5 7550   3.234   2.580  15.532  0.5009  0.0127  0.0919
  508MPD2     H 7551   3.573   2.744  15.532 -0.9726  1.8981  1.8707
  508MPD2    H1 7552   3.227   2.647  15.325 -0.3985  2.3470 -0.3825
  508MPD2    H2 7553   3.266   2.519  15.732  3.1796 -1.2923  1.3544
  508MPD2    H3 7554   3.138   2.533  15.516  0.3487 -0.2703  1.8890
  508MPD2     N 7555   3.447   2.771  15.296 -0.3959 -0.2568  0.1439
  508MPD2    H5 7556   3.539   2.812  15.296  1.5933 -4.7129  1.6170
  508MPD2    N1 7557   3.514   2.620  15.771  0.5520 -0.5333  0.0501
  508MPD2    H7 7558   3.473   2.572  15.850 -2.1602  0.7539 -0.5930
  509TMC3    C1 7559   3.446   3.004  14.890 -0.5858 -0.5239  0.9356
  509TMC3    C2 7560   3.570   3.047  14.904  0.6560 -0.3672  0.9693
  509TMC3    C3 7561   3.636   3.001  15.014 -0.4621 -0.3821 -0.2097
  509TMC3    C4 7562   3.386   2.922  14.979 -0.0376 -0.3391  0.3133
  509TMC3    C5 7563   3.459   2.873  15.080 -0.4032  0.5468 -0.8148
  509TMC3    C6 7564   3.588   2.910  15.100  1.0263  0.0029 -0.9604
  509TMC3     C 7565   3.365   3.082  14.793 -0.0570  0.0799 -0.7146
  509TMC3     O 7566   3.258   3.031  14.764  0.0154  0.2778 -0.3696
  509TMC3     H 7567   3.625   3.097  14.824  0.6068  0.6470  1.5600
  509TMC3    H1 7568   3.286   2.888  14.954  0.6635 -3.0960  1.2902
  509TMC3    H2 7569   3.659   2.876  15.174  0.7854  1.2129 -0.1852
  509TMC3    C7 7570   3.385   2.788  15.173  1.0181 -0.2573  0.9540
  509TMC3    C8 7571   3.762   3.063  15.038 -0.3078  0.1302  0.1990
  509TMC3    O1 7572   3.268   2.764  15.144  0.1509 -0.0921  0.3655
  509TMC3    O2 7573   3.859   2.995  15.078  0.5308 -0.3717  0.4165
  510MPD2     C 7574   1.781   4.543  14.091  0.0240  0.3345  0.3659
  510MPD2    C1 7575   1.845   4.442  14.162  0.3746 -0.4345  0.5115
  510MPD2    C2 7576   1.964   4.387  14.117  0.7456 -0.4223  0.2131
  510MPD2    C3 7577   2.017   4.420  13.996 -0.2311  0.3500  0.0375
  510MPD2    C4 7578   1.948   4.520  13.923  0.0531  0.0008 -0.7807
  510MPD2    C5 7579   1.834   4.584  13.969  0.5920  1.2329  0.6889
  510MPD2     H 7580   2.026   4.330  14.186 -0.1727 -0.4992  0.9827
  510MPD2    H1 7581   1.975   4.561  13.827  0.7023 -0.3391 -0.7412
  510MPD2    H2 7582   1.684   4.579  14.124  0.0939 -0.0990  1.0569
  510MPD2    H3 7583   1.793   4.662  13.906 -0.9824  1.5724  2.1355
  510MPD2     N 7584   2.141   4.367  13.949 -0.8185  0.8645  0.1100
  510MPD2    H5 7585   2.183   4.296  14.009  0.2088 -0.9377 -2.7586
  510MPD2    N1 7586   1.799   4.394  14.286 -0.4089 -0.5109  0.5589
  510MPD2    H7 7587   1.851   4.320  14.331  2.5694  0.9067 -0.5994
  511TMC3    C1 7588   1.694   4.383  14.495  0.1605 -0.5170 -0.7773
  511TMC3    C2 7589   1.646   4.457  14.603  0.7629 -0.6597  0.1647
  511TMC3    C3 7590   1.600   4.384  14.708 -0.2952 -0.0897  0.0025
  511TMC3    C4 7591   1.685   4.245  14.483 -0.3758  0.1839 -0.3547
  511TMC3    C5 7592   1.644   4.180  14.599 -0.2496  0.0773 -0.3331
  511TMC3    C6 7593   1.596   4.250  14.709 -0.5216 -0.4721  0.0402
  511TMC3     C 7594   1.714   4.456  14.376 -0.4539 -0.1087  0.1828
  511TMC3     O 7595   1.681   4.574  14.370  0.3962 -0.4268  0.3457
  511TMC3     H 7596   1.656   4.563  14.622  0.3006 -0.4078 -1.0283
  511TMC3    H1 7597   1.724   4.197  14.394 -1.5599 -1.6044  0.0829
  511TMC3    H2 7598   1.577   4.197  14.802  0.6229  0.5138  0.8351
  511TMC3    C7 7599   1.590   4.050  14.566  0.6855  0.5248  0.1077
  511TMC3    C8 7600   1.510   4.457  14.797  0.0926  0.6455  0.3708
  511TMC3    O1 7601   1.602   4.016  14.454 -0.0344 -0.2748  0.3152
  511TMC3    O2 7602   1.540   4.574  14.822  0.0591 -0.0099  0.0371
  512TMC3    C1 7603   0.085   3.602  12.790 -0.7605  0.2120 -0.2634
  512TMC3    C2 7604   0.187   3.600  12.878  0.2941  0.2015 -0.0869
  512TMC3    C3 7605   0.269   3.494  12.860  0.5741  0.0834 -0.4886
  512TMC3    C4 7606   0.060   3.513  12.691 -0.4400  0.1807  0.0995
  512TMC3    C5 7607   0.146   3.406  12.683 -0.4007  0.7600 -0.8208
  512TMC3    C6 7608   0.254   3.397  12.765  0.0026  0.0292 -0.4044
  512TMC3     C 7609   4.720   3.718  12.804 -0.2814 -0.6360 -0.3556
  512TMC3     O 7610   0.003   3.787  12.907  0.0713  0.7419  0.3123
  512TMC3     H 7611   0.196   3.668  12.962  0.6185  0.4204 -0.2964
  512TMC3    H1 7612   4.688   3.506  12.645  0.1353 -0.2483 -1.0630
  512TMC3    H2 7613   0.313   3.307  12.768  0.0249  0.0224 -1.0538
  512TMC3    C7 7614   0.104   3.290  12.601  0.3306 -0.4188  0.4201
  512TMC3    C8 7615   0.370   3.464  12.961  0.0686  0.3925  0.2782
  512TMC3    O1 7616   0.032   3.320  12.507 -0.8005 -0.0543 -0.6295
  512TMC3    O2 7617   0.390   3.345  12.992 -0.3518  0.2494 -0.0118
  513MPD2     C 7618   1.966   3.153  13.463  0.1118  0.4425  0.0318
  513MPD2    C1 7619   1.946   3.087  13.343  0.3053 -0.1683  0.9254
  513MPD2    C2 7620   2.011   3.139  13.232 -0.1083  0.0086 -0.5441
  513MPD2    C3 7621   2.088   3.257  13.236 -0.4898 -0.3105  0.0942
  513MPD2    C4 7622   2.090   3.325  13.354  0.0786 -0.5281  0.5872
  513MPD2    C5 7623   2.038   3.270  13.461 -0.3406  0.8787 -0.3497
  513MPD2     H 7624   1.995   3.093  13.135 -1.2544  0.3988 -0.5414
  513MPD2    H1 7625   2.134   3.424  13.359  1.4659 -1.0307 -1.9438
  513MPD2    H2 7626   1.929   3.126  13.561  2.2529 -2.6234  0.0010
  513MPD2    H3 7627   2.049   3.314  13.559 -1.5425  0.2194  0.0778
  513MPD2     N 7628   2.133   3.308  13.111 -0.2496  0.1184  0.0776
  513MPD2    H5 7629   2.126   3.250  13.028  1.4989  1.6709 -1.1532
  513MPD2    N1 7630   1.859   2.973  13.350  0.2980  0.4195  0.1205
  513MPD2    H7 7631   1.814   2.964  13.441  3.4887  0.1508  1.6843
  514TMC3    C1 7632   1.753   2.784  13.265 -0.6364  0.4045  0.1316
  514TMC3    C2 7633   1.640   2.761  13.192  0.3306 -0.3042 -0.1072
  514TMC3    C3 7634   1.620   2.653  13.109 -1.4084 -0.1105  0.0879
  514TMC3    C4 7635   1.851   2.682  13.251 -0.0350  0.2086  0.2352
  514TMC3    C5 7636   1.836   2.574  13.171  0.4759 -0.8493 -0.2983
  514TMC3    C6 7637   1.721   2.563  13.096 -0.3464  0.1536 -0.1026
  514TMC3     C 7638   1.814   2.908  13.237 -0.7688  0.1838 -0.4771
  514TMC3     O 7639   1.848   2.920  13.121 -0.4287 -0.0996 -0.5914
  514TMC3     H 7640   1.562   2.835  13.201  0.4904 -0.5846  3.7004
  514TMC3    H1 7641   1.954   2.693  13.284  0.3198 -0.8394 -0.5558
  514TMC3    H2 7642   1.703   2.483  13.026  2.2811 -0.8273  0.3756
  514TMC3    C7 7643   1.945   2.559  13.079 -0.6400 -0.2443  0.6068
  514TMC3    C8 7644   1.548   2.690  12.989  0.3796 -0.2722 -0.5956
  514TMC3    O1 7645   2.008   2.454  13.074  0.0056 -0.5926 -0.1809
  514TMC3    O2 7646   1.433   2.732  12.989  0.2432  0.4775  0.1995
  515MPD2     C 7647   0.497   0.964  14.560  0.1291 -0.8636  0.0343
  515MPD2    C1 7648   0.529   0.829  14.567  0.3034  0.6215 -0.2364
  515MPD2    C2 7649   0.600   0.785  14.679  0.0234  0.3693 -0.2439
  515MPD2    C3 7650   0.650   0.868  14.778 -0.0093  0.0198 -0.4423
  515MPD2    C4 7651   0.617   1.000  14.765 -0.2605 -0.2487  0.0243
  515MPD2    C5 7652   0.544   1.049  14.658 -0.0348  0.0313  0.3300
  515MPD2     H 7653   0.625   0.679  14.684  4.0258  1.3614  0.5164
  515MPD2    H1 7654   0.659   1.076  14.831 -0.0605 -0.8729  0.6113
  515MPD2    H2 7655   0.445   1.012  14.478  2.1684  2.0313  0.4210
  515MPD2    H3 7656   0.521   1.155  14.655 -0.6141 -0.1149 -0.2838
  515MPD2     N 7657   0.714   0.825  14.888  0.1582 -0.1709 -0.0683
  515MPD2    H5 7658   0.762   0.901  14.935 -1.7697  0.4955  0.8013
  515MPD2    N1 7659   0.503   0.737  14.459 -0.3893  0.6606 -0.0923
  515MPD2    H7 7660   0.537   0.643  14.473 -1.0911  0.2636 -1.1023
  516TMC3    C1 7661   0.419   0.663  14.254  0.0563 -0.2411 -0.1451
  516TMC3    C2 7662   0.400   0.691  14.122  0.1981  0.3455  0.2295
  516TMC3    C3 7663   0.329   0.600  14.050 -0.2228 -0.4087 -0.0773
  516TMC3    C4 7664   0.378   0.546  14.312  0.1682  0.3831  0.3169
  516TMC3    C5 7665   0.304   0.459  14.235  0.1772 -0.3009  0.4303
  516TMC3    C6 7666   0.273   0.483  14.106  0.7959 -0.3329 -0.3756
  516TMC3     C 7667   0.431   0.770  14.345  0.0749  1.0800  0.4165
  516TMC3     O 7668   0.373   0.873  14.315  0.5051  0.5981  0.3840
  516TMC3     H 7669   0.425   0.787  14.077  0.5399 -0.0265 -0.3690
  516TMC3    H1 7670   0.409   0.529  14.415 -0.2710 -2.2826 -0.0009
  516TMC3    H2 7671   0.220   0.407  14.050 -1.8279 -0.0707  1.7403
  516TMC3    C7 7672   0.257   0.341  14.310 -0.5900 -0.5198 -0.9486
  516TMC3    C8 7673   0.276   0.633  13.918 -0.2264 -0.4072  0.0466
  516TMC3    O1 7674   0.275   0.354  14.432 -0.5606 -0.5859 -0.5082
  516TMC3    O2 7675   0.171   0.578  13.891 -0.0314  0.1617 -0.4468
  517MPD2     C 7676   4.238   2.236  17.281 -0.1767 -0.0527 -0.0725
  517MPD2    C1 7677   4.363   2.259  17.338 -0.2898 -0.0009 -0.1932
  517MPD2    C2 7678   4.386   2.380  17.396 -0.1929  0.1626 -0.5035
  517MPD2    C3 7679   4.285   2.477  17.401 -0.3113  0.0748 -0.6396
  517MPD2    C4 7680   4.167   2.457  17.336  0.3641 -0.3141 -0.6007
  517MPD2    C5 7681   4.137   2.331  17.285 -0.2747  0.3057  0.0998
  517MPD2     H 7682   4.482   2.395  17.444  0.1041 -0.7992 -0.7940
  517MPD2    H1 7683   4.086   2.529  17.334  0.5522 -0.1074 -0.7321
  517MPD2    H2 7684   4.201   2.143  17.239  1.0798 -0.7908  0.4559
  517MPD2    H3 7685   4.045   2.309  17.232  0.5714 -1.3993 -0.6763
  517MPD2     N 7686   4.296   2.597  17.477 -0.0534  0.0653 -0.1744
  517MPD2    H5 7687   4.222   2.665  17.462  0.4201  0.3337 -1.2763
  517MPD2    N1 7688   4.463   2.151  17.336  0.6552  0.4477 -0.5672
  517MPD2    H7 7689   4.560   2.172  17.360  1.6177 -2.7664 -1.6804
  518TMC3    C1 7690   4.544   1.931  17.311 -0.2013  0.4938  0.5311
  518TMC3    C2 7691   4.535   1.806  17.365  0.1444  0.2470 -0.6150
  518TMC3    C3 7692   4.645   1.730  17.345 -0.0940  0.0657  0.9927
  518TMC3    C4 7693   4.661   1.988  17.267 -0.1552  0.5001  0.1402
  518TMC3    C5 7694   0.047   1.903  17.263 -0.0066  0.4707  0.5280
  518TMC3    C6 7695   0.036   1.775  17.294  0.4844 -1.1050 -0.5307
  518TMC3     C 7696   4.432   2.018  17.311 -0.6305 -0.0909 -0.5363
  518TMC3     O 7697   4.325   1.958  17.321  0.1645  0.7556  0.0728
  518TMC3     H 7698   4.445   1.769  17.413  0.2255 -1.3153 -1.6560
  518TMC3    H1 7699   4.679   2.090  17.236 -0.9889 -0.0990 -2.3334
  518TMC3    H2 7700   0.120   1.712  17.319  0.2527 -1.2150 -0.0358
  518TMC3    C7 7701   0.168   1.966  17.223 -0.6687 -0.4466 -0.2299
  518TMC3    C8 7702   4.635   1.600  17.400 -0.5362 -0.4745 -0.0724
  518TMC3    O1 7703   0.180   2.088  17.237  0.5433  0.8475  0.1984
  518TMC3    O2 7704   4.550   1.574  17.488  0.0548  0.1590  0.1873
  519MPD2     C 7705   2.154   0.860  13.844 -0.0679  0.1838 -0.0363
  519MPD2    C1 7706   2.098   0.829  13.726  0.1114  0.6871  0.9811
  519MPD2    C2 7707   2.173   0.761  13.633 -0.0802  0.5119  0.2822
  519MPD2    C3 7708   2.298   0.709  13.658 -0.5769  1.2022  0.1876
  519MPD2    C4 7709   2.353   0.742  13.781  0.2819 -0.0823 -0.0665
  519MPD2    C5 7710   2.284   0.819  13.876 -0.2958  0.4699  0.2492
  519MPD2     H 7711   2.131   0.741  13.535  1.5384  1.9047 -0.6960
  519MPD2    H1 7712   2.455   0.712  13.802  0.2404 -0.5698 -0.5461
  519MPD2    H2 7713   2.098   0.915  13.919 -0.6226  1.1706 -1.1693
  519MPD2    H3 7714   2.325   0.841  13.974  1.1182 -0.6291 -0.0779
  519MPD2     N 7715   2.366   0.626  13.561  0.0836 -0.3971  0.2734
  519MPD2    H5 7716   2.448   0.580  13.597  0.5114  0.0612 -0.1171
  519MPD2    N1 7717   1.967   0.878  13.701 -0.7882 -0.1124 -0.0662
  519MPD2    H7 7718   1.912   0.925  13.773  0.6598 -1.0956  1.6736
  520TMC3    C1 7719   2.397   0.486  13.359  0.6398  0.1385  0.1038
  520TMC3    C2 7720   2.330   0.427  13.256  1.2109 -0.0781  0.4628
  520TMC3    C3 7721   2.389   0.316  13.203 -0.1299 -0.5268  0.6760
  520TMC3    C4 7722   2.526   0.449  13.392 -0.0219 -0.3612  0.5457
  520TMC3    C5 7723   2.590   0.346  13.323  0.1950 -0.5711 -0.0877
  520TMC3    C6 7724   2.512   0.272  13.231  0.2711 -0.2695  0.2523
  520TMC3     C 7725   2.323   0.592  13.429 -0.0557 -0.0372 -0.6567
  520TMC3     O 7726   2.227   0.635  13.370 -0.0218 -0.2082  0.4816
  520TMC3     H 7727   2.238   0.467  13.214  1.0035 -1.2830 -0.2055
  520TMC3    H1 7728   2.573   0.501  13.474  0.4718  0.6485 -0.3770
  520TMC3    H2 7729   2.545   0.179  13.187 -1.0680 -1.8872  2.6675
  520TMC3    C7 7730   2.698   0.280  13.394 -0.4545  0.3765  0.3732
  520TMC3    C8 7731   2.306   0.222  13.121 -0.6630  1.0600  0.5721
  520TMC3    O1 7732   2.721   0.315  13.509  0.6127 -0.2665  0.1610
  520TMC3    O2 7733   2.362   0.146  13.045 -0.0962 -0.3447 -0.1787
  521MPD2     C 7734   2.620   2.806  17.173 -0.4514 -0.2207  0.5458
  521MPD2    C1 7735   2.647   2.866  17.047 -0.6343  0.2607  0.0106
  521MPD2    C2 7736   2.778   2.892  17.007  0.3683 -0.0348 -0.3630
  521MPD2    C3 7737   2.885   2.855  17.080 -0.2363  0.4686  0.5679
  521MPD2    C4 7738   2.857   2.796  17.204 -0.2754 -1.2161  0.2114
  521MPD2    C5 7739   2.728   2.770  17.244 -0.2613 -1.3229 -0.6668
  521MPD2     H 7740   2.794   2.947  16.915  0.1763  1.9294  0.7856
  521MPD2    H1 7741   2.947   2.775  17.262 -1.5207 -1.5022  2.0496
  521MPD2    H2 7742   2.523   2.785  17.218 -1.3365  2.4531 -0.1022
  521MPD2    H3 7743   2.712   2.725  17.341  0.0068 -0.0473 -0.0406
  521MPD2     N 7744   3.013   2.890  17.028  0.6395  0.1489  0.3317
  521MPD2    H5 7745   3.023   2.917  16.931  1.1894  1.2565  0.7045
  521MPD2    N1 7746   2.528   2.892  16.976  0.0492  0.3260  0.2325
  521MPD2    H7 7747   2.439   2.866  17.015  0.1380  0.4124  0.4940
  522TMC3    C1 7748   3.247   2.861  16.990  0.0721  0.1566 -0.1854
  522TMC3    C2 7749   3.338   2.762  16.984 -0.1646  0.5203  0.0759
  522TMC3    C3 7750   3.438   2.775  16.895 -0.2700 -0.5885  0.4327
  522TMC3    C4 7751   3.256   2.980  16.922 -0.3428  0.1037 -0.3168
  522TMC3    C5 7752   3.359   2.990  16.832  0.2511  0.0181 -0.4004
  522TMC3    C6 7753   3.445   2.884  16.816  1.0112 -0.2691 -0.4496
  522TMC3     C 7754   3.135   2.853  17.087 -0.0105 -1.0181  0.8174
  522TMC3     O 7755   3.159   2.792  17.190 -0.9931  0.1131  0.0724
  522TMC3     H 7756   3.322   2.674  17.046  0.1026 -0.2684 -0.9666
  522TMC3    H1 7757   3.186   3.060  16.944 -1.4043 -0.4253 -1.7680
  522TMC3    H2 7758   3.518   2.899  16.737  0.8555 -1.5068 -0.8305
  522TMC3    C7 7759   3.383   3.109  16.753 -0.6044  0.1886 -1.3182
  522TMC3    C8 7760   3.515   2.661  16.866 -0.2080  0.1775  0.8443
  522TMC3    O1 7761   3.496   3.143  16.723  0.3322 -0.4920 -0.2545
  522TMC3    O2 7762   3.550   2.591  16.962  0.0117  0.4517 -0.4212
  523MPD2     C 7763   0.323   2.460   9.761  0.0850 -0.7223  0.4091
  523MPD2    C1 7764   0.383   2.415   9.644  0.1480 -0.5299 -0.2590
  523MPD2    C2 7765   0.403   2.505   9.537 -0.2023 -0.0805  0.2024
  523MPD2    C3 7766   0.373   2.640   9.555 -0.3815 -0.1516  0.2018
  523MPD2    C4 7767   0.319   2.683   9.672  0.0709 -0.0346  0.4831
  523MPD2    C5 7768   0.289   2.593   9.776 -0.1620 -0.6417 -0.1260
  523MPD2     H 7769   0.458   2.478   9.447 -0.2372  1.1028 -0.1781
  523MPD2    H1 7770   0.300   2.787   9.696 -0.1828  0.3381 -1.3535
  523MPD2    H2 7771   0.324   2.397   9.850 -2.4284  1.8449  2.2487
  523MPD2    H3 7772   0.251   2.631   9.870 -0.4607  0.4648 -0.7005
  523MPD2     N 7773   0.399   2.742   9.457 -0.2281 -0.3508  0.1801
  523MPD2    H5 7774   0.395   2.831   9.506  3.9117 -0.1024  0.0609
  523MPD2    N1 7775   0.409   2.276   9.633  0.5003 -0.1373  0.2707
  523MPD2    H7 7776   0.418   2.226   9.721 -0.9931  1.4712  1.3316
  524TMC3    C1 7777   0.475   2.833   9.261  0.2544  0.4402  0.1251
  524TMC3    C2 7778   0.449   2.828   9.127 -0.2316 -0.2741  1.0376
  524TMC3    C3 7779   0.407   2.942   9.066 -0.3424 -0.0406  0.3651
  524TMC3    C4 7780   0.492   2.945   9.332  0.5976  0.5160  0.0060
  524TMC3    C5 7781   0.473   3.055   9.259  0.1896 -0.4437 -0.9600
  524TMC3    C6 7782   0.426   3.063   9.126 -0.3962 -0.1520 -1.0028
  524TMC3     C 7783   0.441   2.716   9.329  0.0006 -0.1678  0.6820
  524TMC3     O 7784   0.425   2.615   9.259 -0.4316  0.4286  0.2421
  524TMC3     H 7785   0.403   2.741   9.082 -0.2932 -0.8572  2.2167
  524TMC3    H1 7786   0.516   2.941   9.438 -0.5443 -0.1970  0.2437
  524TMC3    H2 7787   0.396   3.148   9.066  0.9167  1.0720  0.0738
  524TMC3    C7 7788   0.531   3.175   9.321 -0.5599  0.8020  0.2299
  524TMC3    C8 7789   0.322   2.932   8.946 -0.4801 -0.3561  0.5023
  524TMC3    O1 7790   0.580   3.159   9.431 -0.3313  0.0984  0.0870
  524TMC3    O2 7791   0.247   3.024   8.924  0.2010  0.5464 -0.2677
  525MPD2     C 7792   3.267   4.669  14.082 -1.1226 -0.6579 -0.1113
  525MPD2    C1 7793   3.379   4.624  14.150 -0.0640  0.1998 -0.7965
  525MPD2    C2 7794   3.501   4.684  14.118  0.4263 -0.4901  0.1087
  525MPD2    C3 7795   3.507   0.058  14.023  0.0843  0.2797  0.2302
  525MPD2    C4 7796   3.400   0.085  13.945  0.1602 -0.2163 -0.2784
  525MPD2    C5 7797   3.274   0.034  13.977 -0.8167  0.5135  0.5538
  525MPD2     H 7798   3.598   4.648  14.151  0.1792 -2.9182 -1.8047
  525MPD2    H1 7799   3.400   0.170  13.879  2.5533 -0.5418 -0.6940
  525MPD2    H2 7800   3.166   4.636  14.108 -1.1340  0.2667  1.0618
  525MPD2    H3 7801   3.187   0.074  13.928 -0.5572 -0.8213 -0.9794
  525MPD2     N 7802   3.622   0.135  13.999  0.0169  0.3328 -0.1337
  525MPD2    H5 7803   3.615   0.226  13.955 -0.5393 -0.3644 -1.4720
  525MPD2    N1 7804   3.385   4.516  14.240 -0.2141  0.5128  0.1012
  525MPD2    H7 7805   3.475   4.470  14.252 -0.5054 -0.0838  0.0022
  526TMC3    C1 7806   3.317   4.394  14.435  0.1912 -0.3480 -0.0958
  526TMC3    C2 7807   3.211   4.331  14.502  0.2039 -0.4351  0.3966
  526TMC3    C3 7808   3.234   4.256  14.611 -0.8390  0.1127 -0.5048
  526TMC3    C4 7809   3.445   4.378  14.475 -0.4920  0.3680 -0.7152
  526TMC3    C5 7810   3.458   4.300  14.588  0.8158 -0.6576  0.8809
  526TMC3    C6 7811   3.355   4.239  14.655 -0.6818 -0.6638  0.0887
  526TMC3     C 7812   3.284   4.474  14.320  0.3267 -0.4150 -0.1482
  526TMC3     O 7813   3.167   4.497  14.307  0.0628  0.0748 -0.2720
  526TMC3     H 7814   3.110   4.342  14.464  0.3185 -1.1749 -0.1029
  526TMC3    H1 7815   3.524   4.446  14.444 -0.6658 -0.0646 -2.1142
  526TMC3    H2 7816   3.373   4.199  14.754 -1.8195 -0.5041  0.3556
  526TMC3    C7 7817   3.591   4.264  14.627 -0.2226  0.2001 -0.3285
  526TMC3    C8 7818   3.138   4.266  14.725  0.1979 -0.9594  0.1416
  526TMC3    O1 7819   3.605   4.225  14.744  0.1269 -0.2373  0.0505
  526TMC3    O2 7820   3.171   4.224  14.833 -0.0001 -0.0668 -0.2084
  527MPD2     C 7821   1.211   3.534   0.439 -0.2859  0.0554  0.3331
  527MPD2    C1 7822   1.199   3.443   0.543  0.1168 -0.1098 -0.5944
  527MPD2    C2 7823   1.303   3.355   0.564  0.1459  0.5301  0.9055
  527MPD2    C3 7824   1.415   3.348   0.482 -0.1569 -0.5128  0.0878
  527MPD2    C4 7825   1.433   3.447   0.387 -0.3812 -0.8012  0.0473
  527MPD2    C5 7826   1.325   3.533   0.361  0.0740  0.1911  0.6688
  527MPD2     H 7827   1.288   3.281   0.642 -0.2472  1.2907  1.5474
  527MPD2    H1 7828   1.512   3.453   0.313 -1.8949  0.1608 -1.4987
  527MPD2    H2 7829   1.129   3.604   0.428 -0.6748 -0.3958  0.3340
  527MPD2    H3 7830   1.339   3.603   0.280  0.6397 -1.0883 -0.3437
  527MPD2     N 7831   1.508   3.248   0.487  0.0939 -0.3959  0.2543
  527MPD2    H5 7832   1.596   3.258   0.437 -0.2211  1.7021  0.1396
  527MPD2    N1 7833   1.083   3.427   0.618  0.5137  0.1281  0.0350
  527MPD2    H7 7834   1.089   3.377   0.706  2.4384  0.7059  0.2355
  528TMC3    C1 7835   0.858   3.439   0.700 -0.4230  0.2944  0.3706
  528TMC3    C2 7836   0.897   3.398   0.825 -1.1565 -0.0955 -0.2252
  528TMC3    C3 7837   0.809   3.326   0.901 -0.5494 -0.0107  0.2984
  528TMC3    C4 7838   0.729   3.426   0.655 -0.8601 -0.3907 -0.6786
  528TMC3    C5 7839   0.647   3.357   0.740  0.5342  0.3180 -0.7543
  528TMC3    C6 7840   0.684   3.303   0.860 -0.2264 -0.7102  0.2009
  528TMC3     C 7841   0.952   3.476   0.590 -0.7420 -0.2773  0.5124
  528TMC3     O 7842   0.911   3.530   0.489 -0.4281  0.1039  0.5098
  528TMC3     H 7843   0.995   3.432   0.853 -1.1437 -0.1253 -0.2340
  528TMC3    H1 7844   0.688   3.475   0.567 -0.4720 -0.5945 -0.9693
  528TMC3    H2 7845   0.604   3.269   0.925  0.2090 -0.0099  1.1121
  528TMC3    C7 7846   0.504   3.371   0.735 -0.3375 -0.3318  0.3285
  528TMC3    C8 7847   0.867   3.272   1.025 -0.4450  0.8937 -0.2830
  528TMC3    O1 7848   0.431   3.291   0.789 -0.7462 -0.0347 -0.0929
  528TMC3    O2 7849   0.986   3.281   1.035 -0.1835 -0.0974  0.4754
  529MPD2     C 7850   3.219   1.703   0.279  0.6362 -0.0140 -0.2164
  529MPD2    C1 7851   3.198   1.566   0.302 -0.5020  0.2183 -0.7890
  529MPD2    C2 7852   3.105   1.505   0.216  0.2754 -0.1101 -0.1480
  529MPD2    C3 7853   3.042   1.574   0.114  0.4198 -0.2206  0.0672
  529MPD2    C4 7854   3.067   1.709   0.097 -0.4042  0.5080 -0.8341
  529MPD2    C5 7855   3.152   1.768   0.182  0.1176  0.1298 -0.3624
  529MPD2     H 7856   3.093   1.399   0.235  1.0119 -0.3314 -0.8871
  529MPD2    H1 7857   3.017   1.762   0.016 -1.3454  1.4016  0.3272
  529MPD2    H2 7858   3.297   1.750   0.338 -1.0548  2.9991 -0.3821
  529MPD2    H3 7859   3.181   1.871   0.165 -1.4693  0.1686 -2.8353
  529MPD2     N 7860   2.954   1.516   0.031 -0.2582 -0.2978  0.1934
  529MPD2    H5 7861   2.908   1.572  17.668 -0.9573  0.3197  1.1318
  529MPD2    N1 7862   3.261   1.495   0.404 -0.6871  0.5783 -0.1918
  529MPD2    H7 7863   3.241   1.397   0.417 -1.0800  0.6626 -0.1531
  530TMC3    C1 7864   3.399   1.441   0.586  0.7190 -0.5762  0.6159
  530TMC3    C2 7865   3.435   1.474   0.716  0.1270  0.1339 -0.7625
  530TMC3    C3 7866   3.482   1.380   0.802  0.5436 -0.5624 -0.2449
  530TMC3    C4 7867   3.423   1.317   0.544  0.1238 -0.5021  0.0194
  530TMC3    C5 7868   3.471   1.226   0.624  0.2080 -0.6026 -0.4237
  530TMC3    C6 7869   3.500   1.253   0.762 -0.4331  0.5565  0.3964
  530TMC3     C 7870   3.346   1.546   0.502  0.6244  0.2268  0.1829
  530TMC3     O 7871   3.385   1.662   0.525  0.4991  0.1357  0.0201
  530TMC3     H 7872   3.396   1.566   0.758  0.5620 -0.6192  1.3169
  530TMC3    H1 7873   3.394   1.287   0.444 -1.1642  0.7047  0.0357
  530TMC3    H2 7874   3.546   1.183   0.831  2.2748  2.1592  0.2211
  530TMC3    C7 7875   3.459   1.088   0.582 -1.5797  0.4262  0.0489
  530TMC3    C8 7876   3.499   1.419   0.945 -0.4863 -0.3560  0.6551
  530TMC3    O1 7877   3.454   1.068   0.461 -0.1394  0.4173 -0.3801
  530TMC3    O2 7878   3.454   1.527   0.983  0.1953  0.0737  0.0685
  531MPD2     C 7879   2.315   2.761  12.779 -0.7715 -0.4554 -0.2883
  531MPD2    C1 7880   2.251   2.864  12.837 -0.1937 -1.1552 -0.3023
  531MPD2    C2 7881   2.138   2.830  12.919  0.1744 -0.3176 -0.0654
  531MPD2    C3 7882   2.087   2.697  12.937  0.9091  0.3118  0.1880
  531MPD2    C4 7883   2.165   2.595  12.879 -0.2051  0.0252 -0.7626
  531MPD2    C5 7884   2.273   2.635  12.804  0.5104  0.0841 -0.4456
  531MPD2     H 7885   2.095   2.906  12.984  1.5780 -0.7642  1.3878
  531MPD2    H1 7886   2.146   2.489  12.893 -1.1505  0.0426 -1.9251
  531MPD2    H2 7887   2.404   2.773  12.719 -0.6677 -0.9204 -0.2274
  531MPD2    H3 7888   2.338   2.561  12.759  1.6765  1.7902 -1.5668
  531MPD2     N 7889   1.976   2.680  13.016 -0.0957  0.5060 -0.1267
  531MPD2    H5 7890   1.920   2.756  13.052 -0.2862 -0.5574  1.7967
  531MPD2    N1 7891   2.291   2.999  12.807  0.2636 -0.7408 -0.0438
  531MPD2    H7 7892   2.386   3.010  12.771  0.2348  1.3052  0.5075
  532TMC3    C1 7893   2.297   3.233  12.846  0.9302 -0.2802 -0.3979
  532TMC3    C2 7894   2.217   3.337  12.886  1.0012  1.2586 -0.0624
  532TMC3    C3 7895   2.265   3.433  12.967 -0.3827 -0.4411  1.1421
  532TMC3    C4 7896   2.434   3.224  12.884  0.1614 -0.1428  0.1361
  532TMC3    C5 7897   2.483   3.338  12.949 -0.6512 -0.4553  0.0089
  532TMC3    C6 7898   2.400   3.442  12.984 -0.3047 -0.5603  0.4115
  532TMC3     C 7899   2.225   3.108  12.855 -0.1772 -0.2075  0.1559
  532TMC3     O 7900   2.108   3.115  12.897 -0.0881 -0.1785 -0.3171
  532TMC3     H 7901   2.112   3.344  12.861 -0.1383 -4.3245  3.1662
  532TMC3    H1 7902   2.496   3.135  12.881  0.8224  0.3728 -1.7295
  532TMC3    H2 7903   2.443   3.518  13.048 -2.5833  0.1881  1.0485
  532TMC3    C7 7904   2.625   3.349  12.982 -0.0033  0.5360  0.0317
  532TMC3    C8 7905   2.204   3.432  13.097 -0.2354  0.2528 -0.2982
  532TMC3    O1 7906   2.669   3.458  13.022 -0.0286 -0.1815  0.3024
  532TMC3    O2 7907   2.264   3.497  13.180 -0.2866 -0.2601 -0.1178
  533TMC3    C1 7908   3.813   0.217  14.081 -0.3335  0.9038  0.1251
  533TMC3    C2 7909   3.945   0.196  14.113  0.2850 -1.0352 -0.5946
  533TMC3    C3 7910   4.000   0.259  14.221  0.2461 -0.0566 -0.3409
  533TMC3    C4 7911   3.737   0.303  14.157  0.3317 -0.1246  0.0242
  533TMC3    C5 7912   3.797   0.359  14.267  0.5641 -0.6154 -0.0530
  533TMC3    C6 7913   3.921   0.332  14.311 -0.1583 -0.1541  0.1926
  533TMC3     C 7914   3.745   0.097  14.048 -0.1417  0.1142 -0.5037
  533TMC3     O 7915   3.799   4.712  14.049 -0.1214  0.2812  0.0738
  533TMC3     H 7916   4.003   0.136  14.045 -0.9979 -3.0186  0.0582
  533TMC3    H1 7917   3.632   0.325  14.147  0.5824 -0.0943 -2.4070
  533TMC3    H2 7918   3.960   0.388  14.395  4.8548  1.0866 -2.9495
  533TMC3    C7 7919   3.710   0.352  14.383  0.6620 -0.3327 -0.4996
  533TMC3    C8 7920   4.146   0.278  14.210 -0.0712  0.3222  0.0651
  533TMC3    O1 7921   3.628   0.258  14.384  0.0561  1.4095  0.2243
  533TMC3    O2 7922   4.194   0.244  14.107  0.2273  0.3052 -0.2435
  534MPD2     C 7923   0.559   2.584   1.639  0.6134  0.1944  0.6843
  534MPD2    C1 7924   0.581   2.562   1.504 -0.0100 -0.3501  0.8816
  534MPD2    C2 7925   0.515   2.469   1.428  0.0954 -0.4631  0.5956
  534MPD2    C3 7926   0.412   2.406   1.489 -0.0889 -0.3687  0.4411
  534MPD2    C4 7927   0.368   2.448   1.620  0.0529 -0.0163  0.1372
  534MPD2    C5 7928   0.445   2.535   1.693  0.4202 -0.1333 -0.0904
  534MPD2     H 7929   0.551   2.439   1.330 -0.4200 -0.8184  0.5206
  534MPD2    H1 7930   0.284   2.402   1.671  0.4763 -3.5836 -2.4102
  534MPD2    H2 7931   0.613   2.662   1.691 -1.0062  0.9152  1.2607
  534MPD2    H3 7932   0.425   2.553   1.798  1.0488 -1.1588  0.1975
  534MPD2     N 7933   0.334   2.302   1.427  0.9155 -0.4480  0.6642
  534MPD2    H5 7934   0.272   2.250   1.488  0.0350  0.0465  0.1894
  534MPD2    N1 7935   0.689   2.634   1.436  1.0771 -0.0751 -0.1064
  534MPD2    H7 7936   0.700   2.605   1.340 -0.9559  2.2165 -1.0214
  535TMC3    C1 7937   0.257   2.129   1.295 -0.0010 -0.0292  0.7092
  535TMC3    C2 7938   0.147   2.108   1.381  0.3715  0.0282 -0.2008
  535TMC3    C3 7939   0.079   1.989   1.367  0.2353  0.1098  0.2365
  535TMC3    C4 7940   0.277   2.045   1.188  0.1698 -0.2291 -1.0185
  535TMC3    C5 7941   0.197   1.936   1.170 -0.0935 -0.2642  0.0627
  535TMC3    C6 7942   0.102   1.902   1.260  0.3100  0.1717 -0.9175
  535TMC3     C 7943   0.349   2.240   1.307  0.2536  0.0127 -0.1042
  535TMC3     O 7944   0.429   2.265   1.219  0.3281  0.1456 -0.4380
  535TMC3     H 7945   0.121   2.181   1.456  2.7903  1.1443 -0.4570
  535TMC3    H1 7946   0.362   2.060   1.123 -0.5945 -0.6241 -2.1051
  535TMC3    H2 7947   0.046   1.810   1.248 -0.6783  0.8816 -1.7992
  535TMC3    C7 7948   0.218   1.847   1.055 -0.7125 -0.0758  0.3493
  535TMC3    C8 7949   4.697   1.947   1.455  0.1007 -0.7624  0.1049
  535TMC3    O1 7950   0.329   1.849   1.002 -0.0441 -0.0847  0.8002
  535TMC3    O2 7951   4.655   1.835   1.429 -0.0763  0.4836 -0.2836
  536MPD2     C 7952   0.188   0.248  15.554 -0.3329 -0.1736 -0.0330
  536MPD2    C1 7953   0.078   0.182  15.601 -0.1378 -0.2018 -0.2679
  536MPD2    C2 7954   4.698   0.195  15.521 -0.3585 -0.2000 -0.0031
  536MPD2    C3 7955   4.698   0.244  15.390  0.1283  0.2340  0.3558
  536MPD2    C4 7956   0.093   0.285  15.336 -0.0112 -0.1659 -0.6175
  536MPD2    C5 7957   0.199   0.284  15.418 -0.1651  0.5629 -0.0663
  536MPD2     H 7958   4.598   0.163  15.551 -0.4256 -1.2718 -1.3587
  536MPD2    H1 7959   0.099   0.295  15.229 -1.9042 -0.1549 -0.7185
  536MPD2    H2 7960   0.279   0.253  15.613 -0.7336 -0.3013  0.5939
  536MPD2    H3 7961   0.293   0.323  15.380 -0.1362 -0.6658 -1.2513
  536MPD2     N 7962   4.583   0.257  15.308 -0.1781 -0.2205  0.5762
  536MPD2    H5 7963   4.596   0.270  15.208  0.2207  1.4564  0.8381
  536MPD2    N1 7964   0.069   0.111  15.724 -0.2454 -0.2385  0.6502
  536MPD2    H7 7965   0.152   0.109  15.782 -0.0306 -0.5618  0.3352
  537TMC3    C1 7966   4.712   4.689  15.889 -0.0683 -0.3569  0.0938
  537TMC3    C2 7967   0.069   0.016  15.984  0.1672  0.4136  0.2627
  537TMC3    C3 7968   0.089   4.674  16.101  0.0924 -0.3726  0.6406
  537TMC3    C4 7969   4.644   4.573  15.903  0.0150  0.2845 -0.2308
  537TMC3    C5 7970   4.683   4.493  16.010  0.1146 -0.9633  0.3382
  537TMC3    C6 7971   0.035   4.547  16.110  0.3914  0.3739 -0.3512
  537TMC3     C 7972   4.687   0.031  15.765 -0.1533 -0.8232 -0.3025
  537TMC3     O 7973   4.581   0.009  15.703  0.9093  0.2320  0.3303
  537TMC3     H 7974   0.115   0.112  15.962  1.0450 -0.1876 -0.5118
  537TMC3    H1 7975   4.591   4.536  15.816  0.0378  0.9693 -0.5277
  537TMC3    H2 7976   0.055   4.482  16.194  0.9738  0.2572 -0.5816
  537TMC3    C7 7977   4.593   4.378  16.035 -0.4685  0.1496  0.2358
  537TMC3    C8 7978   0.125   0.021  16.217 -0.5488 -0.1522  0.1408
  537TMC3    O1 7979   4.503   4.365  15.950  0.1541 -0.1208  0.4708
  537TMC3    O2 7980   0.150   4.677  16.316  0.3432  0.1651 -0.2677
  538TMC3    C1 7981   0.700   2.768  10.616  0.0502 -0.0074  0.0373
  538TMC3    C2 7982   0.770   2.713  10.512 -1.2865 -0.1252  0.5384
  538TMC3    C3 7983   0.714   2.722  10.392 -0.6266  0.1470  0.6328
  538TMC3    C4 7984   0.582   2.827  10.592 -1.1276 -0.0170 -0.0084
  538TMC3    C5 7985   0.537   2.838  10.465 -0.1666 -0.1761 -0.6262
  538TMC3    C6 7986   0.589   2.772  10.363  0.5774 -0.0238  0.2820
  538TMC3     C 7987   0.776   2.820  10.730  0.2487  0.6261  0.3783
  538TMC3     O 7988   0.707   2.882  10.811 -0.1412 -0.2802  0.1717
  538TMC3     H 7989   0.861   2.657  10.530 -0.1054  1.5510 -0.1561
  538TMC3    H1 7990   0.521   2.855  10.678 -3.3535 -0.1569 -1.5314
  538TMC3    H2 7991   0.547   2.767  10.263  1.1310 -1.5234  0.1275
  538TMC3    C7 7992   0.410   2.896  10.436  0.3690  0.0525 -0.3934
  538TMC3    C8 7993   0.779   2.657  10.277 -0.4175  0.2536  0.3588
  538TMC3    O1 7994   0.358   2.858  10.330  0.1983  0.3085 -0.0023
  538TMC3    O2 7995   0.820   2.541  10.290 -0.0905 -0.0386 -0.1958
  539MPD2     C 7996   1.112   1.929  11.149  0.4600 -0.3933  0.1997
  539MPD2    C1 7997   0.983   1.875  11.140  0.3403 -0.5987 -0.7381
  539MPD2    C2 7998   0.874   1.961  11.135 -1.2877 -1.3444  0.5969
  539MPD2    C3 7999   0.894   2.093  11.154  0.0081 -0.5393 -0.8484
  539MPD2    C4 8000   1.021   2.151  11.154 -0.0512  0.0714 -0.7305
  539MPD2    C5 8001   1.130   2.069  11.160  0.0044 -0.7314 -0.1977
  539MPD2     H 8002   0.771   1.929  11.122 -1.5995 -1.0093  2.2488
  539MPD2    H1 8003   1.026   2.259  11.148 -1.2509  0.1667  0.0272
  539MPD2    H2 8004   1.195   1.861  11.162  1.8418  0.9733 -1.4150
  539MPD2    H3 8005   1.228   2.114  11.152  0.0064 -0.4360  1.5949
  539MPD2     N 8006   0.788   2.184  11.162  0.4427  0.4897  0.3377
  539MPD2    H5 8007   0.806   2.283  11.154 -1.3167  0.8695  0.9828
  539MPD2    N1 8008   0.972   1.739  11.111 -0.1261  0.3751  0.0787
  539MPD2    H7 8009   1.055   1.685  11.133 -1.0357 -0.7949  0.5937
  540TMC3    C1 8010   0.557   2.250  11.173 -0.0606 -0.3673  0.3134
  540TMC3    C2 8011   0.571   2.336  11.071 -0.1600  0.4634 -0.0985
  540TMC3    C3 8012   0.461   2.406  11.031 -0.2876  0.6287 -0.9714
  540TMC3    C4 8013   0.439   2.239  11.236 -0.5606 -0.3530 -0.2610
  540TMC3    C5 8014   0.330   2.307  11.196 -0.1205 -0.0327 -0.2514
  540TMC3    C6 8015   0.344   2.400  11.099  0.0387  0.1435 -0.0800
  540TMC3     C 8016   0.661   2.152  11.195  0.0396 -0.1161  0.2781
  540TMC3     O 8017   0.618   2.051  11.246  0.1236 -0.5139  1.4570
  540TMC3     H 8018   0.656   2.349  11.006 -0.8177  0.5058 -0.9533
  540TMC3    H1 8019   0.425   2.165  11.314  1.0739 -0.9959 -0.5573
  540TMC3    H2 8020   0.267   2.473  11.072 -0.7998  0.2242  2.5158
  540TMC3    C7 8021   0.247   2.339  11.314  0.3691  0.4644  0.3495
  540TMC3    C8 8022   0.449   2.454  10.896 -0.0184  0.2819  0.1783
  540TMC3    O1 8023   0.184   2.243  11.363 -0.4267 -0.6662 -0.1273
  540TMC3    O2 8024   0.547   2.505  10.836  0.5122 -0.8438  0.0111
  541MPD2     C 8025   4.072   3.339  12.759 -0.1572 -0.1282  0.1612
  541MPD2    C1 8026   3.936   3.367  12.773 -0.1719  0.4178 -0.2036
  541MPD2    C2 8027   3.869   3.429  12.672 -0.2242 -0.0228 -0.0403
  541MPD2    C3 8028   3.930   3.474  12.556 -0.4893 -0.2501 -0.2549
  541MPD2    C4 8029   4.064   3.455  12.545 -0.4471  0.1845 -0.6022
  541MPD2    C5 8030   4.132   3.380  12.643 -0.7108  0.2654 -0.2110
  541MPD2     H 8031   3.763   3.449  12.679 -0.5638 -1.5686 -0.8859
  541MPD2    H1 8032   4.118   3.519  12.476 -1.2400  0.2964 -1.1143
  541MPD2    H2 8033   4.124   3.302  12.846  0.6307  0.7406  0.0525
  541MPD2    H3 8034   4.239   3.367  12.631 -0.3844  2.2381  0.4838
  541MPD2     N 8035   3.865   3.548  12.455  0.0031  1.2044  0.3573
  541MPD2    H5 8036   3.918   3.571  12.372 -1.0199  1.8137 -0.1261
  541MPD2    N1 8037   3.857   3.324  12.884  0.2126 -0.1601 -0.2545
  541MPD2    H7 8038   3.904   3.259  12.946 -2.6833 -0.0535  2.0304
  542TMC3    C1 8039   3.692   3.673  12.358 -0.0507  0.5318 -0.2474
  542TMC3    C2 8040   3.702   3.600  12.243 -0.4768 -0.3946 -0.0149
  542TMC3    C3 8041   3.663   3.657  12.124 -0.2907 -0.1476 -1.1393
  542TMC3    C4 8042   3.665   3.811  12.359  0.4787  0.0372 -0.1049
  542TMC3    C5 8043   3.636   3.859  12.233 -0.2782  0.2445  0.1018
  542TMC3    C6 8044   3.622   3.784  12.119 -0.0387 -0.3426  0.1269
  542TMC3     C 8045   3.747   3.610  12.476  0.4975  0.3387  0.3210
  542TMC3     O 8046   3.699   3.654  12.577  0.3723 -0.0163  0.4223
  542TMC3     H 8047   3.722   3.493  12.243  0.8634 -0.1582 -1.3595
  542TMC3    H1 8048   3.681   3.872  12.447 -0.1096 -2.9351  2.0671
  542TMC3    H2 8049   3.612   3.819  12.016 -2.8337  0.4952  0.6654
  542TMC3    C7 8050   3.644   4.001  12.212  0.0519 -0.2601 -0.4813
  542TMC3    C8 8051   3.712   3.592  11.995  0.8583 -0.6262 -0.0976
  542TMC3    O1 8052   3.710   4.058  12.296  0.5271  0.8164  0.2335
  542TMC3    O2 8053   3.649   3.611  11.892  0.4460 -0.6447  0.0201
  543TMC3    C1 8054   3.543   0.555  16.919 -0.2429 -0.5013 -0.2317
  543TMC3    C2 8055   3.527   0.438  16.984 -0.4620 -0.3897 -0.1577
  543TMC3    C3 8056   3.474   0.440  17.110  0.4275  0.3332  1.1153
  543TMC3    C4 8057   3.494   0.674  16.970 -0.0103  0.0602  0.0507
  543TMC3    C5 8058   3.427   0.666  17.089  0.4375  0.7364  0.2885
  543TMC3    C6 8059   3.406   0.548  17.156  0.4077 -0.2529  0.3091
  543TMC3     C 8060   3.546   0.544  16.776  0.2337 -0.1314 -0.5694
  543TMC3     O 8061   3.574   0.433  16.730  0.4152  0.0963 -0.1941
  543TMC3     H 8062   3.564   0.349  16.935  0.1186  0.6528 -1.6351
  543TMC3    H1 8063   3.515   0.768  16.921 -0.0440 -0.5026 -1.0556
  543TMC3    H2 8064   3.359   0.546  17.254 -1.6716  3.0312 -0.6241
  543TMC3    C7 8065   3.351   0.785  17.124  0.6043 -0.9185 -0.1620
  543TMC3    C8 8066   3.442   0.309  17.168 -0.5600 -0.1462  0.2938
  543TMC3    O1 8067   3.339   0.863  17.027 -0.5793 -0.2536  0.0987
  543TMC3    O2 8068   3.465   0.211  17.093  0.5655  0.2017 -0.2364
  544MPD2     C 8069   3.164   4.711  17.472 -0.6727  0.8257 -0.1509
  544MPD2    C1 8070   3.256   4.687  17.366 -0.1865  0.1042 -0.7109
  544MPD2    C2 8071   3.326   0.064  17.303 -0.3506 -1.0931 -0.2709
  544MPD2    C3 8072   3.314   0.194  17.355  0.0140 -0.3385 -0.2022
  544MPD2    C4 8073   3.234   0.215  17.467 -0.0359 -0.4457 -0.3950
  544MPD2    C5 8074   3.161   0.113  17.518 -0.3878 -0.4891 -0.8167
  544MPD2     H 8075   3.381   0.034  17.215  2.9929  1.7048  0.8951
  544MPD2    H1 8076   3.227   0.314  17.510 -0.5547 -1.2181  1.2742
  544MPD2    H2 8077   3.095   4.631  17.498  0.7444 -0.1449  0.6795
  544MPD2    H3 8078   3.103   0.131  17.608 -0.6666  0.4620 -1.1864
  544MPD2     N 8079   3.376   0.311  17.290  0.4727 -0.2360  0.7064
  544MPD2    H5 8080   3.358   0.404  17.328  0.5955 -0.0071  0.1994
  544MPD2    N1 8081   3.254   4.558  17.307 -0.2777 -0.2090  0.2637
  544MPD2    H7 8082   3.176   4.497  17.329 -0.9215  0.1620 -0.9765
  545TMC3    C1 8083   3.344   4.368  17.202 -0.9639 -0.3988 -0.5890
  545TMC3    C2 8084   3.218   4.334  17.148  0.1298 -0.2158  0.1398
  545TMC3    C3 8085   3.199   4.204  17.108  0.3479 -0.5751 -0.1874
  545TMC3    C4 8086   3.450   4.278  17.191  0.5356 -0.0956  0.2517
  545TMC3    C5 8087   3.426   4.153  17.143 -0.7414  0.1865 -0.4015
  545TMC3    C6 8088   3.303   4.111  17.109  0.4364 -0.2352  0.3305
  545TMC3     C 8089   3.359   4.500  17.241 -0.0441  0.1724  0.2529
  545TMC3     O 8090   3.470   4.547  17.234  0.0265 -0.9040  0.1995
  545TMC3     H 8091   3.147   4.415  17.133  2.2093  1.6487  0.3326
  545TMC3    H1 8092   3.548   4.317  17.214  1.5997 -3.4053  1.3951
  545TMC3    H2 8093   3.281   4.013  17.068  0.8378 -1.0864  2.1559
  545TMC3    C7 8094   3.525   4.090  17.057 -0.6320  0.0687 -0.3709
  545TMC3    C8 8095   3.070   4.160  17.050  0.7088  0.1665  0.5707
  545TMC3    O1 8096   3.483   4.039  16.953 -0.2544  0.7083 -0.8724
  545TMC3    O2 8097   3.058   4.045  17.009  0.0512 -0.1673  0.4604
  546MPD2     C 8098   0.141   0.165  17.191 -0.0430 -0.2546  0.2036
  546MPD2    C1 8099   0.101   0.209  17.066  0.0448  0.2524 -0.4860
  546MPD2    C2 8100   0.150   0.322  17.007 -0.2512 -0.5444 -0.2849
  546MPD2    C3 8101   0.232   0.399  17.082  0.0855 -0.3201  0.5786
  546MPD2    C4 8102   0.270   0.362  17.207  0.2466  0.1347 -0.5874
  546MPD2    C5 8103   0.228   0.244  17.264 -0.4088 -0.1299  0.1677
  546MPD2     H 8104   0.116   0.345  16.906 -1.3685 -0.6873  0.0634
  546MPD2    H1 8105   0.329   0.428  17.269 -0.5423  0.6746 -0.4059
  546MPD2    H2 8106   0.102   0.076  17.240  1.4054 -1.9837 -1.7377
  546MPD2    H3 8107   0.262   0.219  17.364 -0.8854  1.6698  0.7695
  546MPD2     N 8108   0.286   0.522  17.033  0.7703 -0.0446 -0.2693
  546MPD2    H5 8109   0.343   0.569  17.102  1.1543 -0.9359  0.0249
  546MPD2    N1 8110   4.721   0.135  17.017 -0.0617  0.3401 -0.1700
  546MPD2    H7 8111   4.688   0.057  17.072  1.0408 -1.3125 -1.8315
  547TMC3    C1 8112   4.547   0.057  16.875  0.0184 -0.1640 -0.3836
  547TMC3    C2 8113   4.504   0.039  16.753  0.6116  0.1469 -0.4294
  547TMC3    C3 8114   4.380   4.720  16.727 -0.1365 -0.3107 -0.0113
  547TMC3    C4 8115   4.467   0.028  16.983 -0.0955  0.4412  0.1040
  547TMC3    C5 8116   4.342   4.701  16.956  0.4103  0.0065  0.3896
  547TMC3    C6 8117   4.299   4.690  16.831  0.4287  0.0130 -0.3524
  547TMC3     C 8118   4.654   0.148  16.896  0.2610  0.0195 -0.7801
  547TMC3     O 8119   4.685   0.215  16.796  0.1900 -0.6152  0.2399
  547TMC3     H 8120   4.567   0.070  16.670 -0.9728 -1.2571 -2.1430
  547TMC3    H1 8121   4.505   0.031  17.084 -1.5007  1.4559  0.5881
  547TMC3    H2 8122   4.198   4.661  16.804  0.9244  1.1285 -3.4423
  547TMC3    C7 8123   4.257   4.677  17.071 -0.7414  0.5945  0.1204
  547TMC3    C8 8124   4.322   0.024  16.600 -0.0525  0.4863 -0.8371
  547TMC3    O1 8125   4.294   4.712  17.187  1.0208 -0.7047  0.5599
  547TMC3    O2 8126   4.201   0.047  16.599 -0.1655  0.6881  0.1327
  548MPD2     C 8127   0.070   0.633  12.251  0.0882 -0.5568 -0.0082
  548MPD2    C1 8128   0.013   0.550  12.169  0.3981 -0.4582  0.2166
  548MPD2    C2 8129   0.096   0.468  12.094  0.3274 -0.1934  0.2847
  548MPD2    C3 8130   0.230   0.491  12.080  0.1507  0.2541 -0.5124
  548MPD2    C4 8131   0.288   0.589  12.158 -0.3598  0.3119 -0.2574
  548MPD2    C5 8132   0.209   0.652  12.249 -0.2112 -0.9729  0.7276
  548MPD2     H 8133   0.047   0.390  12.035  0.0444  0.2523 -0.0706
  548MPD2    H1 8134   0.395   0.604  12.156 -0.3742  0.3076 -1.0058
  548MPD2    H2 8135   0.013   0.683  12.328  3.2968  1.1112  1.2352
  548MPD2    H3 8136   0.257   0.727  12.311  0.3184 -0.8302  0.1329
  548MPD2     N 8137   0.297   0.416  11.975  0.0515  0.4558  0.3437
  548MPD2    H5 8138   0.246   0.344  11.924  3.4888  0.7445 -3.5369
  548MPD2    N1 8139   4.600   0.553  12.183 -0.5088  0.3223  0.5026
  548MPD2    H7 8140   4.571   0.600  12.268  1.0151  0.2746  1.0460
  549TMC3    C1 8141   4.381   0.515  12.117  0.2812 -0.0947  0.1773
  549TMC3    C2 8142   4.348   0.643  12.151 -0.0466 -0.2027  0.5123
  549TMC3    C3 8143   4.217   0.674  12.147  0.7496  0.0923 -0.0410
  549TMC3    C4 8144   4.283   0.425  12.065  0.2142 -0.8392 -0.3754
  549TMC3    C5 8145   4.153   0.464  12.062 -1.0021 -0.0316  0.4385
  549TMC3    C6 8146   4.119   0.591  12.105 -0.2660 -0.0631 -0.5743
  549TMC3     C 8147   4.520   0.485  12.103 -0.0493  0.5517  0.0928
  549TMC3     O 8148   4.542   0.394  12.028  0.1057  0.0028 -0.2865
  549TMC3     H 8149   4.423   0.714  12.182 -1.2424  0.9834  0.7116
  549TMC3    H1 8150   4.313   0.320  12.057  1.1985 -0.5866 -0.0133
  549TMC3    H2 8151   4.015   0.618  12.112 -0.4254 -0.5090 -1.1832
  549TMC3    C7 8152   4.051   0.383  11.994 -0.5991 -0.1126  0.2308
  549TMC3    C8 8153   4.184   0.810  12.175  0.5224 -0.1577 -0.2077
  549TMC3    O1 8154   3.952   0.437  11.950 -0.6907  0.3039  0.1245
  549TMC3    O2 8155   4.267   0.873  12.236  0.7958  0.3146  0.0080
  550TMC3    C1 8156   3.079   2.958  12.481 -0.7061 -0.3857  0.0462
  550TMC3    C2 8157   3.108   3.033  12.588 -0.2036 -0.5954 -0.3719
  550TMC3    C3 8158   3.017   3.119  12.638 -0.4487  0.1855 -0.2699
  550TMC3    C4 8159   2.951   2.961  12.425 -0.7050  0.0223  0.0609
  550TMC3    C5 8160   2.860   3.030  12.488 -0.4589 -0.4964  0.0165
  550TMC3    C6 8161   2.889   3.119  12.591 -0.4739  0.0076  0.4856
  550TMC3     C 8162   3.190   2.926  12.400 -0.2802 -0.2228  0.1075
  550TMC3     O 8163   3.291   2.889  12.457  0.5463 -0.5737 -0.6794
  550TMC3     H 8164   3.212   3.031  12.617 -1.6240 -1.4778  4.6918
  550TMC3    H1 8165   2.923   2.897  12.342 -0.6584 -1.0066  0.8344
  550TMC3    H2 8166   2.812   3.174  12.643 -0.2070 -1.3817  2.3456
  550TMC3    C7 8167   2.718   3.013  12.447  0.1017 -0.0222  0.2933
  550TMC3    C8 8168   3.061   3.224  12.720 -0.2080 -0.8309 -0.7607
  550TMC3    O1 8169   2.680   2.897  12.406  1.1083 -0.0381  0.2130
  550TMC3    O2 8170   3.165   3.220  12.782 -0.0487  0.2395  0.2487
  551TMC3    C1 8171   1.087   1.121  12.953 -0.2925  0.3231 -0.6791
  551TMC3    C2 8172   1.200   1.157  12.895  0.1472  0.6820  0.3529
  551TMC3    C3 8173   1.250   1.282  12.908  0.8792  0.5314 -0.0282
  551TMC3    C4 8174   1.038   1.213  13.047 -0.0319 -0.5526 -0.0695
  551TMC3    C5 8175   1.082   1.345  13.067 -0.6672  0.0213  0.2785
  551TMC3    C6 8176   1.188   1.379  12.985  0.3553  0.1779  0.1071
  551TMC3     C 8177   0.997   1.047  12.871 -0.1845 -0.1224  0.8326
  551TMC3     O 8178   1.035   0.972  12.786 -0.5327 -0.0277  0.2220
  551TMC3     H 8179   1.262   1.090  12.837 -0.5881 -1.0984  1.6430
  551TMC3    H1 8180   0.952   1.183  13.106 -0.6791 -1.3962 -1.4432
  551TMC3    H2 8181   1.230   1.475  13.012 -1.0912  0.7150  0.4673
  551TMC3    C7 8182   1.064   1.395  13.202  0.6070  0.8045  0.1416
  551TMC3    C8 8183   1.343   1.321  12.806  0.3494 -0.1289 -0.0612
  551TMC3    O1 8184   1.105   1.321  13.292 -0.0290 -0.3378 -0.1135
  551TMC3    O2 8185   1.413   1.232  12.762 -0.3132 -0.0512  0.3548
  552MPD2     C 8186   2.982   3.490  13.409  0.2519 -0.3539  0.0806
  552MPD2    C1 8187   2.944   3.419  13.520  0.0656 -0.1627  0.1602
  552MPD2    C2 8188   3.032   3.395  13.622 -0.0629  0.1929  0.1647
  552MPD2    C3 8189   3.161   3.441  13.609 -0.0797 -0.2936  0.3584
  552MPD2    C4 8190   3.203   3.505  13.495  0.2551  0.2627 -0.3718
  552MPD2    C5 8191   3.110   3.536  13.400  0.7287  0.9480  0.1838
  552MPD2     H 8192   2.993   3.331  13.700 -0.2398  0.6215  0.4250
  552MPD2    H1 8193   3.305   3.540  13.493  0.5627 -0.6236 -0.3309
  552MPD2    H2 8194   2.917   3.514  13.326 -1.5759 -0.8814  1.3698
  552MPD2    H3 8195   3.154   3.573  13.308 -0.2183 -1.9856 -1.4576
  552MPD2     N 8196   3.258   3.430  13.705  0.5691 -0.1622 -0.1569
  552MPD2    H5 8197   3.351   3.465  13.683 -0.4483  0.5949 -3.1888
  552MPD2    N1 8198   2.810   3.377  13.534 -0.4448  0.3698 -0.3265
  552MPD2    H7 8199   2.786   3.324  13.617 -1.9792 -2.4792 -2.6015
  553TMC3    C1 8200   2.598   3.308  13.462 -0.0755 -0.4710 -0.1532
  553TMC3    C2 8201   2.530   3.276  13.352  0.1157 -0.0759 -0.4303
  553TMC3    C3 8202   2.414   3.210  13.366  0.5722  0.6903  0.1817
  553TMC3    C4 8203   2.571   3.269  13.588  0.0298  0.0393 -0.0088
  553TMC3    C5 8204   2.447   3.216  13.598 -0.5711  0.4607 -1.0184
  553TMC3    C6 8205   2.368   3.187  13.491  0.4070 -0.4167  1.2228
  553TMC3     C 8206   2.713   3.391  13.441  0.0584  0.2300 -0.7847
  553TMC3     O 8207   2.716   3.454  13.340 -0.1732 -0.5295 -0.1192
  553TMC3     H 8208   2.566   3.296  13.252 -0.5900 -2.2395 -1.1223
  553TMC3    H1 8209   2.628   3.294  13.677  1.9026 -0.1845 -1.1626
  553TMC3    H2 8210   2.265   3.159  13.511  0.5532 -1.8668 -0.1084
  553TMC3    C7 8211   2.429   3.122  13.716 -0.1504 -0.4254 -0.5682
  553TMC3    C8 8212   2.406   3.093  13.276  0.2438  0.0580 -0.1422
  553TMC3    O1 8213   2.325   3.055  13.711 -0.0345 -0.4593  0.1404
  553TMC3    O2 8214   2.480   3.091  13.178  0.0513  0.5425  0.0445
  554TMC3    C1 8215   4.406   1.861  11.251  0.1350 -0.3003 -0.0008
  554TMC3    C2 8216   4.349   1.792  11.148 -1.0681  0.1993 -0.6586
  554TMC3    C3 8217   4.350   1.841  11.019  0.5982  0.3571  0.0509
  554TMC3    C4 8218   4.471   1.985  11.231 -0.4704  0.3814 -0.0353
  554TMC3    C5 8219   4.482   2.018  11.105  0.0166 -0.3034  0.3010
  554TMC3    C6 8220   4.414   1.963  11.000  0.6646 -0.5081 -0.2662
  554TMC3     C 8221   4.416   1.807  11.390 -0.0880  0.0267 -1.2414
  554TMC3     O 8222   4.333   1.723  11.421 -0.0827  0.3998  0.0871
  554TMC3     H 8223   4.294   1.699  11.164 -1.9352  0.3987 -2.5006
  554TMC3    H1 8224   4.503   2.050  11.312 -0.9325  0.8031 -0.1877
  554TMC3    H2 8225   4.429   1.994  10.897 -1.9682  1.1703 -0.1429
  554TMC3    C7 8226   4.580   2.114  11.061  0.4454  0.2509 -0.1987
  554TMC3    C8 8227   4.339   1.758  10.894  0.2990 -0.0208 -0.6306
  554TMC3    O1 8228   4.625   2.095  10.948  0.5633  0.2638  0.4932
  554TMC3    O2 8229   4.418   1.799  10.811  0.0192  0.2540  0.0684
  555TMC3    C1 8230   3.671   1.528  14.600  0.1709  0.9075 -0.2837
  555TMC3    C2 8231   3.612   1.632  14.671 -0.7193  0.0908  0.0130
  555TMC3    C3 8232   3.626   1.629  14.810  0.1746 -0.2043 -0.7072
  555TMC3    C4 8233   3.735   1.426  14.673  0.3806 -0.8031  0.3162
  555TMC3    C5 8234   3.743   1.429  14.811 -0.2424 -0.0703  0.9899
  555TMC3    C6 8235   3.698   1.533  14.882 -1.1866 -0.2461  0.3060
  555TMC3     C 8236   3.666   1.503  14.452  0.2282 -0.2065  1.0528
  555TMC3     O 8237   3.711   1.396  14.413  0.0758 -0.4069  0.6728
  555TMC3     H 8238   3.541   1.703  14.630  1.6546  1.7897 -1.1453
  555TMC3    H1 8239   3.767   1.342  14.613  0.7307  0.7162 -1.6256
  555TMC3    H2 8240   3.703   1.542  14.990 -0.7269 -0.8034  0.3352
  555TMC3    C7 8241   3.772   1.311  14.885 -0.7033 -0.7300  0.1880
  555TMC3    C8 8242   3.568   1.743  14.880  0.7082  0.3493  0.3271
  555TMC3    O1 8243   3.734   1.308  15.000 -0.1237  0.0668 -0.6151
  555TMC3    O2 8244   3.469   1.794  14.833  0.0559  0.1797 -0.7099
  556MPD2     C 8245   1.511   3.691   9.722  0.4309  0.2049 -0.3102
  556MPD2    C1 8246   1.513   3.572   9.785  0.6444  0.4652  0.8452
  556MPD2    C2 8247   1.422   3.478   9.737  0.2234 -0.3256  0.3416
  556MPD2    C3 8248   1.332   3.508   9.643 -0.1591 -0.0222  0.2236
  556MPD2    C4 8249   1.333   3.630   9.579 -0.1366 -0.4068 -0.5972
  556MPD2    C5 8250   1.433   3.716   9.618 -0.4819 -0.2661  0.1488
  556MPD2     H 8251   1.420   3.378   9.777  3.2547 -0.3321  0.4642
  556MPD2    H1 8252   1.265   3.658   9.499 -0.7474 -0.4045 -0.0782
  556MPD2    H2 8253   1.558   3.783   9.755  1.9992 -1.1737  1.3102
  556MPD2    H3 8254   1.435   3.815   9.575 -2.1143  0.7489  2.3766
  556MPD2     N 8255   1.226   3.412   9.624 -0.3207 -0.1663  0.2657
  556MPD2    H5 8256   1.230   3.328   9.681 -1.6484  0.2983  1.0521
  556MPD2    N1 8257   1.593   3.538   9.896  0.8020  0.2562 -0.0161
  556MPD2    H7 8258   1.585   3.445   9.936  0.1679  0.6319  0.7165
  557TMC3    C1 8259   1.020   3.323   9.550 -0.0010 -0.1225  0.2816
  557TMC3    C2 8260   0.962   3.288   9.432 -0.1888 -0.2835  0.8110
  557TMC3    C3 8261   0.910   3.163   9.423  0.0012  0.1202 -0.0390
  557TMC3    C4 8262   1.031   3.238   9.661 -0.3385 -0.2128 -0.0911
  557TMC3    C5 8263   0.970   3.114   9.646  0.3473 -0.7432 -0.6073
  557TMC3    C6 8264   0.908   3.079   9.529 -0.2947 -0.2992  0.2873
  557TMC3     C 8265   1.121   3.431   9.537 -0.3966  0.0894  0.1585
  557TMC3     O 8266   1.100   3.526   9.460 -0.1647 -0.6145 -0.1599
  557TMC3     H 8267   0.960   3.357   9.348 -2.1754  0.1390  1.1847
  557TMC3    H1 8268   1.054   3.282   9.757 -0.5623  2.5513 -1.2936
  557TMC3    H2 8269   0.859   2.983   9.524  1.8279 -1.2883 -1.5701
  557TMC3    C7 8270   0.967   3.036   9.768 -0.2728  0.3738 -0.1309
  557TMC3    C8 8271   0.861   3.117   9.291  0.3207  0.0879  0.2801
  557TMC3    O1 8272   0.984   3.091   9.874 -0.1116  0.0552 -0.9297
  557TMC3    O2 8273   0.838   3.205   9.207 -0.3743 -0.1776 -0.2699
  558TMC3    C1 8274   4.234   0.682   9.374  0.1188  0.3868 -0.7406
  558TMC3    C2 8275   4.159   0.648   9.488  0.5009 -0.8198 -0.9299
  558TMC3    C3 8276   4.030   0.685   9.490  0.4538  0.1558 -0.0099
  558TMC3    C4 8277   4.190   0.770   9.281 -0.1258  0.3398 -0.4282
  558TMC3    C5 8278   4.058   0.803   9.286 -0.2346  1.1082 -0.5160
  558TMC3    C6 8279   3.977   0.766   9.387  0.5312  0.2395 -0.0433
  558TMC3     C 8280   4.375   0.678   9.404  0.0553  0.3186  0.4090
  558TMC3     O 8281   4.409   0.681   9.521 -0.1903 -0.2011  0.4584
  558TMC3     H 8282   4.202   0.576   9.556  0.9371  0.2953 -0.0296
  558TMC3    H1 8283   4.258   0.799   9.201  0.6138  0.3637  0.2105
  558TMC3    H2 8284   3.884   0.820   9.403 -0.0539 -0.9807  0.6496
  558TMC3    C7 8285   4.011   0.891   9.170 -0.5401 -0.4982  0.3451
  558TMC3    C8 8286   3.979   0.702   9.621  0.0804 -0.1054 -0.2358
  558TMC3    O1 8287   4.100   0.945   9.101  0.1189  0.5753  0.0388
  558TMC3    O2 8288   3.882   0.778   9.632  0.3522 -0.1817  0.3284
  559MPD2     C 8289   4.173   1.245  10.245 -0.5065  0.0474 -0.0493
  559MPD2    C1 8290   4.106   1.214  10.361  0.2466 -0.0123 -0.1904
  559MPD2    C2 8291   4.176   1.230  10.475 -0.2193 -0.6184  0.4826
  559MPD2    C3 8292   4.306   1.282  10.479  0.4411  0.0219  0.1412
  559MPD2    C4 8293   4.366   1.309  10.360  0.0081  0.2460  0.0434
  559MPD2    C5 8294   4.293   1.296  10.247  0.5737 -0.4337 -0.2595
  559MPD2     H 8295   4.120   1.202  10.563 -1.9542 -1.2484 -0.7976
  559MPD2    H1 8296   4.463   1.356  10.353  1.3698 -2.8458 -1.9585
  559MPD2    H2 8297   4.118   1.252  10.152 -0.0083 -0.6335 -0.3939
  559MPD2    H3 8298   4.344   1.329  10.157  1.4276  0.0845  0.4179
  559MPD2     N 8299   4.369   1.275  10.606 -0.4882 -0.5363  0.7681
  559MPD2    H5 8300   4.318   1.239  10.685  1.0863  1.9107  2.8803
  559MPD2    N1 8301   3.968   1.184  10.363 -0.2591  0.0530  0.0545
  559MPD2    H7 8302   3.934   1.192  10.458 -0.4363 -0.5048  0.0362
  560TMC3    C1 8303   4.545   1.304  10.754 -0.2964 -1.0911 -0.7364
  560TMC3    C2 8304   4.496   1.189  10.812 -0.3909 -0.2460 -0.2475
  560TMC3    C3 8305   4.565   1.124  10.912 -0.3153 -0.6032 -0.2126
  560TMC3    C4 8306   4.662   1.364  10.795 -0.2124  0.3305 -0.3703
  560TMC3    C5 8307   0.000   1.296  10.903 -0.0784  0.3596 -0.1378
  560TMC3    C6 8308   4.680   1.179  10.959  0.3913  0.3011 -0.0388
  560TMC3     C 8309   4.493   1.327  10.619 -0.3190 -0.4177 -0.9565
  560TMC3     O 8310   4.554   1.399  10.543 -0.6113  0.2373  0.3251
  560TMC3     H 8311   4.402   1.143  10.783  0.7324 -2.7490  0.0897
  560TMC3    H1 8312   4.713   1.437  10.733  2.9606  0.0517  1.9067
  560TMC3    H2 8313   4.715   1.144  11.055 -0.6996 -0.4663  0.0810
  560TMC3    C7 8314   0.122   1.355  10.967 -0.1470  0.0685  0.0832
  560TMC3    C8 8315   4.564   0.983  10.885  0.2700  0.2987 -0.7861
  560TMC3    O1 8316   0.186   1.287  11.043  0.2167 -0.4269  0.0773
  560TMC3    O2 8317   4.458   0.923  10.865 -0.0086 -0.2920 -0.1377
  561TMC3    C1 8318   2.239   0.528  11.000  0.1327  0.7787  0.8778
  561TMC3    C2 8319   2.262   0.515  11.138  0.0165 -0.0031  0.0114
  561TMC3    C3 8320   2.179   0.594  11.213  0.2148  0.0492  1.3502
  561TMC3    C4 8321   2.145   0.608  10.942  0.1320  0.2995  0.2663
  561TMC3    C5 8322   2.071   0.684  11.029 -0.1875  0.1730 -0.1157
  561TMC3    C6 8323   2.080   0.677  11.163 -0.2948  0.1121 -0.1324
  561TMC3     C 8324   2.331   0.458  10.909  0.3111 -0.6960  0.1696
  561TMC3     O 8325   2.283   0.427  10.803  0.6581  0.0433  0.1976
  561TMC3     H 8326   2.319   0.437  11.188  0.1085  1.5328  2.2722
  561TMC3    H1 8327   2.133   0.599  10.835  0.9265  0.6818  0.1475
  561TMC3    H2 8328   2.022   0.749  11.220  2.0972  1.9613 -0.0165
  561TMC3    C7 8329   1.995   0.788  10.971  0.0187  0.3086 -0.3998
  561TMC3    C8 8330   2.173   0.563  11.356 -0.0591 -0.1516 -0.0250
  561TMC3    O1 8331   1.905   0.838  11.042 -0.0242 -0.1293 -0.0355
  561TMC3    O2 8332   2.266   0.502  11.399 -0.6378  0.2337 -0.4313
  562TMC3    C1 8333   3.869   2.406  15.708 -0.2751 -0.1135 -0.0672
  562TMC3    C2 8334   3.820   2.438  15.587 -0.6149  0.3764 -0.1232
  562TMC3    C3 8335   3.699   2.383  15.554 -0.3676  0.4788 -0.8816
  562TMC3    C4 8336   3.802   2.334  15.802 -0.2138  0.1706  0.4125
  562TMC3    C5 8337   3.677   2.282  15.762  0.3654  0.1049  0.5273
  562TMC3    C6 8338   3.616   2.312  15.643 -1.2115  0.0246 -0.1337
  562TMC3     C 8339   4.003   2.445  15.744 -0.1916 -0.1995 -0.0294
  562TMC3     O 8340   4.048   2.552  15.710  0.1848 -0.5109  0.5683
  562TMC3     H 8341   3.865   2.519  15.531  0.4529  0.6977  1.1985
  562TMC3    H1 8342   3.830   2.346  15.906 -0.6587  1.9743  0.3210
  562TMC3    H2 8343   3.510   2.301  15.625 -0.9924 -0.1707 -1.2740
  562TMC3    C7 8344   3.580   2.256  15.866  0.2236  1.2452  0.1869
  562TMC3    C8 8345   3.668   2.407  15.412  0.5116 -0.8158  0.3246
  562TMC3    O1 8346   3.478   2.323  15.872  0.3711 -0.0914  0.3351
  562TMC3    O2 8347   3.754   2.471  15.347  0.1872 -0.1999  0.0778
  563MPD2     C 8348   1.381   3.595  15.217 -0.0925  0.6389 -0.0940
  563MPD2    C1 8349   1.359   3.527  15.336  0.2923  0.1199 -0.0292
  563MPD2    C2 8350   1.458   3.439  15.378 -0.8127  0.7814  0.2540
  563MPD2    C3 8351   1.575   3.422  15.299 -0.0011 -0.2142 -0.2118
  563MPD2    C4 8352   1.599   3.492  15.189  1.0048  0.1055  0.2670
  563MPD2    C5 8353   1.499   3.573  15.141  0.7551  0.2469  0.2432
  563MPD2     H 8354   1.444   3.380  15.468  0.2083  0.0592 -0.0677
  563MPD2    H1 8355   1.679   3.473  15.119  0.3169  3.6290 -1.4487
  563MPD2    H2 8356   1.307   3.664  15.178 -1.4081 -1.5607 -1.5219
  563MPD2    H3 8357   1.506   3.623  15.044  0.6229 -0.3368 -0.0689
  563MPD2     N 8358   1.667   3.334  15.359 -0.0854  0.3835  0.0265
  563MPD2    H5 8359   1.641   3.289  15.446 -0.8200 -1.4576 -1.1204
  563MPD2    N1 8360   1.248   3.556  15.420 -0.8685 -0.2091 -0.0418
  563MPD2    H7 8361   1.244   3.517  15.513  1.5893 -2.3749 -0.8508
  564TMC3    C1 8362   1.060   3.617  15.516 -0.3638  0.1778 -1.1899
  564TMC3    C2 8363   0.935   3.566  15.495 -0.7352  0.3641  0.4522
  564TMC3    C3 8364   0.863   3.537  15.606  0.7747  0.1295  1.0204
  564TMC3    C4 8365   1.121   3.626  15.639  0.3689 -0.5677 -0.4993
  564TMC3    C5 8366   1.049   3.599  15.747 -0.2126 -0.0397 -0.2011
  564TMC3    C6 8367   0.919   3.559  15.728 -0.0255  1.0318  1.2943
  564TMC3     C 8368   1.138   3.633  15.399 -0.6794 -0.0108 -0.0626
  564TMC3     O 8369   1.087   3.676  15.296 -0.0903 -0.0268  0.1034
  564TMC3     H 8370   0.893   3.532  15.401 -2.4393  0.0891  1.3112
  564TMC3    H1 8371   1.227   3.644  15.647  0.2006 -0.8476  2.4100
  564TMC3    H2 8372   0.857   3.561  15.817 -0.4460 -2.8507  1.1169
  564TMC3    C7 8373   1.132   3.515  15.840  0.6933  0.6785  0.4787
  564TMC3    C8 8374   0.776   3.425  15.610 -0.1372 -0.2258 -0.1351
  564TMC3    O1 8375   1.252   3.526  15.858 -0.4976 -0.4251  0.4146
  564TMC3    O2 8376   0.675   3.429  15.677 -0.0894 -0.3967  0.0596
  565TMC3    C1 8377   1.466   4.662   9.112 -0.2149 -0.5356  0.2928
  565TMC3    C2 8378   1.489   4.600   9.234 -0.3258  0.8724  0.4090
  565TMC3    C3 8379   1.436   4.471   9.246 -0.0323  0.4054 -0.5897
  565TMC3    C4 8380   1.387   4.607   9.015 -0.4885 -0.4096  0.5496
  565TMC3    C5 8381   1.353   4.472   9.031 -0.0133  0.4756 -0.7052
  565TMC3    C6 8382   1.363   4.409   9.150 -0.3936 -0.9002 -0.1030
  565TMC3     C 8383   1.510   0.074   9.083 -0.7214 -0.1847  0.4089
  565TMC3     O 8384   1.439   0.143   9.016 -0.0662  0.4936 -0.2298
  565TMC3     H 8385   1.541   4.656   9.311  0.7103 -1.3754  1.3434
  565TMC3    H1 8386   1.370   4.651   8.917  1.4276  0.6068  0.6840
  565TMC3    H2 8387   1.351   4.301   9.149  0.7669 -1.0324  0.2547
  565TMC3    C7 8388   1.300   4.403   8.913  0.3406 -1.0368 -0.0314
  565TMC3    C8 8389   1.431   4.413   9.384 -0.2710 -0.1319 -0.1893
  565TMC3    O1 8390   1.330   4.441   8.803 -0.0212 -0.5228  0.9264
  565TMC3    O2 8391   1.522   4.448   9.458  0.1140  0.4654 -0.2548
  566MPD2     C 8392   3.215   1.338  14.098  0.0346 -0.0760 -0.8534
  566MPD2    C1 8393   3.283   1.276  13.992 -0.2857 -0.2264  0.0277
  566MPD2    C2 8394   3.244   1.294  13.863  0.8967  0.0604  0.7713
  566MPD2    C3 8395   3.139   1.384  13.839 -0.5689  0.3080 -0.2661
  566MPD2    C4 8396   3.069   1.442  13.944  0.1389 -0.2000  0.5931
  566MPD2    C5 8397   3.109   1.412  14.074 -0.2493  0.5784 -0.0068
  566MPD2     H 8398   3.288   1.237  13.782 -0.4652  0.7405 -0.4535
  566MPD2    H1 8399   2.993   1.516  13.922  0.4779  0.3940  1.4199
  566MPD2    H2 8400   3.248   1.329  14.201 -1.4871 -3.8761 -0.6857
  566MPD2    H3 8401   3.068   1.474  14.152 -0.7256  0.8547 -0.4775
  566MPD2     N 8402   3.106   1.424  13.709 -0.2559  0.1873  0.0240
  566MPD2    H5 8403   3.034   1.495  13.701 -1.0087 -0.6417 -0.6007
  566MPD2    N1 8404   3.391   1.192  14.036  0.4493  0.2843 -0.1590
  566MPD2    H7 8405   3.411   1.177  14.134 -1.0255 -1.0897 -0.0703
  567TMC3    C1 8406   3.567   1.031  14.011 -0.3620  0.2615 -0.1868
  567TMC3    C2 8407   3.673   0.998  13.925  0.1251  0.0413  0.5596
  567TMC3    C3 8408   3.789   0.958  13.991  0.1837 -0.1636 -0.1606
  567TMC3    C4 8409   3.581   1.030  14.145  0.5207 -0.4185 -0.0185
  567TMC3    C5 8410   3.702   1.000  14.202  0.6424 -0.3217 -0.5070
  567TMC3    C6 8411   3.810   0.973  14.123 -0.5897  0.3241  0.2977
  567TMC3     C 8412   3.456   1.103  13.951 -0.3320 -0.0303  0.3391
  567TMC3     O 8413   3.468   1.110  13.828 -0.5230 -0.3907  0.8239
  567TMC3     H 8414   3.686   1.030  13.822 -2.3710  0.6333  0.4295
  567TMC3    H1 8415   3.493   1.050  14.206  0.6289 -1.0422  0.3436
  567TMC3    H2 8416   3.895   0.929  14.174  0.8338  2.2026 -0.4852
  567TMC3    C7 8417   3.702   0.955  14.337  0.6424 -0.0901  0.0607
  567TMC3    C8 8418   3.911   0.972  13.904 -0.2852 -0.3345 -0.4871
  567TMC3    O1 8419   3.756   0.854  14.369 -0.2120  0.3331 -0.5191
  567TMC3    O2 8420   3.894   0.961  13.783 -0.1123  0.1457 -0.1021
  568MPD2     C 8421   0.930   2.464  16.602  1.0943 -1.1252  0.7200
  568MPD2    C1 8422   0.803   2.446  16.556  0.0061  0.1219  0.0848
  568MPD2    C2 8423   0.755   2.528  16.451  0.6163 -0.3149 -0.0501
  568MPD2    C3 8424   0.834   2.634  16.403 -0.6025 -0.4737 -0.4968
  568MPD2    C4 8425   0.967   2.657  16.455  0.1916  0.4928 -0.2641
  568MPD2    C5 8426   1.009   2.570  16.551  0.3235  0.4904  0.0912
  568MPD2     H 8427   0.658   2.510  16.406 -0.0239  0.6363  0.9401
  568MPD2    H1 8428   1.033   2.735  16.419  0.0647  0.5104 -0.4630
  568MPD2    H2 8429   0.969   2.403  16.682  2.7628  1.7548  2.1225
  568MPD2    H3 8430   1.105   2.579  16.599 -0.3082  1.7615  1.1218
  568MPD2     N 8431   0.768   2.726  16.314  0.1040  0.3783  0.6339
  568MPD2    H5 8432   0.676   2.701  16.281 -0.2091 -0.3142  2.0194
  568MPD2    N1 8433   0.720   2.337  16.602  0.0779  0.2801 -0.1711
  568MPD2    H7 8434   0.752   2.268  16.670 -0.0819  1.6155  1.2468
  569TMC3    C1 8435   0.722   2.909  16.184  0.6230 -0.3609  0.0558
  569TMC3    C2 8436   0.713   3.042  16.194  0.9480 -0.2457  0.9246
  569TMC3    C3 8437   0.623   3.104  16.115  0.3460  0.1587  0.5495
  569TMC3    C4 8438   0.647   2.833  16.107  0.1961  0.0205  0.0606
  569TMC3    C5 8439   0.563   2.897  16.022  0.4517  0.1370 -0.2793
  569TMC3    C6 8440   0.539   3.033  16.036  0.0557 -0.0726  0.2869
  569TMC3     C 8441   0.822   2.848  16.267  0.4727  0.0123 -0.5165
  569TMC3     O 8442   0.926   2.902  16.288 -0.5171 -0.6760  0.6850
  569TMC3     H 8443   0.771   3.093  16.271  0.6069 -0.1428  1.1148
  569TMC3    H1 8444   0.673   2.730  16.088 -0.7882 -0.5241  1.6801
  569TMC3    H2 8445   0.461   3.080  15.978 -1.1824 -1.1972  1.0615
  569TMC3    C7 8446   0.613   2.866  15.891  0.4608  0.1534 -0.0782
  569TMC3    C8 8447   0.653   3.240  16.080  0.1279 -0.1365 -0.4913
  569TMC3    O1 8448   0.671   2.760  15.872  0.0061  0.1914  0.2155
  569TMC3    O2 8449   0.579   3.285  15.990 -0.4537 -0.3498 -0.0459
  570TMC3    C1 8450   0.283   1.348  16.069 -0.1230 -1.0537  0.7095
  570TMC3    C2 8451   0.386   1.352  15.978 -0.0630 -0.0347 -0.3828
  570TMC3    C3 8452   0.409   1.472  15.923  0.3008  0.2206  0.1646
  570TMC3    C4 8453   0.205   1.458  16.107  0.8404  0.1462 -0.3342
  570TMC3    C5 8454   0.247   1.577  16.056  0.5108  0.0643 -0.0706
  570TMC3    C6 8455   0.344   1.589  15.961  0.1708 -0.3913  0.1864
  570TMC3     C 8456   0.270   1.216  16.121  0.7619  0.0613 -1.3465
  570TMC3     O 8457   0.316   1.126  16.053  0.3208 -0.5454  0.2784
  570TMC3     H 8458   0.446   1.265  15.955  0.7122  0.4399 -0.1808
  570TMC3    H1 8459   0.121   1.454  16.176  0.5541 -1.1317 -0.7606
  570TMC3    H2 8460   0.360   1.686  15.915  0.1830 -0.3853  0.2035
  570TMC3    C7 8461   0.189   1.704  16.102  0.4400  0.1620 -0.0245
  570TMC3    C8 8462   0.521   1.473  15.826  1.3910  0.5021  0.1794
  570TMC3    O1 8463   0.262   1.803  16.092 -0.2304  0.2637 -0.2177
  570TMC3    O2 8464   0.569   1.583  15.803  0.1354 -0.0705 -0.2494
  571MPD2     C 8465   3.386   2.612  17.357 -0.2711  0.4102 -0.3681
  571MPD2    C1 8466   3.293   2.612  17.455  0.2116  0.1828  0.3408
  571MPD2    C2 8467   3.301   2.703  17.561 -0.0284 -0.3419  0.2321
  571MPD2    C3 8468   3.396   2.798  17.564  0.4194  0.3184  0.1524
  571MPD2    C4 8469   3.495   2.787  17.472 -0.7903  0.0142  0.1385
  571MPD2    C5 8470   3.494   2.701  17.373  0.5060  0.0746 -0.3849
  571MPD2     H 8471   3.218   2.694  17.630  0.4138  1.9600  1.0605
  571MPD2    H1 8472   3.569   2.866  17.482  0.2109 -1.0261  1.0784
  571MPD2    H2 8473   3.375   2.549  17.269 -1.8204 -0.3610  0.3788
  571MPD2    H3 8474   3.564   2.690  17.291 -0.5726  1.5082 -1.4947
  571MPD2     N 8475   3.384   2.889  17.673 -0.3775  0.4412 -0.1931
  571MPD2    H5 8476   3.317   2.861   0.037 -1.3749 -2.6545 -2.3383
  571MPD2    N1 8477   3.176   2.533  17.428 -0.2354 -0.6317 -0.4211
  571MPD2    H7 8478   3.187   2.475  17.346  0.1581 -0.1652 -0.6942
  572TMC3    C1 8479   3.387   3.106   0.064 -0.3935  0.1834  0.2187
  572TMC3    C2 8480   3.302   3.067   0.162  0.3312  0.4222 -0.2326
  572TMC3    C3 8481   3.253   3.165   0.239  0.2029  0.0321 -0.7352
  572TMC3    C4 8482   3.410   3.236   0.035 -0.3645 -0.0508  0.4578
  572TMC3    C5 8483   3.357   3.334   0.107  0.3010  0.0990  0.0618
  572TMC3    C6 8484   3.276   3.299   0.211 -0.3133 -0.2102  0.2008
  572TMC3     C 8485   3.441   3.015  17.675  0.1604 -0.5828 -0.3913
  572TMC3     O 8486   3.514   3.059  17.587 -0.8044  0.1711 -0.4362
  572TMC3     H 8487   3.317   2.971   0.210 -0.5590  0.7246  0.6308
  572TMC3    H1 8488   3.466   3.254  17.651  0.8873 -0.7459  1.0866
  572TMC3    H2 8489   3.245   3.380   0.276  1.8058  2.3141 -1.9644
  572TMC3    C7 8490   3.344   3.463   0.059  1.8156 -0.3411  0.9694
  572TMC3    C8 8491   3.197   3.133   0.369 -0.0044 -0.2975 -0.4322
  572TMC3    O1 8492   3.239   3.520   0.089 -0.2072  0.0938 -0.2398
  572TMC3    O2 8493   3.221   3.025   0.420  0.4292  0.1569  0.1761
  573MPD2     C 8494   4.188   4.430   0.139  0.7225  0.2089  0.9980
  573MPD2    C1 8495   4.285   4.337   0.158 -0.5497  0.0956  0.8964
  573MPD2    C2 8496   4.337   4.266   0.050  0.2733 -0.1647 -0.0636
  573MPD2    C3 8497   4.288   4.288  17.629  0.3269 -0.2981  0.3904
  573MPD2    C4 8498   4.196   4.387  17.615 -0.0417 -0.0949 -0.9550
  573MPD2    C5 8499   4.161   4.459   0.011  0.2350  0.1235  0.3541
  573MPD2     H 8500   4.405   4.184   0.068  0.4187  0.0274  0.2525
  573MPD2    H1 8501   4.166   4.419  17.515  1.5086  0.1681 -1.3253
  573MPD2    H2 8502   4.141   4.490   0.216 -1.3100  0.8557 -0.7327
  573MPD2    H3 8503   4.096   4.545  17.706  0.3902  0.4290  1.6960
  573MPD2     N 8504   4.313   4.204  17.522  0.7355 -0.2573  0.4483
  573MPD2    H5 8505   4.248   4.205  17.444  0.7763  4.9600  0.4583
  573MPD2    N1 8506   4.326   4.325   0.293 -0.1890 -0.1807  1.4979
  573MPD2    H7 8507   4.279   4.388   0.357 -0.2827  1.2000  0.0911
  574TMC3    C1 8508   4.440   4.064  17.374 -0.5562 -0.1183  0.6017
  574TMC3    C2 8509   4.324   4.067  17.300 -0.5479 -0.7189 -0.5650
  574TMC3    C3 8510   4.352   4.054  17.167  0.2587  0.4143  0.0928
  574TMC3    C4 8511   4.568   4.057  17.332  0.2479  0.7700 -0.0199
  574TMC3    C5 8512   4.584   4.042  17.197  0.4639 -0.4598  0.1998
  574TMC3    C6 8513   4.477   4.031  17.114  0.0756 -0.8588 -0.0267
  574TMC3     C 8514   4.426   4.132  17.505  0.4050 -0.6459 -1.1596
  574TMC3     O 8515   4.523   4.131  17.580  0.0237 -0.1135  0.6692
  574TMC3     H 8516   4.226   4.050  17.344 -1.2046  1.5622 -1.1349
  574TMC3    H1 8517   4.650   4.064  17.402  0.1939 -0.2448  0.1476
  574TMC3    H2 8518   4.494   4.025  17.007  2.8099  0.1420  0.3698
  574TMC3    C7 8519   4.717   4.027  17.147  0.2054 -0.8847 -0.2983
  574TMC3    C8 8520   4.243   4.028  17.072  0.1156  0.5808 -0.4333
  574TMC3    O1 8521   0.076   3.976  17.216  0.1420  0.3365 -0.1480
  574TMC3    O2 8522   4.279   3.970  16.971  0.5261  0.4882 -0.0338
  575TMC3    C1 8523   1.807   4.254  10.151  0.3306  0.1279  0.0255
  575TMC3    C2 8524   1.763   4.172  10.251  0.0106  0.0087 -0.2750
  575TMC3    C3 8525   1.651   4.103  10.217 -0.6680 -0.1974  0.2428
  575TMC3    C4 8526   1.745   4.277  10.029  0.6387 -0.7278 -0.4645
  575TMC3    C5 8527   1.643   4.197   9.996  0.7197 -1.4846  0.0170
  575TMC3    C6 8528   1.589   4.120  10.095  0.0391 -0.0662  0.1977
  575TMC3     C 8529   1.931   4.325  10.169 -0.1797 -0.1390 -0.3039
  575TMC3     O 8530   1.960   4.352  10.284 -0.6737  0.4244  0.0875
  575TMC3     H 8531   1.826   4.151  10.337 -0.4522 -2.4692 -0.5390
  575TMC3    H1 8532   1.791   4.348   9.961 -0.4732  0.0545 -0.4090
  575TMC3    H2 8533   1.489   4.085  10.076 -0.0156  0.4355 -0.4670
  575TMC3    C7 8534   1.563   4.238   9.876 -0.2690 -0.4059 -0.1869
  575TMC3    C8 8535   1.598   3.995  10.299  0.1099  0.5412 -0.3788
  575TMC3    O1 8536   1.595   4.348   9.830  0.5483 -0.1957 -0.3144
  575TMC3    O2 8537   1.521   3.923  10.237 -0.1405  0.2430  0.0458
  576MPD2     C 8538   1.289   1.088  12.369 -0.0767  0.0068 -0.7574
  576MPD2    C1 8539   1.250   1.154  12.249  0.4333 -0.2295 -0.5705
  576MPD2    C2 8540   1.182   1.276  12.259 -0.7758 -0.3356 -0.1352
  576MPD2    C3 8541   1.145   1.325  12.381 -0.2142  0.1197 -0.1963
  576MPD2    C4 8542   1.179   1.258  12.495 -0.1308 -0.3163  0.0490
  576MPD2    C5 8543   1.248   1.133  12.490 -0.4176 -0.0031 -0.1222
  576MPD2     H 8544   1.152   1.337  12.174  1.0855  0.6769 -0.0911
  576MPD2    H1 8545   1.164   1.302  12.592 -1.3777 -1.7385  0.5059
  576MPD2    H2 8546   1.344   0.994  12.366 -0.1728 -0.0702 -0.1348
  576MPD2    H3 8547   1.280   1.079  12.578  0.2174 -0.2351 -0.4945
  576MPD2     N 8548   1.070   1.445  12.387  0.6775 -0.0688  0.1169
  576MPD2    H5 8549   1.075   1.505  12.306  0.0535  0.1948  0.2722
  576MPD2    N1 8550   1.300   1.110  12.121  0.1327  0.1054 -0.1346
  576MPD2    H7 8551   1.295   1.179  12.048 -0.7543  0.6116  0.3991
  577TMC3    C1 8552   1.435   0.994  11.964 -0.5600 -0.5459  0.4688
  577TMC3    C2 8553   1.555   0.933  11.969 -0.4043  0.2857  0.2345
  577TMC3    C3 8554   1.623   0.903  11.850  0.4236  0.2071  0.2163
  577TMC3    C4 8555   1.362   0.990  11.844  0.4544 -0.4836 -0.4775
  577TMC3    C5 8556   1.435   0.961  11.729  0.3223 -0.3338 -0.0676
  577TMC3    C6 8557   1.564   0.924  11.733  0.4744 -0.3609 -0.0942
  577TMC3     C 8558   1.367   0.994  12.092 -0.2339  0.2078  0.4448
  577TMC3     O 8559   1.393   0.899  12.164  0.3477 -0.0444 -0.0759
  577TMC3     H 8560   1.611   0.931  12.062  0.2895 -0.3016 -0.1947
  577TMC3    H1 8561   1.257   1.014  11.849  0.5900  0.3124 -1.6660
  577TMC3    H2 8562   1.620   0.906  11.642  2.9372 -0.0615  1.3456
  577TMC3    C7 8563   1.360   0.898  11.617 -0.3588  0.2183  0.1966
  577TMC3    C8 8564   1.738   0.820  11.865  0.1502 -0.7198 -0.6438
  577TMC3    O1 8565   1.431   0.825  11.552  0.3383 -0.5689 -0.6538
  577TMC3    O2 8566   1.767   0.777  11.975 -0.2833  0.0202  0.0563
  578MPD2     C 8567   3.646   1.856   0.795  0.0830 -0.4206 -0.0301
  578MPD2    C1 8568   3.710   1.736   0.809 -0.7595 -0.0965  1.0247
  578MPD2    C2 8569   3.747   1.698   0.937  0.1924 -0.0849 -0.2472
  578MPD2    C3 8570   3.736   1.777   1.042  0.4168 -0.3472 -0.5919
  578MPD2    C4 8571   3.681   1.905   1.023 -0.4212  0.0015  0.9266
  578MPD2    C5 8572   3.633   1.940   0.902 -0.0241 -0.2216  0.0724
  578MPD2     H 8573   3.798   1.604   0.953 -1.6838 -1.3603 -1.7093
  578MPD2    H1 8574   3.671   1.973   1.107  0.8580 -0.5438  1.5100
  578MPD2    H2 8575   3.598   1.888   0.702 -0.5675 -2.0908 -0.2624
  578MPD2    H3 8576   3.587   2.038   0.898  1.8911  0.6966  0.7561
  578MPD2     N 8577   3.806   1.736   1.164 -0.1834 -0.1434  0.0024
  578MPD2    H5 8578   3.837   1.640   1.165 -0.9027 -0.3755 -0.3586
  578MPD2    N1 8579   3.723   1.650   0.701 -0.3094  0.5495 -0.1655
  578MPD2    H7 8580   3.689   1.687   0.613  1.1673 -2.5089 -1.9922
  579TMC3    C1 8581   3.920   1.739   1.365 -0.3714 -0.2914 -0.4896
  579TMC3    C2 8582   3.943   1.790   1.487 -0.2413 -0.0811  0.0856
  579TMC3    C3 8583   4.037   1.738   1.569 -0.5331  0.0631  0.0778
  579TMC3    C4 8584   3.997   1.637   1.318 -0.6078 -0.2687  0.1692
  579TMC3    C5 8585   4.092   1.579   1.401 -0.1664  0.0150  0.5313
  579TMC3    C6 8586   4.104   1.627   1.534  0.0466 -0.9318 -0.5153
  579TMC3     C 8587   3.838   1.820   1.270  0.5487  0.3433 -0.1476
  579TMC3     O 8588   3.781   1.924   1.307  0.5055 -0.5635 -0.3310
  579TMC3     H 8589   3.891   1.879   1.521 -3.6511 -1.4868 -1.4036
  579TMC3    H1 8590   4.000   1.614   1.212  0.6963 -1.3056  0.4222
  579TMC3    H2 8591   4.179   1.579   1.596  1.0232  2.9284  1.2869
  579TMC3    C7 8592   4.219   1.527   1.342 -0.4353 -0.2709  0.6479
  579TMC3    C8 8593   4.091   1.823   1.672 -0.4838 -0.3139 -0.7106
  579TMC3    O1 8594   4.316   1.545   1.414  0.1609  0.4192 -0.4546
  579TMC3    O2 8595   4.030   1.915   1.728 -0.2565  0.7543  0.2583
  580TMC3    C1 8596   3.744   4.508  11.038  0.0471  1.5999 -0.2671
  580TMC3    C2 8597   3.836   4.465  10.946 -0.7045 -0.0175  1.0834
  580TMC3    C3 8598   3.848   4.331  10.940 -0.0417 -0.1007 -0.0784
  580TMC3    C4 8599   3.657   4.416  11.102  0.2044  0.1714  0.8772
  580TMC3    C5 8600   3.681   4.286  11.095  0.1181  0.4003  0.3419
  580TMC3    C6 8601   3.765   4.245  10.998  0.3066 -0.2643 -0.1478
  580TMC3     C 8602   3.792   4.614  11.124  0.0385  0.0937 -0.7272
  580TMC3     O 8603   3.912   4.636  11.139 -0.1059 -0.0072 -0.3360
  580TMC3     H 8604   3.910   4.532  10.905 -1.8854  1.5726  1.5398
  580TMC3    H1 8605   3.587   4.449  11.178 -0.7350  2.4060 -0.9465
  580TMC3    H2 8606   3.789   4.141  10.981 -0.5582 -0.3847 -0.6298
  580TMC3    C7 8607   3.729   4.233  11.218  0.6392  0.3177  0.6082
  580TMC3    C8 8608   3.941   4.278  10.845 -0.6146  0.2587  0.6379
  580TMC3    O1 8609   3.799   4.314  11.274  0.0050 -0.3213 -0.0294
  580TMC3    O2 8610   3.908   4.194  10.765  0.1956  0.6461  0.5784
  581MPD2     C 8611   2.265   0.875  15.097  0.6410 -0.2103 -0.2245
  581MPD2    C1 8612   2.264   0.774  15.009  0.0197 -0.3419 -0.0720
  581MPD2    C2 8613   2.155   0.774  14.918 -0.1227 -0.1821  0.2033
  581MPD2    C3 8614   2.047   0.854  14.926 -0.5657 -0.0880 -0.2218
  581MPD2    C4 8615   2.051   0.950  15.027 -0.1539  0.1155 -0.0115
  581MPD2    C5 8616   2.163   0.965  15.102  0.5352  0.2953 -0.4341
  581MPD2     H 8617   2.154   0.692  14.847 -0.2508 -0.2500  0.2832
  581MPD2    H1 8618   1.979   1.030  15.040 -0.1567  0.1663 -0.3357
  581MPD2    H2 8619   2.333   0.889  15.180  0.9016 -0.6188 -0.3707
  581MPD2    H3 8620   2.166   1.044  15.177 -2.9016 -1.0321  1.0987
  581MPD2     N 8621   1.939   0.843  14.839 -0.3393 -0.1769 -0.2650
  581MPD2    H5 8622   1.943   0.755  14.788 -1.0779  0.5117 -1.4966
  581MPD2    N1 8623   2.370   0.688  15.003 -0.3995 -0.1788  0.6512
  581MPD2    H7 8624   2.444   0.698  15.071 -1.2166 -2.1482  1.8503
  582TMC3    C1 8625   2.473   0.487  14.997  0.2425 -0.9567 -0.2809
  582TMC3    C2 8626   2.495   0.482  15.135  0.0891  0.3444  0.1952
  582TMC3    C3 8627   2.561   0.377  15.186 -0.8708  0.1295  0.5415
  582TMC3    C4 8628   2.535   0.395  14.912  0.3030 -0.0306 -0.7717
  582TMC3    C5 8629   2.617   0.303  14.963  0.0730 -0.0417  0.0530
  582TMC3    C6 8630   2.630   0.288  15.102 -1.2649  0.3721 -0.3255
  582TMC3     C 8631   2.370   0.575  14.934  1.0789 -0.5880 -0.3135
  582TMC3     O 8632   2.311   0.533  14.835 -0.2892  0.1905 -0.7737
  582TMC3     H 8633   2.427   0.543  15.193 -0.5620  0.0216 -0.2304
  582TMC3    H1 8634   2.527   0.409  14.805 -4.0508 -3.0064 -0.8518
  582TMC3    H2 8635   2.664   0.191  15.137 -0.4431  1.3920  1.6548
  582TMC3    C7 8636   2.639   0.187  14.880 -0.0665 -0.6085  0.4893
  582TMC3    C8 8637   2.515   0.339  15.315 -0.1223  0.2304 -0.0459
  582TMC3    O1 8638   2.694   0.212  14.773 -0.4481 -0.3603 -0.4393
  582TMC3    O2 8639   2.402   0.374  15.344 -0.1900 -0.1094  0.0928
  583MPD2     C 8640   1.882   1.547  16.315 -0.6515  0.2409 -0.1230
  583MPD2    C1 8641   1.910   1.652  16.239 -0.0235  1.0171  0.0179
  583MPD2    C2 8642   1.854   1.775  16.270 -0.2450  0.2392 -0.7302
  583MPD2    C3 8643   1.769   1.787  16.381  0.4494 -0.7704 -0.6052
  583MPD2    C4 8644   1.753   1.673  16.460 -0.8958 -0.6702  0.5194
  583MPD2    C5 8645   1.800   1.559  16.423  0.1819 -0.2679  0.5657
  583MPD2     H 8646   1.876   1.863  16.212  3.6673  0.5263  1.1713
  583MPD2    H1 8647   1.695   1.668  16.552 -1.1606 -2.6330  0.2434
  583MPD2    H2 8648   1.918   1.447  16.294 -2.8395 -0.2206 -1.6861
  583MPD2    H3 8649   1.782   1.474  16.488 -1.6926  0.8638  1.5277
  583MPD2     N 8650   1.713   1.915  16.410  0.6582  0.2401 -0.4309
  583MPD2    H5 8651   1.725   1.988  16.340 -1.5440 -1.2131 -2.3306
  583MPD2    N1 8652   1.995   1.651  16.125 -0.1536  0.4944  0.2563
  583MPD2    H7 8653   1.998   1.738  16.072  0.9353  0.9844  1.1316
  584TMC3    C1 8654   1.605   2.085  16.536 -0.5807 -0.2348 -0.4060
  584TMC3    C2 8655   1.609   2.160  16.430 -0.0373  0.2428 -0.2753
  584TMC3    C3 8656   1.613   2.298  16.449  0.1780 -0.0077 -0.3117
  584TMC3    C4 8657   1.598   2.132  16.665 -0.5860 -0.7110 -1.0933
  584TMC3    C5 8658   1.590   2.266  16.682 -0.0955 -0.9319  0.4206
  584TMC3    C6 8659   1.599   2.348  16.578  0.5863 -0.3880  0.3616
  584TMC3     C 8660   1.651   1.949  16.527  0.0323  0.7958 -0.3081
  584TMC3     O 8661   1.611   1.873  16.613  0.1433 -0.4515  0.7231
  584TMC3     H 8662   1.615   2.124  16.328  2.0194  0.3303 -0.1918
  584TMC3    H1 8663   1.609   2.076  16.757 -1.6721  0.0122 -0.5295
  584TMC3    H2 8664   1.559   2.446  16.599  0.2015 -0.3345 -0.6002
  584TMC3    C7 8665   1.596   2.321  16.817 -0.0623 -0.3404 -0.7258
  584TMC3    C8 8666   1.699   2.372  16.358  0.1373 -0.1712 -0.1079
  584TMC3    O1 8667   1.579   2.243  16.910  0.2848  0.1908  0.7921
  584TMC3    O2 8668   1.745   2.309  16.261  0.2569 -0.2726 -0.5800
  585MPD2     C 8669   0.451   0.679   0.471  0.7839  0.0862  0.1437
  585MPD2    C1 8670   0.561   0.764   0.506 -0.1452 -0.3502 -0.2274
  585MPD2    C2 8671   0.667   0.757   0.414  0.6496  0.3858  0.1613
  585MPD2    C3 8672   0.676   0.657   0.317 -0.2598 -0.4737 -0.3415
  585MPD2    C4 8673   0.571   0.564   0.302 -0.4830  0.3235 -0.6428
  585MPD2    C5 8674   0.458   0.581   0.374 -0.2875  0.0374  0.4659
  585MPD2     H 8675   0.742   0.835   0.422  0.5716  0.6246 -1.3800
  585MPD2    H1 8676   0.562   0.484   0.230  0.3983 -1.3908  1.1539
  585MPD2    H2 8677   0.369   0.689   0.541 -0.2436 -2.7418 -0.6399
  585MPD2    H3 8678   0.369   0.524   0.350 -0.5071  0.4234  0.3622
  585MPD2     N 8679   0.781   0.644   0.227 -0.0069 -0.2029 -0.6623
  585MPD2    H5 8680   0.759   0.576   0.156 -2.4428  0.9895 -1.0729
  585MPD2    N1 8681   0.547   0.861   0.611 -0.1930  0.3224 -0.4686
  585MPD2    H7 8682   0.456   0.866   0.655  0.3678 -0.8649  0.8170
  586TMC3    C1 8683   1.004   0.628   0.158  0.4982 -0.5268  0.8101
  586TMC3    C2 8684   1.113   0.594   0.226  0.5574 -0.1993  0.2358
  586TMC3    C3 8685   1.227   0.567   0.148  0.3704 -0.4289 -0.7166
  586TMC3    C4 8686   0.983   0.618   0.024  0.0878  0.2579 -0.1718
  586TMC3    C5 8687   1.095   0.594  17.657 -0.4502  0.1904 -0.6484
  586TMC3    C6 8688   1.213   0.564   0.010  0.7627  0.1018  0.2645
  586TMC3     C 8689   0.907   0.695   0.241  0.1570 -0.1976 -0.4605
  586TMC3     O 8690   0.959   0.770   0.326  0.6223 -0.2545 -0.2577
  586TMC3     H 8691   1.120   0.592   0.335 -2.5851 -1.2721  0.4115
  586TMC3    H1 8692   0.885   0.651  17.699  0.1073  0.7204  0.2453
  586TMC3    H2 8693   1.300   0.546  17.655 -1.3513 -2.7106 -1.8790
  586TMC3    C7 8694   1.099   0.607  17.516  0.2655  0.2011  0.2346
  586TMC3    C8 8695   1.314   0.468   0.213  0.5442 -0.0473  0.2062
  586TMC3    O1 8696   1.211   0.592  17.467 -0.4046 -0.4912  0.0420
  586TMC3    O2 8697   1.311   0.479   0.334 -0.1456  0.4054 -0.4712
  587TMC3    C1 8698   3.375   4.254  16.609  0.0561 -0.0458 -0.9788
  587TMC3    C2 8699   3.310   4.348  16.686  0.1981 -0.7970 -0.1112
  587TMC3    C3 8700   3.388   4.409  16.783 -0.1282 -0.1369 -0.8036
  587TMC3    C4 8701   3.508   4.225  16.625 -0.2214 -0.7310 -0.7442
  587TMC3    C5 8702   3.576   4.286  16.727  0.4097 -0.2444 -0.5007
  587TMC3    C6 8703   3.515   4.368  16.811 -0.7916 -0.1191 -0.5013
  587TMC3     C 8704   3.324   4.230  16.473  0.3459  0.6443 -0.1856
  587TMC3     O 8705   3.411   4.212  16.391 -0.6134  1.1649 -0.1057
  587TMC3     H 8706   3.223   4.396  16.642  1.0051  1.1441  0.3940
  587TMC3    H1 8707   3.564   4.163  16.556  0.8284  1.6343 -2.0209
  587TMC3    H2 8708   3.572   4.407  16.896  0.7023 -2.2422 -0.5205
  587TMC3    C7 8709   3.693   4.349  16.681 -0.0771 -0.6375 -0.2270
  587TMC3    C8 8710   3.333   4.510  16.869 -0.4543 -0.0999 -0.0264
  587TMC3    O1 8711   3.716   4.457  16.724  0.1128  0.7138  0.3736
  587TMC3    O2 8712   3.407   4.570  16.945 -0.5726 -0.0637 -0.1943
  588TMC3    C1 8713   0.828   1.571   9.094  0.1505  0.4563  0.9798
  588TMC3    C2 8714   0.853   1.448   9.054 -0.4370 -0.7388 -0.1588
  588TMC3    C3 8715   0.904   1.354   9.146  0.5030  0.1307 -0.5521
  588TMC3    C4 8716   0.840   1.607   9.230  0.4056  0.1000  0.5222
  588TMC3    C5 8717   0.886   1.516   9.318 -1.1674  0.3560 -0.1680
  588TMC3    C6 8718   0.915   1.384   9.278  0.2018  0.6220 -0.3242
  588TMC3     C 8719   0.780   1.673   9.005  0.0402  0.8121 -0.2654
  588TMC3     O 8720   0.731   1.644   8.897 -0.0148 -0.0561 -0.3301
  588TMC3     H 8721   0.818   1.410   8.958 -0.6706 -0.6017 -0.1292
  588TMC3    H1 8722   0.795   1.699   9.266 -1.7548  0.0909 -2.1812
  588TMC3    H2 8723   0.955   1.313   9.350 -0.6112  1.0698  0.5597
  588TMC3    C7 8724   0.894   1.534   9.458 -0.1176 -0.6116 -0.1578
  588TMC3    C8 8725   0.912   1.216   9.110 -0.4185 -0.5137 -0.1966
  588TMC3    O1 8726   0.892   1.443   9.538 -0.0364 -0.2769 -0.2332
  588TMC3    O2 8727   0.840   1.165   9.024  0.0817 -0.5036  0.4550
  589TMC3    C1 8728   0.268   0.018   0.747  0.2375 -0.3694  0.6273
  589TMC3    C2 8729   0.301   4.706   0.867  0.5250 -0.4018  0.2736
  589TMC3    C3 8730   0.438   4.688   0.897 -0.2217  0.6746 -0.2761
  589TMC3    C4 8731   0.363   0.012   0.640  0.3892  0.3219  0.1403
  589TMC3    C5 8732   0.498   4.725   0.672 -0.8131 -0.6498 -0.2083
  589TMC3    C6 8733   0.533   4.697   0.800 -0.0708 -0.2771 -0.5455
  589TMC3     C 8734   0.137   0.056   0.707 -0.0287  0.0661 -0.0185
  589TMC3     O 8735   0.108   0.044   0.588  0.0812  0.0956 -0.1401
  589TMC3     H 8736   0.225   4.699   0.945 -0.6609 -1.5799 -0.9937
  589TMC3    H1 8737   0.328   0.047   0.544 -1.4040 -2.3926 -0.1976
  589TMC3    H2 8738   0.640   4.685   0.815 -0.2550 -0.3516  0.6750
  589TMC3    C7 8739   0.587   4.702   0.560  0.8896 -0.0713  0.1280
  589TMC3    C8 8740   0.471   4.605   1.007  0.2371  1.3119 -0.0868
  589TMC3    O1 8741   0.531   4.646   0.469  0.7306 -0.0015 -0.3480
  589TMC3    O2 8742   0.385   4.529   1.055 -0.4108  0.1654  0.0220
  590MPD2     C 8743   4.269   2.682  16.330 -0.1289  0.8496 -0.0467
  590MPD2    C1 8744   4.222   2.720  16.206 -0.0828 -0.8053 -0.2679
  590MPD2    C2 8745   4.297   2.804  16.123 -0.5306 -0.3951  0.8988
  590MPD2    C3 8746   4.432   2.824  16.158  0.5072 -0.6519 -0.5958
  590MPD2    C4 8747   4.480   2.775  16.279 -0.1638  0.0738 -0.0300
  590MPD2    C5 8748   4.397   2.704  16.367 -0.1689 -0.7573  0.2948
  590MPD2     H 8749   4.251   2.849  16.036  0.9930 -1.2184 -0.3418
  590MPD2    H1 8750   4.582   2.787  16.312  0.5013  1.6368 -2.6855
  590MPD2    H2 8751   4.205   2.617  16.388 -0.8135  0.4944 -1.2154
  590MPD2    H3 8752   4.420   2.664  16.465 -1.0392  1.8319  1.5480
  590MPD2     N 8753   4.516   2.878  16.060 -0.6190 -0.2718  0.1405
  590MPD2    H5 8754   4.470   2.917  15.977 -3.1555 -1.7376  0.8577
  590MPD2    N1 8755   4.100   2.651  16.163  0.2492  0.4672  0.6973
  590MPD2    H7 8756   4.070   2.570  16.216  2.2795 -1.6347 -1.3519
  591TMC3    C1 8757   4.709   2.979  15.959 -0.1736 -0.3486  0.2567
  591TMC3    C2 8758   0.104   2.959  15.905 -0.9646  0.0442 -0.0442
  591TMC3    C3 8759   0.132   3.038  15.796  0.0537  0.1127  0.1295
  591TMC3    C4 8760   4.628   3.085  15.927  0.1635  0.1265  0.2603
  591TMC3    C5 8761   4.665   3.168  15.821 -0.5869  0.5894 -0.7278
  591TMC3    C6 8762   0.054   3.145  15.753 -0.8159 -0.1131  0.2522
  591TMC3     C 8763   4.653   2.880  16.054 -0.4956  0.2739  0.5753
  591TMC3     O 8764   0.013   2.826  16.120  0.4081 -0.1139 -0.1918
  591TMC3     H 8765   0.172   2.886  15.948 -1.6971 -0.1867  0.7380
  591TMC3    H1 8766   4.535   3.106  15.979  0.4445  0.4018  0.6462
  591TMC3    H2 8767   0.071   3.197  15.659  2.6811  2.0391  2.0529
  591TMC3    C7 8768   4.581   3.286  15.790  0.0282 -0.2037  0.2742
  591TMC3    C8 8769   0.247   3.001  15.715  0.4395 -0.3450 -0.0944
  591TMC3    O1 8770   4.460   3.277  15.805  0.3744 -0.3124 -0.1676
  591TMC3    O2 8771   0.286   2.885  15.741 -0.2993 -0.6472 -0.6263
  592MPD2     C 8772   0.424   4.406  10.850 -0.0094 -0.7166  0.3971
  592MPD2    C1 8773   0.465   4.459  10.972 -0.6223 -0.7365 -0.0381
  592MPD2    C2 8774   0.420   4.388  11.090  0.0008  0.9707  1.0664
  592MPD2    C3 8775   0.346   4.269  11.074  0.5977  0.2432  1.0686
  592MPD2    C4 8776   0.306   4.225  10.950  0.4876 -0.0367  0.9488
  592MPD2    C5 8777   0.347   4.289  10.839  0.2950 -0.0017  0.6023
  592MPD2     H 8778   0.440   4.417  11.192 -1.6142 -3.3619  2.6345
  592MPD2    H1 8779   0.247   4.135  10.941  0.2071  0.1444  0.9598
  592MPD2    H2 8780   0.451   4.450  10.755 -1.5875 -2.4330 -0.8419
  592MPD2    H3 8781   0.306   4.263  10.742  1.7456  1.3542 -0.3837
  592MPD2     N 8782   0.299   4.208  11.193 -0.0122 -0.2775 -0.5740
  592MPD2    H5 8783   0.311   4.264  11.278  0.5544 -1.8495  0.3810
  592MPD2    N1 8784   0.546   4.571  10.976  0.4426 -0.2217 -0.4354
  592MPD2    H7 8785   0.567   4.610  10.885  0.6345 -1.1387 -0.7869
  593TMC3    C1 8786   0.689   0.013  11.058 -0.0903 -0.3838  0.3268
  593TMC3    C2 8787   0.758   0.056  11.164 -0.6470  0.4548  0.1064
  593TMC3    C3 8788   0.851   0.157  11.140  0.4189 -0.3444  0.1437
  593TMC3    C4 8789   0.733   0.056  10.929  0.1350 -0.4979 -0.0052
  593TMC3    C5 8790   0.817   0.162  10.915  0.4121 -0.1222  0.2720
  593TMC3    C6 8791   0.876   0.219  11.020 -0.3790 -0.3543 -0.1110
  593TMC3     C 8792   0.621   4.617  11.082 -0.1474  0.3948  0.1060
  593TMC3     O 8793   0.603   4.586  11.198 -0.8037 -0.2208  0.3799
  593TMC3     H 8794   0.740   0.028  11.268 -0.1923  3.1625  0.9215
  593TMC3    H1 8795   0.697   0.012  10.837  0.3213 -0.2538 -0.1961
  593TMC3    H2 8796   0.946   0.303  11.020 -2.9050  1.7613 -1.4042
  593TMC3    C7 8797   0.841   0.237  10.791 -0.0383  0.3234 -0.2841
  593TMC3    C8 8798   0.878   0.243  11.260  0.1328  0.4687 -0.2917
  593TMC3    O1 8799   0.926   0.325  10.797  0.3509 -0.1621 -0.1385
  593TMC3    O2 8800   0.782   0.261  11.336  0.1991 -0.3042  0.1834
  594MPD2     C 8801   3.765   3.682  13.578 -0.2223  0.2823 -0.4669
  594MPD2    C1 8802   3.782   3.670  13.716  0.6379  0.7098  0.0698
  594MPD2    C2 8803   3.871   3.750  13.784 -0.3054 -0.4013 -0.0954
  594MPD2    C3 8804   3.951   3.838  13.715  0.3049  0.1928  0.1335
  594MPD2    C4 8805   3.950   3.845  13.580 -0.2952 -1.0011 -0.5968
  594MPD2    C5 8806   3.861   3.757  13.516  0.1795 -0.6500  0.0127
  594MPD2     H 8807   3.891   3.741  13.890  0.4774  0.4186 -0.1688
  594MPD2    H1 8808   4.023   3.898  13.520 -0.9611  0.5199 -0.0670
  594MPD2    H2 8809   3.706   3.609  13.525  0.7804 -2.1772  1.7740
  594MPD2    H3 8810   3.862   3.759  13.407  1.2115  0.9970  0.0385
  594MPD2     N 8811   4.032   3.918  13.799  0.0594  0.1601  0.1790
  594MPD2    H5 8812   4.023   3.897  13.898  0.3738 -1.5957 -0.1528
  594MPD2    N1 8813   3.691   3.587  13.786 -0.1517 -0.4417 -0.8809
  594MPD2    H7 8814   3.627   3.525  13.736 -0.4663  0.4127 -1.5508
  595TMC3    C1 8815   4.372   4.071  14.011 -0.0062 -0.1317  0.0641
  595TMC3    C2 8816   4.324   4.045  13.891 -0.3579  0.4299  0.1268
  595TMC3    C3 8817   4.194   4.063  13.871 -0.0216  0.0879  0.2217
  595TMC3    C4 8818   4.291   4.132  14.107  0.1352  0.3301  0.2841
  595TMC3    C5 8819   4.163   4.136  14.089  0.7990 -0.1726 -0.0589
  595TMC3    C6 8820   4.111   4.102  13.970  0.2332  0.6866  0.1293
  595TMC3     C 8821   4.515   4.091  14.035  0.2042 -0.1804 -0.3436
  595TMC3     O 8822   4.551   4.194  14.096 -0.1422 -0.1998 -0.4868
  595TMC3     H 8823   4.382   4.007  13.808  1.2396 -1.2865  2.0201
  595TMC3    H1 8824   4.333   4.159  14.204  0.2757 -1.3620  0.6935
  595TMC3    H2 8825   4.006   4.107  13.945  0.1821 -0.4919  0.0912
  595TMC3    C7 8826   4.066   4.175  14.193  0.0652  0.3919 -0.5204
  595TMC3    C8 8827   4.134   3.999  13.757  0.2220 -0.0724  0.4316
  595TMC3    O1 8828   3.949   4.181  14.146  0.5521  0.1003  0.3079
  595TMC3    O2 8829   4.190   4.013  13.647 -0.0757  0.0750  0.3928
  596MPD2     C 8830   2.570   1.504  16.627 -0.5796 -0.3107  0.6163
  596MPD2    C1 8831   2.595   1.570  16.508 -0.0344 -0.1336 -0.4385
  596MPD2    C2 8832   2.618   1.502  16.389 -0.0804  0.2556  0.3613
  596MPD2    C3 8833   2.647   1.363  16.389  0.2515 -0.4195 -0.9865
  596MPD2    C4 8834   2.626   1.295  16.513 -1.2370  0.1429  0.4597
  596MPD2    C5 8835   2.592   1.373  16.623 -0.2825  0.1175  0.2376
  596MPD2     H 8836   2.630   1.561  16.299 -1.5486 -2.5933 -1.7202
  596MPD2    H1 8837   2.657   1.191  16.518 -1.4138  0.0235 -0.8669
  596MPD2    H2 8838   2.560   1.546  16.727  0.5883  1.2957  0.0472
  596MPD2    H3 8839   2.604   1.325  16.720 -1.3915 -0.6512  0.0024
  596MPD2     N 8840   2.686   1.297  16.273  0.9274 -0.3755 -0.6036
  596MPD2    H5 8841   2.734   1.210  16.292 -0.4236 -1.2053 -1.0105
  596MPD2    N1 8842   2.587   1.710  16.504 -0.6425 -0.0808  0.0990
  596MPD2    H7 8843   2.619   1.752  16.417 -0.9628 -1.5532 -0.7305
  597TMC3    C1 8844   2.517   1.925  16.581  0.3116 -0.0863  0.7685
  597TMC3    C2 8845   2.623   1.997  16.530 -0.2699 -0.3250 -0.0731
  597TMC3    C3 8846   2.622   2.137  16.519 -0.4411  0.2830  0.3851
  597TMC3    C4 8847   2.401   1.996  16.621 -0.2750  1.5675  0.0320
  597TMC3    C5 8848   2.401   2.132  16.606 -0.0550  0.3000 -0.4243
  597TMC3    C6 8849   2.513   2.207  16.569  0.1980 -0.2483 -0.1490
  597TMC3     C 8850   2.514   1.783  16.599 -0.5095  0.2454 -0.4188
  597TMC3     O 8851   2.440   1.750  16.690  0.2005 -0.4141 -0.0609
  597TMC3     H 8852   2.711   1.949  16.490 -1.3271 -2.7856  0.5333
  597TMC3    H1 8853   2.316   1.937  16.653  0.4783  1.6040  2.1146
  597TMC3    H2 8854   2.507   2.315  16.578  1.4004 -0.0764 -1.5340
  597TMC3    C7 8855   2.292   2.190  16.681  0.4190 -0.3008  0.2998
  597TMC3    C8 8856   2.735   2.204  16.448 -0.2217 -0.4035  0.6620
  597TMC3    O1 8857   2.244   2.116  16.767  0.5952  0.0578  0.9092
  597TMC3    O2 8858   2.845   2.154  16.449 -0.2396  0.1276  0.0095
  598TMC3    C1 8859   1.074   3.301  15.155  0.6126  0.5251  0.0672
  598TMC3    C2 8860   0.952   3.365  15.153 -0.1110  0.5893 -0.1549
  598TMC3    C3 8861   0.924   3.459  15.057  0.5416  0.1722 -0.3707
  598TMC3    C4 8862   1.180   3.351  15.072  0.2686 -0.0633 -0.3510
  598TMC3    C5 8863   1.142   3.454  14.983  0.1464 -0.1810  0.0161
  598TMC3    C6 8864   1.019   3.506  14.970  0.2174  0.3502 -0.1272
  598TMC3     C 8865   1.115   3.266  15.289  0.4560  0.7144  0.2505
  598TMC3     O 8866   1.056   3.322  15.381  0.4943  0.0071  0.0361
  598TMC3     H 8867   0.870   3.338  15.218 -0.4606  0.4005 -0.6716
  598TMC3    H1 8868   1.282   3.318  15.086  0.3259  1.1789  2.1289
  598TMC3    H2 8869   0.995   3.570  14.885  2.0457  0.3601 -0.6202
  598TMC3    C7 8870   1.245   3.488  14.888  0.0478 -0.2845 -0.8043
  598TMC3    C8 8871   0.793   3.462  15.013  0.0483 -0.1001 -0.2289
  598TMC3    O1 8872   1.302   3.384  14.853 -0.0971 -0.2045 -0.4966
  598TMC3    O2 8873   0.759   3.561  14.955 -0.0265  0.1403  0.0983
  599MPD2     C 8874   1.490   0.995  15.825  0.8224  0.0096  0.0697
  599MPD2    C1 8875   1.403   0.900  15.774  0.5113  0.0131  0.3044
  599MPD2    C2 8876   1.267   0.917  15.767 -0.4805  0.6285 -0.3334
  599MPD2    C3 8877   1.214   1.042  15.795  0.5069  0.1129  0.3340
  599MPD2    C4 8878   1.300   1.144  15.838  0.8699  0.3254  0.7085
  599MPD2    C5 8879   1.436   1.118  15.853 -0.4017  0.4691  0.2435
  599MPD2     H 8880   1.199   0.839  15.736 -2.0037  1.6885  0.3604
  599MPD2    H1 8881   1.257   1.240  15.861 -1.3356 -0.2298 -1.1270
  599MPD2    H2 8882   1.593   0.982  15.856  1.2731  2.7813 -0.2395
  599MPD2    H3 8883   1.501   1.184  15.910  0.7604  0.1915 -0.7693
  599MPD2     N 8884   1.075   1.074  15.810 -0.0946  0.0686 -0.6789
  599MPD2    H5 8885   1.052   1.171  15.828  1.0517  0.1006  0.5636
  599MPD2    N1 8886   1.468   0.771  15.749  0.0037  0.3708  0.7928
  599MPD2    H7 8887   1.568   0.777  15.760  0.0780 -0.9535  0.7724
  600TMC3    C1 8888   0.843   1.047  15.859  0.4295 -0.2172  0.7648
  600TMC3    C2 8889   0.737   0.966  15.856  0.1860  0.6536 -0.8250
  600TMC3    C3 8890   0.641   0.985  15.950  0.3446  0.7155 -0.5187
  600TMC3    C4 8891   0.839   1.151  15.954  0.1895  0.7368 -0.0339
  600TMC3    C5 8892   0.748   1.161  16.047  0.9825 -0.2357  0.4400
  600TMC3    C6 8893   0.642   1.079  16.046 -0.2633 -0.3314 -0.1831
  600TMC3     C 8894   0.969   0.988  15.805  0.0907  0.6382 -0.7176
  600TMC3     O 8895   0.971   0.868  15.792 -0.0646 -0.0632 -0.9593
  600TMC3     H 8896   0.729   0.883  15.786  1.8804 -1.5449  1.5668
  600TMC3    H1 8897   0.936   1.195  15.976 -0.6921  2.2599  0.8056
  600TMC3    H2 8898   0.557   1.086  16.113  1.5562 -1.5465  2.2801
  600TMC3    C7 8899   0.724   1.291  16.121  0.1077  0.2938  0.2133
  600TMC3    C8 8900   0.566   0.874  16.006 -0.1878 -0.1636  0.4452
  600TMC3    O1 8901   0.648   1.291  16.218  0.2530 -0.1245 -0.6636
  600TMC3    O2 8902   0.574   0.862  16.126 -0.4766  0.1190 -0.4458
  601MPD2     C 8903   3.462   3.863  17.502 -0.0778 -0.1289  0.5130
  601MPD2    C1 8904   3.335   3.815  17.540  0.5028 -0.4015 -0.6872
  601MPD2    C2 8905   3.333   3.693  17.599 -0.2025  0.2687  0.4102
  601MPD2    C3 8906   3.449   3.629  17.629 -0.2355  0.3716 -0.4939
  601MPD2    C4 8907   3.570   3.674  17.593  0.0938  0.2229 -0.1646
  601MPD2    C5 8908   3.578   3.796  17.529  0.6354 -0.6014 -0.5475
  601MPD2     H 8909   3.234   3.654  17.619  0.4256 -1.4355  0.1993
  601MPD2    H1 8910   3.662   3.618  17.599  0.0301  0.0589 -0.7160
  601MPD2    H2 8911   3.479   3.957  17.449 -1.0701 -1.1126 -1.5285
  601MPD2    H3 8912   3.672   3.843  17.504 -0.9881  1.8487 -1.9565
  601MPD2     N 8913   3.452   3.508  17.704 -0.2460  0.5446 -0.0574
  601MPD2    H5 8914   3.541   3.459  17.707  0.5574  1.9050 -1.4132
  601MPD2    N1 8915   3.217   3.883  17.511 -0.2988  0.1653 -0.0531
  601MPD2    H7 8916   3.131   3.846  17.550 -0.5379  0.4453 -0.3165
  602TMC3    C1 8917   3.082   4.048  17.424 -0.2533  0.6364 -0.2209
  602TMC3    C2 8918   3.058   4.184  17.411  0.4975 -0.0217  0.6086
  602TMC3    C3 8919   2.929   4.219  17.367  0.1882  0.1807  0.4737
  602TMC3    C4 8920   2.992   3.949  17.379  0.5099  0.3572 -0.5684
  602TMC3    C5 8921   2.876   3.988  17.322 -0.5256 -1.0843 -0.6230
  602TMC3    C6 8922   2.840   4.121  17.317  0.0586  0.1826 -0.9024
  602TMC3     C 8923   3.212   4.012  17.468  0.1981  0.1767  0.0213
  602TMC3     O 8924   3.295   4.096  17.459 -0.9326  0.1830 -0.5467
  602TMC3     H 8925   3.125   4.257  17.456 -1.4982  2.1122  0.0865
  602TMC3    H1 8926   3.021   3.845  17.373 -2.0939 -0.3040 -1.6428
  602TMC3    H2 8927   2.743   4.153  17.281 -0.6922 -1.2074 -0.1343
  602TMC3    C7 8928   2.766   3.888  17.307 -0.2581 -0.3912 -0.1311
  602TMC3    C8 8929   2.894   4.353  17.346 -0.3917  0.0177  0.0402
  602TMC3    O1 8930   2.780   3.779  17.366  0.2980  0.3833 -0.1852
  602TMC3    O2 8931   2.980   4.436  17.315 -0.0876 -0.0495 -0.1846
  603TMC3    C1 8932   1.077   3.875  10.174 -0.1910  0.5355 -0.3179
  603TMC3    C2 8933   1.120   3.869  10.307  0.1044  0.4222 -0.2578
  603TMC3    C3 8934   1.176   3.972  10.369 -0.0567  0.0853 -0.7199
  603TMC3    C4 8935   1.092   3.994  10.111  0.6559  0.0517 -0.3695
  603TMC3    C5 8936   1.151   4.102  10.178 -0.4026  0.1483 -0.0556
  603TMC3    C6 8937   1.197   4.089  10.310  0.1670 -0.2138  0.0193
  603TMC3     C 8938   0.984   3.782  10.136  0.2482 -0.4962  0.3904
  603TMC3     O 8939   0.982   3.746  10.018 -0.2880 -0.8732  0.1024
  603TMC3     H 8940   1.103   3.776  10.361  1.2959  0.1023 -0.4375
  603TMC3    H1 8941   1.059   4.000  10.008  2.4940  2.6187 -0.7970
  603TMC3    H2 8942   1.235   4.177  10.361  1.4486 -2.1060  2.3267
  603TMC3    C7 8943   1.195   4.218  10.108  0.0180  0.0482  0.1326
  603TMC3    C8 8944   1.210   3.949  10.506 -0.0615 -0.6667 -0.4157
  603TMC3    O1 8945   1.305   4.269  10.127 -0.0476  0.1641 -0.8394
  603TMC3    O2 8946   1.161   3.847  10.559  0.3122  0.0521  0.6629
  604MPD2     C 8947   2.180   3.018  16.059  0.1698 -0.3658 -0.5608
  604MPD2    C1 8948   2.071   2.953  16.006  0.0493  0.4714  0.0778
  604MPD2    C2 8949   2.077   2.874  15.887  0.0257  0.3093 -0.8047
  604MPD2    C3 8950   2.194   2.876  15.818 -0.9611 -0.6068 -0.0318
  604MPD2    C4 8951   2.306   2.935  15.877  0.1206  0.5396  0.8065
  604MPD2    C5 8952   2.301   3.003  15.998  0.5306  0.5108  0.5563
  604MPD2     H 8953   1.983   2.834  15.849  0.7264 -0.3512 -1.8574
  604MPD2    H1 8954   2.404   2.939  15.830  0.8897 -2.0469  2.1640
  604MPD2    H2 8955   2.183   3.085  16.144 -2.4631  0.2245 -0.9328
  604MPD2    H3 8956   2.384   3.060  16.039  0.1827  0.8446  0.8030
  604MPD2     N 8957   2.196   2.801  15.693  0.6706  0.0364 -0.3399
  604MPD2    H5 8958   2.109   2.784  15.643 -0.1577  0.4475  0.9654
  604MPD2    N1 8959   1.956   2.963  16.079  0.0573 -0.2700  0.3921
  604MPD2    H7 8960   1.971   3.030  16.153  2.6867 -1.4743  0.9679
  605TMC3    C1 8961   1.735   2.938  16.145 -0.3534  0.1883 -0.0591
  605TMC3    C2 8962   1.792   2.982  16.264 -0.3921  0.6278 -0.8769
  605TMC3    C3 8963   1.740   3.101  16.323 -0.6935 -1.4025 -0.7893
  605TMC3    C4 8964   1.630   3.002  16.088  0.1155 -0.3844 -0.1229
  605TMC3    C5 8965   1.592   3.120  16.150 -0.2518 -0.1926  0.4255
  605TMC3    C6 8966   1.647   3.176  16.261 -0.2756 -0.5945 -0.8567
  605TMC3     C 8967   1.841   2.896  16.059 -0.0977 -0.1104 -0.2545
  605TMC3     O 8968   1.809   2.804  15.990 -0.2558  0.0564  0.3384
  605TMC3     H 8969   1.874   2.923  16.302 -0.9814  0.4044  0.0607
  605TMC3    H1 8970   1.606   2.976  15.986  1.9246 -0.6036 -0.5004
  605TMC3    H2 8971   1.598   3.262  16.306  1.0794  1.1823 -2.8169
  605TMC3    C7 8972   1.469   3.185  16.105 -0.8241 -1.1291  0.5869
  605TMC3    C8 8973   1.853   3.182  16.347 -0.1472  0.3652 -0.8153
  605TMC3    O1 8974   1.470   3.308  16.099  0.6515 -0.5282  0.4371
  605TMC3    O2 8975   1.942   3.159  16.266  0.7412 -0.1080  0.0324
  606TMC3    C1 8976   2.088   1.996  17.318 -0.5550  0.2938 -0.1031
  606TMC3    C2 8977   2.012   1.930  17.415 -0.4210 -0.2154 -0.2558
  606TMC3    C3 8978   1.961   1.810  17.383 -0.1924  0.6667 -0.5071
  606TMC3    C4 8979   2.087   1.948  17.192 -0.0780  0.1770 -0.1598
  606TMC3    C5 8980   2.030   1.826  17.162 -0.0525 -0.3044  0.1370
  606TMC3    C6 8981   1.951   1.761  17.250 -0.5405  0.1900 -0.7450
  606TMC3     C 8982   2.156   2.131  17.329 -0.3549 -0.2277  0.6945
  606TMC3     O 8983   2.181   2.185  17.224 -0.4284 -0.4173 -0.3182
  606TMC3     H 8984   2.022   1.966  17.516  1.1325  3.6984 -1.7908
  606TMC3    H1 8985   2.131   1.996  17.106  1.2996  0.4924  0.7283
  606TMC3    H2 8986   1.893   1.675  17.219 -0.3114  0.6097 -2.3262
  606TMC3    C7 8987   2.111   1.742  17.076 -0.1499  0.2723 -0.6039
  606TMC3    C8 8988   2.013   1.703  17.466  0.2994  0.3654  0.2994
  606TMC3    O1 8989   2.187   1.798  17.000 -0.0353  0.0167  0.0005
  606TMC3    O2 8990   2.039   1.609  17.393  0.1603  0.2719  0.1350
  607MPD2     C 8991   0.595   3.884  11.362 -0.1841 -0.6526  0.2578
  607MPD2    C1 8992   0.638   3.969  11.462  0.3764  0.6357 -0.4549
  607MPD2    C2 8993   0.616   3.945  11.592 -0.0900 -0.1274 -0.2941
  607MPD2    C3 8994   0.555   3.830  11.627  0.0953 -0.4472 -0.5700
  607MPD2    C4 8995   0.507   3.743  11.528 -0.5595  0.0806 -0.1385
  607MPD2    C5 8996   0.524   3.770  11.393 -0.0935 -0.5140 -0.8073
  607MPD2     H 8997   0.650   4.005  11.676 -0.8991  0.0687 -0.1090
  607MPD2    H1 8998   0.461   3.648  11.552  0.4225 -0.2745  0.2889
  607MPD2    H2 8999   0.615   3.907  11.258  1.6473 -0.7917  0.5914
  607MPD2    H3 9000   0.487   3.710  11.310 -2.0124  0.6916 -0.8122
  607MPD2     N 9001   0.558   3.801  11.763  0.0260 -0.0758 -0.2028
  607MPD2    H5 9002   0.593   3.875  11.823  1.3990  0.4491 -1.6502
  607MPD2    N1 9003   0.707   4.088  11.427 -0.1049  0.2393 -0.9105
  607MPD2    H7 9004   0.737   4.142  11.508 -0.4599 -1.6856  0.5019
  608TMC3    C1 9005   0.849   4.229  11.329  0.1662 -0.1329 -0.1551
  608TMC3    C2 9006   0.937   4.216  11.438 -0.8006 -0.0993 -0.1470
  608TMC3    C3 9007   1.019   4.322  11.470 -0.5232  0.3366 -0.6240
  608TMC3    C4 9008   0.863   4.339  11.236  0.2978  0.5329  0.0767
  608TMC3    C5 9009   0.956   4.434  11.271  0.1728 -0.4233  0.0685
  608TMC3    C6 9010   1.042   4.423  11.385 -0.2405  0.1892  0.6433
  608TMC3     C 9011   0.745   4.131  11.309  0.0741  0.1559  0.2077
  608TMC3     O 9012   0.727   4.097  11.195  0.8068 -0.3643  0.1168
  608TMC3     H 9013   0.947   4.123  11.494 -2.0809 -1.9905 -3.0575
  608TMC3    H1 9014   0.802   4.358  11.149  2.2840  1.7650 -1.0462
  608TMC3    H2 9015   1.119   4.495  11.409 -0.7118  0.3772  1.5983
  608TMC3    C7 9016   0.994   4.526  11.166  0.1087 -0.4037  0.0533
  608TMC3    C8 9017   1.096   4.313  11.598  0.0206 -0.0739  0.3437
  608TMC3    O1 9018   0.966   4.504  11.048  0.0595  0.1225  0.8718
  608TMC3    O2 9019   1.201   4.385  11.609 -1.1487 -0.2821  0.1932
  609TMC3    C1 9020   3.670   2.943   9.131  0.2017  0.3661  0.1548
  609TMC3    C2 9021   3.535   2.916   9.137  0.5425  0.0433 -0.5042
  609TMC3    C3 9022   3.493   2.813   9.052 -0.2102  0.3114  0.5784
  609TMC3    C4 9023   3.751   2.892   9.036  0.3813  0.2262 -0.4242
  609TMC3    C5 9024   3.706   2.793   8.952 -0.3297  0.2917  0.2566
  609TMC3    C6 9025   3.574   2.748   8.960  0.2320 -0.1326  0.3026
  609TMC3     C 9026   3.735   3.045   9.211 -0.6810  0.3195  0.0488
  609TMC3     O 9027   3.858   3.054   9.216  0.2148  0.2486 -0.2582
  609TMC3     H 9028   3.470   2.965   9.208  2.2804 -1.6983  2.3098
  609TMC3    H1 9029   3.856   2.922   9.036  0.7659 -1.1391 -0.8651
  609TMC3    H2 9030   3.537   2.680   8.883  1.3107  1.1745 -1.3562
  609TMC3    C7 9031   3.803   2.702   8.907 -0.1980 -0.8818 -0.3246
  609TMC3    C8 9032   3.351   2.781   9.051 -0.4037  0.1007  0.2703
  609TMC3    O1 9033   3.908   2.715   8.971 -0.3923  0.0887 -0.1344
  609TMC3    O2 9034   3.272   2.858   9.099 -0.3546  0.0514 -0.1881
  610TMC3    C1 9035   0.867   4.441  12.288 -0.1926  0.3925  0.2555
  610TMC3    C2 9036   0.963   4.467  12.195  0.4119  0.1078 -0.3293
  610TMC3    C3 9037   1.077   4.394  12.192 -0.1887 -0.1358  0.4935
  610TMC3    C4 9038   0.874   4.337  12.382  0.2908 -0.1760  0.6816
  610TMC3    C5 9039   0.988   4.257  12.364 -0.0399 -0.2422 -0.3644
  610TMC3    C6 9040   1.087   4.276  12.272 -0.6843 -0.7130 -0.1843
  610TMC3     C 9041   0.753   4.531  12.277 -0.4727 -0.9960 -0.1651
  610TMC3     O 9042   0.785   4.649  12.273 -0.1262 -0.6017  0.5761
  610TMC3     H 9043   0.956   4.557  12.136 -0.3373  0.0746 -0.2919
  610TMC3    H1 9044   0.796   4.321  12.455 -0.6969  2.6274  0.2538
  610TMC3    H2 9045   1.179   4.218  12.276  0.1029  0.5923  1.0502
  610TMC3    C7 9046   1.007   4.152  12.458  0.6654  0.0436 -1.1168
  610TMC3    C8 9047   1.187   4.421  12.099 -0.3094 -0.6976 -0.6293
  610TMC3    O1 9048   1.069   4.051  12.425  0.1786 -0.0175  0.4162
  610TMC3    O2 9049   1.169   4.502  12.012 -0.2911 -0.2261 -0.1900
  611MPD2     C 9050   0.370   3.816   9.691  0.2766  0.0883 -0.3504
  611MPD2    C1 9051   0.275   3.912   9.649  0.9145  0.5901 -0.0017
  611MPD2    C2 9052   0.313   4.022   9.574  0.0154  0.0651  0.1617
  611MPD2    C3 9053   0.446   4.040   9.548  0.1823 -0.3837 -0.4530
  611MPD2    C4 9054   0.543   3.939   9.572 -0.0601 -0.4575 -0.5010
  611MPD2    C5 9055   0.500   3.832   9.642  0.3840  0.0261 -0.6007
  611MPD2     H 9056   0.237   4.098   9.559  0.1244  0.0068 -0.6639
  611MPD2    H1 9057   0.645   3.932   9.535  0.9403  1.4678  1.8889
  611MPD2    H2 9058   0.353   3.728   9.752 -0.4734  0.0975 -0.5506
  611MPD2    H3 9059   0.569   3.756   9.676  2.7738  3.2065  1.7551
  611MPD2     N 9060   0.497   4.168   9.502 -0.0123 -0.0052  0.2688
  611MPD2    H5 9061   0.599   4.166   9.506  0.0376  4.1501  0.4572
  611MPD2    N1 9062   0.133   3.892   9.681  0.7431  0.0882 -0.0492
  611MPD2    H7 9063   0.066   3.963   9.654  0.2917  0.1752  1.3139
  612TMC3    C1 9064   0.516   4.391   9.447 -0.2862  0.0230  0.3142
  612TMC3    C2 9065   0.648   4.392   9.474 -0.3878 -0.0855 -0.0701
  612TMC3    C3 9066   0.714   4.507   9.470  0.0859  0.2925  0.0436
  612TMC3    C4 9067   0.449   4.505   9.416  0.4058 -0.3324  0.3122
  612TMC3    C5 9068   0.513   4.619   9.403 -0.5145  0.5859  0.0321
  612TMC3    C6 9069   0.644   4.626   9.434 -0.2135  0.0985  0.3217
  612TMC3     C 9070   0.428   4.271   9.447 -0.9592 -0.1777  0.1611
  612TMC3     O 9071   0.308   4.283   9.436 -0.3802  0.6318 -0.0844
  612TMC3     H 9072   0.703   4.307   9.514 -0.5049 -0.3183 -0.4024
  612TMC3    H1 9073   0.341   4.513   9.419  0.4946  0.4082  1.6271
  612TMC3    H2 9074   0.694   4.723   9.435 -0.6607  0.3252  1.1825
  612TMC3    C7 9075   0.439   0.011   9.356  0.0489  0.1116 -0.3149
  612TMC3    C8 9076   0.852   4.520   9.511  0.4333 -0.2430 -0.1430
  612TMC3    O1 9077   0.319   4.724   9.334  0.3599  0.4857 -0.1167
  612TMC3    O2 9078   0.902   4.633   9.505 -0.2681  0.2913 -0.9219
  613MPD2     C 9079   4.173   1.633  16.016 -0.7814 -0.1482 -0.7914
  613MPD2    C1 9080   4.044   1.687  16.033 -0.3547 -0.5919  0.1069
  613MPD2    C2 9081   3.992   1.705  16.159 -0.5310 -0.1671  0.4121
  613MPD2    C3 9082   4.073   1.685  16.269 -0.1335  0.3817  0.0557
  613MPD2    C4 9083   4.205   1.639  16.244 -0.8485 -0.7945 -0.1202
  613MPD2    C5 9084   4.255   1.616  16.119  0.2803  0.2850  0.4301
  613MPD2     H 9085   3.893   1.745  16.175 -0.8905 -1.2142  0.8367
  613MPD2    H1 9086   4.275   1.603  16.319  2.2373  1.3259 -1.9678
  613MPD2    H2 9087   4.199   1.621  15.911  0.0815  2.4867 -0.8772
  613MPD2    H3 9088   4.356   1.578  16.112  0.3706  0.1009  2.6827
  613MPD2     N 9089   4.027   1.726  16.397  0.6993 -0.3063  0.0549
  613MPD2    H5 9090   4.073   1.684  16.477  3.0042  2.8956  0.3763
  613MPD2    N1 9091   3.959   1.717  15.919  0.2475 -0.1539 -0.5569
  613MPD2    H7 9092   3.860   1.726  15.941  0.4360 -0.2115  0.3302
  614TMC3    C1 9093   3.860   1.701  15.714 -0.0695  0.2603  0.5216
  614TMC3    C2 9094   3.768   1.651  15.808 -0.2848 -0.0935 -0.7726
  614TMC3    C3 9095   3.652   1.719  15.843 -0.4484 -0.0089  0.1599
  614TMC3    C4 9096   3.834   1.816  15.646 -0.2360 -0.2482 -0.0764
  614TMC3    C5 9097   3.720   1.888  15.687  0.3354  0.2939  0.1172
  614TMC3    C6 9098   3.629   1.842  15.779  0.3218  0.3738 -0.4801
  614TMC3     C 9099   3.989   1.710  15.783  0.4879  0.4537 -0.4150
  614TMC3     O 9100   4.092   1.745  15.726 -0.0261 -0.3187 -0.1376
  614TMC3     H 9101   3.793   1.562  15.865  0.0067  0.6964  0.3325
  614TMC3    H1 9102   3.911   1.844  15.574 -0.6678 -0.8274 -0.7601
  614TMC3    H2 9103   3.540   1.901  15.795  0.7139  0.3835  1.7319
  614TMC3    C7 9104   3.658   1.959  15.579  0.4173 -0.0919  0.4911
  614TMC3    C8 9105   3.611   1.695  15.977 -0.1182 -0.2898  1.0903
  614TMC3    O1 9106   3.561   2.026  15.602 -0.3361  0.4660 -0.0525
  614TMC3    O2 9107   3.698   1.649  16.052 -0.2579  0.2762 -0.3992
  615MPD2     C 9108   3.172   2.831  15.930  0.0326 -0.1776  0.4317
  615MPD2    C1 9109   3.264   2.893  15.846 -0.4214  0.4758  0.0766
  615MPD2    C2 9110   3.228   2.905  15.715 -0.7048 -0.2044  0.8745
  615MPD2    C3 9111   3.108   2.847  15.671  0.2876  0.1387 -0.4191
  615MPD2    C4 9112   3.018   2.785  15.754 -0.1863 -0.1622 -0.5887
  615MPD2    C5 9113   3.055   2.771  15.883  0.0181 -0.3297 -0.0831
  615MPD2     H 9114   3.297   2.945  15.642  1.8959  1.0801  4.0634
  615MPD2    H1 9115   2.918   2.761  15.721  0.0314 -2.3728  0.3581
  615MPD2    H2 9116   3.199   2.813  16.034 -0.1736  1.4626  0.7629
  615MPD2    H3 9117   2.989   2.715  15.948 -2.4562  2.6462 -0.0325
  615MPD2     N 9118   3.064   2.866  15.535  0.2205 -0.2724  0.2571
  615MPD2    H5 9119   2.973   2.825  15.516  0.8623 -0.0221 -3.3567
  615MPD2    N1 9120   3.381   2.956  15.890  0.0804 -0.0468 -0.8043
  615MPD2    H7 9121   3.433   3.004  15.817 -0.4574  0.7365 -0.6808
  616TMC3    C1 9122   3.562   3.019  16.031 -0.5883  0.1057 -0.0923
  616TMC3    C2 9123   3.607   3.105  15.940  0.2773  0.6588  0.2933
  616TMC3    C3 9124   3.733   3.148  15.948 -0.1319 -0.5885 -0.7513
  616TMC3    C4 9125   3.638   2.973  16.133  0.1859  0.2670 -0.3434
  616TMC3    C5 9126   3.771   3.016  16.132 -0.3052  0.2250 -0.7052
  616TMC3    C6 9127   3.825   3.105  16.044  0.4581 -0.8305 -0.0760
  616TMC3     C 9128   3.435   2.941  16.011 -0.6383  0.2038  0.2932
  616TMC3     O 9129   3.403   2.858  16.099  0.4047 -0.5674  0.1443
  616TMC3     H 9130   3.546   3.143  15.859 -1.4088 -0.8416  0.8676
  616TMC3    H1 9131   3.595   2.917  16.215 -0.9694 -0.7669 -1.6576
  616TMC3    H2 9132   3.931   3.110  16.023  0.6153  0.4521  1.0263
  616TMC3    C7 9133   3.855   2.957  16.241  0.1684  0.2961 -0.6943
  616TMC3    C8 9134   3.765   3.265  15.863 -0.3301  0.1454 -0.0150
  616TMC3    O1 9135   3.808   2.866  16.307 -0.4321  1.0659  0.3453
  616TMC3    O2 9136   3.677   3.308  15.790 -0.4410 -0.0162 -0.6390
  617MPD2     C 9137   1.688   1.228  13.166 -0.0464  0.2474  0.1706
  617MPD2    C1 9138   1.705   1.218  13.300  0.0965 -0.2123  0.0798
  617MPD2    C2 9139   1.596   1.215  13.383  0.0735 -0.3865 -0.3328
  617MPD2    C3 9140   1.465   1.229  13.331  0.1836 -0.1341  0.1186
  617MPD2    C4 9141   1.458   1.252  13.193  0.2345 -0.6479 -0.4892
  617MPD2    C5 9142   1.567   1.258  13.115  0.2666  0.1750  0.1401
  617MPD2     H 9143   1.610   1.219  13.490 -0.0843 -1.7560 -0.2540
  617MPD2    H1 9144   1.363   1.265  13.142  0.7927 -0.7991 -1.5668
  617MPD2    H2 9145   1.774   1.232  13.101  0.7707  0.6803  1.2963
  617MPD2    H3 9146   1.559   1.268  13.007 -3.1646 -1.1204  0.2984
  617MPD2     N 9147   1.345   1.227  13.413  0.1424  0.1525 -0.4898
  617MPD2    H5 9148   1.253   1.251  13.377 -0.0644  1.5372  0.9105
  617MPD2    N1 9149   1.840   1.216  13.342  0.2923  0.6276 -0.1634
  617MPD2    H7 9150   1.912   1.228  13.272  0.0115 -2.8664 -1.0177
  618TMC3    C1 9151   2.020   1.260  13.481  1.0425 -0.1943  0.5943
  618TMC3    C2 9152   2.107   1.188  13.560  0.3528  0.0074 -0.0007
  618TMC3    C3 9153   2.236   1.200  13.545  0.3561  0.2700  0.0203
  618TMC3    C4 9154   2.066   1.354  13.388  0.0305 -0.6395 -0.3412
  618TMC3    C5 9155   2.204   1.354  13.378 -0.4323  0.2709 -0.3694
  618TMC3    C6 9156   2.289   1.290  13.461  0.0645 -0.1613 -0.1187
  618TMC3     C 9157   1.882   1.225  13.475 -0.3179 -0.6730 -0.0455
  618TMC3     O 9158   1.826   1.191  13.580 -0.0089  0.2464 -0.0848
  618TMC3     H 9159   2.074   1.102  13.618  0.1384 -1.0687 -1.7092
  618TMC3    H1 9160   1.996   1.418  13.335 -0.4091 -0.7856  0.0655
  618TMC3    H2 9161   2.396   1.307  13.460 -0.1327  1.2408  3.7532
  618TMC3    C7 9162   2.261   1.412  13.260 -0.0453 -0.0308 -0.2617
  618TMC3    C8 9163   2.327   1.132  13.634 -0.5408  1.1149 -0.1096
  618TMC3    O1 9164   2.381   1.442  13.263 -0.5170  0.3275  0.0554
  618TMC3    O2 9165   2.301   1.116  13.756  0.0799  0.0718  0.7637
  619MPD2     C 9166   2.777   2.221  13.404 -0.2331 -0.2669  0.5754
  619MPD2    C1 9167   2.699   2.327  13.363  0.1786  0.7765  0.7926
  619MPD2    C2 9168   2.564   2.333  13.415 -0.0044  0.1745  0.1026
  619MPD2    C3 9169   2.513   2.228  13.497 -0.0075  0.9117  0.7595
  619MPD2    C4 9170   2.600   2.122  13.526  0.1791  0.2304  0.0117
  619MPD2    C5 9171   2.732   2.125  13.490 -0.4327 -0.6028 -0.2371
  619MPD2     H 9172   2.503   2.415  13.380  3.0183  2.1550 -0.5963
  619MPD2    H1 9173   2.564   2.037  13.581  1.0015  0.3110  0.6659
  619MPD2    H2 9174   2.876   2.199  13.368 -0.4509  0.0886 -0.2300
  619MPD2    H3 9175   2.804   2.045  13.503  1.6826  1.4955  0.9759
  619MPD2     N 9176   2.382   2.232  13.550  0.7928 -0.6108 -0.0327
  619MPD2    H5 9177   2.349   2.146  13.592  1.1681 -0.4271  0.6279
  619MPD2    N1 9178   2.737   2.432  13.276 -0.4973 -0.0892 -0.4098
  619MPD2    H7 9179   2.663   2.488  13.234  0.4351  0.7457 -0.9482
  620TMC3    C1 9180   2.841   2.505  13.089 -0.3636  0.2189  0.3628
  620TMC3    C2 9181   2.716   2.497  13.037 -0.2562  0.2012 -0.2017
  620TMC3    C3 9182   2.680   2.577  12.928  0.3623 -0.3208 -0.5576
  620TMC3    C4 9183   2.929   2.594  13.049  0.3029  0.0674 -0.2408
  620TMC3    C5 9184   2.902   2.663  12.940 -0.4927  0.2474  0.5074
  620TMC3    C6 9185   2.782   2.648  12.876  0.1637  0.4835  0.6622
  620TMC3     C 9186   2.857   2.444  13.218 -0.0807 -0.2127  0.5204
  620TMC3     O 9187   2.967   2.399  13.253 -0.1627 -0.2028  0.0449
  620TMC3     H 9188   2.652   2.412  13.058 -1.8592  0.9780 -1.8785
  620TMC3    H1 9189   3.033   2.587  13.080  0.1653 -0.1397  0.1683
  620TMC3    H2 9190   2.749   2.720  12.803 -0.7163 -2.0929 -1.4929
  620TMC3    C7 9191   2.954   2.797  12.916 -0.0706 -0.4301  0.4094
  620TMC3    C8 9192   2.579   2.674  12.980  0.2746  0.1091 -0.2884
  620TMC3    O1 9193   2.946   2.841  12.800  0.0704  0.6536 -0.2242
  620TMC3    O2 9194   2.613   2.790  12.968  0.4921 -0.3346 -0.7833
  621MPD2     C 9195   3.229   1.925   9.626  0.4597 -0.5531  0.2825
  621MPD2    C1 9196   3.352   1.915   9.682 -0.1106  0.6799  0.1269
  621MPD2    C2 9197   3.420   2.023   9.729  0.4149  0.5834  0.1613
  621MPD2    C3 9198   3.368   2.153   9.710  0.9063  0.7503  0.6490
  621MPD2    C4 9199   3.249   2.165   9.638  0.0222 -0.7384 -0.2863
  621MPD2    C5 9200   3.176   2.048   9.609 -0.1873 -0.2982 -0.2704
  621MPD2     H 9201   3.515   2.015   9.779  0.8762  0.2535 -0.7689
  621MPD2    H1 9202   3.205   2.263   9.622  0.1305 -0.6799 -0.2190
  621MPD2    H2 9203   3.181   1.834   9.593 -0.4627  0.1189 -0.2057
  621MPD2    H3 9204   3.084   2.059   9.553  1.1572  0.5598 -2.3085
  621MPD2     N 9205   3.457   2.262   9.745 -0.0632  0.3355  0.2060
  621MPD2    H5 9206   3.550   2.236   9.778 -0.1387 -0.0269  0.1322
  621MPD2    N1 9207   3.415   1.789   9.712 -0.0145  0.4998  0.5799
  621MPD2    H7 9208   3.516   1.785   9.701  0.0035  1.9902  0.1597
  622TMC3    C1 9209   3.437   1.570   9.792  0.3140 -0.3632 -0.7787
  622TMC3    C2 9210   3.544   1.626   9.864  0.5618  0.6332  1.0311
  622TMC3    C3 9211   3.616   1.560   9.957 -0.1099  0.0152  0.0685
  622TMC3    C4 9212   3.390   1.453   9.825  0.2111 -0.4092 -0.7786
  622TMC3    C5 9213   3.453   1.388   9.927 -0.0853  0.1104 -0.2463
  622TMC3    C6 9214   3.568   1.439   9.988 -0.1001 -0.3051  0.0400
  622TMC3     C 9215   3.348   1.672   9.735  0.4292 -0.3032  0.0406
  622TMC3     O 9216   3.227   1.652   9.751  0.0584  0.2435 -0.3880
  622TMC3     H 9217   3.573   1.730   9.866  2.6108  0.1013 -1.1566
  622TMC3    H1 9218   3.299   1.415   9.780  0.1814 -0.2351 -0.8667
  622TMC3    H2 9219   3.613   1.382  10.068  1.6339 -0.7045 -1.2179
  622TMC3    C7 9220   3.430   1.244   9.944 -0.6426  0.2808  0.7610
  622TMC3    C8 9221   3.633   1.637  10.079 -0.1425  0.3819 -0.4192
  622TMC3    O1 9222   3.526   1.194   9.996 -0.0432 -0.1656 -0.5906
  622TMC3    O2 9223   3.728   1.609  10.151 -0.0465  0.1301 -0.0005
  623MPD2     C 9224   2.458   3.160  15.585 -0.2731 -0.0897 -0.1534
  623MPD2    C1 9225   2.362   3.200  15.668 -0.0237 -0.4678  0.4062
  623MPD2    C2 9226   2.401   3.255  15.788 -0.2081 -0.4445 -0.3382
  623MPD2    C3 9227   2.530   3.277  15.822  0.5314 -0.1613 -0.3500
  623MPD2    C4 9228   2.628   3.239  15.735  0.3812  0.4378 -0.4158
  623MPD2    C5 9229   2.594   3.176  15.617 -0.0119  0.4998  0.6014
  623MPD2     H 9230   2.326   3.285  15.860  3.7449 -0.0811  3.6272
  623MPD2    H1 9231   2.735   3.233  15.755  0.8787  3.5304 -2.1702
  623MPD2    H2 9232   2.430   3.117  15.490  1.0188  0.5068 -0.8016
  623MPD2    H3 9233   2.678   3.145  15.557  0.3508  2.1758  0.2254
  623MPD2     N 9234   2.557   3.335  15.949 -0.6698  0.6015 -0.3642
  623MPD2    H5 9235   2.480   3.337  16.015 -0.6226  0.4442 -0.3026
  623MPD2    N1 9236   2.226   3.176  15.652  0.6494  0.2214 -0.3250
  623MPD2    H7 9237   2.161   3.201  15.726  0.5342 -0.3092 -0.2477
  624TMC3    C1 9238   2.733   3.372  16.372  0.4174  0.5408 -0.1284
  624TMC3    C2 9239   2.604   3.346  16.415 -0.6077 -0.2508 -0.4655
  624TMC3    C3 9240   2.503   3.333  16.327  0.4930  0.3063 -0.1984
  624TMC3    C4 9241   2.760   3.392  16.235  0.4178 -0.6354  0.0321
  624TMC3    C5 9242   2.654   3.392  16.149 -0.7146 -0.1878 -0.4885
  624TMC3    C6 9243   2.521   3.369  16.195  0.4152 -0.5343 -0.5368
  624TMC3     C 9244   2.834   3.349  16.473  0.0517  0.4230 -0.3352
  624TMC3     O 9245   2.812   3.318  16.591  0.1653 -0.2598  0.0954
  624TMC3     H 9246   2.588   3.333  16.522  0.0725 -2.2484 -0.6184
  624TMC3    H1 9247   2.859   3.399  16.191  0.0263 -2.0940 -1.0832
  624TMC3    H2 9248   2.435   3.387  16.132  0.6462  1.4242 -0.3065
  624TMC3    C7 9249   2.672   3.371  16.003  0.1324 -0.5718 -0.6750
  624TMC3    C8 9250   2.360   3.314  16.362  0.4256 -0.4670 -0.1815
  624TMC3    O1 9251   2.778   3.385  15.949  0.4421 -0.2831  0.0498
  624TMC3    O2 9252   2.283   3.294  16.271 -0.4272  0.4691 -0.0840
  625MPD2     C 9253   2.528   4.346   0.370  0.3150 -0.6600  0.1485
  625MPD2    C1 9254   2.527   4.456   0.455  0.3591 -0.3866 -1.0169
  625MPD2    C2 9255   2.572   4.438   0.587  0.2098  0.4742 -0.2164
  625MPD2    C3 9256   2.631   4.317   0.621 -0.3553 -0.9495 -0.1815
  625MPD2    C4 9257   2.630   4.210   0.537 -0.2997  0.0686  0.5024
  625MPD2    C5 9258   2.582   4.230   0.411  0.1670  0.2464  0.0598
  625MPD2     H 9259   2.565   4.511   0.667 -0.6414 -1.9244  1.9022
  625MPD2    H1 9260   2.670   4.112   0.558 -0.6476  0.0941  1.2913
  625MPD2    H2 9261   2.500   4.351   0.265 -3.0318 -3.0162  0.9345
  625MPD2    H3 9262   2.583   4.144   0.346  2.7767 -1.3973  2.2425
  625MPD2     N 9263   2.679   4.305   0.756 -0.2393  0.4970 -0.2664
  625MPD2    H5 9264   2.677   4.382   0.822 -1.7380  0.5005 -0.2998
  625MPD2    N1 9265   2.477   4.583   0.412  0.0156  0.1560  0.3506
  625MPD2    H7 9266   2.477   4.662   0.476  2.4472 -0.9440  1.7067
  626TMC3    C1 9267   2.417   0.040   0.275  0.2059  0.0607  0.2615
  626TMC3    C2 9268   2.321   0.087   0.194  0.2096  0.8063  0.0814
  626TMC3    C3 9269   2.303   0.225   0.202  0.8317 -0.3753 -0.8250
  626TMC3    C4 9270   2.512   0.122   0.341  0.6889 -0.7449 -0.0608
  626TMC3    C5 9271   2.485   0.255   0.346  0.2293  0.3930  0.0921
  626TMC3    C6 9272   2.376   0.311   0.283 -0.1907  0.0321 -0.0062
  626TMC3     C 9273   2.426   4.619   0.289 -0.2204  0.1201  0.3864
  626TMC3     O 9274   2.367   4.548   0.211  0.3443 -0.5317 -0.2882
  626TMC3     H 9275   2.251   0.016   0.151  1.9919 -0.5176 -0.6506
  626TMC3    H1 9276   2.596   0.083   0.397 -0.0437 -1.4957  0.5152
  626TMC3    H2 9277   2.360   0.417   0.267 -0.6492 -0.1267 -0.6208
  626TMC3    C7 9278   2.535   0.312   0.471  0.8928 -0.2815 -0.2679
  626TMC3    C8 9279   2.196   0.269   0.115  0.0494  0.2162 -0.6999
  626TMC3    O1 9280   2.636   0.272   0.531 -0.2490  0.2233  0.4161
  626TMC3    O2 9281   2.137   0.183   0.049  0.5010 -0.4666  0.6225
  627MPD2     C 9282   1.626   0.274  14.443 -0.0672  0.8033 -0.6500
  627MPD2    C1 9283   1.513   0.341  14.492  0.3468 -0.4244  0.5344
  627MPD2    C2 9284   1.392   0.288  14.496  0.0854  0.0678  0.0251
  627MPD2    C3 9285   1.371   0.176  14.417  0.4206  0.3463  0.1440
  627MPD2    C4 9286   1.473   0.122  14.344 -0.3216  1.6354  0.2156
  627MPD2    C5 9287   1.605   0.160  14.369  0.5711  0.1747 -0.9251
  627MPD2     H 9288   1.312   0.340  14.545 -0.5284 -0.9986  0.1470
  627MPD2    H1 9289   1.474   0.029  14.288 -0.4659  0.9821  1.2812
  627MPD2    H2 9290   1.728   0.311  14.443 -0.6893  2.5373 -0.4684
  627MPD2    H3 9291   1.687   0.119  14.311  0.0260 -0.0811 -1.5043
  627MPD2     N 9292   1.237   0.125  14.405 -0.3288  0.3151  0.4211
  627MPD2    H5 9293   1.168   0.161  14.470 -1.6523 -1.4907  0.0132
  627MPD2    N1 9294   1.518   0.470  14.554 -0.0947  0.0548  0.6448
  627MPD2    H7 9295   1.433   0.515  14.586 -1.5426 -1.0319 -1.7438
  628TMC3    C1 9296   1.618   0.671  14.650 -0.7132  0.3692 -0.4396
  628TMC3    C2 9297   1.719   0.728  14.717 -0.7269 -0.0863 -0.2130
  628TMC3    C3 9298   1.722   0.862  14.745 -0.1848 -0.0252  0.5466
  628TMC3    C4 9299   1.520   0.744  14.586 -0.3970  0.4613  0.1177
  628TMC3    C5 9300   1.531   0.877  14.610 -0.4584  0.4251  0.2159
  628TMC3    C6 9301   1.617   0.939  14.705  0.1766  0.7002  0.7974
  628TMC3     C 9302   1.634   0.535  14.598 -0.3513  0.1774  0.2181
  628TMC3     O 9303   1.747   0.495  14.616  0.0458  0.0528  0.0756
  628TMC3     H 9304   1.802   0.671  14.756 -0.0324  1.4133  0.5157
  628TMC3    H1 9305   1.453   0.709  14.508 -0.7665  0.0545  0.6097
  628TMC3    H2 9306   1.628   1.046  14.709 -2.1023  1.0034 -1.3020
  628TMC3    C7 9307   1.415   0.960  14.575  0.1961 -0.0220  0.2008
  628TMC3    C8 9308   1.818   0.915  14.840  0.2158 -0.3139 -0.2050
  628TMC3    O1 9309   1.359   1.026  14.663  0.5488 -0.4202  0.0424
  628TMC3    O2 9310   1.789   1.020  14.890  0.4401 -0.1115  0.8710
  629MPD2     C 9311   4.080   3.637  15.725 -0.3379 -0.1943 -0.3775
  629MPD2    C1 9312   4.134   3.586  15.838  0.4173  0.5008  0.0499
  629MPD2    C2 9313   4.055   3.493  15.903 -0.6737  0.3761  0.0464
  629MPD2    C3 9314   3.950   3.431  15.836 -0.4725  0.9751  0.4668
  629MPD2    C4 9315   3.898   3.476  15.720  0.2486 -0.2115 -0.2088
  629MPD2    C5 9316   3.969   3.580  15.665 -0.1019  0.7786  0.4441
  629MPD2     H 9317   4.093   3.443  15.992  0.1760  3.2139  1.2501
  629MPD2    H1 9318   3.808   3.439  15.671 -0.3607 -1.7614  2.1239
  629MPD2    H2 9319   4.129   3.724  15.685 -1.9006  1.3112  0.9857
  629MPD2    H3 9320   3.922   3.627  15.579 -2.0369 -1.4517  0.2756
  629MPD2     N 9321   3.884   3.329  15.905  0.1898  0.1482 -0.3422
  629MPD2    H5 9322   3.908   3.319  16.003  2.6115  0.2028 -0.9238
  629MPD2    N1 9323   4.264   3.632  15.884  0.5750 -0.0488  0.2565
  629MPD2    H7 9324   4.309   3.706  15.830  1.5529 -1.5882 -1.0251
  630TMC3    C1 9325   4.451   3.667  16.017  0.2523 -0.4325  0.0450
  630TMC3    C2 9326   4.519   3.724  15.912 -0.6372  0.2032 -0.4049
  630TMC3    C3 9327   4.654   3.741  15.915  0.9715 -0.0799 -0.6919
  630TMC3    C4 9328   4.517   3.631  16.132 -0.0223  0.5077 -0.0339
  630TMC3    C5 9329   4.651   3.639  16.122  0.0895 -0.1004 -0.5122
  630TMC3    C6 9330   4.718   3.674  16.012 -0.6387 -0.6951 -0.0262
  630TMC3     C 9331   4.324   3.605  16.000 -0.0404  0.3161 -0.0563
  630TMC3     O 9332   4.276   3.554  16.098  0.2793 -0.1448 -0.6948
  630TMC3     H 9333   4.462   3.749  15.823  2.2438 -0.3395 -2.4009
  630TMC3    H1 9334   4.469   3.560  16.199 -0.5839  1.6733  0.8122
  630TMC3    H2 9335   0.099   3.690  16.006 -0.8392  0.7690  0.3571
  630TMC3    C7 9336   4.711   3.666  16.254  0.3373  0.1584 -0.2922
  630TMC3    C8 9337   4.698   3.881  15.898 -0.5844 -0.0944  0.6049
  630TMC3    O1 9338   4.709   3.581  16.335  0.3612  0.1238 -0.5985
  630TMC3    O2 9339   0.060   3.918  15.973  0.1004 -0.4003 -0.2121
  631MPD2     C 9340   2.328   3.223  15.046  0.0317 -0.1888  0.3391
  631MPD2    C1 9341   2.442   3.299  15.024  0.2791  0.1513 -0.4511
  631MPD2    C2 9342   2.560   3.247  15.069 -0.2926 -0.4978 -0.2115
  631MPD2    C3 9343   2.565   3.126  15.138 -1.2501 -0.1374 -0.8199
  631MPD2    C4 9344   2.453   3.059  15.170 -0.6071 -0.2600 -0.2992
  631MPD2    C5 9345   2.331   3.111  15.129 -0.3371  0.2274 -0.7539
  631MPD2     H 9346   2.653   3.300  15.062  1.1822 -2.7802  1.9245
  631MPD2    H1 9347   2.457   2.968  15.228 -2.4312 -0.1329  0.0322
  631MPD2    H2 9348   2.233   3.261  15.011 -0.1239  2.4767  3.6077
  631MPD2    H3 9349   2.239   3.069  15.168  0.1566 -1.1771 -1.1253
  631MPD2     N 9350   2.694   3.076  15.168 -0.4127  0.1606 -0.0731
  631MPD2    H5 9351   2.772   3.130  15.132 -0.4258 -0.5197 -1.1031
  631MPD2    N1 9352   2.433   3.414  14.946  0.3586 -0.2048  0.6197
  631MPD2    H7 9353   2.343   3.449  14.914  0.8781  0.8744  0.3142
  632TMC3    C1 9354   2.511   3.578  14.789 -0.2031 -0.2265  0.2371
  632TMC3    C2 9355   2.405   3.666  14.825  0.0876  0.1194 -0.5375
  632TMC3    C3 9356   2.396   3.785  14.756 -0.2211  0.1901 -0.6272
  632TMC3    C4 9357   2.613   3.614  14.707  0.0098  0.8100  0.1428
  632TMC3    C5 9358   2.596   3.734  14.644  0.2181  0.3573 -0.8513
  632TMC3    C6 9359   2.490   3.821  14.663  0.1511  0.0053 -0.0384
  632TMC3     C 9360   2.543   3.486  14.897 -0.4262 -0.0656  0.0893
  632TMC3     O 9361   2.662   3.483  14.925  0.0649  0.0185 -0.1673
  632TMC3     H 9362   2.338   3.650  14.909  0.4547  2.4656  0.1977
  632TMC3    H1 9363   2.700   3.551  14.697  0.1333  0.9682  0.2313
  632TMC3    H2 9364   2.486   3.914  14.606 -2.8206 -0.1579 -0.0890
  632TMC3    C7 9365   2.696   3.776  14.559 -0.1481  0.3365  0.1418
  632TMC3    C8 9366   2.296   3.883  14.805  0.7053  0.0806  0.8727
  632TMC3    O1 9367   2.644   3.812  14.453 -0.1004 -0.2157  0.3657
  632TMC3    O2 9368   2.256   3.868  14.920 -0.4073  0.6892  0.1566
  633MPD2     C 9369   1.879   1.398  17.011 -0.4264 -0.6966  0.2288
  633MPD2    C1 9370   1.941   1.306  16.931  0.3724 -0.8782 -0.7692
  633MPD2    C2 9371   1.962   1.181  16.983 -0.2136  0.1759 -0.2205
  633MPD2    C3 9372   1.923   1.150  17.119  0.3347 -0.0669 -0.4121
  633MPD2    C4 9373   1.871   1.244  17.200 -0.0655 -0.4360 -0.4608
  633MPD2    C5 9374   1.848   1.367  17.143  0.2044  0.0538  0.1080
  633MPD2     H 9375   2.008   1.108  16.918 -0.6431 -1.6838  1.5536
  633MPD2    H1 9376   1.855   1.231  17.306  1.3785  1.8634  0.0499
  633MPD2    H2 9377   1.854   1.498  16.976  1.2732  0.6965  2.9719
  633MPD2    H3 9378   1.806   1.445  17.205  2.2328 -1.7347  3.7306
  633MPD2     N 9379   1.945   1.024  17.179  0.2284  0.6908  0.1068
  633MPD2    H5 9380   1.934   1.029  17.280 -1.5440 -1.2328  0.0164
  633MPD2    N1 9381   1.987   1.339  16.799 -0.4606  0.3901  0.2085
  633MPD2    H7 9382   2.057   1.277  16.757  1.9802  2.1310  1.6863
  634TMC3    C1 9383   2.070   1.467  16.626  0.6063 -0.5738  0.2913
  634TMC3    C2 9384   2.156   1.360  16.599  0.4356  0.1262 -0.1056
  634TMC3    C3 9385   2.243   1.381  16.493  0.8998 -0.3850 -0.8285
  634TMC3    C4 9386   2.079   1.587  16.559 -0.8048  0.7659 -0.6341
  634TMC3    C5 9387   2.176   1.603  16.463 -0.8918 -0.3342 -0.8101
  634TMC3    C6 9388   2.249   1.494  16.420  0.1930  1.0130 -0.8787
  634TMC3     C 9389   1.989   1.471  16.747  0.1697  0.2479 -0.6470
  634TMC3     O 9390   1.946   1.579  16.783 -0.0475 -0.0333  0.8098
  634TMC3     H 9391   2.136   1.257  16.626 -0.2539 -0.1561 -1.6765
  634TMC3    H1 9392   2.003   1.663  16.575 -0.2566  1.0904  0.4349
  634TMC3    H2 9393   2.336   1.515  16.360  0.3150  0.2899 -0.9523
  634TMC3    C7 9394   2.198   1.732  16.390  0.1547  0.8971 -0.5320
  634TMC3    C8 9395   2.279   1.253  16.429  0.5855 -0.0337 -0.0316
  634TMC3    O1 9396   2.266   1.745  16.291 -0.3022 -0.6320 -0.2798
  634TMC3    O2 9397   2.303   1.159  16.500 -0.1807 -0.3724  0.2060
  635TMC3    C1 9398   2.960   2.458  17.433 -0.1710  0.3179  0.0271
  635TMC3    C2 9399   2.955   2.469  17.295  0.3821 -0.0123  0.0249
  635TMC3    C3 9400   2.843   2.425  17.224  0.0410  0.3631  0.0258
  635TMC3    C4 9401   2.862   2.401  17.500 -0.2332 -0.7762  0.1581
  635TMC3    C5 9402   2.746   2.359  17.430  0.0570  0.6190 -0.0104
  635TMC3    C6 9403   2.728   2.376  17.288  0.3561 -0.1229 -0.3428
  635TMC3     C 9404   3.068   2.512  17.510 -0.0766  0.0656 -0.5187
  635TMC3     O 9405   3.043   2.549  17.626  0.2913  0.4817 -0.3026
  635TMC3     H 9406   3.036   2.522  17.246  0.5629  0.9819  1.4139
  635TMC3    H1 9407   2.886   2.394  17.605 -1.0190  2.0355  0.5063
  635TMC3    H2 9408   2.637   2.344  17.239 -0.8970  1.1562  1.1398
  635TMC3    C7 9409   2.677   2.244  17.489 -0.5932 -0.0056  0.0845
  635TMC3    C8 9410   2.833   2.462  17.083 -0.8122 -0.3128 -0.0812
  635TMC3    O1 9411   2.713   2.211  17.602  0.1137  0.0996 -0.0245
  635TMC3    O2 9412   2.727   2.448  17.027  0.0288  0.1045 -0.1881
  636MPD2     C 9413   3.423   2.132  16.079 -0.3150 -0.2036  0.5623
  636MPD2    C1 9414   3.561   2.140  16.078  1.0879  0.0698  0.1288
  636MPD2    C2 9415   3.627   2.101  16.192  0.4421  0.7839 -0.6550
  636MPD2    C3 9416   3.553   2.070  16.306  0.0435 -0.6760  0.3149
  636MPD2    C4 9417   3.416   2.069  16.308  1.4411  1.0584  0.6518
  636MPD2    C5 9418   3.349   2.107  16.195 -0.4860  0.4532  0.3186
  636MPD2     H 9419   3.735   2.101  16.200  0.2592 -0.5751  1.9739
  636MPD2    H1 9420   3.360   2.044  16.398  1.8008  1.5454  1.0110
  636MPD2    H2 9421   3.376   2.139  15.981  1.0507  2.0934  0.0648
  636MPD2    H3 9422   3.240   2.108  16.197 -0.4690  0.7491  1.5342
  636MPD2     N 9423   3.637   2.030  16.422  0.3423 -0.5658  0.3514
  636MPD2    H5 9424   3.734   2.007  16.402 -0.1532  0.0291 -2.7059
  636MPD2    N1 9425   3.638   2.180  15.963  0.9514  0.7921 -0.1653
  636MPD2    H7 9426   3.738   2.166  15.958  0.5059 -2.1543 -0.7080
  637TMC3    C1 9427   3.696   1.948  16.616 -0.3802 -0.3292  0.7887
  637TMC3    C2 9428   3.823   1.949  16.567  0.3187  0.4651  0.1616
  637TMC3    C3 9429   3.890   1.829  16.552 -0.0701 -0.3288 -0.1398
  637TMC3    C4 9430   3.639   1.835  16.662  0.6071  0.4247 -0.9570
  637TMC3    C5 9431   3.691   1.723  16.620 -0.6326  0.8224  0.4721
  637TMC3    C6 9432   3.822   1.714  16.592 -0.7540 -0.9061 -0.1127
  637TMC3     C 9433   3.594   2.014  16.548 -0.4871  0.9545 -0.6188
  637TMC3     O 9434   3.479   2.013  16.592 -0.3341  0.1170 -0.1898
  637TMC3     H 9435   3.867   2.046  16.547  0.9965 -0.4626 -2.8087
  637TMC3    H1 9436   3.541   1.836  16.707  0.5498  0.4192 -1.0813
  637TMC3    H2 9437   3.861   1.617  16.562  0.4613 -0.5006  0.1594
  637TMC3    C7 9438   3.627   1.665  16.500  0.4859  0.5348 -0.2743
  637TMC3    C8 9439   3.934   1.820  16.422 -0.4548  0.6136  0.2925
  637TMC3    O1 9440   3.707   1.620  16.415  0.2851  0.5614 -0.1342
  637TMC3    O2 9441   3.865   1.888  16.348  0.0496  0.3020  0.3765
  638MPD2     C 9442   3.705   0.555  14.701 -0.5549  0.9287 -0.6310
  638MPD2    C1 9443   3.659   0.467  14.604  0.2297 -0.3703 -0.1320
  638MPD2    C2 9444   3.548   0.382  14.633 -0.5780  0.6016 -0.7291
  638MPD2    C3 9445   3.492   0.380  14.756 -0.6760  0.8314 -0.6786
  638MPD2    C4 9446   3.544   0.469  14.852 -0.0943 -0.3733 -0.1649
  638MPD2    C5 9447   3.645   0.548  14.823  0.3747  0.4836  0.2975
  638MPD2     H 9448   3.514   0.310  14.560  0.2116 -0.2433 -0.2705
  638MPD2    H1 9449   3.507   0.471  14.954 -1.6603  0.9223 -0.7521
  638MPD2    H2 9450   3.791   0.617  14.681  0.3136 -0.0923 -0.0746
  638MPD2    H3 9451   3.677   0.618  14.899  0.9531 -0.1973  0.6832
  638MPD2     N 9452   3.373   0.303  14.785 -0.1176  0.3895 -0.1190
  638MPD2    H5 9453   3.340   0.243  14.710  0.1566  0.5514 -0.3687
  638MPD2    N1 9454   3.728   0.449  14.480 -0.4899  0.4831  0.2745
  638MPD2    H7 9455   3.791   0.521  14.448 -0.8708 -0.2234 -2.1172
  639TMC3    C1 9456   3.183   0.221  14.892 -0.8730  0.5591 -0.4886
  639TMC3    C2 9457   3.122   0.214  14.768  0.3015 -0.7068  0.3262
  639TMC3    C3 9458   3.014   0.134  14.752 -0.2483  0.2581 -0.1154
  639TMC3    C4 9459   3.147   0.135  14.993 -0.2023 -0.1836  0.6530
  639TMC3    C5 9460   3.060   0.033  14.968 -0.5106  0.2331  0.0817
  639TMC3    C6 9461   2.996   0.031  14.844  0.4285 -0.0317  0.2248
  639TMC3     C 9462   3.309   0.293  14.907  0.4524  1.1504 -0.6393
  639TMC3     O 9463   3.341   0.339  15.017  0.1979 -0.3308 -0.0623
  639TMC3     H 9464   3.155   0.272  14.683  0.1096 -0.2497  0.5646
  639TMC3    H1 9465   3.201   0.125  15.086  1.7776  2.1550 -0.2331
  639TMC3    H2 9466   2.918   4.683  14.833 -0.4760  0.7653  1.1474
  639TMC3    C7 9467   3.131   4.637  14.987  0.2316  0.8793 -0.9209
  639TMC3    C8 9468   2.971   0.105  14.615  0.2774 -0.1067 -0.4329
  639TMC3    O1 9469   3.132   4.583  15.096  0.0617 -0.5855  0.1199
  639TMC3    O2 9470   3.055   0.132  14.530 -0.4226 -0.1880  0.3132
  640MPD2     C 9471   3.830   3.217   8.951 -0.2272 -0.4040  0.2619
  640MPD2    C1 9472   3.861   3.313   9.041 -0.3260  0.0669 -0.2611
  640MPD2    C2 9473   3.776   3.416   9.053 -0.1034  0.1991  0.2584
  640MPD2    C3 9474   3.648   3.417   8.987  0.5084  0.6461 -0.0807
  640MPD2    C4 9475   3.624   3.319   8.896 -0.9401  0.3690 -0.0775
  640MPD2    C5 9476   3.721   3.221   8.868 -0.3603  0.5280  0.3255
  640MPD2     H 9477   3.804   3.488   9.129 -3.6512  1.2377  0.6090
  640MPD2    H1 9478   3.538   3.322   8.830  0.0459 -0.0256 -1.3602
  640MPD2    H2 9479   3.899   3.136   8.929  0.0926 -0.7371  2.5181
  640MPD2    H3 9480   3.710   3.151   8.786  1.6968 -0.0266  0.5274
  640MPD2     N 9481   3.540   3.515   9.001  0.1021 -0.4690 -0.1223
  640MPD2    H5 9482   3.466   3.511   8.933 -0.2728 -1.3713  0.3314
  640MPD2    N1 9483   3.993   3.304   9.100  0.2236 -0.3382 -0.0904
  640MPD2    H7 9484   4.047   3.223   9.072  1.0445  0.4794 -0.8556
  641TMC3    C1 9485   4.187   3.366   9.231  0.4776  0.4115 -0.0061
  641TMC3    C2 9486   4.253   3.253   9.188  0.5305 -0.6212 -0.0758
  641TMC3    C3 9487   4.389   3.244   9.209  0.4233 -0.2943  0.9200
  641TMC3    C4 9488   4.256   3.474   9.287 -0.3668  0.2714  0.7433
  641TMC3    C5 9489   4.392   3.462   9.301  0.0677  0.2732 -0.2910
  641TMC3    C6 9490   4.456   3.344   9.271  0.6349 -0.9166 -0.8049
  641TMC3     C 9491   4.045   3.395   9.187 -0.1082 -0.2300  0.0558
  641TMC3     O 9492   3.999   3.505   9.223 -0.1118 -0.1965  0.2466
  641TMC3     H 9493   4.198   3.168   9.149 -2.7380  2.3659 -2.0087
  641TMC3    H1 9494   4.207   3.564   9.322 -0.2089  0.0236  1.6025
  641TMC3    H2 9495   4.564   3.348   9.284  0.1028  0.7830  3.2738
  641TMC3    C7 9496   4.470   3.571   9.353 -0.3146  0.2023 -0.0332
  641TMC3    C8 9497   4.457   3.124   9.162 -0.1937  0.9076  0.3707
  641TMC3    O1 9498   4.590   3.569   9.329  0.0440  0.7149  0.3339
  641TMC3    O2 9499   4.390   3.029   9.124 -0.2869 -0.9244 -0.2802
  642TMC3    C1 9500   0.473   0.377  11.822  0.5550  0.3022  0.1077
  642TMC3    C2 9501   0.538   0.453  11.721 -0.0098 -0.1602 -0.6296
  642TMC3    C3 9502   0.546   0.395  11.592 -0.5779  0.2052  0.5669
  642TMC3    C4 9503   0.420   0.250  11.792  0.0429  0.6378  0.7146
  642TMC3    C5 9504   0.444   0.198  11.659 -0.3211 -0.0340 -0.7596
  642TMC3    C6 9505   0.518   0.264  11.565 -0.2470  0.2634  0.4570
  642TMC3     C 9506   0.421   0.462  11.922  0.0278 -0.1123 -0.2134
  642TMC3     O 9507   0.487   0.560  11.953  0.6545  0.3293  0.1066
  642TMC3     H 9508   0.589   0.544  11.753 -1.1514 -1.0921  3.8507
  642TMC3    H1 9509   0.369   0.196  11.871 -3.8184 -1.2956 -3.0899
  642TMC3    H2 9510   0.529   0.233  11.461  1.4763 -0.1369  0.7484
  642TMC3    C7 9511   0.432   0.060  11.638 -0.0663  0.1531  0.3127
  642TMC3    C8 9512   0.573   0.488  11.484 -0.1370 -0.3395  0.5744
  642TMC3    O1 9513   0.436   0.012  11.526  0.6010  0.5365  0.0427
  642TMC3    O2 9514   0.567   0.446  11.369  0.1242  0.4196 -0.6701
  643TMC3    C1 9515   3.817   0.197   0.090  0.1399 -0.0798 -0.5496
  643TMC3    C2 9516   3.717   0.267   0.031 -0.4665  0.1240  0.6028
  643TMC3    C3 9517   3.683   0.237  17.612 -0.3312  0.2723  0.1696
  643TMC3    C4 9518   3.889   0.101   0.020 -0.1338  0.0864  0.3881
  643TMC3    C5 9519   3.837   0.063  17.609  0.9752  0.1176  0.0128
  643TMC3    C6 9520   3.740   0.137  17.541  0.1638 -0.6677 -0.3747
  643TMC3     C 9521   3.856   0.237   0.221  0.2050 -0.1811 -0.3445
  643TMC3     O 9522   3.770   0.275   0.301 -0.2535  0.3096 -0.1149
  643TMC3     H 9523   3.673   0.350   0.086  1.5848  0.5280  1.6517
  643TMC3    H1 9524   3.980   0.051   0.051  0.1817  0.1909 -0.3883
  643TMC3    H2 9525   3.728   0.102  17.439  3.0683  2.5485 -1.8089
  643TMC3    C7 9526   3.925   4.713  17.518 -0.1044 -0.5341 -1.3209
  643TMC3    C8 9527   3.639   0.349  17.536  0.2173 -0.2873  0.1880
  643TMC3    O1 9528   4.046   0.015  17.509 -0.0206 -0.6238 -0.0262
  643TMC3    O2 9529   3.551   0.424  17.580  1.0138  0.5611 -0.0204
  644MPD2     C 9530   4.574   4.345   9.228  0.3103  0.0868  1.0152
  644MPD2    C1 9531   4.623   4.222   9.198 -0.2987 -0.0122 -0.2623
  644MPD2    C2 9532   4.535   4.119   9.169 -0.0128 -0.3251 -0.8463
  644MPD2    C3 9533   4.396   4.142   9.172 -0.2042  0.6545 -0.7865
  644MPD2    C4 9534   4.353   4.264   9.212  0.2673 -0.4409 -0.1722
  644MPD2    C5 9535   4.440   4.364   9.232 -0.1948  0.2124  0.9408
  644MPD2     H 9536   4.572   4.018   9.152  1.9823  0.1671  0.5868
  644MPD2    H1 9537   4.250   4.300   9.210  0.3126 -0.4436 -2.5488
  644MPD2    H2 9538   4.640   4.427   9.253  0.1739  0.2611  0.7948
  644MPD2    H3 9539   4.386   4.458   9.240 -1.5812 -0.4797 -0.4925
  644MPD2     N 9540   4.322   4.032   9.130 -0.0270 -0.0951  0.4567
  644MPD2    H5 9541   4.379   3.954   9.100  0.5866  0.8152 -0.7161
  644MPD2    N1 9542   0.041   4.208   9.198 -0.2847  0.5658 -0.2787
  644MPD2    H7 9543   0.096   4.288   9.227 -1.6357  0.8120  1.6359
  645TMC3    C1 9544   4.130   3.906   9.074  0.6744  0.2586  0.0451
  645TMC3    C2 9545   4.198   3.793   9.072 -0.0494  0.2450  0.5080
  645TMC3    C3 9546   4.154   3.699   8.991  0.4101  0.0681 -0.7124
  645TMC3    C4 9547   4.001   3.919   9.026  0.3337  0.1832 -0.1836
  645TMC3    C5 9548   3.947   3.809   8.964 -0.2720 -0.0205 -0.5817
  645TMC3    C6 9549   4.023   3.696   8.939 -0.4650 -0.4478 -0.3575
  645TMC3     C 9550   4.185   4.030   9.128  0.2814  0.0506  0.0766
  645TMC3     O 9551   4.111   4.122   9.136 -0.6747 -0.3176  0.2220
  645TMC3     H 9552   4.299   3.790   9.111  0.0806 -0.4049  0.1136
  645TMC3    H1 9553   3.950   4.014   9.025  0.9609  0.5272  3.3595
  645TMC3    H2 9554   3.985   3.600   8.906 -0.9432 -0.2665 -0.3408
  645TMC3    C7 9555   3.816   3.830   8.905  0.0369  0.6525  0.1151
  645TMC3    C8 9556   4.249   3.586   8.962  0.0087  0.1927 -0.6328
  645TMC3    O1 9557   3.759   3.940   8.911 -0.3704 -0.2225 -0.8785
  645TMC3    O2 9558   4.354   3.580   9.029 -0.2613 -0.1406 -0.1115
  646MPD2     C 9559   3.697   3.985  13.986  0.0567 -0.2202  0.7163
  646MPD2    C1 9560   3.617   4.012  14.095 -0.5706  0.1576  0.6412
  646MPD2    C2 9561   3.506   4.093  14.072  0.3227 -0.1505  0.1287
  646MPD2    C3 9562   3.467   4.143  13.950 -0.0023 -0.3315 -0.3799
  646MPD2    C4 9563   3.551   4.122  13.845  0.0224  0.0702  1.0981
  646MPD2    C5 9564   3.663   4.038  13.861 -0.0280 -0.3791 -0.1964
  646MPD2     H 9565   3.455   4.133  14.159 -1.5846 -1.3117 -0.4351
  646MPD2    H1 9566   3.525   4.156  13.746  0.6555  1.9184  1.5623
  646MPD2    H2 9567   3.791   3.931  13.993  1.3747  1.9422 -0.2908
  646MPD2    H3 9568   3.724   4.008  13.776 -1.8334  1.3502 -2.1005
  646MPD2     N 9569   3.356   4.226  13.927 -0.2906  0.3325 -0.2753
  646MPD2    H5 9570   3.348   4.270  13.835  1.6326 -1.0953 -1.1354
  646MPD2    N1 9571   3.672   3.971  14.213  0.2142  0.2858  0.0240
  646MPD2    H7 9572   3.755   3.912  14.204 -1.8901 -2.6320 -0.3031
  647TMC3    C1 9573   3.672   3.924  14.437 -0.1520  0.1960  0.1082
  647TMC3    C2 9574   3.596   3.858  14.531 -0.4272  0.1239 -0.2723
  647TMC3    C3 9575   3.659   3.783  14.615 -1.1004 -0.4228  0.6228
  647TMC3    C4 9576   3.810   3.910  14.427 -0.2752 -0.0183 -0.0545
  647TMC3    C5 9577   3.872   3.842  14.527 -0.2234 -0.0110  0.1569
  647TMC3    C6 9578   3.799   3.776  14.619  0.4862 -0.6107  0.0307
  647TMC3     C 9579   3.596   3.978  14.328  0.9884  0.0554 -0.1426
  647TMC3     O 9580   3.478   3.995  14.347 -0.5127 -0.1608  0.3678
  647TMC3     H 9581   3.489   3.868  14.544 -0.4025 -3.0067  2.2915
  647TMC3    H1 9582   3.865   3.968  14.353 -0.2638  0.7079  0.5165
  647TMC3    H2 9583   3.836   3.712  14.698  1.7184  1.7949  1.4108
  647TMC3    C7 9584   4.010   3.844  14.550 -0.0657  1.0383 -0.0839
  647TMC3    C8 9585   3.587   3.674  14.665 -0.2773 -0.2852  0.0803
  647TMC3    O1 9586   4.038   3.802  14.663 -0.2633  0.0696  0.7033
  647TMC3    O2 9587   3.634   3.610  14.760 -0.1091  0.5578 -0.5536
  648TMC3    C1 9588   2.730   1.298  16.036  0.4664  0.6712 -0.3269
  648TMC3    C2 9589   2.835   1.212  16.054  0.0369 -0.2670 -0.2767
  648TMC3    C3 9590   2.931   1.214  15.961  0.6371 -0.0842  0.2131
  648TMC3    C4 9591   2.724   1.389  15.938  0.3401  0.3386 -0.2654
  648TMC3    C5 9592   2.835   1.401  15.859  0.3831 -0.1129  0.3617
  648TMC3    C6 9593   2.937   1.311  15.860 -0.1194  0.1485  0.2217
  648TMC3     C 9594   2.640   1.334  16.146 -0.0590  0.3268 -0.5040
  648TMC3     O 9595   2.552   1.415  16.125  0.1799  0.0392 -0.4546
  648TMC3     H 9596   2.838   1.150  16.143 -0.2628  1.8844  1.2539
  648TMC3    H1 9597   2.639   1.454  15.918 -0.7119 -0.4360  1.7869
  648TMC3    H2 9598   3.020   1.322  15.791  0.4412  0.1659  0.9065
  648TMC3    C7 9599   2.848   1.513  15.766 -0.2542  0.0923 -0.7350
  648TMC3    C8 9600   3.032   1.111  15.976  0.0428  0.1051  0.3138
  648TMC3    O1 9601   2.920   1.487  15.670 -0.2535 -0.5595 -0.2250
  648TMC3    O2 9602   3.021   1.026  16.066  0.3244  0.2179  0.1000
  649TMC3    C1 9603   1.392   2.349  12.645 -1.1456  0.6919  0.5033
  649TMC3    C2 9604   1.525   2.367  12.610  0.0750 -0.0913 -0.1123
  649TMC3    C3 9605   1.618   2.348  12.717 -0.6674  0.3844  0.2729
  649TMC3    C4 9606   1.357   2.316  12.769 -0.5078  0.2220  0.2383
  649TMC3    C5 9607   1.448   2.300  12.867  0.1388 -0.4116  0.5654
  649TMC3    C6 9608   1.585   2.317  12.844 -0.1023 -0.1142 -0.0127
  649TMC3     C 9609   1.295   2.399  12.556 -0.1370  0.2097 -0.1428
  649TMC3     O 9610   1.187   2.433  12.599 -0.0410  0.6201  0.1700
  649TMC3     H 9611   1.551   2.399  12.510 -1.7411  0.4083 -0.4339
  649TMC3    H1 9612   1.253   2.291  12.789 -0.4893 -1.4506 -1.7067
  649TMC3    H2 9613   1.658   2.317  12.925  0.4536 -1.4279 -0.5174
  649TMC3    C7 9614   1.399   2.328  13.003  0.0037  0.3388  0.0510
  649TMC3    C8 9615   1.757   2.395  12.697  0.4775  0.6424 -0.3091
  649TMC3    O1 9616   1.322   2.420  13.006 -0.3215 -0.6617 -0.0263
  649TMC3    O2 9617   1.813   2.437  12.794 -0.1240 -0.0509 -0.7428
  650TMC3    C1 9618   4.191   4.116  11.971  0.2623 -0.1899 -0.1741
  650TMC3    C2 9619   4.193   4.254  11.964  0.1109 -0.2873 -1.2197
  650TMC3    C3 9620   4.083   4.314  11.917  0.3271  0.0236  0.0517
  650TMC3    C4 9621   4.086   4.043  11.937  0.0492  0.5374 -0.1170
  650TMC3    C5 9622   3.973   4.102  11.885  0.1950  0.1800 -0.1834
  650TMC3    C6 9623   3.972   4.239  11.878  0.3812 -0.1962  0.4530
  650TMC3     C 9624   4.317   4.046  12.005 -0.1681  0.1766 -0.9964
  650TMC3     O 9625   4.415   4.113  11.983 -0.2355 -0.4637  0.2285
  650TMC3     H 9626   4.276   4.309  12.005  0.0995 -1.1675 -0.0053
  650TMC3    H1 9627   4.083   3.935  11.929  3.0074  0.4191  0.3563
  650TMC3    H2 9628   3.872   4.281  11.886 -0.4066 -1.3904 -2.8997
  650TMC3    C7 9629   3.872   4.023  11.821  0.5011  0.3480 -0.3562
  650TMC3    C8 9630   4.075   4.461  11.942 -0.2371 -0.5819 -0.6662
  650TMC3    O1 9631   3.856   3.914  11.866 -0.3020 -0.0722  0.2125
  650TMC3    O2 9632   4.176   4.519  11.981 -0.2901 -0.2046  0.1315
  651MPD2     C 9633   2.956   0.868  10.359  0.4225 -0.5729 -0.0871
  651MPD2    C1 9634   2.941   0.998  10.327 -0.1677 -0.4808 -0.6786
  651MPD2    C2 9635   3.056   1.062  10.289 -0.6465 -0.2983 -0.2573
  651MPD2    C3 9636   3.177   0.999  10.288  0.7672  0.1978 -0.0830
  651MPD2    C4 9637   3.187   0.867  10.320 -0.0781  0.4792 -0.2920
  651MPD2    C5 9638   3.073   0.802  10.358  0.3321  0.3503  0.6670
  651MPD2     H 9639   3.056   1.169  10.273  0.7464 -0.0527  1.4293
  651MPD2    H1 9640   3.280   0.811  10.320 -0.1483  0.3673 -0.8777
  651MPD2    H2 9641   2.866   0.826  10.401  0.2785  0.4122  0.5899
  651MPD2    H3 9642   3.080   0.696  10.380  0.2889  0.0500 -0.7285
  651MPD2     N 9643   3.289   1.090  10.279  0.3469 -0.4673  0.0985
  651MPD2    H5 9644   3.279   1.191  10.277 -1.6155 -0.6668 -0.0212
  651MPD2    N1 9645   2.816   1.067  10.307  0.0456  0.5432  0.3538
  651MPD2    H7 9646   2.810   1.161  10.268 -0.7167  1.2968  2.3005
  652TMC3    C1 9647   3.748   1.190  10.296  0.4951  0.5332  0.1645
  652TMC3    C2 9648   3.652   1.117  10.257  0.3643 -0.3967 -0.5383
  652TMC3    C3 9649   3.523   1.156  10.283  0.2026  0.2295 -0.1556
  652TMC3    C4 9650   3.727   1.311  10.354  0.9311  0.2954 -0.5469
  652TMC3    C5 9651   3.604   1.360  10.365 -0.1529  0.1130 -0.0719
  652TMC3    C6 9652   3.496   1.280  10.326  0.2176 -0.0931  0.3857
  652TMC3     C 9653   3.884   1.159  10.258 -0.5419  0.3710 -0.5180
  652TMC3     O 9654   3.906   1.113  10.149  0.3425 -0.5250  0.4801
  652TMC3     H 9655   3.677   1.022  10.213  0.8775 -0.5872  0.1704
  652TMC3    H1 9656   3.814   1.363  10.392  0.0407  1.6065 -0.3258
  652TMC3    H2 9657   3.396   1.317  10.343  0.2820 -0.3095  1.1978
  652TMC3    C7 9658   3.593   1.472  10.465 -0.5677 -0.2061  0.8440
  652TMC3    C8 9659   3.419   1.051  10.278  0.0483  0.7264 -0.3017
  652TMC3    O1 9660   3.506   1.464  10.549 -0.0125 -0.0039  0.1720
  652TMC3    O2 9661   3.463   0.936  10.265 -0.4744  0.0070 -0.3590
  653MPD2     C 9662   1.642   1.928  17.495  0.0195 -0.0530  0.4866
  653MPD2    C1 9663   1.684   1.988  17.379  0.2951  0.9054 -0.7316
  653MPD2    C2 9664   1.663   1.938  17.254 -0.0331 -0.1394  0.5015
  653MPD2    C3 9665   1.603   1.811  17.242 -0.1049 -0.6287 -0.3263
  653MPD2    C4 9666   1.563   1.743  17.360 -0.3527 -0.6689 -0.2845
  653MPD2    C5 9667   1.574   1.810  17.476 -0.3443 -0.0358  0.0668
  653MPD2     H 9668   1.691   1.981  17.159  2.1806 -0.4964  0.9820
  653MPD2    H1 9669   1.521   1.644  17.354  0.8831 -1.2042  0.0298
  653MPD2    H2 9670   1.665   1.966  17.593 -1.3863  0.9652  0.4316
  653MPD2    H3 9671   1.548   1.750  17.563  2.0507 -1.8017 -0.4219
  653MPD2     N 9672   1.569   1.754  17.119 -0.1232 -1.0341  0.0240
  653MPD2    H5 9673   1.565   1.814  17.038 -1.4029  1.5289  1.9946
  653MPD2    N1 9674   1.760   2.110  17.371 -0.1028 -0.2721 -0.1194
  653MPD2    H7 9675   1.785   2.146  17.280 -0.0550  0.5272  0.2074
  654TMC3    C1 9676   1.497   1.595  16.964  0.4748 -0.4970  0.6431
  654TMC3    C2 9677   1.417   1.698  16.912 -0.5431 -0.1315 -0.0586
  654TMC3    C3 9678   1.377   1.669  16.784 -0.0788 -0.5560 -0.3014
  654TMC3    C4 9679   1.540   1.483  16.901 -0.1047 -0.2168  0.1040
  654TMC3    C5 9680   1.501   1.464  16.771 -0.6975 -0.3282 -0.1314
  654TMC3    C6 9681   1.426   1.555  16.715 -0.5465 -0.0052  0.4504
  654TMC3     C 9682   1.546   1.619  17.102 -0.1201 -0.1400 -0.2340
  654TMC3     O 9683   1.581   1.529  17.177 -0.5467 -0.3265  0.3474
  654TMC3     H 9684   1.371   1.785  16.958  0.9964 -0.7899  2.7707
  654TMC3    H1 9685   1.621   1.420  16.936  0.4118  0.7193  0.5917
  654TMC3    H2 9686   1.396   1.545  16.611  2.1503  0.0281 -0.3207
  654TMC3    C7 9687   1.554   1.347  16.702  0.1842 -0.7247 -0.2912
  654TMC3    C8 9688   1.239   1.704  16.760  0.0361 -0.3161  0.4366
  654TMC3    O1 9689   1.564   1.338  16.578  0.6048  0.5979  0.0900
  654TMC3    O2 9690   1.210   1.811  16.811 -0.5057  0.2076 -0.4212
  655MPD2     C 9691   3.440   1.672  15.559 -0.2341  0.0257  0.2115
  655MPD2    C1 9692   3.340   1.743  15.489  0.7260 -0.5080  0.0619
  655MPD2    C2 9693   3.327   1.717  15.357 -0.4139  0.3972  0.0266
  655MPD2    C3 9694   3.388   1.606  15.299 -0.1750  0.4754  0.2819
  655MPD2    C4 9695   3.491   1.543  15.367 -0.3855  0.6753 -0.5314
  655MPD2    C5 9696   3.519   1.577  15.493 -0.3229  0.2628  0.1316
  655MPD2     H 9697   3.267   1.791  15.305 -0.6138 -0.5680 -1.1180
  655MPD2    H1 9698   3.527   1.452  15.321 -1.3513  0.6079 -1.1609
  655MPD2    H2 9699   3.459   1.690  15.664 -0.1816 -1.0945  0.4031
  655MPD2    H3 9700   3.586   1.517  15.553 -0.4984 -0.7543 -0.6849
  655MPD2     N 9701   3.345   1.563  15.170  0.6525  0.4984  0.3480
  655MPD2    H5 9702   3.389   1.479  15.134 -1.1817 -1.4320  2.5710
  655MPD2    N1 9703   3.269   1.846  15.550 -0.1145 -0.1254 -0.0679
  655MPD2    H7 9704   3.216   1.909  15.490  2.9997  2.2427 -0.3227
  656TMC3    C1 9705   3.206   2.000  15.723  0.3887  0.2796  0.6976
  656TMC3    C2 9706   3.135   1.988  15.840  0.3264  0.2443 -0.1261
  656TMC3    C3 9707   3.031   2.076  15.858  0.1000 -0.0432  0.6581
  656TMC3    C4 9708   3.189   2.099  15.631 -0.5152 -0.4480  0.0385
  656TMC3    C5 9709   3.081   2.179  15.651  0.0276 -0.0338  0.0334
  656TMC3    C6 9710   3.001   2.176  15.767 -0.1641 -0.3638  0.0228
  656TMC3     C 9711   3.276   1.881  15.687 -0.2288 -0.0055 -0.6658
  656TMC3     O 9712   3.335   1.826  15.782 -0.2038 -0.0249 -0.5098
  656TMC3     H 9713   3.153   1.905  15.907  0.2621  0.2478 -0.1042
  656TMC3    H1 9714   3.247   2.106  15.540  2.3390 -1.0309  1.8218
  656TMC3    H2 9715   2.917   2.245  15.765 -0.7473 -1.1356 -1.7640
  656TMC3    C7 9716   3.043   2.251  15.528  0.0897 -0.5668  0.5543
  656TMC3    C8 9717   2.936   2.032  15.959  0.2896  1.2735 -0.6935
  656TMC3    O1 9718   3.115   2.231  15.430  0.1058  0.7198  0.0484
  656TMC3    O2 9719   2.951   1.919  16.003 -0.2304  0.2412  0.3863
  657TMC3    C1 9720   2.225   1.031  14.632 -0.0205  0.1605  0.6067
  657TMC3    C2 9721   2.248   1.064  14.761 -0.2099 -0.3990  0.4309
  657TMC3    C3 9722   2.198   1.188  14.793  1.1696  0.2610 -0.2999
  657TMC3    C4 9723   2.136   1.099  14.553  0.4390 -0.1550 -0.0794
  657TMC3    C5 9724   2.075   1.212  14.602  0.6799  0.1980  0.2267
  657TMC3    C6 9725   2.110   1.257  14.721 -0.3471 -0.8242  0.4661
  657TMC3     C 9726   2.259   0.900  14.596  0.3513  0.1741 -0.6375
  657TMC3     O 9727   2.178   0.842  14.520 -0.2171  0.0987 -0.7635
  657TMC3     H 9728   2.316   1.006  14.822  0.2835 -1.1130 -0.7953
  657TMC3    H1 9729   2.120   1.074  14.449  0.3057  1.0124 -0.3381
  657TMC3    H2 9730   2.052   1.343  14.753 -3.2800 -2.5193 -0.2826
  657TMC3    C7 9731   2.022   1.314  14.507  0.1798 -0.1755 -0.0021
  657TMC3    C8 9732   2.228   1.248  14.918 -0.9842  0.8632  0.5267
  657TMC3    O1 9733   1.935   1.385  14.552 -0.4211 -0.1457  0.5898
  657TMC3    O2 9734   2.157   1.335  14.965  0.2523 -0.3733  0.1204
  658MPD2     C 9735   3.509   1.015  14.808  0.0262  0.4090 -0.2034
  658MPD2    C1 9736   3.491   1.136  14.736 -0.0699 -0.2588  0.3013
  658MPD2    C2 9737   3.544   1.139  14.608  0.0615 -0.0472 -0.0682
  658MPD2    C3 9738   3.591   1.028  14.542 -0.0755 -0.1569  0.1164
  658MPD2    C4 9739   3.616   0.916  14.619  0.4226 -0.1974 -0.0213
  658MPD2    C5 9740   3.572   0.908  14.750  0.2100  0.3810  0.0714
  658MPD2     H 9741   3.527   1.226  14.547 -0.8329  0.4144  0.8368
  658MPD2    H1 9742   3.668   0.826  14.590 -2.6212 -1.4347 -1.5958
  658MPD2    H2 9743   3.470   0.994  14.907  1.3144 -0.6183  0.0842
  658MPD2    H3 9744   3.583   0.819  14.811 -1.8206 -0.9991 -1.5704
  658MPD2     N 9745   3.624   1.037  14.406 -0.0918  0.1243 -0.2585
  658MPD2    H5 9746   3.588   1.116  14.353  1.2435  1.3355  0.6267
  658MPD2    N1 9747   3.422   1.238  14.796  0.4812 -0.9623  0.1302
  658MPD2    H7 9748   3.390   1.217  14.891 -0.8960 -4.4378 -1.0963
  659TMC3    C1 9749   3.264   1.410  14.806  0.1487  0.1475  0.0009
  659TMC3    C2 9750   3.299   1.475  14.919 -0.4909  0.5779 -0.2664
  659TMC3    C3 9751   3.208   1.560  14.970  0.2325  0.5826  1.1129
  659TMC3    C4 9752   3.155   1.449  14.733 -0.1115  0.2587 -0.3022
  659TMC3    C5 9753   3.070   1.546  14.783 -0.0634 -0.0545  0.4519
  659TMC3    C6 9754   3.096   1.596  14.904  0.3149 -0.1221  0.3666
  659TMC3     C 9755   3.360   1.342  14.723  0.0774  0.4889 -0.0436
  659TMC3     O 9756   3.353   1.354  14.601 -0.3986  0.5047 -0.5049
  659TMC3     H 9757   3.399   1.465  14.958 -2.0231 -0.6487  3.3373
  659TMC3    H1 9758   3.132   1.389  14.645  0.7568  1.0451 -1.0699
  659TMC3    H2 9759   3.023   1.663  14.949 -0.3179 -0.4255 -0.2019
  659TMC3    C7 9760   2.946   1.555  14.710  0.1165 -0.1293  0.1834
  659TMC3    C8 9761   3.232   1.615  15.103 -0.3334 -0.3209 -0.2937
  659TMC3    O1 9762   2.851   1.585  14.779  0.1504 -0.4064  0.1128
  659TMC3    O2 9763   3.175   1.723  15.122 -0.2726  0.1546  0.0054
  660MPD2     C 9764   1.830   0.270  12.290 -0.3272 -0.3277 -0.0721
  660MPD2    C1 9765   1.701   0.317  12.254 -0.8882  0.4258  0.4517
  660MPD2    C2 9766   1.588   0.289  12.325 -0.4842  0.7252 -0.2850
  660MPD2    C3 9767   1.605   0.226  12.443  0.6332  0.1306  0.1079
  660MPD2    C4 9768   1.730   0.181  12.489 -0.0507  0.4248 -0.0413
  660MPD2    C5 9769   1.843   0.201  12.420 -0.1431 -0.4556 -0.0765
  660MPD2     H 9770   1.490   0.305  12.281 -0.9685  2.1022  1.2761
  660MPD2    H1 9771   1.745   0.129  12.583 -0.8777  2.3374  1.1359
  660MPD2    H2 9772   1.922   0.291  12.236 -1.9570  0.6780 -2.4418
  660MPD2    H3 9773   1.938   0.173  12.466 -0.2730  1.6359  1.4808
  660MPD2     N 9774   1.497   0.200  12.531  0.1041 -0.0182 -0.1075
  660MPD2    H5 9775   1.504   0.122  12.597  0.1726  0.2677  0.2231
  660MPD2    N1 9776   1.698   0.395  12.134 -0.0603 -0.1396  0.1359
  660MPD2    H7 9777   1.783   0.430  12.093 -0.7785 -1.1022 -2.1715
  661TMC3    C1 9778   1.596   0.479  11.939  0.0451  0.0405  0.2851
  661TMC3    C2 9779   1.678   0.411  11.852  0.1470  0.1433 -0.3556
  661TMC3    C3 9780   1.652   0.421  11.712  0.3670  0.6675  0.9085
  661TMC3    C4 9781   1.482   0.537  11.888  0.3885 -0.3917  0.4078
  661TMC3    C5 9782   1.450   0.526  11.759 -0.5945 -0.0501 -0.1658
  661TMC3    C6 9783   1.538   0.480  11.666 -0.2994  0.3426  0.0365
  661TMC3     C 9784   1.574   0.417  12.071 -0.1996  0.2669  0.8828
  661TMC3     O 9785   1.458   0.408  12.105 -0.5522 -0.6781 -0.3113
  661TMC3     H 9786   1.741   0.335  11.897 -1.9210 -2.0956 -1.2251
  661TMC3    H1 9787   1.410   0.588  11.951 -1.1726 -1.7467 -0.2816
  661TMC3    H2 9788   1.522   0.519  11.566 -1.4156 -2.4948 -0.8961
  661TMC3    C7 9789   1.320   0.564  11.707 -0.8877  0.3086 -0.0947
  661TMC3    C8 9790   1.739   0.360  11.620  0.0693  0.3650 -0.4985
  661TMC3    O1 9791   1.255   0.646  11.768 -0.1898  0.3902  0.9915
  661TMC3    O2 9792   1.710   0.361  11.502  0.3961  0.0932 -0.1288
  662MPD2     C 9793   1.546   0.016   0.248 -0.4383 -0.3484 -0.8878
  662MPD2    C1 9794   1.466   0.010   0.132 -0.0264  0.0205 -0.0225
  662MPD2    C2 9795   1.414   0.129   0.084 -0.2968  0.6128  0.6926
  662MPD2    C3 9796   1.415   0.244   0.166 -1.2518 -0.6380  0.0727
  662MPD2    C4 9797   1.487   0.242   0.283 -0.4415 -0.2779  0.0318
  662MPD2    C5 9798   1.562   0.132   0.323 -0.4537  0.1629 -0.2331
  662MPD2     H 9799   1.359   0.130  17.698 -1.3477 -0.8589  1.2938
  662MPD2    H1 9800   1.492   0.327   0.350 -0.6535 -2.4852  2.8600
  662MPD2    H2 9801   1.592   4.648   0.276  1.5128  0.3693 -1.6843
  662MPD2    H3 9802   1.628   0.133   0.409  0.2356 -2.8865 -0.7139
  662MPD2     N 9803   1.352   0.366   0.124 -0.1559 -0.3731 -0.4766
  662MPD2    H5 9804   1.317   0.365   0.029  1.1237 -0.8306 -0.9425
  662MPD2    N1 9805   1.443   4.625   0.047  0.0300  0.0792  0.3605
  662MPD2    H7 9806   1.382   4.643  17.676 -1.3014  3.0740  2.0967
  663TMC3    C1 9807   1.417   4.403  17.700  0.2955  0.3454 -1.3944
  663TMC3    C2 9808   1.319   4.330   0.048 -0.1220 -0.1604  0.2008
  663TMC3    C3 9809   1.224   4.274  17.675  0.1250 -0.4351  0.1970
  663TMC3    C4 9810   1.441   4.419  17.572  0.2709 -0.2428  0.3166
  663TMC3    C5 9811   1.364   4.343  17.494 -0.1507 -0.0497  0.0353
  663TMC3    C6 9812   1.258   4.271  17.540 -0.1736  0.0339  0.3369
  663TMC3     C 9813   1.481   4.500   0.082  0.8536  0.1517  0.7315
  663TMC3     O 9814   1.548   4.463   0.178 -0.4035 -0.5522 -0.0889
  663TMC3     H 9815   1.305   4.346   0.154 -3.6376  1.8043 -0.5747
  663TMC3    H1 9816   1.523   4.479  17.533  0.7805 -0.4677  1.0525
  663TMC3    H2 9817   1.175   4.254  17.472 -0.2329 -0.1353  0.4496
  663TMC3    C7 9818   1.380   4.366  17.353  0.2384  0.0031 -0.1459
  663TMC3    C8 9819   1.092   4.317  17.701 -0.1847  0.6015 -0.4884
  663TMC3    O1 9820   1.422   4.474  17.310 -0.3640  0.5043  0.2856
  663TMC3    O2 9821   1.008   4.269  17.630  0.0583 -0.3017  0.2367
  664MPD2     C 9822   4.251   3.659  17.068 -0.3829 -0.2487 -0.6009
  664MPD2    C1 9823   4.388   3.670  17.080  0.1572  0.1947  0.2584
  664MPD2    C2 9824   4.450   3.694  17.200  0.0168  0.8104 -0.4201
  664MPD2    C3 9825   4.371   3.711  17.310 -0.1802  0.1422 -0.3254
  664MPD2    C4 9826   4.231   3.700  17.300 -0.5323  0.1821  1.0409
  664MPD2    C5 9827   4.169   3.670  17.180  0.0743  0.7903 -0.3395
  664MPD2     H 9828   4.557   3.688  17.211  0.2432  1.3452 -2.3517
  664MPD2    H1 9829   4.169   3.701  17.389 -0.6509  0.1865  0.9586
  664MPD2    H2 9830   4.193   3.635  16.980 -2.5853 -1.4866  1.1776
  664MPD2    H3 9831   4.065   3.651  17.159 -0.7252 -0.3652  4.6330
  664MPD2     N 9832   4.431   3.728  17.437  0.6263  0.5699  0.2357
  664MPD2    H5 9833   4.533   3.736  17.436  0.8313 -1.7411  0.8063
  664MPD2    N1 9834   4.478   3.650  16.967  0.2543  0.1251 -0.4722
  664MPD2    H7 9835   4.577   3.668  16.983  0.4607 -1.6860  0.2776
  665TMC3    C1 9836   4.466   3.778  17.662 -0.3485  0.4488 -0.2869
  665TMC3    C2 9837   4.422   3.763   0.088 -0.4943  0.3356 -0.2504
  665TMC3    C3 9838   4.524   3.780   0.184 -1.3581  0.8449  0.6398
  665TMC3    C4 9839   4.590   3.814  17.633 -0.3272  0.2325 -0.2386
  665TMC3    C5 9840   4.677   3.842   0.022 -0.2986 -0.2380 -0.5865
  665TMC3    C6 9841   4.651   3.806   0.152  0.7543  0.5811 -0.3483
  665TMC3     C 9842   4.362   3.761  17.561 -0.0452  0.5365  0.3984
  665TMC3     O 9843   4.248   3.774  17.601  0.0772  0.1818 -0.3609
  665TMC3     H 9844   4.320   3.738   0.114 -0.0559 -0.0909  1.0396
  665TMC3    H1 9845   4.609   3.850  17.532  1.2128  2.2203  0.7712
  665TMC3    H2 9846   4.722   3.822   0.232 -0.3980 -0.8869  0.9643
  665TMC3    C7 9847   0.071   3.923  17.695 -0.0993  0.7611  0.0284
  665TMC3    C8 9848   4.485   3.787   0.327  0.0942  0.0106 -0.3332
  665TMC3    O1 9849   0.109   3.927  17.578 -0.0418  0.4514 -0.1932
  665TMC3    O2 9850   4.552   3.714   0.401  0.4246  0.0325 -0.0779
  666TMC3    C1 9851   3.540   2.486   9.773  0.3741  0.3429 -0.6719
  666TMC3    C2 9852   3.673   2.454   9.756 -0.8303 -0.1761  0.7636
  666TMC3    C3 9853   3.760   2.545   9.819 -0.1117  0.3920  0.0538
  666TMC3    C4 9854   3.502   2.605   9.818 -0.4685 -0.3530 -0.8427
  666TMC3    C5 9855   3.593   2.700   9.862  0.1142 -0.0019 -0.6083
  666TMC3    C6 9856   3.723   2.670   9.865 -0.3787  0.2112  0.3869
  666TMC3     C 9857   3.434   2.398   9.715  0.7386 -0.4285  0.4388
  666TMC3     O 9858   3.327   2.449   9.689  0.1047  0.9397 -0.1457
  666TMC3     H 9859   3.703   2.357   9.718 -0.8250  0.2432 -0.2876
  666TMC3    H1 9860   3.399   2.636   9.820 -0.5210 -0.6637  1.7254
  666TMC3    H2 9861   3.799   2.729   9.914 -1.3443  0.6406  1.3441
  666TMC3    C7 9862   3.540   2.822   9.930  0.1838 -0.0843 -0.7757
  666TMC3    C8 9863   3.891   2.490   9.854  0.3317  0.3184  0.1965
  666TMC3    O1 9864   3.423   2.829   9.952  0.4646  0.1810  0.4375
  666TMC3    O2 9865   3.895   2.367   9.857  0.7577 -0.7248  0.1517
  667MPD2     C 9866   0.951   3.460  14.606 -0.0321  0.8802 -0.0295
  667MPD2    C1 9867   0.842   3.529  14.651 -0.5036  0.0216  0.2669
  667MPD2    C2 9868   0.711   3.475  14.635 -0.2146 -0.0326 -0.0097
  667MPD2    C3 9869   0.695   3.347  14.591 -0.1653 -0.3552 -0.6426
  667MPD2    C4 9870   0.810   3.267  14.571  0.1604 -0.4034  0.3446
  667MPD2    C5 9871   0.930   3.333  14.565  0.9175  0.4924 -0.1321
  667MPD2     H 9872   0.629   3.540  14.664 -1.4197 -1.3786 -0.3688
  667MPD2    H1 9873   0.809   3.163  14.543 -0.4400 -0.3459  0.1704
  667MPD2    H2 9874   1.052   3.498  14.594 -0.7049  1.7684 -2.8939
  667MPD2    H3 9875   1.009   3.265  14.534 -0.6379 -1.1444 -0.5247
  667MPD2     N 9876   0.563   3.287  14.575 -0.7108  0.3716  0.7721
  667MPD2    H5 9877   0.570   3.186  14.570  2.8502  0.5880  1.8696
  667MPD2    N1 9878   0.849   3.663  14.699  0.0282 -0.3432 -0.3156
  667MPD2    H7 9879   0.767   3.700  14.745  0.8743  1.7782 -0.5092
  668TMC3    C1 9880   0.945   3.871  14.752  0.6624  0.7124  0.0250
  668TMC3    C2 9881   0.990   3.984  14.694  0.9618  0.5621  0.1343
  668TMC3    C3 9882   0.977   4.098  14.766 -0.0475  0.3336  0.0893
  668TMC3    C4 9883   0.893   3.873  14.880 -0.1573 -0.2955  0.9533
  668TMC3    C5 9884   0.882   3.992  14.948  0.1001 -0.6828 -0.4659
  668TMC3    C6 9885   0.923   4.101  14.889 -0.4889 -0.2236 -0.2787
  668TMC3     C 9886   0.955   3.746  14.674 -0.8987  0.0888 -0.4986
  668TMC3     O 9887   1.042   3.739  14.588  0.2598 -0.4046 -0.3047
  668TMC3     H 9888   1.024   3.978  14.591 -0.7447 -0.0816 -0.3961
  668TMC3    H1 9889   0.865   3.775  14.917  1.3921 -1.0490  0.1438
  668TMC3    H2 9890   0.909   4.194  14.943 -0.7837  0.2294 -1.1442
  668TMC3    C7 9891   0.833   3.992  15.089 -0.5912 -0.4198  0.9675
  668TMC3    C8 9892   1.030   4.216  14.719 -0.4319  0.2087 -0.5312
  668TMC3    O1 9893   0.872   4.077  15.167  0.2050 -0.0553  0.0074
  668TMC3    O2 9894   0.994   4.322  14.769 -0.5572  0.2920 -0.0923
  669TMC3    C1 9895   3.490   3.333  14.108  0.3965  0.0772  0.6117
  669TMC3    C2 9896   3.385   3.304  14.025 -0.6630 -0.2037 -0.8841
  669TMC3    C3 9897   3.372   3.369  13.904 -0.0010 -0.1595  0.1297
  669TMC3    C4 9898   3.587   3.420  14.068 -1.0585 -0.8533  0.3098
  669TMC3    C5 9899   3.571   3.486  13.952  0.8080 -0.1020  0.3363
  669TMC3    C6 9900   3.463   3.474  13.873  0.0965  0.6096  0.1695
  669TMC3     C 9901   3.517   3.239  14.217 -0.5747  0.2229  0.2273
  669TMC3     O 9902   3.479   3.120  14.217  0.0100 -0.2201  0.1907
  669TMC3     H 9903   3.309   3.230  14.047  0.4647 -0.7088  1.2847
  669TMC3    H1 9904   3.681   3.428  14.123 -0.2344  0.1324 -1.2438
  669TMC3    H2 9905   3.448   3.532  13.783 -1.4160  0.1642  0.1411
  669TMC3    C7 9906   3.684   3.565  13.916 -0.0440  0.0728  0.4180
  669TMC3    C8 9907   3.246   3.375  13.833  0.7093 -0.5498  0.6323
  669TMC3    O1 9908   3.742   3.625  14.003 -0.0021 -0.0044  0.0051
  669TMC3    O2 9909   3.153   3.318  13.885 -0.2996  0.5552 -0.2645
  670MPD2     C 9910   1.373   0.867  12.899  0.4084  0.0771  1.0240
  670MPD2    C1 9911   1.495   0.928  12.924 -0.6554 -0.2829 -0.0662
  670MPD2    C2 9912   1.539   0.934  13.053  0.5647 -0.3852 -0.3348
  670MPD2    C3 9913   1.460   0.884  13.157  0.1910  0.0943 -0.2498
  670MPD2    C4 9914   1.342   0.824  13.131  0.1004  0.4075 -0.0527
  670MPD2    C5 9915   1.297   0.825  13.002  0.3202 -0.5789  0.5959
  670MPD2     H 9916   1.632   0.986  13.071  0.9973 -0.6534 -1.7384
  670MPD2    H1 9917   1.290   0.780  13.216  2.4043 -2.2580 -0.0016
  670MPD2    H2 9918   1.327   0.847  12.802  1.4626 -2.4042  1.0517
  670MPD2    H3 9919   1.203   0.777  12.976 -0.2303  0.4826  0.5917
  670MPD2     N 9920   1.521   0.892  13.279 -0.0561  0.4090  0.2409
  670MPD2    H5 9921   1.610   0.941  13.285  0.1575  0.2173 -1.4474
  670MPD2    N1 9922   1.574   0.974  12.817  0.5900 -0.4628  0.0084
  670MPD2    H7 9923   1.659   1.018  12.849 -1.2082  2.0150  1.3063
  671TMC3    C1 9924   1.547   0.874  13.512  0.0920  1.2982 -0.3027
  671TMC3    C2 9925   1.681   0.901  13.498 -0.2407 -0.2917  0.2218
  671TMC3    C3 9926   1.752   0.881  13.609 -0.1070  0.3888 -0.2388
  671TMC3    C4 9927   1.484   0.860  13.631  0.0031 -0.1332 -0.1203
  671TMC3    C5 9928   1.562   0.844  13.744  0.2275  0.3509  0.2856
  671TMC3    C6 9929   1.696   0.854  13.730 -0.3386  0.7625 -0.1395
  671TMC3     C 9930   1.460   0.862  13.399  0.3024  0.2726  0.3827
  671TMC3     O 9931   1.347   0.816  13.420  0.4241  0.3709 -0.0777
  671TMC3     H 9932   1.733   0.900  13.402 -0.9751 -2.7143 -0.1426
  671TMC3    H1 9933   1.377   0.850  13.647 -0.2221 -0.1177 -1.5462
  671TMC3    H2 9934   1.753   0.835  13.820 -1.7086  1.2895  0.8321
  671TMC3    C7 9935   1.538   0.705  13.780 -0.0603  0.4909  0.2099
  671TMC3    C8 9936   1.886   0.838  13.597 -0.2301  0.0975 -0.9823
  671TMC3    O1 9937   1.634   0.629  13.760  0.8420 -0.3511  0.3482
  671TMC3    O2 9938   1.915   0.785  13.488  0.0489 -0.4583 -0.2070
  672MPD2     C 9939   1.464   1.365   0.949 -0.3162  0.1938 -0.2212
  672MPD2    C1 9940   1.457   1.466   0.858 -0.7390 -0.8234 -0.4183
  672MPD2    C2 9941   1.532   1.586   0.889  0.3056 -0.0211 -0.4591
  672MPD2    C3 9942   1.606   1.602   1.002 -0.2927  0.0158  0.5702
  672MPD2    C4 9943   1.598   1.500   1.099  0.5779 -0.0503 -0.1839
  672MPD2    C5 9944   1.531   1.388   1.067  0.2866 -0.0296 -0.8983
  672MPD2     H 9945   1.546   1.664   0.815  0.2004 -0.8064 -1.3062
  672MPD2    H1 9946   1.656   1.507   1.191 -0.6955  1.3724  0.5107
  672MPD2    H2 9947   1.426   1.266   0.927  2.7536 -0.8083 -1.0781
  672MPD2    H3 9948   1.544   1.306   1.137 -1.5705  0.8027  0.4177
  672MPD2     N 9949   1.688   1.715   1.040 -0.4478 -0.3814  0.0694
  672MPD2    H5 9950   1.745   1.707   1.124  2.5056  0.4419 -1.8424
  672MPD2    N1 9951   1.393   1.444   0.734 -0.5167 -0.4756 -0.7832
  672MPD2    H7 9952   1.349   1.353   0.729 -0.9084 -0.3787  1.1490
  673TMC3    C1 9953   1.403   1.454   0.497 -0.2014 -0.7013  0.1427
  673TMC3    C2 9954   1.456   1.330   0.484 -0.2791 -1.0274 -0.1982
  673TMC3    C3 9955   1.471   1.289   0.356 -0.0392 -0.2214  1.1606
  673TMC3    C4 9956   1.382   1.531   0.383  0.2346 -0.0649  0.1802
  673TMC3    C5 9957   1.397   1.477   0.260  0.1951 -0.8151  0.4786
  673TMC3    C6 9958   1.442   1.356   0.239 -0.2145  0.6020  0.1921
  673TMC3     C 9959   1.400   1.528   0.625  0.6383 -0.1372 -0.3730
  673TMC3     O 9960   1.422   1.647   0.624 -0.4179  0.3719 -0.1824
  673TMC3     H 9961   1.472   1.266   0.571 -0.1929 -1.1519 -0.3043
  673TMC3    H1 9962   1.337   1.628   0.399  0.5243  0.4950 -2.3665
  673TMC3    H2 9963   1.465   1.322   0.138 -2.0348 -1.3188  0.4119
  673TMC3    C7 9964   1.322   1.538   0.152  0.4153  0.5140  0.3937
  673TMC3    C8 9965   1.560   1.177   0.329 -0.3671 -0.9171 -0.1876
  673TMC3    O1 9966   1.273   1.464   0.067  0.1101  0.2934 -0.0592
  673TMC3    O2 9967   1.561   1.129   0.215 -0.0325  0.2082 -0.0120
  674MPD2     C 9968   1.011   1.472   0.322 -0.3482  0.5178  0.9307
  674MPD2    C1 9969   1.020   1.336   0.337 -0.1318 -0.4872 -0.7609
  674MPD2    C2 9970   0.947   1.279   0.432  0.0017  0.5794 -0.0562
  674MPD2    C3 9971   0.892   1.350   0.531 -0.1934 -0.2533 -0.5611
  674MPD2    C4 9972   0.891   1.487   0.525 -0.3298 -0.1475  0.1401
  674MPD2    C5 9973   0.947   1.552   0.415  0.2842  0.9805  0.3296
  674MPD2     H 9974   0.934   1.171   0.440 -2.0249  0.7210 -1.2229
  674MPD2    H1 9975   0.831   1.537   0.600  1.6957  1.3924  0.7322
  674MPD2    H2 9976   1.050   1.523   0.235 -1.0877  0.4038  0.5329
  674MPD2    H3 9977   0.937   1.659   0.407  4.0458  1.1760 -1.7254
  674MPD2     N 9978   0.835   1.281   0.644  0.0689  0.2205  0.4395
  674MPD2    H5 9979   0.829   1.180   0.644  1.3835  0.1517  0.4691
  674MPD2    N1 9980   1.091   1.266   0.246  0.0632  0.6705 -0.0286
  674MPD2    H7 9981   1.135   1.327   0.178 -0.5245  1.2651  0.1279
  675TMC3    C1 9982   1.215   1.094   0.151  0.3340  0.4899  0.1959
  675TMC3    C2 9983   1.276   0.969   0.161 -0.0304 -0.4784  0.1665
  675TMC3    C3 9984   1.362   0.933   0.062 -0.1311  0.2778  0.0023
  675TMC3    C4 9985   1.226   1.172   0.039 -0.3242 -0.5425  0.5599
  675TMC3    C5 9986   1.314   1.127  17.652 -0.1609  0.6580  0.0569
  675TMC3    C6 9987   1.377   1.011  17.660  0.3578 -0.7618 -0.3725
  675TMC3     C 9988   1.127   1.132   0.256  0.2198 -0.2206  0.7161
  675TMC3     O 9989   1.122   1.056   0.353 -0.5408  0.4025 -0.3786
  675TMC3     H 9990   1.270   0.913   0.254 -1.5075 -0.8716 -0.1657
  675TMC3    H1 9991   1.167   1.262   0.025 -0.6005 -0.8779 -0.4384
  675TMC3    H2 9992   1.425   0.968  17.573  1.0982 -0.7028  0.0108
  675TMC3    C7 9993   1.317   1.192  17.516  0.0354 -0.4063  0.2460
  675TMC3    C8 9994   1.439   0.808   0.074 -0.0058 -0.3877  0.3947
  675TMC3    O1 9995   1.371   1.127  17.429  0.1330  0.1438  0.6276
  675TMC3    O2 9996   1.465   0.739  17.685 -0.3662  0.2698  0.3542
  676MPD2     C 9997   4.038   3.912  10.835  0.0843 -0.1230 -0.0213
  676MPD2    C1 9998   3.992   3.813  10.924  0.4942  0.8263 -0.7831
  676MPD2    C2 9999   3.982   3.687  10.878  1.1730 -0.0469 -0.1060
  676MPD2    C310000   4.015   3.657  10.746 -0.0397 -0.6364 -0.1694
  676MPD2    C410001   4.071   3.751  10.662  0.1042 -0.4012 -0.1195
  676MPD2    C510002   4.079   3.879  10.705 -0.3973  0.2697 -0.4179
  676MPD2     H10003   3.938   3.614  10.945  0.8500  0.7598  0.5668
  676MPD2    H110004   4.103   3.729  10.561 -1.5280  3.7816 -1.5627
  676MPD2    H210005   4.040   4.016  10.867 -1.3266 -0.0099 -0.2800
  676MPD2    H310006   4.115   3.958  10.641 -1.0751  0.9309  0.0066
  676MPD2     N10007   4.001   3.523  10.694 -0.0905 -0.1454 -0.0616
  676MPD2    H510008   4.041   3.503  10.603  4.2098  0.7323  1.6147
  676MPD2    N110009   3.955   3.843  11.060 -0.5090  0.0336  0.2425
  676MPD2    H710010   3.926   3.772  11.126 -4.8595  0.6507 -1.0483
  677TMC3    C110011   4.000   3.933  11.272  0.3725  0.4214 -0.0544
  677TMC3    C210012   4.032   3.808  11.326 -0.3629  0.2846  0.0198
  677TMC3    C310013   4.079   3.811  11.454 -0.1622  0.3411  0.2589
  677TMC3    C410014   4.018   4.050  11.340 -0.8462 -0.1695  0.6811
  677TMC3    C510015   4.073   4.047  11.467  0.3813  0.5867  0.0129
  677TMC3    C610016   4.090   3.926  11.530  0.8953  0.4819 -0.3679
  677TMC3     C10017   3.978   3.958  11.130 -0.1986  0.0659  0.2706
  677TMC3     O10018   4.006   4.071  11.088 -0.4261 -0.0966 -0.6131
  677TMC3     H10019   4.040   3.720  11.263 -0.7290  0.2714 -0.0074
  677TMC3    H110020   3.987   4.149  11.311  1.3373  0.2271 -0.2931
  677TMC3    H210021   4.139   3.914  11.625 -0.5224 -1.9454  0.0766
  677TMC3    C710022   4.158   4.154  11.519  0.5836 -0.3669  0.2510
  677TMC3    C810023   4.208   3.741  11.457 -0.0390  0.0942 -0.5748
  677TMC3    O110024   4.192   4.154  11.635  0.1898 -0.2529 -0.4479
  677TMC3    O210025   4.287   3.753  11.364  0.3153 -0.2937 -0.2401
  678MPD2     C10026   0.872   4.361   1.223 -0.0187 -0.5132 -0.0217
  678MPD2    C110027   0.912   4.477   1.174 -0.6498  0.0147  0.0211
  678MPD2    C210028   0.823   4.552   1.107  0.1678 -0.9154  0.7341
  678MPD2    C310029   0.687   4.514   1.095 -0.6080  0.1758  0.4695
  678MPD2    C410030   0.645   4.395   1.139  0.6012  0.2481 -0.2406
  678MPD2    C510031   0.740   4.329   1.216  0.1929  0.0116 -0.3133
  678MPD2     H10032   0.858   4.645   1.063  1.8502 -1.2749  1.2945
  678MPD2    H110033   0.541   4.366   1.142  0.1997  1.3538 -4.3741
  678MPD2    H210034   0.939   4.296   1.279  1.9057  1.6809  0.2343
  678MPD2    H310035   0.697   4.240   1.261  1.5714 -0.9684 -0.9351
  678MPD2     N10036   0.606   4.616   1.034  0.5158  0.1494  0.5249
  678MPD2    H510037   0.658   4.696   1.000  0.6675 -0.0456  0.2974
  678MPD2    N110038   1.038   4.539   1.182 -0.3999  0.3056  0.3643
  678MPD2    H710039   1.056   4.626   1.133  3.1532 -0.7111 -0.1677
  679TMC3    C110040   1.502   4.524   1.194 -0.0837 -0.4205  0.7055
  679TMC3    C210041   1.383   4.480   1.249  0.3402  0.5362  0.3114
  679TMC3    C310042   1.269   4.557   1.240 -0.6351 -0.4788  0.0086
  679TMC3    C410043   1.514   4.645   1.127 -0.2014  0.2830 -0.3490
  679TMC3    C510044   1.395   4.721   1.120 -0.3541 -0.3882 -0.0682
  679TMC3    C610045   1.271   4.674   1.181  0.1763  0.5267 -0.7507
  679TMC3     C10046   1.607   4.434   1.187 -0.7488 -0.3822 -0.7236
  679TMC3     O10047   1.579   4.320   1.225  0.1453  0.0345 -0.4593
  679TMC3     H10048   1.378   4.384   1.299 -0.5697  1.4456  1.9646
  679TMC3    H110049   1.611   4.678   1.091  1.0264 -2.7206  0.1835
  679TMC3    H210050   1.178   0.002   1.173  1.5490  3.0109  0.2754
  679TMC3    C710051   1.383   0.107   1.029 -0.2369  0.3515 -0.5860
  679TMC3    C810052   1.142   4.485   1.251 -0.2945  0.2571 -0.2458
  679TMC3    O110053   1.267   0.150   1.019 -0.0997  0.3543  0.4778
  679TMC3    O210054   1.159   4.370   1.296  0.0436  0.2447  0.1050
  680MPD2     C10055   0.825   2.965  13.515 -0.5700 -0.5415 -0.6148
  680MPD2    C110056   0.900   2.885  13.589  0.1227 -0.0643  0.1987
  680MPD2    C210057   1.009   2.932  13.667  0.3202  0.1140  0.4626
  680MPD2    C310058   1.028   3.071  13.672  0.3650 -0.2066 -0.2197
  680MPD2    C410059   0.940   3.148  13.610 -0.2672  0.1668  0.4301
  680MPD2    C510060   0.843   3.103  13.528 -0.4644  0.2419  0.7501
  680MPD2     H10061   1.073   2.867  13.725  0.7401  0.1227  0.0095
  680MPD2    H110062   0.959   3.254  13.599 -0.3784  0.0924 -0.5633
  680MPD2    H210063   0.736   2.936  13.460 -1.1468 -1.4344  0.7785
  680MPD2    H310064   0.781   3.166  13.466  0.8592 -0.3922 -1.2095
  680MPD2     N10065   1.135   3.139  13.729  0.6857 -0.4540  0.0591
  680MPD2    H510066   1.134   3.240  13.732 -2.7211 -0.4900  0.3012
  680MPD2    N110067   0.882   2.738  13.583  0.5446  0.1459 -0.4155
  680MPD2    H710068   0.954   2.681  13.625 -1.2030 -1.9577 -0.2298
  681TMC3    C110069   0.798   2.522  13.512  0.2570 -0.1122  0.2730
  681TMC3    C210070   0.692   2.439  13.544  0.6535  0.2342 -0.5141
  681TMC3    C310071   0.728   2.328  13.616 -0.4630  0.1664  0.4133
  681TMC3    C410072   0.929   2.477  13.513  0.4488  0.5539  0.1258
  681TMC3    C510073   0.956   2.352  13.563 -0.9933  0.2347 -0.1384
  681TMC3    C610074   0.858   2.280  13.624 -0.7645 -0.6235  0.2296
  681TMC3     C10075   0.782   2.669  13.512  0.2892 -1.0725  0.2858
  681TMC3     O10076   0.672   2.704  13.466 -0.0489  0.3300 -0.4727
  681TMC3     H10077   0.592   2.477  13.526  0.0334 -1.5169 -0.7411
  681TMC3    H110078   1.009   2.542  13.479  2.4352 -1.0288  1.7628
  681TMC3    H210079   0.873   2.185  13.673 -2.2197 -1.1972 -0.4336
  681TMC3    C710080   1.096   2.308  13.574 -0.5275  0.4424  0.2500
  681TMC3    C810081   0.667   2.326  13.748  0.2297 -0.5199 -0.2121
  681TMC3    O110082   1.120   2.216  13.648 -0.2276 -0.0169  0.0576
  681TMC3    O210083   0.547   2.358  13.747  0.1050  0.2406 -0.1917
  682MPD2     C10084   2.632   3.668  10.364 -0.0965 -0.5220 -0.8881
  682MPD2    C110085   2.690   3.573  10.452 -0.0389  0.9213 -0.2979
  682MPD2    C210086   2.618   3.523  10.554 -0.1362  0.0048  0.2131
  682MPD2    C310087   2.481   3.561  10.559 -0.0794 -1.0690 -0.2296
  682MPD2    C410088   2.417   3.642  10.460 -0.1143 -0.1604 -0.2774
  682MPD2    C510089   2.499   3.696  10.365 -0.8231 -0.5257  0.0645
  682MPD2     H10090   2.658   3.450  10.623 -2.5464 -1.2191  0.3151
  682MPD2    H110091   2.312   3.667  10.462  0.2727  1.2550  2.5972
  682MPD2    H210092   2.684   3.716  10.282  4.0983 -1.8266  1.0358
  682MPD2    H310093   2.458   3.762  10.290  1.1698 -0.8997 -1.3336
  682MPD2     N10094   2.395   3.507  10.660  0.1634 -0.3855  0.1489
  682MPD2    H510095   2.312   3.564  10.673 -0.8351 -1.8417  0.0607
  682MPD2    N110096   2.821   3.523  10.438  0.4539  0.0112  0.1602
  682MPD2    H710097   2.846   3.453  10.507  0.3277  0.7202  0.9286
  683TMC3    C110098   2.251   3.496  11.060 -0.2061  0.5037  0.0998
  683TMC3    C210099   2.229   3.373  11.111  0.7615 -0.2662 -0.2273
  683TMC3    C310100   2.263   3.269  11.034 -0.2138 -0.0932 -0.3083
  683TMC3    C410101   2.301   3.511  10.933  0.8498  0.5461  0.1749
  683TMC3    C510102   2.335   3.402  10.854  0.3722  0.3712 -0.6855
  683TMC3    C610103   2.324   3.277  10.912  0.3201 -0.3349  0.0574
  683TMC3     C10104   2.303   3.605  11.154 -0.9420  0.6521  0.1301
  683TMC3     O10105   2.376   3.686  11.103 -0.2267  1.0242  0.1324
  683TMC3     H10106   2.207   3.358  11.216 -1.9536  0.7814 -0.6417
  683TMC3    H110107   2.316   3.611  10.895 -1.2167  1.5569  2.0202
  683TMC3    H210108   2.329   3.184  10.857  0.0642 -1.5758  2.1252
  683TMC3    C710109   2.426   3.403  10.745  0.7871  0.3447 -0.6630
  683TMC3    C810110   2.270   3.135  11.101 -0.1066  0.5338 -0.1702
  683TMC3    O110111   2.511   3.314  10.739 -0.3269 -0.3255 -0.3463
  683TMC3    O210112   2.163   3.098  11.151 -0.2204  0.1015 -0.3023
  684MPD2     C10113   1.796   3.412  16.064 -0.2224  0.5651  0.3318
  684MPD2    C110114   1.783   3.469  15.937 -0.2326  0.0570  0.3775
  684MPD2    C210115   1.766   3.607  15.930 -0.4164  0.5736  0.3903
  684MPD2    C310116   1.757   3.683  16.043  0.1686  0.9340 -0.0244
  684MPD2    C410117   1.791   3.623  16.162  0.1779  0.1852  0.4941
  684MPD2    C510118   1.809   3.488  16.174 -0.1588  0.3119  0.1812
  684MPD2     H10119   1.734   3.647  15.834 -1.5019  0.6547  0.7756
  684MPD2    H110120   1.783   3.686  16.250 -2.4924 -0.2524  0.5678
  684MPD2    H210121   1.798   3.306  16.084 -0.5490  0.6190  0.6408
  684MPD2    H310122   1.845   3.440  16.264  0.4730  2.2064  0.9364
  684MPD2     N10123   1.733   3.821  16.036 -0.5817 -0.6212  0.4446
  684MPD2    H510124   1.739   3.871  16.124  0.4285 -1.5703  0.9147
  684MPD2    N110125   1.796   3.398  15.818  0.1243 -0.3425 -0.3073
  684MPD2    H710126   1.785   3.456  15.736  1.5056 -0.8414 -0.8455
  685TMC3    C110127   1.869   3.227  15.667  1.1748 -0.7932  0.0806
  685TMC3    C210128   1.811   3.286  15.564 -0.5139  0.1422  0.1010
  685TMC3    C310129   1.863   3.252  15.438 -0.2487 -0.1761  0.7500
  685TMC3    C410130   1.969   3.143  15.665 -0.3203 -0.0884 -0.2863
  685TMC3    C510131   2.021   3.113  15.542  0.6436 -0.5731  0.0791
  685TMC3    C610132   1.966   3.163  15.422  0.6097 -0.1696  0.0335
  685TMC3     C10133   1.833   3.267  15.802  0.7951 -0.2945 -0.5969
  685TMC3     O10134   1.848   3.184  15.890  0.2473  0.4847  0.2218
  685TMC3     H10135   1.740   3.366  15.579  0.6755  1.0762  0.7129
  685TMC3    H110136   2.000   3.091  15.755 -1.3433 -1.2285 -0.6036
  685TMC3    H210137   2.009   3.146  15.324 -2.2195  0.8992 -1.4204
  685TMC3    C710138   2.170   3.120  15.539  0.1929  0.0065 -0.7496
  685TMC3    C810139   1.801   3.315  15.322  0.3039 -0.6819 -0.2383
  685TMC3    O110140   2.219   3.094  15.430 -0.1408  0.1818  0.1960
  685TMC3    O210141   1.869   3.343  15.227  0.3555  0.4408  0.3526
  686MPD2     C10142   2.852   3.476  15.553 -0.2976 -0.8876  0.7607
  686MPD2    C110143   2.959   3.385  15.577 -0.5203 -0.3319  0.6899
  686MPD2    C210144   3.025   3.315  15.474 -0.1171  0.1254  0.4185
  686MPD2    C310145   2.988   3.333  15.345 -0.0071 -0.3040 -0.2739
  686MPD2    C410146   2.886   3.416  15.318 -0.7250 -0.2533  0.5632
  686MPD2    C510147   2.820   3.494  15.419 -0.0657  0.9228  0.3383
  686MPD2     H10148   3.103   3.243  15.497 -1.2125 -1.2315 -0.1230
  686MPD2    H110149   2.850   3.427  15.217 -1.2319  0.9941  0.8773
  686MPD2    H210150   2.784   3.526  15.621 -1.2103 -1.0416 -0.0274
  686MPD2    H310151   2.745   3.564  15.384 -1.3773 -0.4494  0.3855
  686MPD2     N10152   3.037   3.231  15.263 -0.3995  0.4038 -0.6080
  686MPD2    H510153   3.105   3.167  15.304 -2.0239 -0.5517  0.5863
  686MPD2    N110154   2.996   3.358  15.711 -0.5876  0.1400  0.4096
  686MPD2    H710155   2.924   3.370  15.781 -0.4593  1.8824  0.2471
  687TMC3    C110156   3.032   3.062  15.120  0.1423 -0.8799  0.1955
  687TMC3    C210157   2.920   2.997  15.095 -0.5090 -0.4826  0.7687
  687TMC3    C310158   2.859   2.926  15.194 -0.0628  0.4179 -0.1040
  687TMC3    C410159   3.116   3.015  15.214 -0.1838 -0.1657 -0.5174
  687TMC3    C510160   3.065   2.929  15.305 -0.5598 -0.5681  0.9949
  687TMC3    C610161   2.936   2.877  15.296 -0.5983 -0.2851 -0.0015
  687TMC3     C10162   2.996   3.201  15.139 -0.4689 -0.0926  0.2551
  687TMC3     O10163   2.904   3.252  15.079 -0.3568 -0.4173 -0.5134
  687TMC3     H10164   2.873   3.014  14.999  1.1870  1.3615  0.2514
  687TMC3    H110165   3.215   3.057  15.225 -0.5065  0.1882  1.1011
  687TMC3    H210166   2.901   2.794  15.356  0.4321 -1.3669 -0.8761
  687TMC3    C710167   3.132   2.935  15.433 -0.0439  0.2093  0.8881
  687TMC3    C810168   2.715   2.944  15.206  0.9180 -0.0164 -0.0620
  687TMC3    O110169   3.233   3.006  15.441  0.0976 -0.1732 -0.0891
  687TMC3    O210170   2.662   2.874  15.293 -0.4327 -0.4142  0.5651
  688MPD2     C10171   2.045   2.583  16.887  0.2447  0.2463 -0.6158
  688MPD2    C110172   2.077   2.461  16.941  0.5532 -0.0179 -0.0005
  688MPD2    C210173   2.145   2.366  16.861  0.3754  0.1785 -0.4255
  688MPD2    C310174   2.192   2.409  16.737  0.7948  0.7680 -0.0775
  688MPD2    C410175   2.181   2.539  16.701  0.1073  1.1570 -0.1218
  688MPD2    C510176   2.115   2.627  16.780  0.6598  0.2634  0.5233
  688MPD2     H10177   2.167   2.268  16.901 -0.6356 -0.6009 -1.7903
  688MPD2    H110178   2.213   2.569  16.602 -0.2891 -0.6767 -0.8005
  688MPD2    H210179   1.989   2.660  16.939 -1.6364  0.6366 -3.2259
  688MPD2    H310180   2.104   2.729  16.747 -0.0543 -0.1729 -0.6005
  688MPD2     N10181   2.267   2.324  16.650 -0.2645 -0.7602  0.3241
  688MPD2    H510182   2.319   2.375  16.580 -0.0784  0.4692  1.3668
  688MPD2    N110183   2.039   2.422  17.069  0.1481 -0.5888  0.3947
  688MPD2    H710184   2.034   2.325  17.098 -0.1452 -0.4288  0.8819
  689TMC3    C110185   1.970   2.460  17.300  0.2524 -0.3436  0.2667
  689TMC3    C210186   2.000   2.542  17.401 -0.0119 -0.6066 -0.6838
  689TMC3    C310187   1.971   2.498  17.525  0.6415 -0.2417  0.5359
  689TMC3    C410188   1.912   2.342  17.315 -0.0279  0.2685 -0.6402
  689TMC3    C510189   1.884   2.299  17.441 -0.0163  0.2351 -0.3121
  689TMC3    C610190   1.914   2.375  17.555 -0.8617  0.2858  0.1103
  689TMC3     C10191   2.001   2.511  17.173 -0.0342 -0.0522  0.2959
  689TMC3     O10192   2.000   2.632  17.167 -0.2616  0.7740 -0.6019
  689TMC3     H10193   2.032   2.645  17.385  0.1606 -0.9102 -2.2749
  689TMC3    H110194   1.887   2.288  17.224  2.4517 -0.5582 -0.8155
  689TMC3    H210195   1.887   2.347  17.656  0.0124 -0.0897  0.2378
  689TMC3    C710196   1.800   2.184  17.477 -0.6483  0.0129 -0.1888
  689TMC3    C810197   1.978   2.581  17.640  0.2076 -0.7902 -0.2127
  689TMC3    O110198   1.790   2.149  17.594 -0.2329  0.1249  0.7700
  689TMC3    O210199   1.897   2.560   0.019 -0.7103 -0.0964 -0.3459
  690MPD2     C10200   4.096   4.428  15.272  0.1674  0.8625 -0.0148
  690MPD2    C110201   4.123   4.361  15.152  0.6263 -0.6239  0.3861
  690MPD2    C210202   4.250   4.383  15.091 -0.7811  0.2081  0.4955
  690MPD2    C310203   4.340   4.477  15.146 -0.2567  0.1466 -0.2062
  690MPD2    C410204   4.305   4.549  15.250  0.1332  0.5377  0.0803
  690MPD2    C510205   4.185   4.525  15.314  0.1950  0.0613  0.4291
  690MPD2     H10206   4.283   4.334  15.000 -1.5528 -2.6347  1.7449
  690MPD2    H110207   4.368   4.625  15.295  0.9933 -1.7779  2.8332
  690MPD2    H210208   4.002   4.412  15.324 -1.0314 -0.6878 -2.6616
  690MPD2    H310209   4.156   4.595  15.392 -1.4488 -2.4601  2.0701
  690MPD2     N10210   4.464   4.496  15.083  0.2622 -0.4486  0.0639
  690MPD2    H510211   4.482   4.440  15.000 -0.3592  0.9043 -0.9848
  690MPD2    N110212   4.046   4.255  15.102  0.0921 -0.3605 -0.4220
  690MPD2    H710213   4.089   4.204  15.025  2.0183 -0.2925  0.5967
  691TMC3    C110214   3.870   4.119  15.053  0.0171  0.4672 -0.1551
  691TMC3    C210215   3.732   4.121  15.027  0.7601 -0.1371  0.4857
  691TMC3    C310216   3.675   4.010  14.971 -0.3190  0.3951  0.2433
  691TMC3    C410217   3.947   4.011  15.020 -0.6764 -0.5294  0.3311
  691TMC3    C510218   3.883   3.903  14.956 -0.0154  0.6183  0.0777
  691TMC3    C610219   3.745   3.901  14.934  0.3582  0.4347 -0.1931
  691TMC3     C10220   3.920   4.221  15.142 -0.3653  0.3399 -0.2381
  691TMC3     O10221   3.847   4.273  15.231  0.6913 -0.2684 -0.1400
  691TMC3     H10222   3.676   4.212  15.046  0.3636 -0.2773 -0.0213
  691TMC3    H110223   4.050   4.007  15.054  0.0002  1.0158 -1.5414
  691TMC3    H210224   3.702   3.826  14.869  2.0911 -1.0281  0.3767
  691TMC3    C710225   3.945   3.775  14.977  1.2020 -0.2743  0.7339
  691TMC3    C810226   3.534   3.977  14.991  0.4582  0.6594 -1.0214
  691TMC3    O110227   4.061   3.781  15.024  0.1501  0.6292 -0.2463
  691TMC3    O210228   3.495   3.873  14.932  0.2606 -0.6082  0.0784
  692TMC3    C110229   1.515   0.549  15.668  0.0834 -0.6512  0.1573
  692TMC3    C210230   1.633   0.562  15.738  0.0275 -0.2369  0.2761
  692TMC3    C310231   1.697   0.440  15.765  0.1161  0.0329 -0.5754
  692TMC3    C410232   1.454   0.427  15.634  0.2671 -0.0936 -0.6296
  692TMC3    C510233   1.527   0.312  15.645 -0.0222 -0.2727  0.1199
  692TMC3    C610234   1.645   0.324  15.716  0.4248  0.1950  0.1127
  692TMC3     C10235   1.418   0.656  15.698  0.4138 -0.3192  0.8141
  692TMC3     O10236   1.308   0.640  15.652  0.3468  0.0674  0.4038
  692TMC3     H10237   1.682   0.659  15.741 -0.2603 -0.0435 -1.1791
  692TMC3    H110238   1.364   0.436  15.574  0.5669  0.1090 -1.0501
  692TMC3    H210239   1.716   0.245  15.693  1.6830  0.8865  1.6614
  692TMC3    C710240   1.487   0.184  15.591  0.1145 -0.3334 -0.0907
  692TMC3    C810241   1.723   0.424  15.911  1.0133  0.3110 -0.4212
  692TMC3    O110242   1.424   0.198  15.487  0.2027  0.4736 -0.1615
  692TMC3    O210243   1.703   0.313  15.961  0.5932  0.0810  0.3284
  693MPD2     C10244   0.019   3.198  10.560 -0.3119 -0.5184 -0.3120
  693MPD2    C110245   0.027   3.090  10.474  0.3994  0.8040  0.3046
  693MPD2    C210246   0.146   3.022  10.460 -0.2864 -0.0937  0.1753
  693MPD2    C310247   0.254   3.053  10.547 -0.0224 -0.5033 -0.0507
  693MPD2    C410248   0.239   3.152  10.643 -0.3652 -1.0939  0.3091
  693MPD2    C510249   0.119   3.211  10.652  0.3653 -0.3153 -0.5367
  693MPD2     H10250   0.149   2.935  10.396  0.4923  1.8164 -2.3516
  693MPD2    H110251   0.323   3.174  10.708 -0.1360  0.5022 -0.5335
  693MPD2    H210252   4.647   3.236  10.586 -0.8068 -1.9954 -0.0502
  693MPD2    H310253   0.108   3.271  10.741  1.2510 -0.0178 -0.6277
  693MPD2     N10254   0.378   2.987  10.540  0.8826  0.0021 -0.0289
  693MPD2    H510255   0.450   3.021  10.602  2.1234  1.6581 -2.3779
  693MPD2    N110256   4.638   3.062  10.401 -0.5417 -0.5357  0.6207
  693MPD2    H710257   4.580   3.143  10.381 -0.5319 -0.5802  0.4107
  694TMC3    C110258   4.653   2.818  10.407 -0.1998 -0.2036 -0.0877
  694TMC3    C210259   4.691   2.712  10.324  0.1570  0.9371 -0.2134
  694TMC3    C310260   4.711   2.590  10.388 -0.2877  1.1056  0.2452
  694TMC3    C410261   4.658   2.808  10.541  0.0160  0.0997  0.1504
  694TMC3    C510262   4.687   2.690  10.604 -0.3184  0.3011 -0.2495
  694TMC3    C610263   4.714   2.579  10.526  0.4448  0.6047  1.1581
  694TMC3     C10264   4.600   2.943  10.345 -0.5185 -0.1193 -0.0632
  694TMC3     O10265   4.512   2.921  10.262 -0.5557 -0.7474 -0.0342
  694TMC3     H10266   4.693   2.717  10.215  2.5946 -1.0481 -0.2500
  694TMC3    H110267   4.630   2.891  10.605  3.3972  0.7282  0.7858
  694TMC3    H210268   4.723   2.478  10.564 -2.5869 -0.3939 -0.7537
  694TMC3    C710269   4.676   2.686  10.752  0.8123 -0.1297  0.6219
  694TMC3    C810270   4.692   2.466  10.321  0.6510 -0.4906  0.4748
  694TMC3    O110271   4.669   2.786  10.815  0.3161 -0.2830 -0.3358
  694TMC3    O210272   4.616   2.387  10.370  0.2575 -0.3324 -0.4709
  695MPD2     C10273   2.084   0.089  12.963  0.1105 -1.3926  0.6492
  695MPD2    C110274   2.064   0.170  13.071  0.0202 -0.1263  0.4765
  695MPD2    C210275   1.942   0.193  13.115 -0.7909  0.5834 -0.7993
  695MPD2    C310276   1.831   0.136  13.051  0.2084 -0.3762  0.0742
  695MPD2    C410277   1.849   0.051  12.946 -0.1545  0.0406  0.3275
  695MPD2    C510278   1.980   0.030  12.895 -0.4128  0.2504  0.1297
  695MPD2     H10279   1.929   0.254  13.204  0.2494  0.4108 -0.5292
  695MPD2    H110280   1.770   4.718  12.903 -0.7260  1.6426 -0.8527
  695MPD2    H210281   2.183   0.078  12.921 -0.2360 -0.3921 -0.4028
  695MPD2    H310282   2.002   4.693  12.810 -1.1377  0.2782 -0.0816
  695MPD2     N10283   1.710   0.162  13.115 -0.2594  0.1134 -0.5377
  695MPD2    H510284   1.721   0.206  13.205  1.2563  1.1707 -1.2388
  695MPD2    N110285   2.170   0.234  13.146  0.2119  0.4135 -0.4613
  695MPD2    H710286   2.147   0.297  13.222 -1.5491 -1.1627  0.3102
  696TMC3    C110287   1.478   0.189  13.140  0.2528 -0.0279  0.5241
  696TMC3    C210288   1.480   0.174  13.274  0.5370 -0.2986  0.6911
  696TMC3    C310289   1.371   0.211  13.353 -0.8034 -0.3079 -0.0150
  696TMC3    C410290   1.363   0.239  13.080 -0.3370  0.6471  0.0924
  696TMC3    C510291   1.258   0.267  13.164  0.2930 -0.0946  0.4199
  696TMC3    C610292   1.261   0.263  13.299  0.7882 -0.1188 -0.5905
  696TMC3     C10293   1.590   0.149  13.055  0.4080  0.1614 -0.0921
  696TMC3     O10294   1.565   0.104  12.946  0.3809 -0.2660 -0.7455
  696TMC3     H10295   1.569   0.148  13.330  3.2685  1.7302 -2.7688
  696TMC3    H110296   1.367   0.283  12.981  1.3141 -0.8940 -0.5133
  696TMC3    H210297   1.172   0.295  13.352  0.2636 -0.3827 -1.3061
  696TMC3    C710298   1.155   0.362  13.111 -0.1783 -0.6644 -0.0364
  696TMC3    C810299   1.399   0.260  13.487 -0.3390  0.7259 -0.2689
  696TMC3    O110300   1.113   0.355  12.996  0.3832 -0.5048 -0.5022
  696TMC3    O210301   1.517   0.272  13.514 -0.5317  0.5473 -0.1518
  697MPD2     C10302   1.061   2.324  15.642 -0.2573  0.3260  0.2571
  697MPD2    C110303   1.090   2.272  15.513 -0.4837  0.3054  0.5374
  697MPD2    C210304   1.130   2.356  15.408 -0.1028 -0.1650 -0.6118
  697MPD2    C310305   1.115   2.493  15.418  0.1926  0.1860  0.6163
  697MPD2    C410306   1.084   2.544  15.545  0.4633 -0.4238  0.3060
  697MPD2    C510307   1.051   2.460  15.650  0.3101  0.7905 -0.0353
  697MPD2     H10308   1.161   2.323  15.310 -1.5462  3.0673 -2.1664
  697MPD2    H110309   1.068   2.649  15.563  0.5896 -0.8789  3.1024
  697MPD2    H210310   1.035   2.265  15.729  0.0471 -0.5744 -0.2610
  697MPD2    H310311   1.016   2.491  15.748  1.4516  0.4833  0.4724
  697MPD2     N10312   1.142   2.569  15.303  0.1431 -0.0813  0.5202
  697MPD2    H510313   1.158   2.525  15.212  0.6068  3.1787 -0.9602
  697MPD2    N110314   1.061   2.136  15.479 -0.2808 -0.1553 -0.0851
  697MPD2    H710315   1.068   2.117  15.380 -0.2366 -1.1184  0.1019
  698TMC3    C110316   1.251   2.742  15.195  0.0266 -0.4769  0.6047
  698TMC3    C210317   1.378   2.794  15.216  0.7728 -0.8932  0.2563
  698TMC3    C310318   1.460   2.796  15.106  0.0208 -0.5443  0.6040
  698TMC3    C410319   1.199   2.700  15.077 -0.6030  0.6613 -0.2028
  698TMC3    C510320   1.293   2.715  14.970 -1.0268 -1.5080  0.2738
  698TMC3    C610321   1.419   2.767  14.979 -0.1086  0.2008  0.7049
  698TMC3     C10322   1.181   2.701  15.314 -0.5424  0.1858 -0.6521
  698TMC3     O10323   1.208   2.765  15.413  0.1631  0.0864  0.5147
  698TMC3     H10324   1.407   2.820  15.317  2.5296  0.1349 -0.5179
  698TMC3    H110325   1.105   2.648  15.066 -0.5317  0.3600  0.6616
  698TMC3    H210326   1.474   2.800  14.891 -0.6000 -0.2708  0.2162
  698TMC3    C710327   1.248   2.690  14.837 -0.6006 -0.0311 -0.3932
  698TMC3    C810328   1.603   2.804  15.130  0.5791  0.2330 -0.1158
  698TMC3    O110329   1.129   2.672  14.825  0.0129  0.0909 -0.0027
  698TMC3    O210330   1.625   2.853  15.237  0.4066 -0.6304 -0.3128
  699TMC3    C110331   1.261   0.203  12.595  0.7425  0.0011 -0.0255
  699TMC3    C210332   1.286   0.157  12.716  0.1078 -0.1813 -0.4309
  699TMC3    C310333   1.176   0.119  12.796  0.2404  0.1773  0.1014
  699TMC3    C410334   1.133   0.215  12.549 -0.6802 -0.2416  0.0372
  699TMC3    C510335   1.026   0.194  12.633 -0.5115  0.3434  0.1574
  699TMC3    C610336   1.048   0.137  12.761  0.5348  0.4621 -0.1566
  699TMC3     C10337   1.370   0.260  12.518  0.9038  0.2156  0.2644
  699TMC3     O10338   1.326   0.331  12.431 -0.2113 -0.0284 -0.4091
  699TMC3     H10339   1.388   0.151  12.754  0.6404  1.1910 -1.6712
  699TMC3    H110340   1.122   0.258  12.450 -0.2659  0.5774  0.3426
  699TMC3    H210341   0.966   0.119  12.830 -0.1295  2.7928 -0.3316
  699TMC3    C710342   0.900   0.249  12.611 -0.1114 -0.6052  0.1123
  699TMC3    C810343   1.189   0.016  12.897 -0.5689 -0.4479  0.5855
  699TMC3    O110344   0.847   0.284  12.710  0.3148  0.3492 -0.1856
  699TMC3    O210345   1.087   4.714  12.958 -0.3502  0.1350  0.4287
  700TMC3    C110346   4.625   3.006  17.101  0.1863  0.1841  0.1678
  700TMC3    C210347   4.635   2.871  17.107 -0.3659  0.0544 -0.4318
  700TMC3    C310348   0.029   2.807  17.132  1.1052 -0.0598 -0.6026
  700TMC3    C410349   0.013   3.072  17.132  0.6549  0.2025 -0.1149
  700TMC3    C510350   0.120   3.009  17.187 -0.3675 -0.2164  0.1201
  700TMC3    C610351   0.133   2.875  17.191  0.2320  0.9461  0.0372
  700TMC3     C10352   4.549   3.060  16.991  0.6299 -0.2087  0.0210
  700TMC3     O10353   4.438   3.012  16.961  0.2196 -0.3944 -0.0697
  700TMC3     H10354   4.544   2.823  17.072 -1.0500  1.5638 -0.7036
  700TMC3    H110355   0.017   3.180  17.132  0.7052  0.2002  0.0926
  700TMC3    H210356   0.228   2.824  17.202 -0.4222 -0.8704 -2.7211
  700TMC3    C710357   0.239   3.091  17.196  0.0002  0.6536 -0.3339
  700TMC3    C810358   0.049   2.672  17.073 -0.4632 -0.2451  0.6894
  700TMC3    O110359   0.238   3.204  17.148  0.0193 -0.3073 -0.2268
  700TMC3    O210360   0.162   2.650  17.041 -0.2889  0.0576 -0.1336
  701TMC3    C110361   0.380   1.490  15.424  0.1263 -0.5244  0.4111
  701TMC3    C210362   0.374   1.440  15.300  1.0503 -0.1153 -0.6120
  701TMC3    C310363   0.471   1.492  15.210  0.7304 -0.0824  0.3651
  701TMC3    C410364   0.483   1.564  15.473 -0.4963  0.3372  0.4773
  701TMC3    C510365   0.581   1.608  15.386  0.9921 -0.2090 -0.2570
  701TMC3    C610366   0.571   1.576  15.256 -0.0838 -0.4265 -0.2510
  701TMC3     C10367   0.286   1.437  15.517  0.3263  0.2408 -1.0087
  701TMC3     O10368   0.250   1.321  15.508  0.0551  0.1819 -0.0626
  701TMC3     H10369   0.294   1.369  15.284 -0.1527  1.1130 -0.0922
  701TMC3    H110370   0.481   1.613  15.569  0.2032 -1.2586  1.3054
  701TMC3    H210371   0.651   1.605  15.189  1.3505 -0.9912  1.2457
  701TMC3    C710372   0.631   1.744  15.400 -0.2742 -0.3231  0.1729
  701TMC3    C810373   0.447   1.481  15.071  0.3665  0.1528 -0.1100
  701TMC3    O110374   0.637   1.809  15.294  0.2839  0.0507  0.4256
  701TMC3    O210375   0.524   1.543  14.998 -0.3411 -0.3353  0.3468
  702MPD2     C10376   4.075   3.208  10.047 -0.5029 -0.0107  0.1740
  702MPD2    C110377   4.106   3.290  10.153 -0.1234  0.5093 -0.2033
  702MPD2    C210378   4.210   3.385  10.129  0.7715  0.4466  0.0447
  702MPD2    C310379   4.267   3.405   9.999 -0.0597 -1.1174  0.3117
  702MPD2    C410380   4.222   3.329   9.897 -0.0155 -0.7481  0.1841
  702MPD2    C510381   4.117   3.235   9.915 -0.2997  0.2439 -0.3120
  702MPD2     H10382   4.230   3.453  10.212 -0.2878  1.9253 -0.9029
  702MPD2    H110383   4.258   3.334   9.794  0.2587 -3.0390  0.1654
  702MPD2    H210384   3.997   3.135  10.062  0.2934 -1.1541 -1.2744
  702MPD2    H310385   4.062   3.196   9.830 -0.2563 -1.9791  0.6801
  702MPD2     N10386   4.352   3.512   9.977 -0.2879  0.0371  0.1259
  702MPD2    H510387   4.371   3.573  10.056 -0.6896  0.5814 -0.2076
  702MPD2    N110388   4.045   3.282  10.280 -0.0365 -0.2651 -0.0579
  702MPD2    H710389   4.077   3.346  10.352  0.0612 -2.1449  1.5638
  703TMC3    C110390   4.495   3.655   9.838  0.3885 -0.5604  1.1670
  703TMC3    C210391   4.440   3.765   9.892 -0.8643 -0.0611 -0.7629
  703TMC3    C310392   4.508   3.884   9.875  0.4359  0.4888 -0.2718
  703TMC3    C410393   4.610   3.651   9.767  0.5928  0.2605 -0.3384
  703TMC3    C510394   4.671   3.770   9.752  0.1193 -0.5229  0.1662
  703TMC3    C610395   4.625   3.889   9.799  0.2466 -0.4152 -0.0386
  703TMC3     C10396   4.437   3.520   9.867  0.1376  0.2856  0.6148
  703TMC3     O10397   4.459   3.432   9.780 -0.3274 -0.5043  0.6922
  703TMC3     H10398   4.346   3.767   9.945 -0.2739  0.1478  0.2647
  703TMC3    H110399   4.647   3.558   9.725  1.0815  0.6503 -0.7678
  703TMC3    H210400   4.672   3.986   9.788 -2.8342  1.0915  0.1452
  703TMC3    C710401   0.086   3.766   9.725  0.7179 -0.2722  0.3263
  703TMC3    C810402   4.462   4.012   9.927 -0.4792  0.0538 -0.2930
  703TMC3    O110403   0.140   3.657   9.725  0.5330 -0.4216  0.3985
  703TMC3    O210404   4.511   4.114   9.883 -0.2325 -0.4558 -0.3134
  704TMC3    C110405   1.810   1.947  11.836  0.3421 -0.6254  0.2666
  704TMC3    C210406   1.947   1.936  11.815 -0.1873  0.3056  0.0482
  704TMC3    C310407   2.017   1.853  11.898 -0.5600  0.3151  0.9880
  704TMC3    C410408   1.747   1.870  11.926 -0.0097  0.9266  0.3163
  704TMC3    C510409   1.813   1.764  11.968 -0.6036 -0.2910 -0.5326
  704TMC3    C610410   1.950   1.757  11.960  0.1159 -0.0896 -0.5626
  704TMC3     C10411   1.723   2.036  11.761 -0.3637 -0.1158 -0.5072
  704TMC3     O10412   1.618   2.064  11.815 -0.3795  0.6162 -0.3048
  704TMC3     H10413   1.992   1.979  11.726 -0.8493  0.5401 -0.1725
  704TMC3    H110414   1.638   1.865  11.931 -0.1081  1.3667 -1.4648
  704TMC3    H210415   2.015   1.681  12.000 -0.5796 -0.4501 -0.1170
  704TMC3    C710416   1.738   1.660  12.033 -0.4013 -0.0077  0.2066
  704TMC3    C810417   2.145   1.799  11.853 -0.1583 -0.5381 -0.4410
  704TMC3    O110418   1.626   1.694  12.080  0.7146  0.0697 -0.3701
  704TMC3    O210419   2.148   1.774  11.736 -0.7550  0.0233  0.9955
  705MPD2     C10420   1.696   4.610  16.143  0.7537 -0.1857 -0.0458
  705MPD2    C110421   1.718   0.004  16.211 -0.2540 -0.6094  0.4156
  705MPD2    C210422   1.604   0.079  16.244  0.0514 -0.1472  0.4312
  705MPD2    C310423   1.476   0.029  16.223  0.2408 -0.0727  0.5321
  705MPD2    C410424   1.459   4.650  16.150  0.0649 -0.0193 -0.2697
  705MPD2    C510425   1.566   4.572  16.116  0.1618 -0.8424  0.2141
  705MPD2     H10426   1.618   0.174  16.293 -0.0694  0.4357 -0.6746
  705MPD2    H110427   1.360   4.609  16.133 -0.4070  0.7393  0.7297
  705MPD2    H210428   1.772   4.537  16.118 -1.0502 -1.8605 -0.6404
  705MPD2    H310429   1.550   4.480  16.061 -0.9093 -0.0829 -0.7548
  705MPD2     N10430   1.364   0.115  16.241 -0.1985  0.2392 -0.8115
  705MPD2    H510431   1.273   0.080  16.213 -0.7672  0.8920  0.1956
  705MPD2    N110432   1.852   0.053  16.233 -0.3438 -0.1012  0.9097
  705MPD2    H710433   1.841   0.135  16.292 -0.2332  1.4089 -1.2065
  706TMC3    C110434   2.232   0.125  15.981 -0.8438 -0.2970  0.4347
  706TMC3    C210435   2.184   0.246  15.954 -0.3252 -0.0114 -0.0159
  706TMC3    C310436   2.084   0.290  16.029  0.3721  0.1574  0.4182
  706TMC3    C410437   2.182   0.055  16.081 -0.2276 -0.4220  0.9107
  706TMC3    C510438   2.074   0.104  16.162 -0.9956  0.1237 -0.3122
  706TMC3    C610439   2.027   0.230  16.137 -0.3894 -0.4860  0.6580
  706TMC3     C10440   2.355   0.092  15.909  0.2601 -0.1739 -0.3743
  706TMC3     O10441   2.421   4.726  15.956 -0.7489  0.2938  0.4780
  706TMC3     H10442   2.224   0.312  15.877  0.8220 -0.3057  0.3285
  706TMC3    H110443   2.228   4.686  16.101  1.4788 -0.1079 -1.5604
  706TMC3    H210444   1.937   0.269  16.183 -0.8232  0.8417 -1.3441
  706TMC3    C710445   1.972   0.000  16.192  0.2083 -0.0322 -0.0108
  706TMC3    C810446   2.068   0.433  16.003 -0.1594  0.2325 -0.5289
  706TMC3    O110447   1.995   4.627  16.127  0.0031  0.3732 -0.4774
  706TMC3    O210448   2.077   0.478  15.889  0.3960  0.0273 -0.1156
  707TMC3    C110449   3.684   4.264   1.144 -0.1405 -0.2864 -0.4190
  707TMC3    C210450   3.702   4.136   1.176  0.2410  1.1268 -0.2635
  707TMC3    C310451   3.606   4.074   1.254  0.2516  0.7304 -0.3716
  707TMC3    C410452   3.576   4.331   1.202  1.3510 -0.0074 -0.1372
  707TMC3    C510453   3.483   4.261   1.281 -0.3470  0.2882 -0.1274
  707TMC3    C610454   3.494   4.130   1.301 -0.5895  0.3669 -0.1968
  707TMC3     C10455   3.789   4.330   1.077  0.3158  0.4791 -0.2971
  707TMC3     O10456   3.901   4.287   1.101  0.0831  0.0684 -0.0976
  707TMC3     H10457   3.795   4.088   1.147 -0.2436  0.7946 -1.2795
  707TMC3    H110458   3.569   4.439   1.201 -2.9228 -0.3083 -2.2864
  707TMC3    H210459   3.428   4.075   1.368  2.1501 -0.2063  2.0046
  707TMC3    C710460   3.372   4.346   1.324  0.3776 -0.4281  0.7214
  707TMC3    C810461   3.634   3.932   1.295  0.8509 -0.4422  0.0016
  707TMC3    O110462   3.391   4.465   1.349  0.3731 -0.2088 -0.4166
  707TMC3    O210463   3.541   3.874   1.350  1.0150 -0.0929 -0.1363
  708MPD2     C10464   0.112   3.474  13.416 -0.1151  0.4259 -0.5951
  708MPD2    C110465   4.724   3.508  13.484 -0.2834  0.1761  0.1267
  708MPD2    C210466   0.010   3.493  13.625 -0.6219 -0.3388 -0.1746
  708MPD2    C310467   0.116   3.439  13.694  0.9185  0.1498  0.1134
  708MPD2    C410468   0.227   3.399  13.617 -0.4943 -0.1348  0.7965
  708MPD2    C510469   0.222   3.427  13.482 -0.5301  0.1772 -0.3647
  708MPD2     H10470   4.656   3.526  13.688 -0.7327 -0.5300 -0.2146
  708MPD2    H110471   0.312   3.350  13.664  0.3861  0.2948 -0.3481
  708MPD2    H210472   0.110   3.497  13.310  1.1536  0.1473 -0.6815
  708MPD2    H310473   0.314   3.415  13.426  0.3175  0.8341  0.8893
  708MPD2     N10474   0.105   3.444  13.839  0.4500  0.1520 -0.0045
  708MPD2    H510475   0.018   3.478  13.878  0.6815  1.6608 -0.7928
  708MPD2    N110476   4.609   3.546  13.413  0.3950  0.2949 -0.1383
  708MPD2    H710477   4.617   3.545  13.312  2.0135  3.4173 -0.0246
  709TMC3    C110478   4.376   3.556  13.388  0.0555 -0.0206  0.8417
  709TMC3    C210479   4.376   3.429  13.337 -1.0059  0.0196  0.2861
  709TMC3    C310480   4.260   3.353  13.338  0.0765 -0.0839 -0.1563
  709TMC3    C410481   4.264   3.597  13.463 -0.4595 -0.4475  0.0162
  709TMC3    C510482   4.159   3.512  13.476  0.2996  0.0708 -0.2886
  709TMC3    C610483   4.144   3.400  13.402  0.2565 -0.1621 -0.8664
  709TMC3     C10484   4.489   3.586  13.466 -0.2471 -0.4018  0.0001
  709TMC3     O10485   4.463   3.614  13.583  0.5688 -0.1959 -0.2280
  709TMC3     H10486   4.458   3.382  13.283  2.0621  3.0050  2.3071
  709TMC3    H110487   4.268   3.700  13.498  1.6487 -0.5640  0.0973
  709TMC3    H210488   4.068   3.325  13.423 -0.5068  0.2749 -2.0524
  709TMC3    C710489   4.101   3.511  13.606 -0.4524  0.2120 -0.1442
  709TMC3    C810490   4.255   3.239  13.247  0.7727  0.3867  0.0171
  709TMC3    O110491   4.012   3.429  13.626 -0.0032 -0.1989  0.4574
  709TMC3    O210492   4.162   3.162  13.268  0.3028 -0.1741  0.3252
  710TMC3    C110493   0.812   0.367   0.507  0.3184  0.6838 -0.3934
  710TMC3    C210494   0.819   0.293   0.384 -0.7655 -0.2976 -0.4916
  710TMC3    C310495   0.946   0.270   0.344  0.7484 -0.1842  0.0980
  710TMC3    C410496   0.921   0.396   0.590 -0.1132  1.0521  0.0166
  710TMC3    C510497   1.043   0.377   0.533 -0.2931 -0.5181 -0.3659
  710TMC3    C610498   1.060   0.317   0.408  0.2005 -0.6921  0.2860
  710TMC3     C10499   0.686   0.359   0.566 -0.2164  0.2187  0.2906
  710TMC3     O10500   0.602   0.273   0.524 -0.4791 -0.1739 -0.1072
  710TMC3     H10501   0.728   0.291   0.325 -1.6874 -0.7461  0.9349
  710TMC3    H110502   0.921   0.444   0.688  0.1039  1.5639 -0.2357
  710TMC3    H210503   1.159   0.300   0.369 -0.5417 -0.1803 -1.8118
  710TMC3    C710504   1.146   0.361   0.631 -0.4051 -0.4241 -0.2528
  710TMC3    C810505   0.966   0.161   0.251  0.1769 -0.3035  0.6662
  710TMC3    O110506   1.105   0.351   0.746 -0.1118 -0.0067  0.0203
  710TMC3    O210507   1.074   0.147   0.194 -0.1559 -0.1195 -0.4174
  711TMC3    C110508   0.834   0.684  15.032  0.1128  0.3932  0.0901
  711TMC3    C210509   0.859   0.793  15.115 -0.6935 -0.2083 -0.7342
  711TMC3    C310510   0.982   0.805  15.179 -0.2642  0.3542 -0.2860
  711TMC3    C410511   0.926   0.586  15.030  0.1838 -0.2272 -0.1464
  711TMC3    C510512   1.046   0.600  15.091 -0.4072 -0.0013  0.6624
  711TMC3    C610513   1.082   0.708  15.164 -0.1818 -0.9645 -0.3205
  711TMC3     C10514   0.742   0.697  14.914  0.4370  0.5180  0.1525
  711TMC3     O10515   0.694   0.592  14.874 -0.0807 -0.1216  0.3619
  711TMC3     H10516   0.782   0.868  15.129 -0.2565  0.3841 -1.4978
  711TMC3    H110517   0.912   0.506  14.958  1.1463 -0.8669  0.3825
  711TMC3    H210518   1.182   0.720  15.204 -0.0001  0.1817 -1.1159
  711TMC3    C710519   1.153   0.496  15.050  0.1404 -0.4579 -0.1893
  711TMC3    C810520   1.011   0.922  15.262 -0.3367  0.4037 -0.4929
  711TMC3    O110521   1.266   0.545  15.025 -0.0092  0.0478  0.1388
  711TMC3    O210522   0.922   1.005  15.280 -0.1357 -0.2265  0.5199
  712MPD2     C10523   1.978   1.682  13.105 -0.3940  0.0621  0.3128
  712MPD2    C110524   1.881   1.702  13.202  0.5890  0.4369 -0.5443
  712MPD2    C210525   1.891   1.802  13.297 -0.6127 -0.0769 -0.0010
  712MPD2    C310526   1.996   1.890  13.290  0.5108 -0.2237 -0.2687
  712MPD2    C410527   2.094   1.870  13.196  0.2421  0.4499  0.3088
  712MPD2    C510528   2.095   1.768  13.109  0.0045  0.3206 -0.0202
  712MPD2     H10529   1.809   1.803  13.368  1.7672  0.3104  2.7436
  712MPD2    H110530   2.183   1.932  13.188  0.3057  0.1659 -1.2013
  712MPD2    H210531   1.969   1.621  13.016  2.8823 -0.1985  0.1569
  712MPD2    H310532   2.173   1.759  13.035  1.4881  1.1424  1.4533
  712MPD2     N10533   2.016   2.008  13.373 -0.1679  0.4819 -0.5316
  712MPD2    H510534   2.091   2.074  13.352  1.9284 -1.5151  0.6020
  712MPD2    N110535   1.763   1.618  13.188 -0.2370  0.6670 -0.2063
  712MPD2    H710536   1.756   1.556  13.107  0.6236 -1.5128  1.4127
  713TMC3    C110537   1.975   2.164  13.534  0.1794  0.0880  0.6633
  713TMC3    C210538   2.110   2.178  13.552  0.5001  0.0418 -0.1882
  713TMC3    C310539   2.157   2.306  13.571 -0.1414  0.3786 -0.8808
  713TMC3    C410540   1.882   2.267  13.540 -0.7107 -0.0866 -0.0655
  713TMC3    C510541   1.935   2.392  13.572  0.3359  0.2150  0.3312
  713TMC3    C610542   2.074   2.413  13.581 -0.2627  0.2291 -0.1871
  713TMC3     C10543   1.929   2.044  13.473  0.3848 -0.5235 -0.8879
  713TMC3     O10544   1.818   2.005  13.484 -0.0730  0.3290  0.0652
  713TMC3     H10545   2.175   2.092  13.541  1.5527  1.0852 -2.2110
  713TMC3    H110546   1.778   2.242  13.524 -0.8959 -0.4427  1.6749
  713TMC3    H210547   2.115   2.514  13.580  0.2875 -0.0027 -0.9455
  713TMC3    C710548   1.837   2.501  13.568  0.3043 -0.4889  0.2126
  713TMC3    C810549   2.296   2.345  13.547  0.0481  0.5973 -0.5478
  713TMC3    O110550   1.733   2.478  13.512  0.1800 -0.4688 -0.7378
  713TMC3    O210551   2.322   2.455  13.513 -0.5030 -0.3618 -0.3795
  714MPD2     C10552   3.747   1.349   1.386  0.4928 -0.0025 -0.4338
  714MPD2    C110553   3.777   1.248   1.297  0.2874 -0.0151  0.5668
  714MPD2    C210554   3.712   1.244   1.176  0.0892 -0.2270 -0.2602
  714MPD2    C310555   3.619   1.337   1.145  0.1819 -0.4661 -0.1492
  714MPD2    C410556   3.578   1.438   1.235  0.3487 -0.8115  0.0137
  714MPD2    C510557   3.637   1.432   1.365 -0.1836  0.2384 -0.5231
  714MPD2     H10558   3.725   1.168   1.100  0.8832  0.9866 -1.3328
  714MPD2    H110559   3.503   1.513   1.212  0.9705  0.1704  1.1350
  714MPD2    H210560   3.784   1.353   1.488  0.1222  1.5683 -0.3694
  714MPD2    H310561   3.621   1.507   1.441  2.0728  0.8363 -0.6279
  714MPD2     N10562   3.575   1.326   1.014  0.1138  0.4542 -0.6413
  714MPD2    H510563   3.613   1.257   0.950  0.0417 -0.8283  0.7161
  714MPD2    N110564   3.890   1.172   1.331 -0.3344  0.9073 -0.1635
  714MPD2    H710565   3.924   1.186   1.425  2.3931  0.5801 -1.0877
  715TMC3    C110566   4.096   1.043   1.270  0.4557 -0.3458 -0.3241
  715TMC3    C210567   4.162   0.984   1.165 -0.8828  0.3159 -0.1769
  715TMC3    C310568   4.299   0.977   1.177 -0.1829  0.5630 -0.4023
  715TMC3    C410569   4.161   1.097   1.376 -0.0294  0.5784 -0.6543
  715TMC3    C510570   4.299   1.102   1.376  0.6237  0.2992  0.3616
  715TMC3    C610571   4.370   1.045   1.273  0.2498  0.3653 -0.8413
  715TMC3     C10572   3.960   1.093   1.236 -0.4669  0.4628 -0.6658
  715TMC3     O10573   3.932   1.069   1.118  0.4157 -0.0724 -0.0440
  715TMC3     H10574   4.110   0.946   1.077  1.4721 -0.8918 -1.0350
  715TMC3    H110575   4.109   1.153   1.453  0.4851 -0.0129  0.1150
  715TMC3    H210576   4.476   1.058   1.256  0.1501 -1.2037 -2.6388
  715TMC3    C710577   4.369   1.185   1.477  0.2805 -0.1738  0.1393
  715TMC3    C810578   4.368   0.891   1.082 -0.8366 -0.1458  0.0141
  715TMC3    O110579   4.491   1.203   1.468  0.1066 -0.3171  0.2202
  715TMC3    O210580   4.309   0.859   0.979  0.2007 -0.8457  0.7223
  716MPD2     C10581   0.060   3.001   9.259  0.0868 -0.0941  0.0963
  716MPD2    C110582   4.667   3.007   9.186 -0.2370  0.1595 -0.2129
  716MPD2    C210583   4.640   2.910   9.092 -0.4254  0.0481  0.4654
  716MPD2    C310584   4.714   2.799   9.080 -0.3962  1.0030  0.4791
  716MPD2    C410585   0.096   2.786   9.161  0.4918 -0.0184 -1.0015
  716MPD2    C510586   0.130   2.882   9.254 -0.4301  0.0625  0.0951
  716MPD2     H10587   4.568   2.932   9.014  0.0497  0.2866  0.0995
  716MPD2    H110588   0.167   2.705   9.150  0.7429  0.4004 -2.4219
  716MPD2    H210589   0.084   3.079   9.330  2.3032  0.1515 -0.9186
  716MPD2    H310590   0.224   2.877   9.308  0.2118  1.9377 -0.8571
  716MPD2     N10591   4.676   2.713   8.971 -0.2462 -0.6982 -0.0661
  716MPD2    H510592   4.592   2.744   8.923 -0.7986 -0.7003  0.8940
  716MPD2    N110593   4.584   3.118   9.204 -0.0341  0.1751  0.0500
  716MPD2    H710594   4.614   3.194   9.263 -4.2088  1.6938  0.2701
  717TMC3    C110595   4.645   2.531   8.846 -0.8207  0.1605  0.3075
  717TMC3    C210596   4.508   2.537   8.868 -0.4277  0.3418  0.1066
  717TMC3    C310597   4.423   2.467   8.793 -0.1836  0.2015  0.4605
  717TMC3    C410598   4.698   2.446   8.750 -0.2334 -0.7085 -0.1008
  717TMC3    C510599   4.611   2.382   8.665  0.1624  0.0096  0.6572
  717TMC3    C610600   4.475   2.380   8.699  0.2918 -0.0845  0.1615
  717TMC3     C10601   0.010   2.601   8.925  0.5804 -0.5606 -0.3376
  717TMC3     O10602   0.115   2.550   8.960  0.4478  0.1739 -0.6579
  717TMC3     H10603   4.462   2.588   8.952  0.0702  0.4038  0.3420
  717TMC3    H110604   0.079   2.450   8.746 -0.2992 -0.4112 -1.8355
  717TMC3    H210605   4.405   2.316   8.645  0.3657 -1.6989  1.9724
  717TMC3    C710606   4.674   2.261   8.608  1.1415  0.3269 -0.0792
  717TMC3    C810607   4.277   2.481   8.821  0.3474  0.1183 -0.7617
  717TMC3    O110608   0.068   2.261   8.592 -0.2249  0.0738  0.0909
  717TMC3    O210609   4.243   2.584   8.876  0.6878 -0.3837  0.2211
  718MPD2     C10610   3.506   1.836  13.011 -0.3289 -0.2512 -0.0006
  718MPD2    C110611   3.431   1.920  12.936 -0.4092 -0.6826  0.1300
  718MPD2    C210612   3.310   1.885  12.884 -0.1701  0.3764 -0.6433
  718MPD2    C310613   3.256   1.759  12.908 -0.2158  1.0554  0.7423
  718MPD2    C410614   3.329   1.669  12.976 -0.6145  0.3278 -0.0017
  718MPD2    C510615   3.457   1.710  13.025 -0.3584  0.0752  0.5648
  718MPD2     H10616   3.245   1.950  12.826  0.3001  1.1673 -0.2788
  718MPD2    H110617   3.293   1.568  12.988  1.1069 -0.0506  1.9848
  718MPD2    H210618   3.599   1.870  13.054  0.5186 -1.7666 -0.6690
  718MPD2    H310619   3.513   1.638  13.083  0.2427 -1.2237 -1.6125
  718MPD2     N10620   3.133   1.731  12.850 -0.0353 -0.1691 -0.2091
  718MPD2    H510621   3.094   1.808  12.796  0.1685 -0.8693 -1.3457
  718MPD2    N110622   3.481   2.048  12.911  0.4779  0.0583 -0.3947
  718MPD2    H710623   3.420   2.107  12.855 -1.0710 -1.3547 -0.1891
  719TMC3    C110624   3.615   2.240  12.884 -0.0365 -0.4331 -0.0760
  719TMC3    C210625   3.494   2.277  12.841 -0.0638 -0.2876 -0.0087
  719TMC3    C310626   3.473   2.333  12.721 -0.0028  0.3845  0.2450
  719TMC3    C410627   3.724   2.269  12.807 -0.4956 -1.3437 -0.0837
  719TMC3    C510628   3.702   2.339  12.695 -0.2536  0.8815  0.1760
  719TMC3    C610629   3.581   2.370  12.646 -0.4215 -0.9912  0.0922
  719TMC3     C10630   3.608   2.103  12.917  0.2913  0.5523 -0.2937
  719TMC3     O10631   3.716   2.049  12.938 -0.4880  0.4831 -0.1218
  719TMC3     H10632   3.421   2.270  12.921 -1.1966 -2.6941 -1.2888
  719TMC3    H110633   3.823   2.238  12.837  0.3004  2.6936  1.4399
  719TMC3    H210634   3.573   2.416  12.548  0.5554 -2.2105 -0.5609
  719TMC3    C710635   3.825   2.378  12.623 -0.6126  0.4988 -0.4250
  719TMC3    C810636   3.351   2.279  12.667  0.1830  0.1230 -0.3753
  719TMC3    O110637   3.932   2.320  12.646 -0.8803  0.4683  0.1306
  719TMC3    O210638   3.279   2.241  12.756 -0.4268 -0.2302  0.0892
  720MPD2     C10639   2.338   3.596  13.753  0.0707 -0.2056 -0.3212
  720MPD2    C110640   2.407   3.677  13.670  0.5142  0.6462  0.4571
  720MPD2    C210641   2.544   3.696  13.686  0.2158 -0.4060 -0.0462
  720MPD2    C310642   2.613   3.622  13.776  0.2434 -0.3571  0.5594
  720MPD2    C410643   2.540   3.529  13.845  0.2159  0.0366 -0.1345
  720MPD2    C510644   2.401   3.517  13.834 -0.0936  0.1602  0.0681
  720MPD2     H10645   2.597   3.764  13.619  0.3086  1.8924  2.3415
  720MPD2    H110646   2.583   3.462  13.919  0.4144 -0.1144 -0.3871
  720MPD2    H210647   2.229   3.588  13.751  0.0570 -0.2705  0.7036
  720MPD2    H310648   2.350   3.438  13.888 -0.8769  0.1297 -0.7273
  720MPD2     N10649   2.750   3.636  13.782  0.0990  0.0946  0.7657
  720MPD2    H510650   2.791   3.709  13.724  3.4909 -2.2100  0.2549
  720MPD2    N110651   2.342   3.748  13.567  0.0889 -0.5543 -0.7076
  720MPD2    H710652   2.392   3.827  13.529 -0.2778 -2.1784 -4.5162
  721TMC3    C110653   2.966   3.635  13.869  0.0985  0.1384 -0.0504
  721TMC3    C210654   3.028   3.634  13.990  0.6031 -0.1145  0.0536
  721TMC3    C310655   3.147   3.700  14.004  0.5530 -0.3020 -0.5152
  721TMC3    C410656   3.016   3.707  13.763  0.4912 -0.1099  1.3095
  721TMC3    C510657   3.130   3.779  13.781 -0.1898 -0.2566  0.5600
  721TMC3    C610658   3.198   3.781  13.900 -0.2812 -0.0798  0.7812
  721TMC3     C10659   2.843   3.565  13.859 -0.6200 -0.4390  0.2202
  721TMC3     O10660   2.819   3.475  13.936 -0.3409  0.5380 -0.1789
  721TMC3     H10661   2.986   3.577  14.072  0.5853  0.8681  0.7268
  721TMC3    H110662   2.975   3.690  13.664  0.5960  1.3614  1.0089
  721TMC3    H210663   3.301   3.811  13.911  0.2356 -1.5131 -0.1554
  721TMC3    C710664   3.198   3.832  13.666  0.0967 -0.8569  0.1516
  721TMC3    C810665   3.190   3.730  14.135 -0.0697  0.0632 -0.3540
  721TMC3    O110666   3.312   3.791  13.661  0.1515 -0.8648 -0.1285
  721TMC3    O210667   3.308   3.751  14.147  0.0310  0.3983 -0.4388
  722MPD2     C10668   1.004   2.474  13.145  0.0204  0.0324  0.6866
  722MPD2    C110669   0.928   2.580  13.176 -0.0540 -0.5994 -0.1509
  722MPD2    C210670   0.794   2.564  13.147 -0.2425  0.1670  0.2361
  722MPD2    C310671   0.741   2.449  13.100  0.0268 -0.1086  0.6447
  722MPD2    C410672   0.814   2.338  13.093 -0.1792 -0.0763  0.4373
  722MPD2    C510673   0.945   2.353  13.119 -0.6482 -0.4019  0.4489
  722MPD2     H10674   0.725   2.646  13.162 -0.4722  0.6748 -3.4383
  722MPD2    H110675   0.778   2.242  13.059  2.5161 -0.6818 -0.7334
  722MPD2    H210676   1.112   2.473  13.146  0.0258 -0.5381 -0.9416
  722MPD2    H310677   1.013   2.273  13.093 -0.2473 -0.0386  0.3729
  722MPD2     N10678   0.608   2.450  13.064  0.3795  0.6929 -0.1584
  722MPD2    H510679   0.551   2.533  13.079 -2.4998 -1.3112  0.1699
  722MPD2    N110680   0.973   2.704  13.224  0.0965 -0.0169 -0.3895
  722MPD2    H710681   0.916   2.787  13.217 -0.6232 -0.2540  2.3710
  723TMC3    C110682   0.401   2.392  12.957 -0.9202  0.5846  0.2014
  723TMC3    C210683   0.315   2.298  12.910  0.6426 -0.0833 -0.0238
  723TMC3    C310684   0.195   2.337  12.859 -0.6326  0.3406 -0.1189
  723TMC3    C410685   0.378   2.528  12.941 -0.8553 -0.3206 -0.4062
  723TMC3    C510686   0.258   2.560  12.892 -1.3462 -0.2298  0.3806
  723TMC3    C610687   0.175   2.465  12.846 -0.8709  0.2794 -1.3762
  723TMC3     C10688   0.541   2.348  13.004 -0.7928 -0.0500 -0.5962
  723TMC3     O10689   0.574   2.238  12.968 -0.0888  0.3579 -0.2505
  723TMC3     H10690   0.318   2.199  12.955  2.8729 -0.1315 -0.2775
  723TMC3    H110691   0.442   2.606  12.981 -0.4162 -0.4768 -0.8012
  723TMC3    H210692   0.073   2.492  12.818 -1.1185  0.3784 -0.4008
  723TMC3    C710693   0.258   2.686  12.825  0.4789 -0.2179  0.9583
  723TMC3    C810694   0.102   2.245  12.789  0.0979 -0.9244  0.7680
  723TMC3    O110695   0.325   2.775  12.873  0.5057 -0.6383  0.2944
  723TMC3    O210696   4.715   2.279  12.761  0.2573 -0.4472 -0.1365
  724TMC3    C110697   1.611   0.547   9.420  0.5659  0.4682  0.7314
  724TMC3    C210698   1.531   0.599   9.320  0.3365 -0.0521  0.3242
  724TMC3    C310699   1.574   0.713   9.256 -0.3296  0.0070  0.1764
  724TMC3    C410700   1.728   0.605   9.452 -0.4973 -0.2850  0.2570
  724TMC3    C510701   1.767   0.718   9.384 -0.2808  0.7156  0.4644
  724TMC3    C610702   1.688   0.776   9.294 -0.2218 -0.3026 -0.1819
  724TMC3     C10703   1.579   0.421   9.492 -0.7310 -0.5330  0.3163
  724TMC3     O10704   1.633   0.394   9.600  0.4705  0.0967 -0.2054
  724TMC3     H10705   1.429   0.570   9.300  0.1736  0.3609  0.5572
  724TMC3    H110706   1.792   0.560   9.527 -0.7029 -0.0107  0.5953
  724TMC3    H210707   1.717   0.869   9.245 -0.2127 -0.8724 -1.2615
  724TMC3    C710708   1.868   0.815   9.433 -0.4723  0.4131  0.3612
  724TMC3    C810709   1.478   0.778   9.170  0.0009  0.3062 -0.1092
  724TMC3    O110710   1.837   0.932   9.433  0.4006 -0.2834 -0.1071
  724TMC3    O210711   1.399   0.698   9.117  0.5922  0.1406 -0.4562
  725TMC3    C110712   2.993   4.216  12.471 -0.4344 -0.0524 -0.1851
  725TMC3    C210713   2.917   4.180  12.360 -0.6998  0.1312 -0.0070
  725TMC3    C310714   2.837   4.067  12.383 -0.3641 -0.4870 -0.0479
  725TMC3    C410715   3.012   4.146  12.592 -0.4523 -0.0626  0.2254
  725TMC3    C510716   2.936   4.033  12.601 -0.0847 -0.1611  0.4346
  725TMC3    C610717   2.841   3.994  12.502  0.6634  0.1027  0.3676
  725TMC3     C10718   3.099   4.313  12.444 -0.5386  0.4402 -0.2860
  725TMC3     O10719   3.067   4.420  12.395 -0.2043  0.5812  0.0230
  725TMC3     H10720   2.921   4.231  12.264 -2.1194  1.1719  0.4862
  725TMC3    H110721   3.085   4.179  12.665  0.3590 -0.0112 -0.6155
  725TMC3    H210722   2.762   3.922  12.515 -0.2610  0.8604 -1.0463
  725TMC3    C710723   2.954   3.943  12.709  0.0823  0.2309 -0.4794
  725TMC3    C810724   2.771   4.008  12.270 -0.1885 -0.7784  0.7256
  725TMC3    O110725   3.004   3.989  12.811 -0.4508  0.0179  0.8079
  725TMC3    O210726   2.730   3.891  12.283 -1.4077 -0.1443  0.7230
  726MPD2     C10727   0.921   0.478   9.763 -1.2727 -0.2249  0.2029
  726MPD2    C110728   0.897   0.588   9.844  0.4149  0.8176  0.0406
  726MPD2    C210729   0.834   0.570   9.967 -0.2177  0.3806  0.3649
  726MPD2    C310730   0.765   0.452   9.992  0.0104  0.1130 -0.0357
  726MPD2    C410731   0.787   0.349   9.907  0.6289  0.5803  0.2539
  726MPD2    C510732   0.864   0.361   9.797 -0.2010 -0.4931  0.0871
  726MPD2     H10733   0.810   0.656  10.029 -0.8760 -0.7382  1.6421
  726MPD2    H110734   0.733   0.256   9.919  0.7549  0.1783 -2.3231
  726MPD2    H210735   0.980   0.484   9.672  0.1420 -2.4516  0.9588
  726MPD2    H310736   0.869   0.280   9.726  0.1037 -1.4844  1.2449
  726MPD2     N10737   0.669   0.442  10.097 -0.7526 -0.1328 -0.3906
  726MPD2    H510738   0.595   0.373  10.097  0.0402 -0.9822  2.2462
  726MPD2    N110739   0.924   0.721   9.806 -0.3314  0.4343  0.5180
  726MPD2    H710740   0.892   0.794   9.870  2.6523  0.6824  1.7415
  727TMC3    C110741   0.979   0.895   9.657  0.2234  0.5875  0.4847
  727TMC3    C210742   0.999   0.976   9.765 -0.8168 -0.1430  0.0327
  727TMC3    C310743   0.940   1.097   9.771 -0.0936 -0.3957  0.1860
  727TMC3    C410744   0.913   0.938   9.547 -0.0714  0.3389  0.0489
  727TMC3    C510745   0.856   1.060   9.546 -0.2379  0.1145 -0.1596
  727TMC3    C610746   0.864   1.136   9.658 -0.7220 -0.3753 -0.2837
  727TMC3     C10747   0.976   0.752   9.684  0.3668 -0.1214  0.1751
  727TMC3     O10748   1.009   0.681   9.590 -0.3940 -0.2168 -0.2089
  727TMC3     H10749   1.064   0.932   9.840 -2.8407  0.3960  2.1041
  727TMC3    H110750   0.898   0.869   9.465  0.8945  0.4945 -0.2620
  727TMC3    H210751   0.839   1.241   9.641 -1.0217 -0.7196 -2.0005
  727TMC3    C710752   0.727   1.060   9.477 -0.7116 -0.3172  0.4270
  727TMC3    C810753   1.007   1.194   9.861  0.3011 -0.2575 -0.6934
  727TMC3    O110754   0.681   0.957   9.436 -0.3367  0.1494 -0.2206
  727TMC3    O210755   1.119   1.165   9.897 -0.0044  0.2882  0.2027
  728TMC3    C110756   4.674   4.575  15.026 -0.8932  0.0959 -0.4650
  728TMC3    C210757   0.072   4.608  15.081  0.5433  0.5358 -0.6958
  728TMC3    C310758   0.177   4.627  14.996  0.5645 -0.2937  0.6045
  728TMC3    C410759   4.654   4.554  14.890 -0.4219  0.6794 -0.2558
  728TMC3    C510760   0.030   4.586  14.805 -0.5711  0.2783 -0.4469
  728TMC3    C610761   0.154   4.613  14.857 -0.3461  0.7541  0.1092
  728TMC3     C10762   4.567   4.571  15.128  1.4463  0.3491 -0.4051
  728TMC3     O10763   4.589   4.631  15.233 -0.3221  0.3643  0.0643
  728TMC3     H10764   0.081   4.631  15.187 -2.7592 -1.3985 -0.0090
  728TMC3    H110765   4.556   4.553  14.842 -0.8638 -0.6956  0.6943
  728TMC3    H210766   0.239   4.607  14.791  0.0913 -0.1169  0.7496
  728TMC3    C710767   0.003   4.584  14.666  0.0935 -0.1634  1.0995
  728TMC3    C810768   0.313   4.636  15.039  0.2127  0.3584 -0.8298
  728TMC3    O110769   4.642   4.511  14.627  0.0041  0.0790 -0.3408
  728TMC3    O210770   0.394   4.683  14.959  0.1323  0.4532 -0.2577
  729MPD2     C10771   2.117   0.403  16.554  0.6130 -0.3896 -0.8865
  729MPD2    C110772   2.239   0.438  16.605 -0.7151  0.8727 -0.7639
  729MPD2    C210773   2.248   0.501  16.728 -0.4548  0.4897 -0.0892
  729MPD2    C310774   2.138   0.510  16.811  0.1021  0.2330 -0.4319
  729MPD2    C410775   2.026   0.450  16.772 -0.1365  0.5220  0.5035
  729MPD2    C510776   2.011   0.404  16.640 -0.3328 -0.5344 -0.5578
  729MPD2     H10777   2.345   0.540  16.759  0.8032 -0.9162 -2.2502
  729MPD2    H110778   1.941   0.456  16.840  0.0223 -0.0155  0.7503
  729MPD2    H210779   2.097   0.368  16.454  1.4991 -1.0189 -0.8389
  729MPD2    H310780   1.914   0.359  16.623 -0.1183 -0.5169 -1.7985
  729MPD2     N10781   2.147   0.580  16.937 -0.2885 -0.1868 -0.0630
  729MPD2    H510782   2.061   0.588  16.990 -0.0448  1.2083  0.1022
  729MPD2    N110783   2.351   0.435  16.517 -0.0879  0.1983 -0.6216
  729MPD2    H710784   2.340   0.418  16.417  0.3969  2.3214 -1.0459
  730TMC3    C110785   2.227   0.696  17.135  0.6216 -0.1189 -0.0922
  730TMC3    C210786   2.317   0.792  17.160 -0.0364  0.0533 -0.5665
  730TMC3    C310787   2.278   0.905  17.217  0.1489  0.1154 -0.0987
  730TMC3    C410788   2.096   0.709  17.162 -0.1419  0.7203  0.3063
  730TMC3    C510789   2.055   0.826  17.219  0.5963  0.9063  0.0834
  730TMC3    C610790   2.148   0.916  17.264 -0.2949 -1.4932 -0.6708
  730TMC3     C10791   2.263   0.629  17.007  0.2921  0.5806  0.4357
  730TMC3     O10792   2.381   0.629  16.974  0.4506 -0.1155 -0.1800
  730TMC3     H10793   2.416   0.795  17.115 -0.0600  2.7348 -0.4781
  730TMC3    H110794   2.011   0.651  17.127  0.2602  1.2060 -1.4560
  730TMC3    H210795   2.122   0.990  17.339 -2.7231 -0.8468 -2.1484
  730TMC3    C710796   1.978   0.904  17.126  0.4260  0.1006  0.0107
  730TMC3    C810797   2.311   1.019  17.130  0.0918 -1.0006  0.3323
  730TMC3    O110798   1.982   0.891  17.004  0.2352  0.0439  0.0554
  730TMC3    O210799   2.392   0.996  17.046 -0.3336  0.3162 -0.4456
  731MPD2     C10800   1.535   2.749  12.474 -0.3731 -0.3237 -0.1960
  731MPD2    C110801   1.667   2.728  12.514 -0.0276  0.3573 -0.5440
  731MPD2    C210802   1.697   2.720  12.651 -0.0733  0.6081 -0.2753
  731MPD2    C310803   1.597   2.714  12.749 -1.1154 -0.6842 -0.1313
  731MPD2    C410804   1.469   2.724  12.707 -0.2483 -0.0394 -0.0249
  731MPD2    C510805   1.446   2.752  12.570  0.0370 -0.0623  0.0224
  731MPD2     H10806   1.802   2.710  12.677  0.0099  0.3923 -0.6787
  731MPD2    H110807   1.385   2.713  12.773 -0.0335  0.9225  0.4163
  731MPD2    H210808   1.502   2.772  12.373 -1.5235 -0.9571  0.0315
  731MPD2    H310809   1.342   2.755  12.542  0.8291  1.4134 -2.7706
  731MPD2     N10810   1.632   2.680  12.878  0.8441  0.3393 -0.2514
  731MPD2    H510811   1.725   2.643  12.893  1.1792  1.3650  0.2331
  731MPD2    N110812   1.774   2.730  12.426 -0.4646 -0.1671 -0.5466
  731MPD2    H710813   1.867   2.725  12.466 -0.9249 -1.1366  0.3784
  732TMC3    C110814   1.907   2.720  12.234 -0.3275  1.3297 -0.4519
  732TMC3    C210815   1.910   2.692  12.099 -0.6588 -0.5911 -0.0489
  732TMC3    C310816   2.015   2.735  12.023  0.7467 -0.0743  0.0174
  732TMC3    C410817   2.015   2.788  12.284 -0.4903 -0.0446 -0.3471
  732TMC3    C510818   2.116   2.822  12.203 -0.5513 -0.1750 -0.8142
  732TMC3    C610819   2.126   2.794  12.074  0.5879 -0.0491  0.8649
  732TMC3     C10820   1.776   2.721  12.291 -0.5247 -0.5676 -0.5200
  732TMC3     O10821   1.685   2.683  12.220  0.3208  0.1229  0.4718
  732TMC3     H10822   1.828   2.639  12.052 -1.8757  0.7049  0.5949
  732TMC3    H110823   2.021   2.821  12.387 -1.2949  1.3289 -0.7362
  732TMC3    H210824   2.203   2.827  12.005 -0.5296  0.2188 -0.2693
  732TMC3    C710825   2.231   2.901  12.247  0.1298 -0.4521 -0.7738
  732TMC3    C810826   1.989   2.759  11.885 -0.5047  0.1154  0.4694
  732TMC3    O110827   2.341   2.876  12.201 -0.4107  0.7394 -0.0799
  732TMC3    O210828   2.079   2.750  11.801  0.0485 -0.3506  0.1040
  733TMC3    C110829   2.700   1.699  12.788 -0.2245  0.2396  0.6985
  733TMC3    C210830   2.812   1.650  12.847  0.3687  0.3506  0.6118
  733TMC3    C310831   2.932   1.654  12.789  0.1570 -0.1041  0.1484
  733TMC3    C410832   2.706   1.751  12.657  0.0517 -0.6483 -0.7586
  733TMC3    C510833   2.834   1.760  12.608 -0.4273  0.8430 -0.6513
  733TMC3    C610834   2.944   1.693  12.656  0.2127 -0.9624 -0.1776
  733TMC3     C10835   2.602   1.762  12.870  0.1654  0.8890 -0.1957
  733TMC3     O10836   2.523   1.838  12.816  0.4179 -0.1746 -0.0509
  733TMC3     H10837   2.812   1.617  12.950 -1.4168 -0.7637  0.2694
  733TMC3    H110838   2.623   1.802  12.607  0.2245  1.4165  1.0688
  733TMC3    H210839   3.037   1.691  12.600  0.8355 -2.4830  0.9181
  733TMC3    C710840   2.872   1.858  12.503  0.3850 -0.0071  0.0287
  733TMC3    C810841   3.048   1.629  12.870  0.0530 -0.0196  0.0326
  733TMC3    O110842   2.807   1.881  12.403 -0.0869 -0.7602 -0.5410
  733TMC3    O210843   3.051   1.549  12.962  0.8596 -0.1097 -0.3148
  734MPD2     C10844   1.141   4.036  12.034 -0.9030 -0.6742  0.0180
  734MPD2    C110845   1.012   4.065  12.006  0.4004 -0.1496 -0.3096
  734MPD2    C210846   0.970   4.157  11.911  0.4177  0.2218  0.4208
  734MPD2    C310847   1.061   4.207  11.823  0.0264 -0.8033 -0.4458
  734MPD2    C410848   1.196   4.186  11.852  0.2100  0.6908  0.8653
  734MPD2    C510849   1.229   4.103  11.953  0.0478  0.4653 -0.1407
  734MPD2     H10850   0.865   4.184  11.901  0.7201  1.0262 -0.6247
  734MPD2    H110851   1.275   4.224  11.787 -0.2874  0.5181  0.1572
  734MPD2    H210852   1.182   3.965  12.105 -1.0070 -0.7894 -0.0353
  734MPD2    H310853   1.337   4.091  11.964 -0.0241 -1.4570 -1.4858
  734MPD2     N10854   1.020   4.262  11.700  0.3330 -0.2982 -1.3515
  734MPD2    H510855   0.920   4.258  11.686  0.1620  2.1425 -0.9070
  734MPD2    N110856   0.918   3.978  12.074 -0.3493  0.3404 -0.5173
  734MPD2    H710857   0.965   3.916  12.138 -1.0154  0.5099  0.1375
  735TMC3    C110858   0.737   3.831  12.066 -0.4430  0.3480 -0.4119
  735TMC3    C210859   0.613   3.816  12.014  0.4497 -0.3455  0.0312
  735TMC3    C310860   0.580   3.687  11.957  0.5900 -0.0852  0.4424
  735TMC3    C410861   0.824   3.725  12.054  0.2346  0.2065  0.5419
  735TMC3    C510862   0.794   3.603  12.010 -0.1838  0.2670 -0.5240
  735TMC3    C610863   0.666   3.583  11.974  0.0442  0.1650 -0.2859
  735TMC3     C10864   0.783   3.967  12.044  0.3624 -0.9664  0.9751
  735TMC3     O10865   0.709   4.047  11.985  0.2517  1.2893  0.2645
  735TMC3     H10866   0.545   3.899  11.999  0.1288 -0.3318  1.5379
  735TMC3    H110867   0.927   3.735  12.083  0.9820 -1.4556 -1.4891
  735TMC3    H210868   0.637   3.484  11.943 -0.2294  0.3680 -0.6745
  735TMC3    C710869   0.900   3.542  11.924  0.7576 -0.6130 -0.2050
  735TMC3    C810870   0.531   3.685  11.820 -0.1465  0.0407  0.1886
  735TMC3    O110871   0.992   3.619  11.888  0.1828 -0.3284 -0.3858
  735TMC3    O210872   0.502   3.576  11.770 -0.0672 -0.0587 -0.4385
  736MPD2     C10873   0.858   3.238  11.747  0.1219 -0.1371 -0.1778
  736MPD2    C110874   0.920   3.354  11.775  0.6575  0.6464  0.5052
  736MPD2    C210875   1.009   3.411  11.687  0.1109 -0.4683  0.9771
  736MPD2    C310876   1.046   3.342  11.570  0.2444 -0.4966  0.0398
  736MPD2    C410877   0.988   3.215  11.553  0.2782  0.1102 -0.1447
  736MPD2    C510878   0.887   3.167  11.637 -0.1262  0.5855 -0.2851
  736MPD2     H10879   1.061   3.504  11.708  1.2181 -1.9921  5.0590
  736MPD2    H110880   1.015   3.154  11.468 -0.7722  0.3104 -0.6276
  736MPD2    H210881   0.790   3.195  11.819  0.1702  1.0700  0.5830
  736MPD2    H310882   0.840   3.070  11.625  1.5352 -0.3240  0.5271
  736MPD2     N10883   1.129   3.394  11.466  0.3190  0.1266 -0.8742
  736MPD2    H510884   1.136   3.340  11.380  1.3533  1.5568 -1.6817
  736MPD2    N110885   0.869   3.413  11.891 -0.7956  0.5299 -0.2020
  736MPD2    H710886   0.794   3.369  11.944  0.8614  1.5335  2.9542
  737TMC3    C110887   1.281   3.537  11.362 -0.6652 -0.2063 -0.3348
  737TMC3    C210888   1.291   3.665  11.313 -0.2454 -0.4895  0.1746
  737TMC3    C310889   1.342   3.689  11.185  0.2576 -0.1251  0.3633
  737TMC3    C410890   1.320   3.424  11.294  0.7504 -0.1367 -0.4132
  737TMC3    C510891   1.370   3.454  11.170 -0.3648 -0.2820 -0.1843
  737TMC3    C610892   1.381   3.580  11.109  0.4324 -0.2363  0.3243
  737TMC3     C10893   1.192   3.519  11.469  1.0385 -0.4639  0.3559
  737TMC3     O10894   1.173   3.616  11.542  0.2745  0.0733  0.5552
  737TMC3     H10895   1.249   3.750  11.365 -0.0267 -1.0071  1.2057
  737TMC3    H110896   1.319   3.322  11.331 -1.1381 -0.5612 -1.6791
  737TMC3    H210897   1.418   3.599  11.009 -0.2684 -0.2881  0.0520
  737TMC3    C710898   1.361   3.348  11.068  0.0658  0.8647  0.5946
  737TMC3    C810899   1.354   3.830  11.146 -0.6634 -0.1739 -0.7021
  737TMC3    O110900   1.269   3.267  11.075 -0.8552 -0.5010  0.0868
  737TMC3    O210901   1.376   3.917  11.228 -0.4097  0.0486  0.1057
  738MPD2     C10902   1.897   2.819  15.147 -0.4919 -0.1084  0.0664
  738MPD2    C110903   1.826   2.802  15.031  0.1932 -0.1531  0.0883
  738MPD2    C210904   1.895   2.800  14.909  0.0990  0.4119  0.0130
  738MPD2    C310905   2.036   2.797  14.913  0.1442 -0.2437 -0.4105
  738MPD2    C410906   2.099   2.822  15.035  0.2297  0.2092 -0.6277
  738MPD2    C510907   2.031   2.842  15.148 -0.5369  0.4282  0.4885
  738MPD2     H10908   1.841   2.782  14.817  1.3260 -1.9312 -0.2749
  738MPD2    H110909   2.207   2.816  15.035  0.1942 -0.3667  0.6956
  738MPD2    H210910   1.847   2.817  15.243  1.1435 -0.1220  0.9176
  738MPD2    H310911   2.084   2.849  15.242 -1.8275 -0.1631  1.2597
  738MPD2     N10912   2.116   2.785  14.801  0.1018 -0.1447  0.1779
  738MPD2    H510913   2.216   2.798  14.813  0.2109  0.1225 -1.0209
  738MPD2    N110914   1.686   2.785  15.025 -0.6599 -0.3098  0.1075
  738MPD2    H710915   1.643   2.762  14.936  0.2227  0.5224 -0.5280
  739TMC3    C110916   2.170   2.805  14.573 -0.5714  0.1688 -0.3586
  739TMC3    C210917   2.106   2.856  14.464  0.2678 -0.6964 -0.4130
  739TMC3    C310918   2.164   2.961  14.391 -0.2081  0.8818  0.0699
  739TMC3    C410919   2.293   2.852  14.605  0.1621  0.4613 -0.0780
  739TMC3    C510920   2.340   2.964  14.545  0.2966  0.1091  0.0034
  739TMC3    C610921   2.277   3.022  14.435  0.0351  0.3068 -0.3694
  739TMC3     C10922   2.069   2.773  14.674  1.5155  0.1231  0.7095
  739TMC3     O10923   1.960   2.739  14.633  0.1111 -0.5146  0.3714
  739TMC3     H10924   2.007   2.824  14.433 -1.4050  2.9741  1.1596
  739TMC3    H110925   2.347   2.799  14.682  2.0491  1.6055 -0.6194
  739TMC3    H210926   2.305   3.124  14.414  2.1254 -0.1191  0.3462
  739TMC3    C710927   2.478   3.004  14.583  0.4858 -0.4205 -0.7053
  739TMC3    C810928   2.081   3.024  14.294 -0.2151  0.1892 -0.2121
  739TMC3    O110929   2.519   2.974  14.696  0.2316  0.2734 -0.0630
  739TMC3    O210930   1.962   3.008  14.301  0.3090 -0.3192  0.1961
  740TMC3    C110931   2.338   4.335  13.818 -0.8626  0.0288  0.6159
  740TMC3    C210932   2.405   4.284  13.925 -0.5318  0.4603  0.0469
  740TMC3    C310933   2.499   4.185  13.909  0.1054 -0.3871  0.1020
  740TMC3    C410934   2.367   4.297  13.686  0.1900  0.1244 -0.2878
  740TMC3    C510935   2.471   4.203  13.682  1.2126  0.2051 -0.2830
  740TMC3    C610936   2.544   4.152  13.784  0.5459 -0.1244 -0.3094
  740TMC3     C10937   2.212   4.406  13.837 -0.2632 -0.8570 -0.6344
  740TMC3     O10938   2.182   4.489  13.755  0.1453 -0.3892  0.1324
  740TMC3     H10939   2.381   4.316  14.025 -1.9535  0.9044 -0.4373
  740TMC3    H110940   2.314   4.343  13.604  1.1710 -0.7660 -1.4152
  740TMC3    H210941   2.626   4.084  13.763  0.2714 -0.1128 -1.4077
  740TMC3    C710942   2.500   4.135  13.552  0.2984 -0.1758 -0.4752
  740TMC3    C810943   2.584   4.143  14.015  0.2707 -0.3776  0.0630
  740TMC3    O110944   2.532   4.018  13.560 -0.6471  0.2444  0.0569
  740TMC3    O210945   2.692   4.091  13.980  0.2480 -0.0677  0.3871
  741TMC3    C110946   1.838   3.698  13.944 -0.1032 -0.8098 -0.2351
  741TMC3    C210947   1.723   3.690  14.024  0.2237  0.5400 -0.4480
  741TMC3    C310948   1.734   3.624  14.140 -0.0200 -0.0061  0.0829
  741TMC3    C410949   1.959   3.640  13.984 -0.0211  0.1596 -0.5754
  741TMC3    C510950   1.959   3.565  14.100 -0.6662  0.2873  0.3809
  741TMC3    C610951   1.845   3.555  14.179 -0.5032 -0.2394  0.0459
  741TMC3     C10952   1.837   3.767  13.813  0.1109 -0.0683 -0.9471
  741TMC3     O10953   1.924   3.753  13.727 -0.3166 -0.0889  0.0351
  741TMC3     H10954   1.633   3.749  14.010  0.1173  0.3408 -0.5939
  741TMC3    H110955   2.044   3.646  13.917  0.6674  0.0863  0.3032
  741TMC3    H210956   1.846   3.501  14.273 -2.1630  0.5105  0.4866
  741TMC3    C710957   2.080   3.512  14.159  0.1796  0.4626 -0.6785
  741TMC3    C810958   1.608   3.582  14.195  0.7725  0.3622  0.2775
  741TMC3    O110959   2.180   3.558  14.104 -0.7253 -1.2851  0.8048
  741TMC3    O210960   1.523   3.672  14.198 -0.6552  0.1602 -0.1168
  742TMC3    C110961   1.533   2.009  15.099  0.5938  0.2763 -0.2487
  742TMC3    C210962   1.465   2.016  14.978  0.3360  0.5465 -0.5912
  742TMC3    C310963   1.496   1.921  14.883  0.2402  0.5039 -0.0409
  742TMC3    C410964   1.644   1.934  15.118 -0.2904 -0.1249 -0.2445
  742TMC3    C510965   1.676   1.844  15.020 -0.3935 -0.3804 -0.0320
  742TMC3    C610966   1.604   1.835  14.902 -0.2897  0.4246 -0.3487
  742TMC3     C10967   1.480   2.092  15.208  0.1895 -0.6723  0.4185
  742TMC3     O10968   1.416   2.190  15.175 -0.4127  0.0603 -0.5420
  742TMC3     H10969   1.373   2.074  14.968  0.7792  1.1733 -1.0418
  742TMC3    H110970   1.713   1.952  15.200  0.2779 -0.0563 -0.7407
  742TMC3    H210971   1.634   1.760  14.829 -1.2578 -0.6361  0.3427
  742TMC3    C710972   1.795   1.757  15.016 -0.2701 -0.2290 -0.3073
  742TMC3    C810973   1.458   1.935  14.742  0.0758  0.0459 -0.7741
  742TMC3    O110974   1.814   1.695  14.907  0.4993 -0.1261  0.2539
  742TMC3    O210975   1.535   1.888  14.661 -0.2261 -0.1049 -0.7612
  743MPD2     C10976   0.044   3.244   1.468 -0.1663  0.4174  0.4402
  743MPD2    C110977   0.072   3.329   1.362 -0.7609  0.2615  0.6326
  743MPD2    C210978   0.208   3.374   1.349 -0.2213  0.4754  1.1667
  743MPD2    C310979   0.306   3.336   1.442  0.5152 -0.5978 -0.1284
  743MPD2    C410980   0.268   3.245   1.546 -1.2326  0.0858  0.0010
  743MPD2    C510981   0.138   3.209   1.559 -0.9915  0.7111 -0.6205
  743MPD2     H10982   0.232   3.450   1.276  1.6780 -1.0330  0.2062
  743MPD2    H110983   0.337   3.216   1.624 -1.6960 -1.2556 -0.0790
  743MPD2    H210984   4.668   3.210   1.478 -1.0106  2.0581 -2.5507
  743MPD2    H310985   0.112   3.143   1.640  0.8260  2.2954  1.2433
  743MPD2     N10986   0.440   3.387   1.438 -0.4189 -0.4212  0.2810
  743MPD2    H510987   0.458   3.468   1.379  0.8433 -2.3408 -1.9756
  743MPD2    N110988   4.688   3.373   1.283  0.4193  0.4840  0.0409
  743MPD2    H710989   4.598   3.338   1.315  0.5757 -0.4258 -0.5050
  744TMC3    C110990   4.577   3.527   1.135 -0.7045  0.2569  0.2923
  744TMC3    C210991   4.460   3.500   1.205  0.4473  0.2002 -0.1833
  744TMC3    C310992   4.339   3.538   1.152  0.1440 -0.4612  0.6740
  744TMC3    C410993   4.581   3.606   1.024  0.6211  0.1289 -0.3337
  744TMC3    C510994   4.459   3.662   0.986 -0.0901  0.8063 -0.0411
  744TMC3    C610995   4.337   3.623   1.041 -0.0026  0.0410 -0.7154
  744TMC3     C10996   4.702   3.471   1.182 -0.3811  0.5202 -0.4930
  744TMC3     O10997   0.083   3.498   1.130  0.2287 -0.1405 -0.0974
  744TMC3     H10998   4.461   3.456   1.304 -0.5218 -1.1456 -0.7690
  744TMC3    H110999   4.677   3.635   0.982  0.5571  2.2844  0.9853
  744TMC3    H211000   4.245   3.646   0.988 -1.7740  0.4114  2.4815
  744TMC3    C711001   4.450   3.715   0.851  0.4149  0.4990  0.2385
  744TMC3    C811002   4.209   3.509   1.221  0.3688  0.3233  0.5853
  744TMC3    O111003   4.528   3.664   0.778 -0.3262 -0.5690  0.0110
  744TMC3    O211004   4.211   3.414   1.297 -0.0217  0.6793  0.2820
  745TMC3    C111005   1.535   1.587  13.209  0.1733  0.4692  0.1441
  745TMC3    C211006   1.431   1.598  13.293 -0.8070 -0.7279  0.6031
  745TMC3    C311007   1.328   1.687  13.270  0.0915 -0.2884 -0.1692
  745TMC3    C411008   1.527   1.657  13.088  0.0905 -0.4003  0.4589
  745TMC3    C511009   1.416   1.733  13.060  0.6694 -0.4830  0.9808
  745TMC3    C611010   1.313   1.748  13.143  0.4147  0.2184  0.0300
  745TMC3     C11011   1.659   1.612  13.276 -0.6639  0.7672 -0.8966
  745TMC3     O11012   1.645   1.659  13.391  0.5266  0.1501  0.5572
  745TMC3     H11013   1.441   1.564  13.396  1.7048  0.3143  0.7304
  745TMC3    H111014   1.598   1.629  13.010 -0.3501 -4.3851  1.5028
  745TMC3    H211015   1.242   1.827  13.122 -0.3576 -1.1011 -2.3620
  745TMC3    C711016   1.434   1.829  12.953 -0.3074 -0.6923 -0.2341
  745TMC3    C811017   1.312   1.785  13.379  0.6008  0.2767 -0.3789
  745TMC3    O111018   1.334   1.867  12.899 -0.3882 -0.2230  0.6458
  745TMC3    O211019   1.225   1.871  13.366 -0.2157 -0.1671  0.1462
  746TMC3    C111020   3.961   3.290  10.675 -0.1324  0.1351 -0.5224
  746TMC3    C211021   3.959   3.298  10.540 -0.5306  0.1629  0.0284
  746TMC3    C311022   3.932   3.185  10.461 -0.3239  0.4944  0.0372
  746TMC3    C411023   3.956   3.163  10.725 -0.2942  0.2664  0.1746
  746TMC3    C511024   3.930   3.053  10.644  0.1952  0.3710  0.0792
  746TMC3    C611025   3.907   3.060  10.513 -0.4018  0.2424 -0.3881
  746TMC3     C11026   3.951   3.409  10.759 -0.4943  0.6479  0.2426
  746TMC3     O11027   3.906   3.394  10.869 -0.1369  0.0161 -0.2726
  746TMC3     H11028   3.971   3.395  10.493 -2.3091  0.2548 -0.2410
  746TMC3    H111029   3.953   3.165  10.833 -1.1716 -1.0134  0.1747
  746TMC3    H211030   3.886   2.969  10.456  2.0510 -0.3379 -0.3543
  746TMC3    C711031   3.863   2.937  10.699  0.4697  0.2970 -0.8663
  746TMC3    C811032   3.945   3.189  10.314  0.5745  0.5316  0.9687
  746TMC3    O111033   3.786   2.874  10.627 -0.4089  0.0808  0.2354
  746TMC3    O211034   3.898   3.098  10.248  0.2120  0.1409  0.0750
  747TMC3    C111035   1.739   3.564  10.092  0.1971  0.4812 -0.1768
  747TMC3    C211036   1.656   3.478  10.157  0.3248  0.3692  0.0862
  747TMC3    C311037   1.662   3.485  10.299  0.2862  0.3035 -0.5614
  747TMC3    C411038   1.827   3.647  10.160 -0.2170  0.2784 -0.5910
  747TMC3    C511039   1.827   3.655  10.293  0.5806 -0.0507 -0.1459
  747TMC3    C611040   1.745   3.577  10.370  0.6251  0.7487 -0.1236
  747TMC3     C11041   1.689   3.617   9.959  1.1641  0.0882 -0.0816
  747TMC3     O11042   1.744   3.719   9.918  0.9567  0.2981  0.0237
  747TMC3     H11043   1.577   3.425  10.104 -0.9523  1.4530  0.9063
  747TMC3    H111044   1.897   3.709  10.105 -0.3426 -0.9379 -2.1225
  747TMC3    H211045   1.744   3.584  10.478 -0.6773 -2.2621  0.0574
  747TMC3    C711046   1.922   3.733  10.369 -0.1767 -0.0684 -0.4852
  747TMC3    C811047   1.559   3.405  10.367 -0.3564 -0.3280 -0.3208
  747TMC3    O111048   1.958   3.687  10.481  0.2231  0.4329 -0.0298
  747TMC3    O211049   1.464   3.373  10.301  0.3192 -0.2413 -0.4517
  748MPD2     C11050   3.669   4.215   1.629  0.2371  0.3368 -0.0315
  748MPD2    C111051   3.774   4.166   1.556 -0.5958  0.4652 -0.3432
  748MPD2    C211052   3.846   4.252   1.473  0.1314 -0.2188  0.2777
  748MPD2    C311053   3.810   4.384   1.449 -0.1419 -0.1857  0.4742
  748MPD2    C411054   3.705   4.431   1.522  0.5351 -0.1484  0.0878
  748MPD2    C511055   3.635   4.347   1.614 -0.0125  0.4103 -0.4325
  748MPD2     H11056   3.938   4.224   1.423  0.6775  1.4223  0.3536
  748MPD2    H111057   3.668   4.533   1.513  0.3509 -0.4298 -2.2453
  748MPD2    H211058   3.606   4.148   1.686 -0.3343  1.5657  0.7898
  748MPD2    H311059   3.542   4.380   1.659 -0.1323 -0.1676 -0.2586
  748MPD2     N11060   3.897   4.466   1.367 -0.0561 -0.0490  0.1219
  748MPD2    H511061   3.984   4.423   1.337 -0.3941 -0.5517 -0.1543
  748MPD2    N111062   3.813   4.035   1.586  0.3692  0.4440  0.0818
  748MPD2    H711063   3.753   3.982   1.649  0.1259  0.1517 -0.3937
  749TMC3    C111064   3.963   4.656   1.243 -0.2886 -0.9503 -0.4913
  749TMC3    C211065   4.086   4.600   1.248 -0.6547 -0.3231 -0.3856
  749TMC3    C311066   4.172   4.655   1.162 -0.5924  0.7112  0.5701
  749TMC3    C411067   3.927   0.041   1.168 -0.1467 -0.8973  0.5060
  749TMC3    C511068   4.016   0.071   1.062  0.8280 -0.3017  0.2531
  749TMC3    C611069   4.143   0.014   1.063  0.1357 -0.1126  0.2305
  749TMC3     C11070   3.860   4.588   1.313 -0.2108  0.0034 -0.5028
  749TMC3     O11071   3.751   4.640   1.321 -0.2580  0.1206  0.1300
  749TMC3     H11072   4.120   4.539   1.331 -0.8628 -0.0175 -0.0729
  749TMC3    H111073   3.832   0.092   1.174  0.3840  0.2684 -0.9411
  749TMC3    H211074   4.215   0.056   0.993  0.8913 -1.4803  0.1906
  749TMC3    C711075   3.999   0.205   1.001 -0.4537  0.0469  0.5115
  749TMC3    C811076   4.307   4.648   1.212  0.2311 -0.5553  0.6732
  749TMC3    O111077   4.105   0.259   0.974  0.4320 -0.3769 -0.0801
  749TMC3    O211078   4.316   4.640   1.330  0.1764 -0.1685 -0.0588
  750MPD2     C11079   4.694   0.417  11.150  0.1115  0.4971  0.0640
  750MPD2    C111080   4.580   0.345  11.158  0.5035 -0.5974 -0.3138
  750MPD2    C211081   4.567   0.249  11.059  0.1279 -0.1754  0.9525
  750MPD2    C311082   4.654   0.237  10.944  0.4269 -0.1257 -0.1042
  750MPD2    C411083   0.034   0.326  10.941 -0.3135  0.4400  0.3268
  750MPD2    C511084   0.050   0.409  11.046 -0.1019  0.7623 -0.1061
  750MPD2     H11085   4.485   0.179  11.065  2.5234 -3.0416  0.4487
  750MPD2    H111086   0.101   0.342  10.857 -2.0561 -0.9476 -1.3179
  750MPD2    H211087   4.714   0.508  11.207 -1.7898  0.3137  1.0043
  750MPD2    H311088   0.131   0.481  11.042  1.8874 -1.3136  2.7173
  750MPD2     N11089   4.628   0.156  10.827  0.3909  0.2081  0.0214
  750MPD2    H511090   4.673   0.177  10.738 -0.0979  1.2759  0.0303
  750MPD2    N111091   4.501   0.366  11.271 -0.3206 -0.1050  0.0603
  750MPD2    H711092   4.525   0.447  11.329 -0.3969 -1.3190  1.8044
  751TMC3    C111093   4.489   4.726  10.707 -0.1048 -0.1953 -0.0130
  751TMC3    C211094   4.358   4.712  10.686 -0.2488 -0.1459  0.1033
  751TMC3    C311095   4.319   4.645  10.571 -0.8319 -0.2892  0.4985
  751TMC3    C411096   4.582   4.697  10.608  0.5677  0.8472  0.1391
  751TMC3    C511097   4.540   4.627  10.501  0.2729  0.3634 -0.3669
  751TMC3    C611098   4.408   4.588  10.481 -0.6960 -0.1098 -0.3121
  751TMC3     C11099   4.534   0.056  10.834  0.7116  0.1985  0.0039
  751TMC3     O11100   4.484   4.721  10.923  0.0122 -0.3297  0.5699
  751TMC3     H11101   4.295   0.005  10.772 -0.3774 -2.7573  0.5996
  751TMC3    H111102   4.685   4.697  10.641  0.2642  0.2408  1.0847
  751TMC3    H211103   4.373   4.537  10.392 -0.4781  1.4599 -1.2903
  751TMC3    C711104   4.643   4.562  10.426 -0.4549 -0.3394 -0.2976
  751TMC3    C811105   4.176   4.631  10.551 -0.4341 -1.2369 -0.1681
  751TMC3    O111106   0.027   4.618  10.408 -0.0820 -0.3047  0.3290
  751TMC3    O211107   4.146   4.552  10.463 -0.5196 -0.3920 -0.2993
  752TMC3    C111108   2.942   0.588  17.268 -0.0198  0.3503 -0.1672
  752TMC3    C211109   3.011   0.585  17.386  0.4487  0.0812  0.2048
  752TMC3    C311110   2.965   0.656  17.496  0.4909  0.4880  0.0637
  752TMC3    C411111   2.816   0.640  17.264 -0.1343 -0.0780  0.1820
  752TMC3    C511112   2.768   0.704  17.379  0.1698  0.2084 -0.6916
  752TMC3    C611113   2.839   0.719  17.491 -0.3353  0.3425 -0.6087
  752TMC3     C11114   3.024   0.552  17.152  0.1773 -0.2735  0.3903
  752TMC3     O11115   3.144   0.533  17.167  0.0646 -0.3072 -0.5493
  752TMC3     H11116   3.114   0.549  17.393  0.0909 -0.1568  4.0531
  752TMC3    H111117   2.751   0.646  17.177 -0.2213  3.0074  0.4366
  752TMC3    H211118   2.793   0.747  17.585 -0.4933 -2.9076  0.2846
  752TMC3    C711119   2.623   0.708  17.394  0.4277 -0.5269 -0.0631
  752TMC3    C811120   3.048   0.665  17.621  0.6821  0.0198  0.4248
  752TMC3    O111121   2.548   0.626  17.336 -0.2803  0.1531  0.1406
  752TMC3    O211122   3.140   0.586  17.641  0.7607 -0.0329 -0.1584
  753TMC3    C111123   0.512   1.851  13.239  0.1000 -0.1452 -0.6110
  753TMC3    C211124   0.542   1.853  13.376  0.0141 -0.5947  0.1572
  753TMC3    C311125   0.508   1.737  13.445 -0.0968 -0.0376  0.3455
  753TMC3    C411126   0.498   1.737  13.162  0.3589 -0.1160 -0.8657
  753TMC3    C511127   0.490   1.620  13.234 -0.4345 -0.4970  0.7104
  753TMC3    C611128   0.481   1.620  13.372 -0.2122  0.1706 -0.0827
  753TMC3     C11129   0.434   1.965  13.199 -0.0542  0.3442 -0.4007
  753TMC3     O11130   0.380   1.953  13.089  0.5251  0.2890  0.1004
  753TMC3     H11131   0.578   1.935  13.437  1.1410  0.7198 -2.2844
  753TMC3    H111132   0.477   1.743  13.056  1.1853  1.2071 -0.9508
  753TMC3    H211133   0.472   1.525  13.424 -1.7148  0.9884  1.1990
  753TMC3    C711134   0.470   1.497  13.153 -0.1861 -0.4173 -0.7217
  753TMC3    C811135   0.571   1.714  13.579  0.8838 -0.8362 -0.0002
  753TMC3    O111136   0.553   1.474  13.069 -0.5580  0.4476 -0.1996
  753TMC3    O211137   0.614   1.601  13.604  0.2092  0.6062  0.5678
  754MPD2     C11138   4.180   0.457  12.428 -0.0715 -0.0258  0.4700
  754MPD2    C111139   4.137   0.340  12.364  0.7101 -0.8132 -0.1820
  754MPD2    C211140   4.006   0.325  12.317 -0.1436  0.5364 -0.6122
  754MPD2    C311141   3.915   0.429  12.328  0.1169 -0.4200 -0.1726
  754MPD2    C411142   3.958   0.543  12.393 -0.5019  0.4017 -0.2490
  754MPD2    C511143   4.082   0.551  12.443  0.7803  0.1316 -0.5343
  754MPD2     H11144   3.968   0.231  12.280 -0.4779  0.4979 -0.1780
  754MPD2    H111145   3.897   0.632  12.401  0.3259  0.9115  0.2909
  754MPD2    H211146   4.273   0.470  12.483 -1.4191  1.0410  2.4801
  754MPD2    H311147   4.110   0.640  12.498  0.7707 -0.8603  1.0503
  754MPD2     N11148   3.775   0.422  12.297  0.5485 -0.3639 -0.0524
  754MPD2    H511149   3.717   0.500  12.327  0.1886 -0.2271 -1.1046
  754MPD2    N111150   4.223   0.230  12.373  0.1308  0.4068  0.0550
  754MPD2    H711151   4.308   0.230  12.429  0.0406 -0.4185  0.1886
  755MPD2     C11152   3.141   0.924  12.659  0.3397 -0.7543 -0.5392
  755MPD2    C111153   3.184   0.807  12.731 -0.6310  0.0346  0.0908
  755MPD2    C211154   3.260   0.706  12.664  0.0909  0.5005  0.3858
  755MPD2    C311155   3.260   0.710  12.528  0.9398  0.8374  0.2125
  755MPD2    C411156   3.216   0.827  12.455  0.2148  0.2267 -0.2099
  755MPD2    C511157   3.157   0.923  12.516  0.4561 -0.4619 -0.6717
  755MPD2     H11158   3.300   0.629  12.729 -1.1411  1.0336  1.7733
  755MPD2    H111159   3.224   0.825  12.346 -0.2439 -2.9227 -0.1977
  755MPD2    H211160   3.087   1.005  12.705 -2.3818 -2.9978  0.2283
  755MPD2    H311161   3.123   1.013  12.466 -1.8479 -1.3474 -0.6756
  755MPD2     N11162   3.320   0.616  12.446  0.1237 -0.1763 -0.3429
  755MPD2    H511163   3.305   0.636  12.347  2.5454  2.1824 -0.2458
  755MPD2    N111164   3.168   0.785  12.866  0.5982  0.8047 -0.2965
  755MPD2    H711165   3.207   0.701  12.907  0.4717  0.5645 -0.6774
  756MPD2     C11166   3.863   1.075   9.003 -0.3902  0.2443 -0.1258
  756MPD2    C111167   3.805   0.963   9.061 -0.1846 -0.3989 -0.4773
  756MPD2    C211168   3.673   0.938   9.026 -0.0872 -0.5573 -0.1369
  756MPD2    C311169   3.604   1.012   8.938  0.6809 -0.2471 -0.7762
  756MPD2    C411170   3.668   1.114   8.866  0.3947 -0.1170  0.7336
  756MPD2    C511171   3.796   1.137   8.902 -0.2833 -0.0074 -0.8001
  756MPD2     H11172   3.624   0.843   9.045 -1.4942  0.1846 -0.0126
  756MPD2    H111173   3.625   1.180   8.792 -0.3569 -1.8679 -0.3920
  756MPD2    H211174   3.957   1.117   9.036 -0.5119 -0.6409  1.3908
  756MPD2    H311175   3.845   1.213   8.842  1.3865  0.1382  0.7426
  756MPD2     N11176   3.473   0.971   8.906 -0.2531  0.0931 -0.2272
  756MPD2    H511177   3.429   0.896   8.958  1.4227 -1.3355 -0.8404
  756MPD2    N111178   3.875   0.886   9.153 -0.0367 -0.1466  0.1804
  756MPD2    H711179   3.823   0.821   9.210  0.8014  0.9666  2.2204
  757MPD2     C11180   3.196   0.232   9.157  0.3781  0.1758  0.8341
  757MPD2    C111181   3.263   0.325   9.228  0.3015  0.6799  0.2150
  757MPD2    C211182   3.252   0.457   9.187 -0.2065  0.2354 -0.1391
  757MPD2    C311183   3.173   0.491   9.075 -1.2582 -0.2973  0.6436
  757MPD2    C411184   3.102   0.389   9.013 -0.2753 -0.1934 -0.3805
  757MPD2    C511185   3.110   0.267   9.063  0.6418  0.6612  0.4770
  757MPD2     H11186   3.302   0.529   9.250 -3.2589  1.9463  0.3420
  757MPD2    H111187   3.038   0.396   8.926 -0.2760  3.0196 -0.1179
  757MPD2    H211188   3.204   0.126   9.178  0.7273  0.1841  0.7361
  757MPD2    H311189   3.060   0.183   9.016 -2.3891  2.4944  0.4311
  757MPD2     N11190   3.170   0.631   9.027  0.2371  0.0995 -0.7594
  757MPD2    H511191   3.239   0.695   9.066 -0.4264  0.4006 -0.0845
  757MPD2    N111192   3.347   0.278   9.337  0.3107  0.0400  0.0125
  757MPD2    H711193   3.357   0.178   9.345  0.3198  0.0779  0.4699
  758MPD2     C11194   3.808   4.627  15.365 -0.0011 -0.1051  0.1392
  758MPD2    C111195   3.845   0.035  15.390  0.1818  0.3727  0.0763
  758MPD2    C211196   3.833   0.083  15.524 -0.1056 -0.4539  0.7392
  758MPD2    C311197   3.769   0.009  15.616  0.5244 -0.0399 -0.3299
  758MPD2    C411198   3.718   4.607  15.584  0.5458 -0.3080 -0.1192
  758MPD2    C511199   3.739   4.551  15.457  0.3153  0.2644 -0.2337
  758MPD2     H11200   3.864   0.186  15.540 -2.2232  0.1694  0.7469
  758MPD2    H111201   3.667   4.545  15.657  1.1270 -0.7913 -0.1266
  758MPD2    H211202   3.831   4.595  15.264  1.2780  1.4454 -0.0592
  758MPD2    H311203   3.710   4.451  15.426 -0.3576 -0.3709  2.5117
  758MPD2     N11204   3.752   0.062  15.751 -0.9850  0.1595 -0.2099
  758MPD2    H511205   3.713   0.008  15.827 -0.2593  1.5119  1.1192
  758MPD2    N111206   3.923   0.095  15.289  0.0428  0.7918 -0.7537
  758MPD2    H711207   3.940   0.038  15.207 -0.4409 -0.8393  0.2922
  759MPD2     C11208   2.992   2.849  10.144 -0.1333 -0.1453  0.3613
  759MPD2    C111209   3.080   2.831  10.042 -0.7255  0.7440 -0.2124
  759MPD2    C211210   3.119   2.945   9.969 -0.1486 -0.5066  0.5210
  759MPD2    C311211   3.074   3.073   9.995 -0.3212 -0.3784 -0.3286
  759MPD2    C411212   2.986   3.086  10.101  0.6340 -0.9240 -0.6987
  759MPD2    C511213   2.948   2.973  10.174 -0.1934 -0.4330  0.0499
  759MPD2     H11214   3.195   2.927   9.893 -1.4301  0.0517 -0.8781
  759MPD2    H111215   2.951   3.182  10.136 -0.9916 -1.2346 -1.4739
  759MPD2    H211216   2.956   2.760  10.196  1.1319 -0.7449  0.1984
  759MPD2    H311217   2.867   2.986  10.245 -2.7410 -0.2016 -2.9130
  759MPD2     N11218   3.134   3.183   9.930 -0.3248 -0.3407  0.0537
  759MPD2    H511219   3.215   3.173   9.870 -0.3391 -0.2065  0.0118
  759MPD2    N111220   3.123   2.703  10.000 -0.1892  0.0123  0.5815
  759MPD2    H711221   3.177   2.708   9.914 -1.1024  2.0540  0.1216
  760MPD2     C11222   2.448   0.374  11.878  0.4214 -0.3792  0.5411
  760MPD2    C111223   2.496   0.372  11.746  0.2499 -0.6590 -0.2647
  760MPD2    C211224   2.515   0.252  11.684  0.9605 -0.4064  0.8582
  760MPD2    C311225   2.498   0.130  11.748  0.4851  0.3991 -0.3010
  760MPD2    C411226   2.449   0.138  11.877 -0.1845  1.1835 -0.3251
  760MPD2    C511227   2.414   0.256  11.936 -0.3055  0.2584 -0.9384
  760MPD2     H11228   2.540   0.258  11.579 -0.4952 -1.9989  0.4352
  760MPD2    H111229   2.423   0.051  11.936  0.6091 -0.8705 -3.0059
  760MPD2    H211230   2.440   0.461  11.943 -0.2560 -1.0994  1.4131
  760MPD2    H311231   2.373   0.262  12.036 -0.3184 -0.2106 -0.9147
  760MPD2     N11232   2.506   4.724  11.691  0.4724 -0.2088  0.1264
  760MPD2    H511233   2.505   4.650  11.760  0.2274 -0.3755 -0.0581
  760MPD2    N111234   2.509   0.490  11.668 -0.0834 -0.0422 -0.2744
  760MPD2    H711235   2.540   0.480  11.571 -2.3580 -2.3966 -0.7557
  761MPD2     C11236   3.691   4.621  10.725  0.8889 -0.4217  0.0022
  761MPD2    C111237   3.747   4.539  10.631  0.1646 -0.2541  0.6801
  761MPD2    C211238   3.882   4.568  10.594  0.4986  0.4102 -0.0107
  761MPD2    C311239   3.948   4.679  10.644  0.7967 -0.1281 -0.3155
  761MPD2    C411240   3.885   0.038  10.731 -0.4844 -0.0754  0.0921
  761MPD2    C511241   3.756   0.009  10.767  0.1243 -0.4574  0.0033
  761MPD2     H11242   3.944   4.506  10.529 -0.3760 -2.2637  1.6972
  761MPD2    H111243   3.935   0.117  10.785  1.0094 -0.2648 -0.9971
  761MPD2    H211244   3.588   4.609  10.758  0.6082 -1.1729 -1.1165
  761MPD2    H311245   3.703   0.067  10.842  1.0407  1.3266 -0.7087
  761MPD2     N11246   4.094   4.699  10.634 -0.3700  0.8006 -0.3216
  761MPD2    H511247   4.126   0.046  10.696  0.8093 -0.2486  0.3085
  761MPD2    N111248   3.678   4.431  10.582 -0.5513  0.5225 -0.3587
  761MPD2    H711249   3.587   4.414  10.623 -0.1646  1.3679  0.8549
  762MPD2     C11250   4.170   4.274  10.256 -0.1924  0.5055 -0.1771
  762MPD2    C111251   4.144   4.139  10.269 -0.3576  0.4103 -0.4288
  762MPD2    C211252   4.219   4.044  10.201  0.7733 -0.1863  0.4198
  762MPD2    C311253   4.310   4.090  10.107  0.3192  0.8852  0.3555
  762MPD2    C411254   4.347   4.224  10.101  0.0126  0.1444  0.0272
  762MPD2    C511255   4.280   4.315  10.186  0.2562 -0.1272  0.1064
  762MPD2     H11256   4.196   3.939  10.211  1.1447 -0.2829  0.2293
  762MPD2    H111257   4.428   4.257  10.039  0.5281  2.4717  1.9515
  762MPD2    H211258   4.109   4.341  10.315  2.7860  2.0836  1.0883
  762MPD2    H311259   4.303   4.420  10.172  2.4019 -0.7881 -1.3857
  762MPD2     N11260   4.373   3.994  10.029 -0.8079  0.4912  0.0945
  762MPD2    H511261   4.348   3.897  10.046  0.4864 -0.0865 -1.2561
  762MPD2    N111262   4.023   4.116  10.344  0.2851 -0.7363  0.2976
  762MPD2    H711263   3.968   4.200  10.365  0.2144 -0.3967 -1.2483
  763MPD2     C11264   1.334   0.308  15.927  0.0785  0.2457  0.0918
  763MPD2    C111265   1.220   0.375  15.889  0.1105  0.1186  0.2050
  763MPD2    C211266   1.193   0.489  15.952 -1.3438 -0.6403 -0.4134
  763MPD2    C311267   1.268   0.540  16.054 -0.2380 -0.8288  0.2684
  763MPD2    C411268   1.382   0.471  16.089  0.1590  0.4516  0.2569
  763MPD2    C511269   1.403   0.342  16.040  0.2579  0.4975 -0.1343
  763MPD2     H11270   1.112   0.550  15.914  0.4644  2.2783  0.4062
  763MPD2    H111271   1.450   0.508  16.164 -1.0148  1.0471  1.0321
  763MPD2    H211272   1.351   0.210  15.884 -1.0119  0.5808 -1.1040
  763MPD2    H311273   1.491   0.292  16.076  0.9595  2.0798  0.3414
  763MPD2     N11274   1.259   0.674  16.097 -0.5100  0.7802 -0.5598
  763MPD2    H511275   1.338   0.711  16.149 -1.3057  1.6533  0.0348
  763MPD2    N111276   1.139   0.319  15.785 -0.2273 -0.2060  0.6422
  763MPD2    H711277   1.067   0.381  15.750 -0.0334 -0.5841 -0.4225
  764MPD2     C11278   2.913   1.029  16.906 -1.0891  0.6868  0.5490
  764MPD2    C111279   2.872   1.158  16.912  0.1145 -1.2167  0.4357
  764MPD2    C211280   2.804   1.196  17.027 -0.6075  0.3236 -0.2501
  764MPD2    C311281   2.810   1.111  17.146  0.8588 -0.1464  0.1607
  764MPD2    C411282   2.857   0.983  17.135 -0.4361 -0.4635 -0.3529
  764MPD2    C511283   2.904   0.943  17.010  0.4794  0.0826  0.3822
  764MPD2     H11284   2.761   1.295  17.034 -0.9717  0.2297 -1.0807
  764MPD2    H111285   2.866   0.918  17.221  0.5960  0.2569  0.0871
  764MPD2    H211286   2.969   0.982  16.825 -0.1925 -0.6065  1.9295
  764MPD2    H311287   2.950   0.845  17.005  0.7496  0.1488  1.6395
  764MPD2     N11288   2.771   1.171  17.266 -0.0030  0.2442  0.0885
  764MPD2    H511289   2.732   1.265  17.261  0.2364  0.2894 -0.8106
  764MPD2    N111290   2.897   1.250  16.813 -0.4951 -0.2510 -0.2969
  764MPD2    H711291   2.871   1.345  16.836  1.8874  0.5326 -0.8044
  765MPD2     C11292   3.076   3.985  15.233  0.0814  0.1995  0.5199
  765MPD2    C111293   3.146   4.103  15.255  0.8760 -0.0518 -0.3536
  765MPD2    C211294   3.267   4.127  15.197 -0.9512 -0.0789  0.6896
  765MPD2    C311295   3.330   4.027  15.123  0.6853  0.4951 -0.3866
  765MPD2    C411296   3.259   3.906  15.103 -0.2180 -0.4422  0.0826
  765MPD2    C511297   3.136   3.891  15.157  0.9658  0.1245 -0.6753
  765MPD2     H11298   3.322   4.218  15.217 -0.7111 -0.6123  2.4459
  765MPD2    H111299   3.292   3.830  15.033 -2.7074  1.0116 -2.7015
  765MPD2    H211300   2.986   3.969  15.292 -0.1323  3.2652  1.0197
  765MPD2    H311301   3.089   3.793  15.151 -0.0272  0.5806 -0.2453
  765MPD2     N11302   3.463   4.054  15.079  0.1896 -0.0673  0.7144
  765MPD2    H511303   3.508   4.137  15.116  0.3425  0.2201 -0.1064
  765MPD2    N111304   3.071   4.203  15.315 -0.1016  0.1642 -0.0774
  765MPD2    H711305   2.976   4.178  15.342 -1.1052  3.4062 -0.6214
  766MPD2     C11306   2.722   4.498  14.913 -0.7288 -0.1989  0.2495
  766MPD2    C111307   2.830   4.437  14.976 -0.6023  0.6544  0.8945
  766MPD2    C211308   2.927   4.381  14.900 -0.1713 -1.3135 -0.6459
  766MPD2    C311309   2.922   4.376  14.763 -0.1686  0.3170  0.6232
  766MPD2    C411310   2.810   4.431  14.697 -0.8699  0.0080 -0.3947
  766MPD2    C511311   2.710   4.484  14.778  0.1997  0.6778  0.6335
  766MPD2     H11312   3.013   4.346  14.956  0.0751 -0.9835 -0.8225
  766MPD2    H111313   2.796   4.421  14.590 -0.2679 -0.9983 -0.3816
  766MPD2    H211314   2.645   4.537  14.978  0.8247  2.4139  0.4951
  766MPD2    H311315   2.622   4.530  14.736 -0.6230 -0.5627  0.9950
  766MPD2     N11316   3.023   4.323  14.682  0.2024  0.8960 -0.0588
  766MPD2    H511317   3.004   4.327  14.582  0.0216  0.4724 -0.0400
  766MPD2    N111318   2.856   4.457  15.113  0.8823 -0.3437 -0.1317
  766MPD2    H711319   2.944   4.421  15.147  2.4303  2.6585 -0.9295
  767MPD2     C11320   2.657   4.676  14.511  0.0468 -0.0540 -0.5458
  767MPD2    C111321   2.792   4.698  14.505  0.5586 -0.2760  0.1792
  767MPD2    C211322   2.869   4.641  14.403  0.0306  0.7003 -0.4771
  767MPD2    C311323   2.798   4.561  14.311 -0.0403 -1.0085  0.1653
  767MPD2    C411324   2.664   4.540  14.319  0.0249  0.0965  0.2398
  767MPD2    C511325   2.587   4.600  14.417 -0.1979 -0.1847  0.0835
  767MPD2     H11326   2.977   4.644  14.409  0.0731 -1.3596 -0.1793
  767MPD2    H111327   2.614   4.471  14.251 -1.8446  0.9458  0.7483
  767MPD2    H211328   2.610   0.016  14.582 -2.8610 -0.2319 -2.2724
  767MPD2    H311329   2.482   4.576  14.422  0.0138 -1.2486 -0.5461
  767MPD2     N11330   2.873   4.501  14.214 -0.1218 -0.4478  0.4389
  767MPD2    H511331   2.974   4.504  14.225 -0.1792  0.0184  0.8533
  767MPD2    N111332   2.848   0.047  14.613 -0.1999  0.0751  0.3148
  767MPD2    H711333   2.780   0.078  14.681  1.3763  4.0581  0.0865
  768MPD2     C11334   3.738   2.426  10.361  0.5599 -0.2353 -0.2495
  768MPD2    C111335   3.739   2.391  10.496  0.2992 -0.1958 -0.5547
  768MPD2    C211336   3.854   2.411  10.572  0.2084  0.6577  0.0419
  768MPD2    C311337   3.971   2.467  10.526 -0.3805 -0.4635  0.5055
  768MPD2    C411338   3.968   2.511  10.398 -0.2502  0.7231 -0.8790
  768MPD2    C511339   3.854   2.490  10.321  0.0073  0.2305  1.0289
  768MPD2     H11340   3.845   2.383  10.676  0.2025  1.2709  0.2056
  768MPD2    H111341   4.054   2.553  10.347  0.2237  0.4283 -0.3326
  768MPD2    H211342   3.652   2.410  10.296 -1.6068 -1.5948  2.9552
  768MPD2    H311343   3.857   2.511  10.214 -0.6036  1.1122  1.1774
  768MPD2     N11344   4.080   2.484  10.619 -0.1124  0.5594  0.0634
  768MPD2    H511345   4.158   2.539  10.585  0.2720  0.9005  1.5252
  768MPD2    N111346   3.615   2.368  10.564  0.1089  0.2473  0.6530
  768MPD2    H711347   3.614   2.350  10.664  2.6140 -1.8793  0.3134
  769MPD2     C11348   0.224   1.246  14.664  0.7787 -0.6251 -0.1427
  769MPD2    C111349   0.180   1.191  14.779  0.3043  0.0663  0.1930
  769MPD2    C211350   0.226   1.238  14.900  0.2219 -0.5438  0.8750
  769MPD2    C311351   0.316   1.339  14.916 -0.0683 -0.2937  0.3965
  769MPD2    C411352   0.362   1.394  14.796  0.4803  0.4917  0.6002
  769MPD2    C511353   0.310   1.352  14.674 -0.2881  0.5845 -0.9813
  769MPD2     H11354   0.202   1.187  14.993  0.5059 -1.1794  0.5962
  769MPD2    H111355   0.436   1.474  14.792 -1.1279  1.9506  0.0620
  769MPD2    H211356   0.190   1.193  14.576 -0.4182 -3.3147  1.9298
  769MPD2    H311357   0.347   1.392  14.580  2.0428 -0.1094 -0.3602
  769MPD2     N11358   0.354   1.379  15.044 -1.0066  0.3098  0.6463
  769MPD2    H511359   0.315   1.321  15.117  2.0068  1.0031  2.7818
  769MPD2    N111360   0.080   1.088  14.769  0.6225  0.3873 -0.0365
  769MPD2    H711361   0.065   1.063  14.672 -1.7473 -2.2408  1.0045
  770MPD2     C11362   3.972   0.424  15.010 -0.6151  0.1866 -0.1091
  770MPD2    C111363   4.029   0.408  14.887 -0.3387 -0.5296 -0.0125
  770MPD2    C211364   4.138   0.487  14.854 -0.6897 -0.5499 -0.6059
  770MPD2    C311365   4.196   0.575  14.950  0.1021 -0.0701  0.9678
  770MPD2    C411366   4.151   0.568  15.084 -0.1279  0.0011  0.2843
  770MPD2    C511367   4.037   0.500  15.103 -0.4390 -0.8856  0.5258
  770MPD2     H11368   4.187   0.470  14.759  0.2326  0.0097 -0.2290
  770MPD2    H111369   4.203   0.611  15.169  1.0448 -1.7751  0.4868
  770MPD2    H211370   3.899   0.356  15.052  0.3982  1.0138  3.0138
  770MPD2    H311371   3.997   0.500  15.204  1.5983 -0.7346  1.3189
  770MPD2     N11372   4.308   0.642  14.911 -0.1139  0.1648 -0.0348
  770MPD2    H511373   4.331   0.641  14.812 -2.9182 -0.9960 -0.6679
  770MPD2    N111374   3.973   0.311  14.800  0.3047  0.3482  0.3747
  770MPD2    H711375   3.900   0.255  14.842 -0.5123 -0.3504 -1.9446
  771MPD2     C11376   0.743   3.627  13.281 -0.4649  0.8039 -0.9467
  771MPD2    C111377   0.689   3.740  13.219  0.2973  0.1124 -0.5986
  771MPD2    C211378   0.590   3.720  13.122 -0.0289  0.3387 -0.3262
  771MPD2    C311379   0.541   3.597  13.092  0.1373 -0.5489  0.0927
  771MPD2    C411380   0.606   3.489  13.149 -0.2691 -0.3097 -0.1880
  771MPD2    C511381   0.707   3.503  13.232 -1.0460  0.0953 -0.1636
  771MPD2     H11382   0.542   3.810  13.085  0.7381  0.7524 -0.3227
  771MPD2    H111383   0.567   3.389  13.135  0.0894 -0.3202 -1.1016
  771MPD2    H211384   0.825   3.628  13.352 -2.8522  2.1092  1.8126
  771MPD2    H311385   0.759   3.412  13.259  0.0249 -0.0284 -2.5890
  771MPD2     N11386   0.433   3.581  13.004 -0.1783  0.4406  0.7503
  771MPD2    H511387   0.394   3.664  12.960  0.2960 -0.3301 -1.1007
  771MPD2    N111388   0.736   3.877  13.244 -0.1178 -0.0163 -0.3779
  771MPD2    H711389   0.679   3.950  13.204 -0.1669  1.1492  1.7834
  772MPD2     C11390   0.573   4.556  13.577 -0.5785  0.3892 -0.0910
  772MPD2    C111391   0.558   4.418  13.554  0.0516 -0.0361 -0.0985
  772MPD2    C211392   0.449   4.354  13.614  0.2218  0.3056 -0.2745
  772MPD2    C311393   0.349   4.424  13.675 -0.5439  0.3508  0.5293
  772MPD2    C411394   0.367   4.556  13.700 -0.2473 -0.0699  0.2323
  772MPD2    C511395   0.488   4.619  13.664 -0.2738  0.0791 -0.8278
  772MPD2     H11396   0.443   4.247  13.597 -0.5469  0.6883 -2.3394
  772MPD2    H111397   0.294   4.595  13.771  1.0060  1.4408  0.7107
  772MPD2    H211398   0.656   4.614  13.536  1.0374 -1.2837  0.8532
  772MPD2    H311399   0.504   4.722  13.694  2.7746 -0.5121 -0.4525
  772MPD2     N11400   0.233   4.357  13.730  0.2042 -0.0123 -0.0804
  772MPD2    H511401   0.175   4.410  13.794 -1.3519 -3.3929  1.2507
  772MPD2    N111402   0.654   4.330  13.491 -0.0913 -0.2804  0.1951
  772MPD2    H711403   0.624   4.235  13.474 -0.3510 -0.2555  0.5210
  773MPD2     C11404   4.602   0.429  17.198 -0.3325  0.2900 -0.5336
  773MPD2    C111405   4.481   0.364  17.177 -0.4820 -0.8221 -0.4549
  773MPD2    C211406   4.444   0.251  17.246  0.3643  0.7121  1.3640
  773MPD2    C311407   4.508   0.209  17.358  0.1763  0.9308  0.5786
  773MPD2    C411408   4.626   0.279  17.386 -0.8617 -0.0703  0.5964
  773MPD2    C511409   4.670   0.384  17.308 -0.4046  0.3883 -0.7369
  773MPD2     H11410   4.346   0.207  17.231  0.7412  0.5787 -0.7090
  773MPD2    H111411   4.687   0.250  17.471  1.0290  1.0861 -0.3732
  773MPD2    H211412   4.640   0.510  17.137  4.7949 -2.7488 -1.3668
  773MPD2    H311413   0.037   0.432  17.336 -0.8453  0.0161  1.3921
  773MPD2     N11414   4.471   0.077  17.406 -0.0256 -0.2894 -0.4447
  773MPD2    H511415   4.406   0.022  17.352 -2.0865  2.5499 -0.8405
  773MPD2    N111416   4.398   0.415  17.078 -0.4097  0.1067 -0.5216
  773MPD2    H711417   4.308   0.369  17.080 -0.7656  0.7750 -1.2308
  774MPD2     C11418   3.958   3.934  12.567  0.4395  0.7049 -0.4025
  774MPD2    C111419   3.890   4.034  12.631 -0.2296 -0.3577 -0.0719
  774MPD2    C211420   3.915   4.167  12.590  0.0956  0.0646  0.2821
  774MPD2    C311421   3.999   4.196  12.489 -0.0116 -0.3448  0.3219
  774MPD2    C411422   4.052   4.088  12.422  0.0872  0.0372 -0.3476
  774MPD2    C511423   4.035   3.965  12.459 -0.3062  0.1101  0.1181
  774MPD2     H11424   3.883   4.257  12.642 -0.3747  0.4211 -0.6191
  774MPD2    H111425   4.114   4.109  12.335 -0.3589 -0.9182 -0.8928
  774MPD2    H211426   3.950   3.829  12.592  1.1780  0.6311 -0.4936
  774MPD2    H311427   4.098   3.889  12.413  0.1020 -0.0015  0.8590
  774MPD2     N11428   4.048   4.327  12.471  0.4203 -0.0666 -0.4512
  774MPD2    H511429   3.988   4.396  12.516  1.0136 -0.5996  1.1574
  774MPD2    N111430   3.824   4.016  12.757  0.1160 -0.3186 -0.1328
  774MPD2    H711431   3.823   3.918  12.785 -0.2912 -0.2332  0.1476
  775MPD2     C11432   0.607   1.231  15.572 -0.6869 -0.0319 -0.1285
  775MPD2    C111433   0.638   1.332  15.662 -0.2035  0.2013 -0.0814
  775MPD2    C211434   0.749   1.413  15.638 -0.3986 -0.3311  0.0964
  775MPD2    C311435   0.828   1.396  15.527 -0.0221 -0.2073 -0.3314
  775MPD2    C411436   0.793   1.293  15.441  0.9267 -0.1869 -0.8740
  775MPD2    C511437   0.684   1.213  15.459 -0.3774  0.5586  0.9379
  775MPD2     H11438   0.771   1.489  15.712 -0.9690  0.5003 -0.5802
  775MPD2    H111439   0.852   1.280  15.351 -1.3888 -2.6798 -2.0390
  775MPD2    H211440   0.517   1.173  15.589 -0.6855 -0.4525 -1.5498
  775MPD2    H311441   0.656   1.135  15.390  0.5200  1.0709 -0.0014
  775MPD2     N11442   0.930   1.488  15.492  0.8539  0.0912 -0.0388
  775MPD2    H511443   0.956   1.484  15.394 -0.1821 -0.0137 -0.3132
  775MPD2    N111444   0.540   1.357  15.758  0.0977  0.3869  0.5477
  775MPD2    H711445   0.470   1.285  15.771  1.9381 -1.3475  0.8220
  776MPD2     C11446   4.680   0.776  11.703  0.6921  0.4093 -0.3394
  776MPD2    C111447   4.553   0.751  11.655 -0.5317 -0.2179  0.0110
  776MPD2    C211448   4.490   0.854  11.581  0.0701  0.1006  0.0928
  776MPD2    C311449   4.545   0.979  11.568  1.0015 -0.2838 -0.0435
  776MPD2    C411450   4.668   1.006  11.630 -1.1718  0.3186 -0.5583
  776MPD2    C511451   0.008   0.904  11.690 -0.1103 -0.2578  0.1691
  776MPD2     H11452   4.391   0.837  11.540  0.9899 -0.4963 -1.8726
  776MPD2    H111453   4.702   1.109  11.622  2.0499 -0.6444  0.4610
  776MPD2    H211454   0.007   0.694  11.749 -0.7192 -0.1598  0.2933
  776MPD2    H311455   0.103   0.928  11.737 -0.3759  0.5518  0.3018
  776MPD2     N11456   4.480   1.089  11.507 -0.0520 -0.2702  0.0229
  776MPD2    H511457   4.532   1.175  11.492  0.3707 -0.8224 -1.6144
  776MPD2    N111458   4.495   0.617  11.661 -0.6046 -1.0372  0.0204
  776MPD2    H711459   4.555   0.543  11.696 -1.3421 -1.3518  0.6118
  777MPD2     C11460   0.472   4.199   0.152  0.0098 -0.1453  0.4138
  777MPD2    C111461   0.364   4.222   0.241 -1.1974  0.1123 -0.9651
  777MPD2    C211462   0.244   4.150   0.215 -0.2675  0.0120  0.1211
  777MPD2    C311463   0.233   4.067   0.108  0.5301  0.9015  0.4083
  777MPD2    C411464   0.340   4.050   0.026 -0.2963 -0.0970  0.2084
  777MPD2    C511465   0.458   4.114   0.051  0.3107  0.4240 -0.0569
  777MPD2     H11466   0.159   4.150   0.282  0.1577 -0.8450  0.6617
  777MPD2    H111467   0.334   3.981  17.649  1.3984 -0.3276  0.2762
  777MPD2    H211468   0.565   4.256   0.156  0.3071 -0.6622  0.8021
  777MPD2    H311469   0.542   4.095  17.692  0.4055  1.9718 -0.3791
  777MPD2     N11470   0.114   3.992   0.097  0.4175  0.5087  0.3604
  777MPD2    H511471   0.045   3.998   0.171  0.3766  1.0914  0.2759
  777MPD2    N111472   0.370   4.321   0.339 -0.6592 -0.2595  0.4091
  777MPD2    H711473   0.460   4.344   0.380 -1.1807  0.6128  1.0716
  778MPD2     C11474   1.227   4.422  14.594  1.2202  0.2716 -0.7548
  778MPD2    C111475   1.208   4.291  14.556  0.3328 -0.7449  0.3035
  778MPD2    C211476   1.273   4.255  14.434  0.3607 -0.3197 -0.0223
  778MPD2    C311477   1.352   4.341  14.358  0.4868  0.0341  0.4448
  778MPD2    C411478   1.364   4.469  14.403 -0.2824  0.4829  0.0707
  778MPD2    C511479   1.305   4.510  14.516 -0.8015 -0.1656  0.3141
  778MPD2     H11480   1.267   4.152  14.401  1.6338 -0.4451  0.1263
  778MPD2    H111481   1.419   4.541  14.342  1.8382  0.1172  1.5341
  778MPD2    H211482   1.180   4.456  14.685  0.0077 -1.0061 -0.9078
  778MPD2    H311483   1.334   4.607  14.554  2.3066 -1.3176  0.9052
  778MPD2     N11484   1.407   4.292  14.237  0.0991 -0.0423  0.2333
  778MPD2    H511485   1.407   4.192  14.220 -2.3300  0.2106 -1.2194
  778MPD2    N111486   1.131   4.199  14.628 -0.3547  0.1929  0.0431
  778MPD2    H711487   1.140   4.101  14.601  1.0585  0.0544  0.9760
  779MPD2     C11488   0.433   2.887  14.289  1.0304  0.4060 -0.6283
  779MPD2    C111489   0.569   2.871  14.283 -0.0062 -0.5060 -0.1795
  779MPD2    C211490   0.641   2.983  14.272 -0.2488 -0.2064  0.8560
  779MPD2    C311491   0.578   3.107  14.270 -0.2909  0.5011 -0.6232
  779MPD2    C411492   0.441   3.119  14.286  0.0727 -0.0154 -1.1926
  779MPD2    C511493   0.366   3.007  14.288  0.3000  0.4340 -0.0118
  779MPD2     H11494   0.748   2.983  14.257 -0.4325  0.8287 -0.4481
  779MPD2    H111495   0.386   3.212  14.299  1.2368  0.0946  2.7784
  779MPD2    H211496   0.364   2.803  14.295 -1.7235  2.7399  0.5250
  779MPD2    H311497   0.259   3.003  14.304  0.1924 -0.3125 -0.9199
  779MPD2     N11498   0.665   3.217  14.241 -0.7499 -0.1496 -0.4857
  779MPD2    H511499   0.765   3.201  14.240 -0.9979 -1.8036  1.0957
  779MPD2    N111500   0.627   2.743  14.266  0.1556 -0.7711 -0.3825
  779MPD2    H711501   0.729   2.743  14.262  0.0991 -1.6612 -1.9429
  780MPD2     C11502   3.610   2.911   0.229 -0.2851  0.3822  0.0715
  780MPD2    C111503   3.635   2.788   0.170 -0.5121 -0.7736 -0.2297
  780MPD2    C211504   3.751   2.785   0.093  0.2839 -0.4668  0.3500
  780MPD2    C311505   3.846   2.892   0.081  1.0988 -0.4211  0.6302
  780MPD2    C411506   3.814   3.012   0.135 -0.1741  0.2346  0.2426
  780MPD2    C511507   3.699   3.019   0.207  0.4923  0.0552 -0.5580
  780MPD2     H11508   3.777   2.704   0.026  1.8208  0.0030  0.3802
  780MPD2    H111509   3.869   3.106   0.130 -2.0175  1.3445  1.1082
  780MPD2    H211510   3.518   2.930   0.282  0.5600  0.9876  1.3250
  780MPD2    H311511   3.684   3.117   0.251 -0.6306  0.0201 -0.8711
  780MPD2     N11512   3.964   2.875   0.008 -0.1301  0.3513  0.6478
  780MPD2    H511513   3.976   2.791  17.659  1.4322  0.2410  1.1397
  780MPD2    N111514   3.542   2.681   0.181  0.2631 -0.3578 -0.1688
  780MPD2    H711515   3.462   2.684   0.244 -0.6207  2.8757 -1.4304
  781MPD2     C11516   2.022   4.203  11.315  0.0116  0.0914 -0.6021
  781MPD2    C111517   2.142   4.166  11.368  0.5241 -0.3142 -0.0565
  781MPD2    C211518   2.242   4.114  11.286 -0.5500 -0.5264 -0.0797
  781MPD2    C311519   2.233   4.128  11.148 -0.1023 -0.6836  0.0839
  781MPD2    C411520   2.120   4.190  11.098  0.3420  0.8029 -0.1784
  781MPD2    C511521   2.014   4.217  11.182 -0.0160  0.0477 -0.4694
  781MPD2     H11522   2.330   4.071  11.333 -0.9968 -1.7959 -0.3987
  781MPD2    H111523   2.104   4.198  10.991  0.5222  0.7528 -0.2098
  781MPD2    H211524   1.931   4.224  11.370  2.2523  2.2745  2.2242
  781MPD2    H311525   1.928   4.271  11.144 -0.7030  0.4823  1.7238
  781MPD2     N11526   2.316   4.072  11.052  0.9460  0.1818 -0.1190
  781MPD2    H511527   2.276   4.073  10.959 -0.5681  3.0841  0.5357
  781MPD2    N111528   2.163   4.156  11.504  0.0225 -0.4039 -0.1550
  781MPD2    H711529   2.234   4.093  11.540 -0.0389  0.2423  1.1086
  782MPD2     C11530   0.033   0.138   9.781 -0.3652  0.1598 -0.9071
  782MPD2    C111531   0.161   0.093   9.825 -0.6150  0.6038  0.1608
  782MPD2    C211532   0.226   0.156   9.925  0.3128  0.0022  0.6783
  782MPD2    C311533   0.174   0.263   9.993 -0.2599  0.4694  0.5510
  782MPD2    C411534   0.051   0.310   9.951 -0.5035 -0.3763  0.1962
  782MPD2    C511535   4.714   0.251   9.844  0.2900 -0.4859 -0.6566
  782MPD2     H11536   0.315   0.119   9.975  0.3753 -1.4320 -0.5110
  782MPD2    H111537   0.009   0.406   9.978 -0.4992 -0.8989  2.1235
  782MPD2    H211538   4.695   0.100   9.703 -1.5123  1.1050 -0.4113
  782MPD2    H311539   4.628   0.304   9.806  1.3522  0.8165 -1.2409
  782MPD2     N11540   0.253   0.330  10.092 -0.0483  0.3521 -0.0814
  782MPD2    H511541   0.348   0.302  10.115 -0.5626 -0.4860  1.0264
  782MPD2    N111542   0.204   4.694   9.776  0.3283  0.3059 -0.3094
  782MPD2    H711543   0.134   4.624   9.752  1.2054  0.4634 -3.2813
  783MPD2     C11544   4.598   4.216  10.316 -0.0465  0.6085 -0.4585
  783MPD2    C111545   4.656   4.343  10.319  0.4870  0.8309 -0.1957
  783MPD2    C211546   0.024   4.376  10.220  0.0904  0.4390 -0.4675
  783MPD2    C311547   0.058   4.290  10.116 -0.3000  0.7859  0.5404
  783MPD2    C411548   4.724   4.173  10.120  0.3880  0.4921 -0.1277
  783MPD2    C511549   4.638   4.135  10.219 -0.0231 -0.1832 -0.0400
  783MPD2     H11550   0.078   4.470  10.209 -2.8134  2.6567  4.7168
  783MPD2    H111551   0.019   4.089  10.055  3.0433 -1.9926  3.9893
  783MPD2    H211552   4.504   4.195  10.366  0.5373  1.0020  0.8215
  783MPD2    H311553   4.597   4.035  10.216  2.1041 -1.1132  1.6745
  783MPD2     N11554   0.167   4.318  10.039 -0.0459 -0.1499  0.2299
  783MPD2    H511555   0.223   4.400  10.060  1.5980 -0.4694 -2.8934
  783MPD2    N111556   4.602   4.438  10.412 -0.1863  0.3654  0.4737
  783MPD2    H711557   4.516   4.421  10.463  0.7398  0.0623  1.9317
  784MPD2     C11558   1.975   0.878   0.435  0.4739  0.1259 -0.9357
  784MPD2    C111559   1.974   0.993   0.512  0.6606 -0.7506 -0.7298
  784MPD2    C211560   1.874   1.085   0.501 -0.0203  0.1615  0.0380
  784MPD2    C311561   1.765   1.061   0.424  0.1544  0.0265  0.1907
  784MPD2    C411562   1.763   0.951   0.346 -0.0425 -0.0718  0.9299
  784MPD2    C511563   1.864   0.857   0.349  0.2823  0.2507 -0.2302
  784MPD2     H11564   1.883   1.178   0.556 -1.6664  0.3633 -0.0267
  784MPD2    H111565   1.683   0.925   0.278 -1.3979  0.6040  2.3009
  784MPD2    H211566   2.057   0.807   0.431  0.4130  0.1062 -1.8833
  784MPD2    H311567   1.865   0.777   0.275 -0.1219  2.4263 -2.5915
  784MPD2     N11568   1.660   1.160   0.422  0.1578 -0.2585  0.2203
  784MPD2    H511569   1.665   1.227   0.499  1.7131 -0.1776  0.0502
  784MPD2    N111570   2.084   1.027   0.601  0.4524 -0.1806 -0.1158
  784MPD2    H711571   2.080   1.110   0.658 -1.7193 -0.4262  0.0902
  785MPD2     C11572   2.239   3.365   9.211 -0.5669 -0.5384  0.9560
  785MPD2    C111573   2.119   3.415   9.257 -0.3703 -0.0066  0.4478
  785MPD2    C211574   2.042   3.503   9.181 -0.3354  0.1108 -0.7859
  785MPD2    C311575   2.088   3.537   9.055  1.2360  0.0079  0.3276
  785MPD2    C411576   2.208   3.485   9.006  0.2998  0.1543 -0.5804
  785MPD2    C511577   2.279   3.397   9.086  0.0078  0.3505 -0.0656
  785MPD2     H11578   1.958   3.562   9.216  0.8464  0.6505  1.0699
  785MPD2    H111579   2.254   3.521   8.914 -2.0306  1.2205 -1.3398
  785MPD2    H211580   2.297   3.292   9.268 -0.5150 -1.5608 -0.4235
  785MPD2    H311581   2.369   3.354   9.044  0.2583 -0.4281  1.2913
  785MPD2     N11582   2.008   3.637   8.986 -0.0757  0.0709 -0.4426
  785MPD2    H511583   1.941   3.681   9.048  1.3602  2.6154 -0.7053
  785MPD2    N111584   2.076   3.386   9.388  0.3245 -0.5156  0.6357
  785MPD2    H711585   1.992   3.437   9.412 -0.8012 -1.5286 -1.2294
  786MPD2     C11586   1.116   2.019  14.356  0.1223  1.1146 -0.0447
  786MPD2    C111587   1.230   1.942  14.366 -0.2123  0.4665  0.5524
  786MPD2    C211588   1.305   1.940  14.490  0.3562 -0.3804  0.2787
  786MPD2    C311589   1.263   2.008  14.603  0.2002  0.6006 -0.0353
  786MPD2    C411590   1.147   2.080  14.590  0.2949 -0.8111  0.1960
  786MPD2    C511591   1.080   2.091  14.470 -0.5620  0.2863  0.1691
  786MPD2     H11592   1.371   1.854  14.494  1.2247  0.2549 -0.3095
  786MPD2    H111593   1.101   2.129  14.675  0.7120 -2.3102  1.2776
  786MPD2    H211594   1.055   2.026  14.268 -1.8660  2.9824  1.4898
  786MPD2    H311595   1.001   2.165  14.467 -0.1874  0.6572 -0.4920
  786MPD2     N11596   1.338   2.005  14.723 -0.8328 -0.2356 -0.0262
  786MPD2    H511597   1.290   2.046  14.803 -0.5108  0.8637 -0.3957
  786MPD2    N111598   1.267   1.857  14.259 -0.2292  0.0244  0.0253
  786MPD2    H711599   1.350   1.801  14.278 -1.1038 -1.1422  0.4129
  787MPD2     C11600   1.546   1.345  14.433  0.8238 -0.3531  0.4820
  787MPD2    C111601   1.558   1.332  14.295 -0.2196 -0.0088 -0.8862
  787MPD2    C211602   1.644   1.240  14.239  0.2726 -0.2396  0.4383
  787MPD2    C311603   1.712   1.155  14.326 -0.1457  0.4069 -0.9356
  787MPD2    C411604   1.700   1.171  14.459  0.0018 -0.4379  0.1078
  787MPD2    C511605   1.621   1.263  14.513  0.5906  0.1584 -0.1834
  787MPD2     H11606   1.664   1.226  14.133  0.7970  0.5149  0.4393
  787MPD2    H111607   1.751   1.109  14.533  0.4723  0.2793  0.3850
  787MPD2    H211608   1.478   1.421  14.471  1.1147  0.8202 -1.3707
  787MPD2    H311609   1.626   1.272  14.621 -1.1309  0.1874 -0.1030
  787MPD2     N11610   1.804   1.071  14.262 -0.5033  0.4565 -0.2228
  787MPD2    H511611   1.815   1.069  14.161  0.0138  0.9191 -0.1756
  787MPD2    N111612   1.463   1.409  14.226  0.1091 -0.1739  0.2276
  787MPD2    H711613   1.405   1.473  14.279  0.8174 -0.5018  1.3993
  788MPD2     C11614   2.814   0.119   1.090  0.4601 -0.0413  1.0016
  788MPD2    C111615   2.882   0.051   0.993  0.1836 -0.8326 -0.1653
  788MPD2    C211616   2.936   0.119   0.889 -0.2073 -0.4398 -0.4610
  788MPD2    C311617   2.924   0.255   0.865 -0.0501 -0.3074 -0.1927
  788MPD2    C411618   2.853   0.317   0.962  0.2331  0.4871  0.1089
  788MPD2    C511619   2.809   0.256   1.071  0.1966  0.2808 -0.6868
  788MPD2     H11620   2.989   0.057   0.818  0.3644 -1.1826  0.6220
  788MPD2    H111621   2.829   0.423   0.957  0.7559  0.5426 -1.1138
  788MPD2    H211622   2.779   0.080   1.185 -0.2530 -1.5486  0.1168
  788MPD2    H311623   2.748   0.312   1.141 -1.9613 -2.8435 -0.0812
  788MPD2     N11624   2.973   0.330   0.757 -0.4789  0.3107  0.8286
  788MPD2    H511625   2.946   0.428   0.752 -0.1510  0.3496 -0.2642
  788MPD2    N111626   2.899   4.640   1.001  0.0871 -0.8021 -0.6172
  788MPD2    H711627   2.962   4.596   0.935  2.7146  0.5249  1.0371
  789MPD2     C11628   3.169   4.726  17.005  0.7837 -0.6379 -0.1201
  789MPD2    C111629   3.122   4.625  16.917 -0.1513  0.0648 -1.1252
  789MPD2    C211630   2.992   4.632  16.878  0.5010  0.0785  0.2803
  789MPD2    C311631   2.908   0.011  16.911  0.0657  0.8461 -0.0534
  789MPD2    C411632   2.957   0.111  16.989  0.4176  0.2814  0.0622
  789MPD2    C511633   3.082   0.100  17.046  0.4064 -0.5803  0.4742
  789MPD2     H11634   2.964   4.546  16.818 -1.8638  0.0233  1.4594
  789MPD2    H111635   2.891   0.193  17.015 -1.4539 -1.1282 -0.2399
  789MPD2    H211636   3.269   4.724  17.045  0.3233  0.2105  1.0642
  789MPD2    H311637   3.120   0.176  17.113  1.7374 -1.7943  1.0850
  789MPD2     N11638   2.779   0.021  16.857  0.1645  1.2645  0.1507
  789MPD2    H511639   2.729   0.110  16.860 -2.2476  0.0049 -1.9213
  789MPD2    N111640   3.198   4.526  16.854  0.9595  0.0837 -0.0522
  789MPD2    H711641   3.146   4.472  16.787 -2.3320  2.3201  0.7103
  790MPD2     C11642   4.420   0.890  13.604  0.1834  0.1129 -0.4960
  790MPD2    C111643   4.508   0.967  13.537 -0.1887 -0.1507 -0.1512
  790MPD2    C211644   4.475   1.017  13.413  0.2740 -1.3232 -0.0600
  790MPD2    C311645   4.356   0.982  13.352 -0.3457  0.4159  0.0236
  790MPD2    C411646   4.274   0.898  13.420 -0.5567 -0.1632  0.0096
  790MPD2    C511647   4.299   0.851  13.546  0.7273  0.2708 -0.2376
  790MPD2     H11648   4.544   1.082  13.361 -0.1152 -0.2489  0.7490
  790MPD2    H111649   4.179   0.862  13.382 -1.3917  1.4367  0.5793
  790MPD2    H211650   4.448   0.849  13.700 -0.0856 -2.4535 -1.4989
  790MPD2    H311651   4.224   0.796  13.601  1.4512  0.8785  1.3585
  790MPD2     N11652   4.329   1.034  13.228  0.0706  0.3277 -0.2348
  790MPD2    H511653   4.396   1.101  13.193 -0.1124  0.3866 -0.4665
  790MPD2    N111654   4.625   0.992  13.605  0.1748  0.3171 -0.0972
  790MPD2    H711655   4.634   0.951  13.698  0.3485  2.3599  0.7743
  791MPD2     C11656   3.870   1.422  12.610 -0.0142 -0.1714  0.3779
  791MPD2    C111657   3.872   1.285  12.625 -0.2103 -0.0613  1.1620
  791MPD2    C211658   3.779   1.211  12.555  0.1229 -0.4946 -0.3877
  791MPD2    C311659   3.672   1.279  12.491  0.1503 -0.3159 -0.0400
  791MPD2    C411660   3.673   1.420  12.484 -0.2236  0.0402  0.0241
  791MPD2    C511661   3.773   1.490  12.541  0.3929  0.4621 -0.0004
  791MPD2     H11662   3.787   1.103  12.563  1.9561 -0.2214  1.3256
  791MPD2    H111663   3.606   1.477  12.421  0.2007 -0.3221 -0.7489
  791MPD2    H211664   3.945   1.483  12.659 -1.4268  1.8578  0.0004
  791MPD2    H311665   3.773   1.597  12.530  0.0519  0.2398 -2.1715
  791MPD2     N11666   3.579   1.207  12.412  0.0442  0.0390 -0.5200
  791MPD2    H511667   3.589   1.106  12.412 -1.0266 -0.0723 -0.7877
  791MPD2    N111668   3.980   1.229  12.704 -0.1065  0.4645 -0.5531
  791MPD2    H711669   4.046   1.296  12.743  1.9022 -2.0952  0.5086
  792MPD2     C11670   0.142   0.764  10.863 -0.5150 -0.0779 -0.7426
  792MPD2    C111671   0.006   0.799  10.839  1.0152  0.2158 -0.0679
  792MPD2    C211672   4.650   0.710  10.774  0.2665 -0.1940 -0.4907
  792MPD2    C311673   4.705   0.595  10.714  0.1569  0.1973  0.1707
  792MPD2    C411674   0.117   0.565  10.733  0.4278 -0.3430  0.8466
  792MPD2    C511675   0.191   0.647  10.814  0.3046  0.4587  0.4031
  792MPD2     H11676   4.546   0.739  10.762  0.2348  1.4332  3.6333
  792MPD2    H111677   0.156   0.469  10.701 -0.3477  0.1017 -1.4392
  792MPD2    H211678   0.214   0.832  10.906 -2.9411  1.7471  0.4394
  792MPD2    H311679   0.296   0.625  10.832  0.2104  1.2057  1.8555
  792MPD2     N11680   4.624   0.500  10.642  0.4687 -0.1404 -0.0520
  792MPD2    H511681   4.660   0.413  10.605  2.2638 -0.6073  2.7346
  792MPD2    N111682   4.690   0.925  10.890  0.2015 -0.3757  0.4669
  792MPD2    H711683   0.039   0.988  10.915  1.3770 -1.7742  0.3833
  793MPD2     C11684   3.880   0.693   9.900  0.5308 -0.4144 -0.3806
  793MPD2    C111685   3.994   0.626   9.851 -0.2112 -0.5839  0.2470
  793MPD2    C211686   4.082   0.559   9.935 -0.1795  0.0668  0.0264
  793MPD2    C311687   4.062   0.562  10.073 -0.5436 -0.1633 -0.4787
  793MPD2    C411688   3.941   0.609  10.109 -0.3086  0.2496 -0.3212
  793MPD2    C511689   3.856   0.677  10.028  0.3804 -0.5438 -0.7134
  793MPD2     H11690   4.175   0.519   9.896 -1.2246 -1.3905 -0.9582
  793MPD2    H111691   3.892   0.603  10.206 -3.2190  0.6024 -1.7637
  793MPD2    H211692   3.817   0.755   9.837  2.5501  0.9367 -1.0902
  793MPD2    H311693   3.762   0.713  10.068  1.0385  1.8021 -1.2162
  793MPD2     N11694   4.163   0.509  10.159 -0.3170 -0.0050 -0.5523
  793MPD2    H511695   4.253   0.484  10.121 -1.3943 -1.2152 -2.3204
  793MPD2    N111696   4.035   0.621   9.719 -0.4073  0.5243 -0.4582
  793MPD2    H711697   4.125   0.580   9.697  0.2406  1.6941  0.0211
  794MPD2     C11698   4.148   0.476  16.279  0.5264 -0.6911 -0.2368
  794MPD2    C111699   4.117   0.594  16.349 -0.6823 -0.5590  0.0592
  794MPD2    C211700   4.030   0.678  16.280 -0.0082 -0.1517  0.3023
  794MPD2    C311701   3.987   0.669  16.152  0.2803  0.5539  0.1847
  794MPD2    C411702   4.018   0.555  16.087 -0.7386  0.1495 -0.0354
  794MPD2    C511703   4.097   0.466  16.147 -0.1897  0.1389  0.7934
  794MPD2     H11704   3.981   0.754  16.341  0.4446  1.8263 -1.7978
  794MPD2    H111705   3.997   0.533  15.983 -0.3431  0.4677 -0.1840
  794MPD2    H211706   4.208   0.396  16.322 -1.0561 -1.0254  1.3094
  794MPD2    H311707   4.110   0.368  16.102  0.0881 -0.1087  1.4165
  794MPD2     N11708   3.906   0.762  16.085 -0.0756 -0.8746  0.2454
  794MPD2    H511709   3.877   0.735  15.991  1.4036 -0.1581 -0.4118
  794MPD2    N111710   4.142   0.610  16.483  0.4370 -0.0808  0.7552
  794MPD2    H711711   4.098   0.691  16.526  0.7089  0.3284  0.2665
  795MPD2     C11712   1.667   2.978  13.672  0.8040  0.3788  0.2575
  795MPD2    C111713   1.603   2.872  13.612  0.3721  0.1050  0.3019
  795MPD2    C211714   1.672   2.750  13.589 -0.7860 -0.4769 -0.1173
  795MPD2    C311715   1.804   2.736  13.639 -0.0455  0.2745  0.2786
  795MPD2    C411716   1.862   2.846  13.702 -0.2673 -0.0494 -0.4283
  795MPD2    C511717   1.798   2.963  13.708  0.2494 -0.4602  0.3555
  795MPD2     H11718   1.626   2.671  13.530 -0.1749 -0.8570 -0.0822
  795MPD2    H111719   1.958   2.828  13.749 -0.7430  1.0954  0.9718
  795MPD2    H211720   1.625   3.078  13.675 -3.7056 -1.5059 -0.7534
  795MPD2    H311721   1.836   3.054  13.753 -1.0867  0.0711  0.4153
  795MPD2     N11722   1.877   2.618  13.624 -0.5269 -0.2471  0.1041
  795MPD2    H511723   1.960   2.610  13.683 -0.8846  0.8318  0.7549
  795MPD2    N111724   1.480   2.887  13.539  0.0401 -0.0335  0.7768
  795MPD2    H711725   1.436   2.799  13.515  0.0689  0.1742 -0.0204
  796MPD2     C11726   1.513   4.404  15.496 -0.5527  0.6621  0.5346
  796MPD2    C111727   1.593   4.432  15.606  0.6669  0.1428 -0.2715
  796MPD2    C211728   1.597   4.558  15.651  0.0004 -0.4085  0.3843
  796MPD2    C311729   1.533   4.666  15.592 -0.0354  0.6024  0.1147
  796MPD2    C411730   1.455   4.634  15.487  0.3530  0.0416 -1.1161
  796MPD2    C511731   1.442   4.506  15.438 -0.4282  0.2682 -0.4058
  796MPD2     H11732   1.644   4.588  15.744  0.4121  0.5711 -0.1399
  796MPD2    H111733   1.401   4.703  15.423 -0.5728  1.0041  0.7373
  796MPD2    H211734   1.503   4.308  15.447  2.1596 -0.0679  1.4171
  796MPD2    H311735   1.377   4.489  15.353  0.3850  2.6144 -1.4979
  796MPD2     N11736   1.540   0.075  15.642 -0.5832  0.8720  0.0607
  796MPD2    H511737   1.591   0.096  15.727  2.2751 -0.7549 -1.2292
  796MPD2    N111738   1.646   4.332  15.689 -0.3025 -0.0077  0.7602
  796MPD2    H711739   1.611   4.238  15.676  0.0488 -0.0759  0.3228
  797MPD2     C11740   2.478   3.815  17.354  0.2757 -0.2665  0.1829
  797MPD2    C111741   2.528   3.892  17.251  0.0774  0.2286  0.6397
  797MPD2    C211742   2.429   3.953  17.169  0.5130  0.4010  0.3394
  797MPD2    C311743   2.290   3.929  17.192  0.3380  0.6259 -0.2408
  797MPD2    C411744   2.246   3.851  17.292  0.5130 -0.2777  0.2571
  797MPD2    C511745   2.340   3.788  17.366  0.2129  0.3996 -0.5213
  797MPD2     H11746   2.467   4.026  17.099  0.7667 -0.1749 -0.1227
  797MPD2    H111747   2.143   3.822  17.310  0.5323 -0.7999 -0.4957
  797MPD2    H211748   2.539   3.759  17.424  0.4788  1.9609  1.7738
  797MPD2    H311749   2.307   3.722  17.445  0.9397  1.6453  0.7990
  797MPD2     N11750   2.201   4.012  17.120 -0.1636 -0.0230  0.4466
  797MPD2    H511751   2.105   4.023  17.149 -0.3836 -0.8913  0.0579
  797MPD2    N111752   2.660   3.940  17.238 -0.6719  0.0220  0.0899
  797MPD2    H711753   2.675   4.024  17.183 -2.0932  1.5517  2.0159
  798MPD2     C11754   2.515   4.690  17.203 -0.4759 -0.5353  0.4024
  798MPD2    C111755   2.461   4.569  17.239  0.0591  0.4026  0.9852
  798MPD2    C211756   2.540   4.467  17.292  0.4412 -0.9208 -0.0044
  798MPD2    C311757   2.678   4.489  17.312 -0.6539  0.3906  0.1020
  798MPD2    C411758   2.729   4.607  17.274 -0.0618  0.1262  0.2042
  798MPD2    C511759   2.653   4.709  17.218  0.8887  0.1064  0.4484
  798MPD2     H11760   2.500   4.368  17.311 -0.5309 -0.3352  1.0630
  798MPD2    H111761   2.833   4.631  17.290  0.7891 -2.3006 -1.5761
  798MPD2    H211762   2.453   0.038  17.156 -1.4040 -2.6431 -1.7111
  798MPD2    H311763   2.684   0.082  17.188 -3.9262  1.5325  0.1712
  798MPD2     N11764   2.757   4.377  17.350  0.0415 -0.0387 -0.1368
  798MPD2    H511765   2.708   4.296  17.387 -1.5070  0.5477 -0.9107
  798MPD2    N111766   2.331   4.547  17.185 -0.0659  0.0260 -0.6571
  798MPD2    H711767   2.289   4.619  17.127 -0.1872 -0.7374 -1.5188
  799MPD2     C11768   1.213   1.132  14.423  0.3350 -0.1264 -0.5845
  799MPD2    C111769   1.287   1.034  14.359  0.0011  0.3256  0.6551
  799MPD2    C211770   1.263   1.017  14.220 -0.7708  0.4616 -0.1335
  799MPD2    C311771   1.170   1.091  14.155  0.2920 -0.4197 -0.3829
  799MPD2    C411772   1.093   1.191  14.221 -0.7002 -0.6291  0.0911
  799MPD2    C511773   1.128   1.207  14.353  0.4541 -0.1405 -0.6217
  799MPD2     H11774   1.318   0.936  14.176 -0.9943 -0.5719  1.4847
  799MPD2    H111775   1.016   1.255  14.179 -0.4751 -0.2938  0.1929
  799MPD2    H211776   1.227   1.147  14.529 -0.3831 -0.5687 -0.4319
  799MPD2    H311777   1.077   1.287  14.405 -0.8569 -0.9736 -0.6292
  799MPD2     N11778   1.146   1.085  14.016  0.2213  0.1551 -0.3628
  799MPD2    H511779   1.084   1.155  13.978 -0.9852 -2.0114 -2.3710
  799MPD2    N111780   1.385   0.950  14.434  0.0211 -0.3055 -0.2678
  799MPD2    H711781   1.439   0.887  14.377  0.5555 -0.3681  0.3111
  800MPD2     C11782   1.466   1.999  13.818  0.2004 -0.3567 -0.4622
  800MPD2    C111783   1.566   1.924  13.767  0.0947 -0.0405  0.5582
  800MPD2    C211784   1.547   1.847  13.651 -0.4155  0.5372 -0.2820
  800MPD2    C311785   1.434   1.864  13.577  0.1725 -0.1070 -0.3612
  800MPD2    C411786   1.329   1.948  13.628  0.4659 -0.4135 -0.4400
  800MPD2    C511787   1.346   2.015  13.753  0.1159  0.3266 -0.2008
  800MPD2     H11788   1.622   1.781  13.609 -0.0488 -0.9346  2.6491
  800MPD2    H111789   1.238   1.972  13.576  0.6557  0.2945 -0.4439
  800MPD2    H211790   1.476   2.062  13.905  0.0430  0.0940 -0.7693
  800MPD2    H311791   1.262   2.067  13.798  1.1044  0.8265  1.0545
  800MPD2     N11792   1.418   1.782  13.465 -0.2054  0.3030 -0.6587
  800MPD2    H511793   1.498   1.724  13.442 -0.7982 -0.8447  0.1733
  800MPD2    N111794   1.689   1.928  13.831  0.1589 -0.5391  0.4087
  800MPD2    H711795   1.692   1.980  13.918  0.8622  1.8736 -1.0332
  801MPD2     C11796   2.034   2.562  13.961 -0.1551 -0.5495  0.1369
  801MPD2    C111797   1.923   2.484  13.953 -0.5035 -0.3595  0.2103
  801MPD2    C211798   1.800   2.532  13.995  1.2102  0.0783 -0.3104
  801MPD2    C311799   1.783   2.653  14.055  0.3967 -0.2190 -0.7214
  801MPD2    C411800   1.900   2.728  14.059  0.0816 -0.1704  0.2708
  801MPD2    C511801   2.021   2.682  14.021 -0.0553 -0.5401  0.2944
  801MPD2     H11802   1.721   2.458  13.993  1.0504  0.1978  1.5554
  801MPD2    H111803   1.893   2.825  14.106 -1.1341  0.1728 -0.6264
  801MPD2    H211804   2.132   2.524  13.936 -0.1312  1.0451 -2.2619
  801MPD2    H311805   2.107   2.747  14.035  1.2540 -2.0293 -0.8619
  801MPD2     N11806   1.664   2.699  14.114  0.0659 -0.2314  0.5322
  801MPD2    H511807   1.673   2.782  14.172 -0.9026  0.1819  0.0976
  801MPD2    N111808   1.928   2.342  13.915 -0.4232  0.4986 -0.2656
  801MPD2    H711809   1.840   2.292  13.908 -1.3185  1.8102  1.5126
  802MPD2     C11810   1.043   2.920  17.673  0.0126 -0.5974  0.0049
  802MPD2    C111811   1.020   3.017  17.573 -0.5876 -0.7220  0.1390
  802MPD2    C211812   1.091   3.010  17.452  0.4340 -0.2901  0.3443
  802MPD2    C311813   1.195   2.927  17.429  0.0749  0.1117  0.2868
  802MPD2    C411814   1.215   2.831  17.528 -0.2309 -0.7875 -0.9114
  802MPD2    C511815   1.142   2.829  17.646 -0.3739 -0.3629 -0.2137
  802MPD2     H11816   1.051   3.079  17.379 -0.8872  1.3257  2.5837
  802MPD2    H111817   1.288   2.752  17.521 -1.3369 -1.7859 -1.1261
  802MPD2    H211818   0.976   2.900   0.048 -3.6223  0.6326 -2.6512
  802MPD2    H311819   1.160   2.750   0.011 -1.1106  0.5555  0.9664
  802MPD2     N11820   1.256   2.927  17.305 -0.2462  1.0193  0.2888
  802MPD2    H511821   1.246   3.008  17.246  0.1209  0.4069 -0.6009
  802MPD2    N111822   0.926   3.119  17.580 -0.1795 -0.3203  0.5270
  802MPD2    H711823   0.930   3.190  17.507  0.4064 -0.9463 -0.0480
  803MPD2     C11824   2.278   1.130  11.312 -0.3507 -0.5739 -0.2585
  803MPD2    C111825   2.332   1.187  11.424 -0.0062 -0.0473 -0.4525
  803MPD2    C211826   2.314   1.125  11.548  0.6852 -0.5342 -0.4010
  803MPD2    C311827   2.247   1.010  11.560 -0.5993 -0.1142  0.5165
  803MPD2    C411828   2.179   0.962  11.453 -0.1483  0.2449  0.0166
  803MPD2    C511829   2.197   1.020  11.330 -0.0907  1.0905 -0.0286
  803MPD2     H11830   2.360   1.174  11.633 -2.7689 -0.6499  1.5325
  803MPD2    H111831   2.124   0.868  11.457 -0.7623  0.5280 -1.9977
  803MPD2    H211832   2.296   1.167  11.211 -3.1781 -0.7175 -0.8200
  803MPD2    H311833   2.143   0.968  11.251 -0.7919  2.7302 -0.6393
  803MPD2     N11834   2.222   0.951  11.688  0.0643  0.2522 -0.4579
  803MPD2    H511835   2.156   0.874  11.694 -0.4134  0.9281  3.0921
  803MPD2    N111836   2.422   1.294  11.416  0.3457  0.0855 -0.1621
  803MPD2    H711837   2.450   1.339  11.502 -0.1370 -0.0203  0.0518
  804MPD2     C11838   1.904   2.549  16.226  0.0684  0.6900 -0.4522
  804MPD2    C111839   1.865   2.564  16.359  0.0453  0.6429  0.6584
  804MPD2    C211840   1.924   2.650  16.448 -0.7099  0.1696 -0.5487
  804MPD2    C311841   2.038   2.719  16.409 -0.8950  0.3989 -0.1373
  804MPD2    C411842   2.085   2.695  16.284 -0.3371 -0.6653 -0.4061
  804MPD2    C511843   2.023   2.612  16.193 -0.4589 -0.0371  0.1765
  804MPD2     H11844   1.895   2.655  16.553  0.7089  1.5993 -0.2261
  804MPD2    H111845   2.183   2.731  16.254 -1.0434  2.4220  1.0141
  804MPD2    H211846   1.849   2.489  16.155 -1.5919  0.9689  0.6112
  804MPD2    H311847   2.062   2.598  16.093 -2.7128 -0.6919 -0.6051
  804MPD2     N11848   2.108   2.812  16.491  0.7092  0.3150  0.3657
  804MPD2    H511849   2.053   2.860  16.562  1.7769  0.1603  1.2828
  804MPD2    N111850   1.755   2.486  16.410  0.4033 -0.3858 -0.5272
  804MPD2    H711851   1.734   2.501  16.508  0.4157 -0.3255 -0.5339
  805MPD2     C11852   1.145   1.144  15.397 -0.3733  0.9723  0.1886
  805MPD2    C111853   1.213   1.029  15.357  0.2204  0.2671 -0.0237
  805MPD2    C211854   1.349   1.014  15.386 -0.3039 -0.7671  0.7642
  805MPD2    C311855   1.420   1.114  15.454  0.0310 -0.3808  0.5604
  805MPD2    C411856   1.352   1.231  15.492 -0.1476  0.3898 -0.4726
  805MPD2    C511857   1.219   1.238  15.468  0.2982  0.1926 -0.8757
  805MPD2     H11858   1.399   0.919  15.373 -0.5873 -0.7972 -0.1014
  805MPD2    H111859   1.400   1.310  15.547  0.4060 -1.4981  1.7557
  805MPD2    H211860   1.037   1.153  15.389 -0.5517 -0.3423  1.1750
  805MPD2    H311861   1.167   1.327  15.500 -1.0878 -0.4659 -1.3043
  805MPD2     N11862   1.555   1.090  15.501 -0.1403 -0.0530  0.2190
  805MPD2    H511863   1.586   0.994  15.485  0.6694  0.1208  0.7837
  805MPD2    N111864   1.142   0.923  15.294 -0.6740 -0.3716  0.4085
  805MPD2    H711865   1.202   0.843  15.274  0.1366  1.1115 -3.1695
  806MPD2     C11866   1.770   0.518   0.335  0.0675  0.5829  0.8851
  806MPD2    C111867   1.703   0.603   0.425 -0.3332 -0.1301 -0.0154
  806MPD2    C211868   1.597   0.678   0.372 -0.6568 -0.7646 -0.6413
  806MPD2    C311869   1.571   0.680   0.241 -0.0968 -0.8006 -0.1235
  806MPD2    C411870   1.631   0.598   0.154  0.3839  0.2173 -1.1940
  806MPD2    C511871   1.728   0.516   0.208  0.3106 -0.6404 -0.6242
  806MPD2     H11872   1.537   0.743   0.435  0.4341 -0.2502 -0.1492
  806MPD2    H111873   1.622   0.595   0.047  1.1162  0.6802 -1.2718
  806MPD2    H211874   1.851   0.451   0.361 -1.1257 -1.5926 -0.9528
  806MPD2    H311875   1.762   0.434   0.146  1.7318  0.0690 -0.7869
  806MPD2     N11876   1.480   0.778   0.205 -0.3272  0.2193 -0.3611
  806MPD2    H511877   1.450   0.835   0.284 -1.3070  1.4532 -1.6154
  806MPD2    N111878   1.746   0.613   0.553 -0.1409 -0.2753  0.5028
  806MPD2    H711879   1.829   0.559   0.575  0.3932 -0.1256 -1.1328
  807MPD2     C11880   1.523   0.304   1.296 -0.0088  0.6395  0.5859
  807MPD2    C111881   1.650   0.286   1.253  0.8376 -0.5390  0.1683
  807MPD2    C211882   1.727   0.184   1.299 -0.4117  0.1811  0.5834
  807MPD2    C311883   1.672   0.096   1.388  0.1577  0.3006 -1.1809
  807MPD2    C411884   1.542   0.112   1.435  0.1191  0.8037  0.0970
  807MPD2    C511885   1.468   0.218   1.387 -0.4512 -0.1649 -0.4837
  807MPD2     H11886   1.833   0.183   1.276 -0.7369 -1.2282 -0.8528
  807MPD2    H111887   1.490   0.042   1.499  0.4849  1.3072  0.9526
  807MPD2    H211888   1.458   0.382   1.259 -0.8254 -0.0622  0.5199
  807MPD2    H311889   1.365   0.240   1.412 -0.1488  0.2172  0.4383
  807MPD2     N11890   1.758   4.721   1.424  0.3584  0.4483  0.0650
  807MPD2    H511891   1.856   0.001   1.396  0.3589  2.6035  0.5666
  807MPD2    N111892   1.710   0.372   1.160 -0.0508 -0.0500 -0.1920
  807MPD2    H711893   1.809   0.357   1.145 -0.8721 -4.1852 -1.4966
  808MPD2     C11894   1.707   2.137   9.198  0.5374  0.1277  0.4914
  808MPD2    C111895   1.726   2.000   9.186  0.2148  0.1361  0.8661
  808MPD2    C211896   1.858   1.952   9.170 -0.7469 -0.4384 -0.4607
  808MPD2    C311897   1.963   2.035   9.180  0.0551 -0.2647  0.0232
  808MPD2    C411898   1.941   2.170   9.199 -0.1748 -0.1001 -0.2879
  808MPD2    C511899   1.815   2.223   9.210 -0.2752 -0.4143 -0.1387
  808MPD2     H11900   1.876   1.846   9.176 -0.5840 -0.3699  0.3134
  808MPD2    H111901   2.021   2.242   9.209  0.3858 -1.1807  3.3668
  808MPD2    H211902   1.607   2.180   9.198  0.4405 -0.0917  0.0997
  808MPD2    H311903   1.798   2.329   9.224  0.3440 -0.0088 -2.3685
  808MPD2     N11904   2.096   1.990   9.204 -0.5858  0.6605 -0.0101
  808MPD2    H511905   2.169   2.058   9.224  2.3203 -1.7646 -2.3544
  808MPD2    N111906   1.609   1.920   9.193 -0.7524 -0.2696  0.1871
  808MPD2    H711907   1.521   1.966   9.172 -0.5664 -1.6415 -3.7135
  809MPD2     C11908   2.487   1.087   9.136 -0.0126 -0.2246 -0.1283
  809MPD2    C111909   2.518   1.137   9.258 -0.3489  0.0284 -0.3768
  809MPD2    C211910   2.527   1.274   9.272  0.2732 -0.5844 -0.0210
  809MPD2    C311911   2.480   1.354   9.176  0.1635 -0.3912 -0.8356
  809MPD2    C411912   2.431   1.306   9.055  0.1215  0.2679 -0.5837
  809MPD2    C511913   2.440   1.169   9.035 -0.0482 -0.3444  0.1500
  809MPD2     H11914   2.572   1.313   9.363 -0.9124 -0.5758  0.5668
  809MPD2    H111915   2.388   1.361   8.972  0.5492  2.7117  0.7778
  809MPD2    H211916   2.477   0.982   9.110  0.0309 -0.3314  0.2804
  809MPD2    H311917   2.404   1.126   8.942 -0.9516  0.5645  0.0840
  809MPD2     N11918   2.464   1.495   9.182 -0.1904  0.1709 -0.3519
  809MPD2    H511919   2.412   1.539   9.107  0.7461 -1.3279 -1.8746
  809MPD2    N111920   2.565   1.052   9.366  0.0611 -0.0810  0.1541
  809MPD2    H711921   2.592   1.106   9.448  1.4353 -1.5641  0.6840
  810MPD2     C11922   1.934   1.223   9.664  0.2606  0.7424  0.0898
  810MPD2    C111923   1.841   1.165   9.744 -0.2974  0.1887 -0.7330
  810MPD2    C211924   1.800   1.235   9.862 -0.5354  0.5577  1.0271
  810MPD2    C311925   1.836   1.367   9.884 -1.0038  0.1886  0.3011
  810MPD2    C411926   1.936   1.421   9.800  0.1136  0.3498  0.0656
  810MPD2    C511927   1.983   1.349   9.692  0.3876 -0.1543 -0.0448
  810MPD2     H11928   1.719   1.199   9.925  0.0284 -0.2512  1.2985
  810MPD2    H111929   1.982   1.518   9.812  0.6209 -0.0751  1.5225
  810MPD2    H211930   1.983   1.182   9.577  1.8864 -0.2484  1.4800
  810MPD2    H311931   2.061   1.396   9.635  0.1131 -2.5517 -2.3968
  810MPD2     N11932   1.789   1.456   9.987  0.2748  0.3195  0.0925
  810MPD2    H511933   1.823   1.552   9.992  0.1441  0.3931 -0.5132
  810MPD2    N111934   1.791   1.038   9.701  0.3754  0.0294 -0.8932
  810MPD2    H711935   1.819   0.996   9.613  0.1764  0.1096 -0.9938
  811MPD2     C11936   1.070   0.753   9.267  0.2642  0.1382  0.6470
  811MPD2    C111937   1.160   0.848   9.314  0.2516 -0.6592 -0.1879
  811MPD2    C211938   1.127   0.982   9.288  0.1757  0.1998 -0.6728
  811MPD2    C311939   1.033   1.014   9.196 -0.5595  0.4279  0.4020
  811MPD2    C411940   0.953   0.916   9.145 -0.1016  0.3105  0.6100
  811MPD2    C511941   0.974   0.780   9.175  0.7049  0.0145  0.9266
  811MPD2     H11942   1.189   1.059   9.333 -1.0949  0.1015  1.2385
  811MPD2    H111943   0.863   0.942   9.091 -0.7869 -1.5719  0.8294
  811MPD2    H211944   1.087   0.649   9.293  0.7597  0.3999  1.3608
  811MPD2    H311945   0.915   0.703   9.126 -0.7557  1.4818  0.3576
  811MPD2     N11946   1.011   1.156   9.187 -0.6850 -0.7713 -0.5486
  811MPD2    H511947   1.067   1.217   9.245 -2.7799  0.2132  0.4233
  811MPD2    N111948   1.261   0.810   9.411  0.0911  0.0221  0.0927
  811MPD2    H711949   1.260   0.711   9.431  0.0028  0.0980  0.4605
  812MPD2     C11950   0.794   1.088  11.606 -0.0720  0.2503  0.5433
  812MPD2    C111951   0.717   1.127  11.715  0.2005  0.4840  0.4252
  812MPD2    C211952   0.685   1.036  11.814  0.4810 -0.6285  0.3809
  812MPD2    C311953   0.740   0.910  11.813 -0.1702 -0.0723  0.0673
  812MPD2    C411954   0.821   0.876  11.703  0.0998 -0.3106 -0.5326
  812MPD2    C511955   0.846   0.958  11.600 -0.2370 -0.1810  0.1314
  812MPD2     H11956   0.615   1.066  11.891 -2.1210 -0.4417 -2.0896
  812MPD2    H111957   0.861   0.775  11.701  1.0451  0.1171 -3.8204
  812MPD2    H211958   0.818   1.167  11.536  4.6265 -0.9702  0.7444
  812MPD2    H311959   0.899   0.931  11.509  0.2402  2.9059 -0.5371
  812MPD2     N11960   0.721   0.821  11.925  0.0656 -0.0668 -0.1824
  812MPD2    H511961   0.667   0.863  12.001 -0.7540 -0.2489 -0.6592
  812MPD2    N111962   0.666   1.259  11.711  0.4879  0.3862  0.1505
  812MPD2    H711963   0.695   1.324  11.638 -0.3292 -0.9857 -1.3906
  813MPD2     C11964   4.104   2.733  12.640 -0.3061 -0.5131  0.1206
  813MPD2    C111965   4.076   2.863  12.604 -0.3532  0.1133  0.0904
  813MPD2    C211966   3.974   2.938  12.676 -0.1612  0.0253  0.4523
  813MPD2    C311967   3.917   2.876  12.782  0.6982  0.5273  0.3496
  813MPD2    C411968   3.935   2.743  12.810  0.5933  0.2139 -0.6647
  813MPD2    C511969   4.032   2.670  12.744  0.1593  0.6504  0.3202
  813MPD2     H11970   3.959   3.044  12.658 -2.1330 -0.5694 -1.4812
  813MPD2    H111971   3.874   2.688  12.881  1.2374  0.7475  0.2945
  813MPD2    H211972   4.191   2.675  12.610  0.7363 -0.5211  3.1186
  813MPD2    H311973   4.061   2.573  12.783  0.9269 -0.4164 -2.9380
  813MPD2     N11974   3.824   2.955  12.853  0.6948  0.9316 -0.1571
  813MPD2    H511975   3.818   3.051  12.820  1.7564  1.1789  0.3621
  813MPD2    N111976   4.155   2.921  12.507 -0.5938 -0.3387 -0.1146
  813MPD2    H711977   4.235   2.872  12.469  0.9622  2.6401 -0.7324
  814MPD2     C11978   0.442   4.314  11.861  0.2150 -0.5254 -0.4341
  814MPD2    C111979   0.386   4.357  11.743 -0.9742  0.2120  0.9190
  814MPD2    C211980   0.396   4.490  11.700 -0.2740 -0.7858  0.5057
  814MPD2    C311981   0.448   4.587  11.788  0.5231 -0.2048 -0.0144
  814MPD2    C411982   0.490   4.543  11.911  0.2216 -0.0431 -0.3631
  814MPD2    C511983   0.489   4.409  11.947  0.3312  0.4958 -0.3936
  814MPD2     H11984   0.343   4.528  11.613  1.2967 -0.3101 -0.2440
  814MPD2    H111985   0.540   4.604  11.985 -1.3372  1.6996 -0.7275
  814MPD2    H211986   0.438   4.211  11.894 -0.8369 -0.3771 -0.0963
  814MPD2    H311987   0.518   4.385  12.049 -0.2173  1.1876 -0.0709
  814MPD2     N11988   0.457   4.724  11.759 -0.6793 -0.1879  0.4778
  814MPD2    H511989   0.489   0.052  11.838  2.2976 -0.6562 -0.4057
  814MPD2    N111990   0.346   4.263  11.647  1.1236  0.3443 -0.2021
  814MPD2    H711991   0.316   4.300  11.558 -2.1448  2.9487  1.9689
  815MPD2     C11992   0.218   2.669  11.482  0.0605 -0.1809  0.6618
  815MPD2    C111993   0.195   2.532  11.465  0.2010  0.7639  0.2237
  815MPD2    C211994   0.103   2.472  11.548 -0.2688 -0.1757  0.3214
  815MPD2    C311995   0.044   2.541  11.653 -0.7860 -0.3603  0.0760
  815MPD2    C411996   0.067   2.680  11.668 -0.2139 -0.2714 -0.6676
  815MPD2    C511997   0.154   2.742  11.584 -0.0661 -0.2088 -0.1553
  815MPD2     H11998   0.094   2.365  11.532  2.1792 -0.4373  0.6793
  815MPD2    H111999   0.026   2.737  11.751  0.0810  1.1502 -1.4991
  815MPD2    H212000   0.285   2.713  11.409  0.4258 -1.6460  0.1002
  815MPD2    H312001   0.180   2.847  11.588 -0.0623 -0.2011 -0.4382
  815MPD2     N12002   4.682   2.465  11.736 -0.1522  0.6311  0.5398
  815MPD2    H512003   4.678   2.364  11.732  0.1669  0.5820  1.5504
  815MPD2    N112004   0.262   2.470  11.355 -0.6229  0.3453  0.6253
  815MPD2    H712005   0.320   2.537  11.305  0.7737 -0.9510  0.5202
  816MPD2     C12006   4.586   2.370  17.043 -0.0421  0.5405 -0.0006
  816MPD2    C112007   4.685   2.458  17.016  0.3840 -0.4796 -0.2453
  816MPD2    C212008   0.067   2.412  16.945 -0.4623 -0.0278 -0.2434
  816MPD2    C312009   0.072   2.277  16.908  0.3899 -0.2082 -0.1179
  816MPD2    C412010   4.693   2.193  16.936 -0.0004 -0.9487 -0.3496
  816MPD2    C512011   4.580   2.245  16.993 -0.6112  0.3436 -0.4520
  816MPD2     H12012   0.146   2.480  16.915 -1.7950  2.2425  1.4205
  816MPD2    H112013   4.698   2.087  16.913 -0.6316 -0.9714 -0.3696
  816MPD2    H212014   4.497   2.401  17.098 -0.6808 -1.1269 -0.1151
  816MPD2    H312015   4.493   2.182  17.003  1.7357 -2.5023  1.8556
  816MPD2     N12016   0.198   2.235  16.850  0.4215 -0.6536  0.7777
  816MPD2    H512017   0.274   2.301  16.845 -0.5046  0.7157  4.6305
  816MPD2    N112018   4.667   2.589  17.060  0.6618 -0.0601 -0.2101
  816MPD2    H712019   4.574   2.617  17.088  2.3568  2.3497  3.0205
  817MPD2     C12020   0.649   3.434   9.384  0.2870  0.2386  0.6286
  817MPD2    C112021   0.544   3.417   9.294 -0.3449 -0.4603  0.1541
  817MPD2    C212022   0.476   3.534   9.252 -0.1666  0.1292  0.1226
  817MPD2    C312023   0.542   3.657   9.276 -0.3418 -0.1556 -0.4798
  817MPD2    C412024   0.663   3.668   9.350  0.1243 -0.0681  0.3202
  817MPD2    C512025   0.713   3.552   9.402 -0.1093  0.3823 -0.1740
  817MPD2     H12026   0.389   3.521   9.189 -2.0894 -0.8838  2.9641
  817MPD2    H112027   0.714   3.759   9.378 -0.4194 -0.1352  1.5219
  817MPD2    H212028   0.691   3.345   9.430 -1.8090 -1.2911 -0.3979
  817MPD2    H312029   0.794   3.556   9.474 -1.8564  1.4888  1.7314
  817MPD2     N12030   0.490   3.777   9.220 -0.5577 -0.5458  0.0555
  817MPD2    H512031   0.394   3.765   9.189 -0.1413  0.7306 -1.7300
  817MPD2    N112032   0.495   3.291   9.257  0.7394  0.0417  0.2748
  817MPD2    H712033   0.422   3.284   9.186  0.6452 -0.4164  0.4143
  818MPD2     C12034   3.605   3.319  10.057  0.3588 -0.6852  0.2822
  818MPD2    C112035   3.504   3.227  10.097 -0.6467  0.2851 -0.3604
  818MPD2    C212036   3.504   3.100  10.050  0.6476  0.2367  0.5496
  818MPD2    C312037   3.618   3.054   9.984 -0.0771  0.2963 -0.1312
  818MPD2    C412038   3.720   3.141   9.960  0.4968 -0.1064 -0.0091
  818MPD2    C512039   3.715   3.273   9.982  0.2638  0.6087  0.3021
  818MPD2     H12040   3.418   3.037  10.068  1.5182 -1.1757 -0.1666
  818MPD2    H112041   3.813   3.109   9.915 -0.3731 -0.4841 -1.5122
  818MPD2    H212042   3.598   3.421  10.095  0.1103 -1.1342  1.4383
  818MPD2    H312043   3.800   3.337   9.960 -1.3494  2.5870 -0.2253
  818MPD2     N12044   3.639   2.925   9.943  0.0265  0.2461 -0.0858
  818MPD2    H512045   3.732   2.904   9.909 -0.2132  2.1281 -1.9026
  818MPD2    N112046   3.382   3.257  10.168 -0.4412  0.5119 -0.2981
  818MPD2    H712047   3.325   3.177  10.196 -1.0392  1.3203  0.8317
  819MPD2     C12048   1.915   0.663  15.206 -0.6540 -0.0957 -0.0644
  819MPD2    C112049   1.984   0.551  15.189 -1.2351  0.4074  0.2925
  819MPD2    C212050   2.089   0.532  15.274  0.7662  0.0818  0.5419
  819MPD2    C312051   2.123   0.622  15.373 -0.2852 -0.5111  0.4684
  819MPD2    C412052   2.051   0.739  15.385  0.2876 -0.5611 -0.1970
  819MPD2    C512053   1.950   0.763  15.297 -0.7400 -0.4251 -0.1668
  819MPD2     H12054   2.154   0.445  15.275  0.2301 -0.2900  2.6439
  819MPD2    H112055   2.079   0.818  15.453  1.6545 -0.8479 -0.4196
  819MPD2    H212056   1.826   0.691  15.150  0.8359  2.2289 -1.2845
  819MPD2    H312057   1.886   0.849  15.284 -1.1984 -0.5026  1.6141
  819MPD2     N12058   2.227   0.584  15.461 -0.0942  0.5130 -0.3544
  819MPD2    H512059   2.283   0.506  15.428  0.4956  0.4264  0.8489
  819MPD2    N112060   1.945   0.443  15.103  0.1099 -0.0695 -0.1562
  819MPD2    H712061   1.850   0.436  15.068  0.1067 -1.5210  0.1605
  820MPD2     C12062   1.102   0.149  14.945  0.3574 -0.0398 -0.1769
  820MPD2    C112063   1.173   0.265  14.959  0.0755  0.4345  0.5163
  820MPD2    C212064   1.310   0.269  14.922 -0.2190  0.1852 -0.0326
  820MPD2    C312065   1.370   0.159  14.861 -0.4990  0.1030 -1.1354
  820MPD2    C412066   1.292   0.052  14.839  0.2345  0.6417 -0.1713
  820MPD2    C512067   1.165   0.040  14.890 -0.0917  1.2895  0.9764
  820MPD2     H12068   1.369   0.359  14.939 -0.7818  0.7052 -0.8225
  820MPD2    H112069   1.331   4.687  14.796 -2.2211  0.8407 -2.7624
  820MPD2    H212070   0.998   0.138  14.971  0.0638  0.8622 -0.9860
  820MPD2    H312071   1.107   4.675  14.886  0.2095  1.0541  1.8722
  820MPD2     N12072   1.509   0.140  14.830 -0.2319  0.0535  0.8354
  820MPD2    H512073   1.536   0.048  14.797  1.2607  2.0283 -3.4038
  820MPD2    N112074   1.108   0.369  15.027  0.3698  0.3929 -0.3966
  820MPD2    H712075   1.009   0.357  15.046  0.1407  0.3726 -1.6259
  821MPD2     C12076   1.549   1.979  12.717 -1.1562 -0.4053  0.3929
  821MPD2    C112077   1.620   1.934  12.826  0.6212 -0.4970  0.6406
  821MPD2    C212078   1.756   1.956  12.832 -0.8824 -0.0665  0.8550
  821MPD2    C312079   1.819   2.011  12.726 -0.1126  0.3582 -0.0396
  821MPD2    C412080   1.740   2.048  12.612  0.3178  0.0838 -0.9266
  821MPD2    C512081   1.605   2.036  12.612  0.5924  0.3721 -0.5773
  821MPD2     H12082   1.817   1.925  12.916 -1.5354 -1.1380  0.9410
  821MPD2    H112083   1.783   2.081  12.518  0.2272  2.0167 -0.2905
  821MPD2    H212084   1.441   1.965  12.717 -1.5816  2.9427 -0.9368
  821MPD2    H312085   1.543   2.068  12.528 -1.1254  0.6614  0.7939
  821MPD2     N12086   1.955   2.047  12.722 -0.0200  0.0014 -0.0407
  821MPD2    H512087   1.993   2.068  12.631  2.4505 -0.5434  0.8676
  821MPD2    N112088   1.564   1.873  12.941  0.4638 -0.0332 -0.2744
  821MPD2    H712089   1.628   1.868  13.020  0.5014 -0.6731 -0.3469
  822MPD2     C12090   2.880   1.775  15.621 -0.2337 -0.2741  0.2742
  822MPD2    C112091   2.795   1.753  15.728 -0.6298 -0.5407 -0.3721
  822MPD2    C212092   2.710   1.850  15.768  0.0278 -0.3372 -0.2903
  822MPD2    C312093   2.703   1.973  15.709 -0.3673 -0.0172  0.2138
  822MPD2    C412094   2.790   1.999  15.609  0.4584 -0.1126 -0.2976
  822MPD2    C512095   2.874   1.901  15.562  0.5583  0.0399  0.0117
  822MPD2     H12096   2.650   1.837  15.858  0.4690  0.7304  0.1696
  822MPD2    H112097   2.799   2.096  15.562  1.0666  0.4634  0.9932
  822MPD2    H212098   2.952   1.700  15.590  2.3066  1.1215  2.8385
  822MPD2    H312099   2.944   1.921  15.482 -0.2328  0.0716 -0.6695
  822MPD2     N12100   2.616   2.074  15.771 -0.3270 -0.7176 -0.1002
  822MPD2    H512101   2.552   2.034  15.839  1.9078 -1.5602  1.5188
  822MPD2    N112102   2.780   1.632  15.801 -0.5161  0.3482 -0.0978
  822MPD2    H712103   2.723   1.633  15.885 -0.8531  0.9067 -0.3343
  823MPD2     C12104   2.080   2.229  16.352 -0.7308 -0.4006  0.0542
  823MPD2    C112105   2.138   2.150  16.259  0.2000 -0.1828  0.2716
  823MPD2    C212106   2.145   2.017  16.287 -0.0457  0.1391  0.1474
  823MPD2    C312107   2.116   1.963  16.411  0.4060  0.3130  0.5197
  823MPD2    C412108   2.050   2.045  16.503  0.5718 -0.1879  0.9095
  823MPD2    C512109   2.024   2.174  16.467 -0.6483 -0.3475 -0.4849
  823MPD2     H12110   2.171   1.944  16.212 -0.8206  0.9348 -0.9059
  823MPD2    H112111   2.015   1.998  16.594 -0.0652  1.1897  1.3637
  823MPD2    H212112   2.071   2.335  16.335  1.5597 -0.3590 -0.8709
  823MPD2    H312113   1.977   2.246  16.533  1.2017  0.4811 -0.0733
  823MPD2     N12114   2.130   1.834  16.459 -0.6053 -0.0002 -0.0715
  823MPD2    H512115   2.099   1.808  16.552 -2.4512  0.6896 -0.5010
  823MPD2    N112116   2.186   2.216  16.141  0.7173 -0.2421  0.3905
  823MPD2    H712117   2.181   2.317  16.148 -0.7543 -0.2951 -0.0771
  824MPD2     C12118   3.271   0.956  15.981  0.5776  0.0001  0.0971
  824MPD2    C112119   3.225   1.005  15.863 -0.6205  0.5019  0.1714
  824MPD2    C212120   3.272   0.956  15.742  0.1361 -0.7709  0.1556
  824MPD2    C312121   3.380   0.861  15.742  0.1462  0.5503  0.6424
  824MPD2    C412122   3.445   0.831  15.864 -0.1739 -0.1757  0.2559
  824MPD2    C512123   3.384   0.873  15.977 -0.0804 -0.1938 -0.5370
  824MPD2     H12124   3.226   0.989  15.650  2.0597  3.7474  0.7745
  824MPD2    H112125   3.522   0.755  15.877  0.8358  0.3219 -2.8709
  824MPD2    H212126   3.248   0.987  16.083 -0.0379  1.5110 -0.5150
  824MPD2    H312127   3.419   0.853  16.078 -2.5997  1.8507  0.7512
  824MPD2     N12128   3.432   0.814  15.618 -0.2079  0.8040  0.1614
  824MPD2    H512129   3.391   0.846  15.531  2.3485  2.3661 -0.4809
  824MPD2    N112130   3.111   1.092  15.862 -0.4082 -0.3541 -0.3404
  824MPD2    H712131   3.086   1.146  15.780 -0.0863 -1.7832 -1.3692
  825MPD2     C12132   3.923   0.817  14.908  0.2408 -0.1002  0.1711
  825MPD2    C112133   3.835   0.888  14.987 -0.3112  0.1560  0.4165
  825MPD2    C212134   3.811   1.024  14.964 -0.0129 -0.6958 -0.3085
  825MPD2    C312135   3.867   1.082  14.848  0.6979  0.1913 -0.0235
  825MPD2    C412136   3.945   1.005  14.763  0.6260  1.1115  0.5479
  825MPD2    C512137   3.972   0.875  14.796  0.3324 -0.1393  0.0438
  825MPD2     H12138   3.744   1.078  15.030  1.4610 -0.0755  0.6831
  825MPD2    H112139   3.985   1.038  14.668 -1.6630 -1.8142 -1.4257
  825MPD2    H212140   3.953   0.716  14.934  0.5797  0.3748  1.6055
  825MPD2    H312141   4.024   0.807  14.729  1.3489  1.3075 -0.6329
  825MPD2     N12142   3.840   1.213  14.810  0.2560 -0.0503 -0.2292
  825MPD2    H512143   3.881   1.236  14.721 -0.2516  0.6701 -0.2811
  825MPD2    N112144   3.772   0.818  15.098  0.0163 -0.0898  0.3281
  825MPD2    H712145   3.775   0.717  15.089  0.1171  0.0122 -0.8230
  826MPD2     C12146   3.423   0.737  13.284  0.5139 -1.4661  0.2642
  826MPD2    C112147   3.429   0.819  13.175 -0.3818 -0.0975 -0.1248
  826MPD2    C212148   3.394   0.952  13.185  0.0074 -0.1587  0.0467
  826MPD2    C312149   3.340   1.001  13.304 -0.3883 -0.2278  0.2729
  826MPD2    C412150   3.332   0.920  13.415  0.1409 -0.1159 -0.3831
  826MPD2    C512151   3.371   0.792  13.401  0.4483 -0.6949 -0.1954
  826MPD2     H12152   3.385   1.017  13.098  1.4076  0.8424  0.6545
  826MPD2    H112153   3.290   0.960  13.507 -0.0693 -0.2367 -0.4271
  826MPD2    H212154   3.456   0.634  13.296  1.1207 -1.1789  1.0729
  826MPD2    H312155   3.361   0.734  13.492  3.4463  0.3553  0.8203
  826MPD2     N12156   3.290   1.132  13.314  0.3123  0.3605  0.5968
  826MPD2    H512157   3.242   1.160  13.399  0.1746 -1.7584  1.2145
  826MPD2    N112158   3.489   0.762  13.057 -1.1767  0.3831  0.2930
  826MPD2    H712159   3.516   0.664  13.060  0.7567  0.9250  0.7503
  827MPD2     C12160   4.242   1.942   9.523  0.1777 -0.2277 -0.0602
  827MPD2    C112161   4.163   1.896   9.627 -0.0806  0.0290  0.8361
  827MPD2    C212162   4.028   1.922   9.625  0.2599  0.1054 -0.2836
  827MPD2    C312163   3.977   2.008   9.528 -0.2546 -0.1609  0.0746
  827MPD2    C412164   4.057   2.050   9.428  0.5085 -1.0066  0.0783
  827MPD2    C512165   4.188   2.017   9.420 -0.4331  0.3775 -0.2494
  827MPD2     H12166   3.966   1.885   9.706 -0.3891 -0.2490 -0.9431
  827MPD2    H112167   4.032   2.106   9.339 -0.0214 -0.8410  0.3298
  827MPD2    H212168   4.349   1.930   9.533  0.1325  0.3637  1.1518
  827MPD2    H312169   4.243   2.047   9.332 -1.4592  1.0188 -0.6659
  827MPD2     N12170   3.838   2.039   9.534  0.0684  0.6975 -0.2931
  827MPD2    H512171   3.771   1.980   9.583 -0.3715  0.5908 -1.0155
  827MPD2    N112172   4.228   1.833   9.730 -0.4092  0.0851  0.7196
  827MPD2    H712173   4.329   1.838   9.739 -0.2020 -1.0387 -1.0481
  828MPD2     C12174   2.312   2.195  11.940 -0.1606 -0.5731 -0.8466
  828MPD2    C112175   2.293   2.214  11.804  0.1310  0.5227 -0.7033
  828MPD2    C212176   2.378   2.158  11.711  0.8641  0.1091 -0.9226
  828MPD2    C312177   2.490   2.087  11.759  0.3057 -0.3901  0.3244
  828MPD2    C412178   2.507   2.072  11.896  0.2396 -0.1728  0.3367
  828MPD2    C512179   2.417   2.125  11.983  1.1030 -0.4600 -0.0334
  828MPD2     H12180   2.353   2.159  11.606  0.3147 -2.7959 -0.8344
  828MPD2    H112181   2.583   2.003  11.931  1.7229  0.9321 -0.6970
  828MPD2    H212182   2.256   2.237  12.022  0.2649 -2.2014  0.2854
  828MPD2    H312183   2.429   2.109  12.090  0.7772  0.4856  0.1408
  828MPD2     N12184   2.579   2.012  11.674 -0.1775 -0.0931  0.5524
  828MPD2    H512185   2.639   1.946  11.722 -0.5951  0.6102  2.0235
  828MPD2    N112186   2.178   2.289  11.758  0.1986  0.1298 -0.3847
  828MPD2    H712187   2.185   2.306  11.658 -0.4072  1.7859 -0.1478
  829MPD2     C12188   2.167   2.712  11.051 -0.7937  0.3544 -0.4178
  829MPD2    C112189   2.032   2.728  11.075  0.4588  0.5676  0.5892
  829MPD2    C212190   1.986   2.688  11.202  0.3421  0.3902  0.0553
  829MPD2    C312191   2.062   2.625  11.291  0.2019  0.2740  0.3133
  829MPD2    C412192   2.200   2.617  11.271  0.1371 -0.0168  0.7533
  829MPD2    C512193   2.250   2.654  11.146  0.9030  0.9367 -0.0319
  829MPD2     H12194   1.880   2.696  11.222  0.2639  1.2431 -0.6660
  829MPD2    H112195   2.272   2.566  11.335 -0.4005 -0.0547  1.3238
  829MPD2    H212196   2.214   2.743  10.958 -0.4809  0.7937 -0.1175
  829MPD2    H312197   2.358   2.654  11.142  0.9233 -2.3437  0.4996
  829MPD2     N12198   2.021   2.577  11.420 -0.0020 -0.0516 -0.1084
  829MPD2    H512199   2.094   2.533  11.476  0.9743 -0.6547 -1.8808
  829MPD2    N112200   1.947   2.795  10.978  0.3842  0.0284 -0.1486
  829MPD2    H712201   2.003   2.829  10.901  1.8435 -1.0631  0.4481
  830MPD2     C12202   3.068   0.522  15.559 -0.5802  0.3610  0.1836
  830MPD2    C112203   2.957   0.544  15.483 -0.5673  0.3403 -0.6955
  830MPD2    C212204   2.964   0.543  15.340  0.2412  0.7708  0.4165
  830MPD2    C312205   3.092   0.519  15.286  0.5090  0.3040  0.2340
  830MPD2    C412206   3.207   0.502  15.357 -0.6294  0.0080 -0.1301
  830MPD2    C512207   3.195   0.516  15.487 -0.9456  0.5299  0.3386
  830MPD2     H12208   2.879   0.553  15.274 -0.1453  1.8958  1.0830
  830MPD2    H112209   3.306   0.493  15.313 -0.7521 -0.9101 -0.2233
  830MPD2    H212210   3.068   0.517  15.668 -0.1180  0.5550  0.1958
  830MPD2    H312211   3.293   0.506  15.533 -0.7183  0.9419 -0.0660
  830MPD2     N12212   3.111   0.499  15.151  0.1321 -0.3126  0.1976
  830MPD2    H512213   3.208   0.518  15.126 -0.4472  1.0813 -0.9677
  830MPD2    N112214   2.836   0.567  15.551  0.8670 -0.2520 -0.0872
  830MPD2    H712215   2.844   0.556  15.651 -0.1005 -2.4380 -0.2439
  831MPD2     C12216   2.661   2.218  16.116 -1.0943 -0.2607  0.2387
  831MPD2    C112217   2.743   2.109  16.082  0.1113  0.0734 -0.7136
  831MPD2    C212218   2.686   1.979  16.101  0.6209 -0.5193  0.1693
  831MPD2    C312219   2.561   1.958  16.152  0.5641 -0.4485 -0.3831
  831MPD2    C412220   2.500   2.066  16.211  0.0719 -0.1533 -0.2095
  831MPD2    C512221   2.540   2.196  16.189  0.7464  0.1330  0.1088
  831MPD2     H12222   2.724   1.890  16.052 -3.7612 -3.3262  1.7935
  831MPD2    H112223   2.406   2.057  16.264  0.9432 -3.0987  0.8589
  831MPD2    H212224   2.704   2.316  16.104 -0.2102 -0.6374  0.3839
  831MPD2    H312225   2.478   2.278  16.225 -0.1756 -1.1029  1.3351
  831MPD2     N12226   2.481   1.842  16.140  0.3907 -0.7278  0.3899
  831MPD2    H512227   2.384   1.842  16.172 -0.5721  0.8460 -2.4981
  831MPD2    N112228   2.853   2.137  15.998 -0.2816 -0.2010 -0.3799
  831MPD2    H712229   2.873   2.229  15.962 -1.5098 -0.7508 -2.5193
  832MPD2     C12230   1.035   3.096  16.645  0.1696  0.7457  0.5678
  832MPD2    C112231   1.041   3.232  16.627  0.0612  0.3065 -0.4603
  832MPD2    C212232   0.934   3.297  16.572 -0.0122  0.2793 -0.3264
  832MPD2    C312233   0.817   3.224  16.542  0.0428  0.1280 -0.4604
  832MPD2    C412234   0.823   3.082  16.557 -0.5628 -0.5974 -0.2320
  832MPD2    C512235   0.932   3.016  16.604  0.3211  0.2691  0.0893
  832MPD2     H12236   0.933   3.405  16.572 -0.6864  0.2719  0.9286
  832MPD2    H112237   0.734   3.030  16.524 -0.6733  0.8913 -2.2946
  832MPD2    H212238   1.120   3.040  16.682  0.3067  0.7637  0.2786
  832MPD2    H312239   0.930   2.908  16.605 -1.0353  0.2953 -0.2822
  832MPD2     N12240   0.700   3.290  16.498  0.6749 -0.5502 -0.4842
  832MPD2    H512241   0.625   3.223  16.485  1.0046 -0.8894 -0.6266
  832MPD2    N112242   1.155   3.307  16.667  0.2326 -0.2607  0.1125
  832MPD2    H712243   1.219   3.266  16.734 -1.4683 -1.5196  0.9547
  833MPD2     C12244   3.257   4.363  12.086 -0.7131  0.0865  0.1661
  833MPD2    C112245   3.205   4.433  11.977 -0.5071 -0.1002  0.4394
  833MPD2    C212246   3.152   4.356  11.874 -0.5829  0.6086 -0.0619
  833MPD2    C312247   3.160   4.220  11.872  0.8282  0.0900  0.6104
  833MPD2    C412248   3.218   4.156  11.979  0.8757  0.1650 -0.7823
  833MPD2    C512249   3.270   4.226  12.075  0.3746 -0.0176 -0.4954
  833MPD2     H12250   3.100   4.410  11.796  1.5365  0.1846 -1.7683
  833MPD2    H112251   3.222   4.048  11.991  1.2590  0.0836 -1.6178
  833MPD2    H212252   3.295   4.420  12.170  0.1929 -1.5749  0.8719
  833MPD2    H312253   3.320   4.174  12.156 -0.1028  0.3712  0.0563
  833MPD2     N12254   3.124   4.152  11.749  0.0156 -0.0514 -0.3166
  833MPD2    H512255   3.156   4.056  11.739  0.1087 -0.1576  0.9231
  833MPD2    N112256   3.200   4.579  11.970 -0.0931  0.2702  0.7965
  833MPD2    H712257   3.255   4.620  12.045  0.4177 -1.4017  1.3313
  834MPD2     C12258   2.345   3.554  11.514 -0.0754  0.3566  0.1921
  834MPD2    C112259   2.367   3.619  11.395 -1.0355  0.3300  0.4366
  834MPD2    C212260   2.462   3.722  11.388 -0.2364 -0.9035  0.0165
  834MPD2    C312261   2.534   3.757  11.501 -0.4787  0.3031  0.0576
  834MPD2    C412262   2.511   3.695  11.617  0.0608  0.7069 -0.2011
  834MPD2    C512263   2.413   3.595  11.625  0.4818  1.3204  0.3053
  834MPD2     H12264   2.473   3.786  11.302  2.5560 -1.0123  0.3046
  834MPD2    H112265   2.569   3.708  11.708 -1.5920  1.0090  0.8142
  834MPD2    H212266   2.271   3.474  11.520  0.3526  0.0608  1.3952
  834MPD2    H312267   2.404   3.541  11.719  2.3858  0.1273 -0.1884
  834MPD2     N12268   2.628   3.856  11.478  0.3325  0.0343  0.3944
  834MPD2    H512269   2.635   3.894  11.384 -0.5674 -1.6568 -0.3466
  834MPD2    N112270   2.287   3.571  11.286  0.3828  0.5565 -0.2296
  834MPD2    H712271   2.206   3.513  11.307  1.8412 -1.6252 -0.6082
  835MPD2     C12272   3.290   2.035  10.476  0.1103  0.5419  0.5665
  835MPD2    C112273   3.199   2.070  10.578  0.1829 -0.4676 -0.5159
  835MPD2    C212274   3.239   2.076  10.708  0.1321 -0.1170 -0.3807
  835MPD2    C312275   3.367   2.029  10.738 -0.5414 -0.0026  0.2611
  835MPD2    C412276   3.448   1.991  10.639 -0.1877 -0.1742 -0.1289
  835MPD2    C512277   3.415   1.999  10.512 -0.3041 -0.3077 -0.8772
  835MPD2     H12278   3.166   2.103  10.784 -0.0273 -0.3598 -0.4467
  835MPD2    H112279   3.542   1.945  10.669 -0.4684 -0.4024  0.3974
  835MPD2    H212280   3.264   2.034  10.371 -0.1538  1.4793  0.6175
  835MPD2    H312281   3.484   1.979  10.430  1.2604 -0.5133  0.5031
  835MPD2     N12282   3.405   2.025  10.877 -0.0292  0.2151  0.0681
  835MPD2    H512283   3.497   1.990  10.901 -0.4272 -0.9118 -0.0730
  835MPD2    N112284   3.069   2.117  10.551  0.5714 -0.1229  0.1485
  835MPD2    H712285   3.002   2.136  10.624 -0.1098 -2.4942  0.1363
  836MPD2     C12286   2.926   2.238  11.162 -0.1084  0.1402 -0.3940
  836MPD2    C112287   3.002   2.236  11.283 -0.1805  0.7279  1.1182
  836MPD2    C212288   2.923   2.264  11.394  0.7095  0.1304 -0.2513
  836MPD2    C312289   2.792   2.312  11.385 -0.2107  0.2847  0.2061
  836MPD2    C412290   2.723   2.309  11.266 -0.1020 -0.5959  0.0560
  836MPD2    C512291   2.792   2.262  11.154 -0.9373  0.1990  0.1147
  836MPD2     H12292   2.965   2.250  11.493  0.2120 -0.1435 -0.0795
  836MPD2    H112293   2.623   2.350  11.252  1.5154  3.0403 -1.0196
  836MPD2    H212294   2.978   2.187  11.081 -2.5410  1.2757 -2.6490
  836MPD2    H312295   2.745   2.265  11.057  3.0908 -0.7598 -1.8429
  836MPD2     N12296   2.712   2.356  11.491 -0.6734  0.5357  0.0012
  836MPD2    H512297   2.618   2.381  11.463 -0.6270 -2.0912 -2.5286
  836MPD2    N112298   3.145   2.216  11.272  0.4348  1.0162  0.1321
  836MPD2    H712299   3.178   2.205  11.176  3.1939  0.5207  1.1322
  837MPD2     C12300   0.896   1.712   9.715  0.4156  0.0942 -0.6213
  837MPD2    C112301   0.900   1.756   9.586  1.0283  0.3684  0.0288
  837MPD2    C212302   0.900   1.890   9.557 -0.5806  0.0314 -0.9876
  837MPD2    C312303   0.879   1.977   9.660 -0.5072 -0.0108 -0.7819
  837MPD2    C412304   0.858   1.938   9.788 -0.1185 -0.2879 -0.1610
  837MPD2    C512305   0.874   1.803   9.812  0.0307  0.2220  0.2821
  837MPD2     H12306   0.927   1.918   9.456  1.8899 -1.3730 -0.6977
  837MPD2    H112307   0.829   2.003   9.869 -1.6021  0.1494 -1.0376
  837MPD2    H212308   0.901   1.606   9.737  1.7956 -0.1559 -2.1065
  837MPD2    H312309   0.851   1.769   9.912 -0.6228 -0.1094  0.0223
  837MPD2     N12310   0.874   2.114   9.622  0.0278  0.2716 -0.1423
  837MPD2    H512311   0.894   2.127   9.523  0.1758 -1.8104 -0.3933
  837MPD2    N112312   0.909   1.670   9.474  0.2612 -0.0079 -0.2920
  837MPD2    H712313   0.927   1.726   9.391 -1.3524 -0.3481 -0.8846
  838MPD2     C12314   4.416   4.281  10.662 -0.0150 -0.1393  0.5320
  838MPD2    C112315   4.405   4.382  10.754  0.2627  0.2752 -0.2491
  838MPD2    C212316   4.279   4.407  10.807  0.0056 -0.1973  0.0477
  838MPD2    C312317   4.169   4.337  10.762  0.1593  1.1994  0.0564
  838MPD2    C412318   4.174   4.248  10.656  0.4150 -0.2139 -0.6338
  838MPD2    C512319   4.300   4.216  10.616  0.3942 -0.9982  0.2616
  838MPD2     H12320   4.270   4.492  10.874  0.0565  1.2852 -1.8342
  838MPD2    H112321   4.094   4.196  10.606  0.0780 -0.6391  0.3478
  838MPD2    H212322   4.508   4.241  10.619 -0.1645  2.6594 -2.4251
  838MPD2    H312323   4.303   4.143  10.536  1.3532  0.8887 -1.4304
  838MPD2     N12324   4.055   4.360  10.841 -0.0732  0.5498  0.5990
  838MPD2    H512325   4.068   4.423  10.920  0.1693  3.6033 -1.8843
  838MPD2    N112326   4.512   4.436  10.822 -0.2891 -0.0302  0.4029
  838MPD2    H712327   4.492   4.489  10.906 -0.2521 -0.6831  0.8223
  839MPD2     C12328   4.275   4.423  11.575 -0.4118 -0.0678  0.1714
  839MPD2    C112329   4.265   4.358  11.455  0.1184  0.1480 -0.2455
  839MPD2    C212330   4.335   4.404  11.346  0.1744  0.6223  0.0020
  839MPD2    C312331   4.427   4.514  11.363  0.1269  0.2378  0.0640
  839MPD2    C412332   4.444   4.571  11.489  0.4903 -0.1710 -0.5236
  839MPD2    C512333   4.365   4.531  11.594  0.5219  0.2348 -0.2016
  839MPD2     H12334   4.327   4.351  11.252 -2.3235  1.7499 -0.4333
  839MPD2    H112335   4.507   4.658  11.494  0.0318  0.3392 -3.3552
  839MPD2    H212336   4.210   4.402  11.659 -0.4062  1.5010  0.5807
  839MPD2    H312337   4.376   4.582  11.689  2.1229 -1.5406  0.5716
  839MPD2     N12338   4.513   4.539  11.245 -0.1763  0.6656 -0.1746
  839MPD2    H512339   4.487   4.476  11.170 -1.2391 -0.9190  1.5260
  839MPD2    N112340   4.191   4.242  11.423 -0.5215 -0.2894 -0.2558
  839MPD2    H712341   4.182   4.217  11.325  0.0276  1.8586 -0.8605
  840MPD2     C12342   4.626   2.235   9.860 -0.1574  0.1279 -0.6260
  840MPD2    C112343   4.593   2.191   9.989  0.0766 -0.1202  0.0249
  840MPD2    C212344   4.633   2.262  10.102 -0.4175 -0.3674  0.0822
  840MPD2    C312345   4.699   2.386  10.083  0.7241 -0.2766 -0.0555
  840MPD2    C412346   4.721   2.431   9.953 -0.5617  0.1164 -0.5222
  840MPD2    C512347   4.694   2.353   9.845  0.1544 -0.3828  0.0984
  840MPD2     H12348   4.586   2.237  10.197  0.7461  2.3458  1.3647
  840MPD2    H112349   0.030   2.531   9.931  0.1489  0.2385  1.1936
  840MPD2    H212350   4.584   2.183   9.774  1.9800 -1.3123 -0.8120
  840MPD2    H312351   4.717   2.406   9.753  0.4237 -1.9657 -0.7382
  840MPD2     N12352   0.012   2.471  10.193 -0.4053 -0.3544 -0.4507
  840MPD2    H512353   0.071   2.551  10.172 -1.0531  0.4914  1.0072
  840MPD2    N112354   4.508   2.080  10.003  0.3918  0.1453  0.7099
  840MPD2    H712355   4.489   2.032   9.916 -0.0131 -1.5466  1.7431
  841MPD2     C12356   4.279   3.048  14.213 -0.0185  0.1529  0.4532
  841MPD2    C112357   4.339   2.949  14.289 -0.0235 -0.0154  0.4990
  841MPD2    C212358   4.468   2.967  14.339  0.1806 -0.7117  0.6115
  841MPD2    C312359   4.530   3.083  14.332 -0.0237  0.0056 -0.4872
  841MPD2    C412360   4.468   3.177  14.256 -0.1882 -0.7209  0.4440
  841MPD2    C512361   4.343   3.160  14.191 -0.0110 -0.0528 -0.0945
  841MPD2     H12362   4.515   2.891  14.400  0.3771 -1.2654 -0.2249
  841MPD2    H112363   4.523   3.269  14.240 -1.8969  0.5897  2.1206
  841MPD2    H212364   4.184   3.052  14.161  1.1732  1.1841 -1.6073
  841MPD2    H312365   4.307   3.233  14.119 -1.2056 -0.2621  0.2857
  841MPD2     N12366   4.647   3.095  14.409 -0.3235  0.1701  0.7215
  841MPD2    H512367   4.682   3.008  14.449 -0.7770 -0.6998 -0.7836
  841MPD2    N112368   4.273   2.828  14.317  0.2890 -0.5540 -0.0894
  841MPD2    H712369   4.314   2.761  14.382  0.3017  1.9522  2.4579
  842MPD2     C12370   0.205   3.963  16.312 -0.2793  0.6869  0.1096
  842MPD2    C112371   0.142   3.841  16.348 -0.1863 -0.4029  0.8371
  842MPD2    C212372   0.159   3.800  16.478  0.5071  0.2780  0.3481
  842MPD2    C312373   0.245   3.868  16.562 -0.3022  0.2179 -0.5148
  842MPD2    C412374   0.313   3.978  16.519  0.2390 -0.2053  0.4249
  842MPD2    C512375   0.288   4.031  16.395 -0.2927  0.2208  0.3886
  842MPD2     H12376   0.131   3.698  16.502 -1.0065 -0.5797 -4.9327
  842MPD2    H112377   0.381   4.035  16.582 -0.7355 -1.0972  2.2803
  842MPD2    H212378   0.178   4.007  16.216  0.8486 -1.3851 -1.1375
  842MPD2    H312379   0.327   4.128  16.367 -0.4858  0.1848  0.0032
  842MPD2     N12380   0.265   3.823  16.698  0.9800 -0.1919  0.1209
  842MPD2    H512381   0.354   3.850  16.739  0.3024  0.6823  1.0188
  842MPD2    N112382   0.063   3.782  16.247 -0.6500 -0.0880  0.4582
  842MPD2    H712383   0.048   3.834  16.162 -1.7359 -1.7402 -0.3598
  843MPD2     C12384   1.794   4.462  17.194 -0.5870  0.3433 -0.4794
  843MPD2    C112385   1.818   4.415  17.324 -0.3893  0.0599  0.3807
  843MPD2    C212386   1.909   4.483  17.401  0.6116 -0.2388  0.3399
  843MPD2    C312387   1.975   4.599  17.361  0.3510 -0.1923 -0.0941
  843MPD2    C412388   1.935   4.653  17.241 -0.1205 -0.3127  0.4989
  843MPD2    C512389   1.846   4.586  17.159  0.0568 -0.2112  0.3030
  843MPD2     H12390   1.927   4.449  17.502 -0.5627 -1.8272  0.0190
  843MPD2    H112391   1.987   0.014  17.205 -0.7861  0.1279  0.6136
  843MPD2    H212392   1.728   4.410  17.126 -0.0457  1.2523 -1.6989
  843MPD2    H312393   1.812   4.631  17.066 -0.9284 -0.2636  0.6423
  843MPD2     N12394   2.077   4.665  17.437  0.7670 -0.4768 -0.4689
  843MPD2    H512395   2.118   0.021  17.394 -0.4696 -0.1036 -0.9436
  843MPD2    N112396   1.753   4.300  17.362 -0.2780  0.0998  0.9335
  843MPD2    H712397   1.685   4.267  17.294  0.4841 -1.2109  0.7942
  844MPD2     C12398   0.732   3.529  16.046 -0.6394 -0.1351 -0.2519
  844MPD2    C112399   0.801   3.434  16.117 -0.6679 -0.5130 -0.1405
  844MPD2    C212400   0.914   3.474  16.183 -0.1473  0.3515  0.4530
  844MPD2    C312401   0.966   3.603  16.181 -0.0957 -0.0629  0.2930
  844MPD2    C412402   0.895   3.702  16.111  0.3441 -0.8528 -0.3957
  844MPD2    C512403   0.781   3.659  16.045  0.0956  0.0064 -0.3877
  844MPD2     H12404   0.964   3.402  16.246 -1.0018 -2.1746 -1.7393
  844MPD2    H112405   0.928   3.805  16.097  1.1615 -0.9601  0.7926
  844MPD2    H212406   0.638   3.513  15.996 -1.0193 -1.4844  0.9003
  844MPD2    H312407   0.718   3.731  15.993  0.2516  0.3367 -0.1169
  844MPD2     N12408   1.090   3.629  16.241  0.0091  0.3606  0.3491
  844MPD2    H512409   1.143   3.553  16.283 -2.6514 -0.7477  1.6680
  844MPD2    N112410   0.761   3.300  16.140 -0.4621  0.3605 -0.2391
  844MPD2    H712411   0.821   3.235  16.191 -1.7616 -1.7633 -1.3988
  845MPD2     C12412   1.602   4.466  16.506  0.3164  0.6803 -0.0735
  845MPD2    C112413   1.475   4.422  16.543  0.5374  0.1206  0.2243
  845MPD2    C212414   1.449   4.289  16.530 -0.4459  0.3283 -0.2392
  845MPD2    C312415   1.538   4.205  16.454 -0.6935 -0.4238 -0.2429
  845MPD2    C412416   1.659   4.259  16.418 -0.0820  0.4528 -0.2641
  845MPD2    C512417   1.689   4.387  16.439  0.3961  0.3131  0.4815
  845MPD2     H12418   1.359   4.240  16.564 -1.3157  1.8735 -0.3271
  845MPD2    H112419   1.729   4.203  16.357 -1.5594 -0.5231 -1.0724
  845MPD2    H212420   1.617   4.573  16.518 -0.8635  0.8473 -0.0889
  845MPD2    H312421   1.783   4.427  16.402 -0.2116  1.3851  0.0813
  845MPD2     N12422   1.492   4.074  16.427 -0.1870 -0.4457  0.1099
  845MPD2    H512423   1.398   4.049  16.455 -0.7991 -1.0928 -2.5176
  845MPD2    N112424   1.384   4.506  16.603 -0.7403 -0.8192  0.1433
  845MPD2    H712425   1.402   4.605  16.609  0.9738 -1.0195 -1.9499
  846MPD2     C12426   2.564   4.095  13.055  0.3258 -0.0800  0.4269
  846MPD2    C112427   2.566   4.230  13.081  0.3265  0.4755  0.3232
  846MPD2    C212428   2.545   4.266  13.212  0.2978  0.3237 -0.3900
  846MPD2    C312429   2.509   4.173  13.310  0.6209 -0.0183  0.2586
  846MPD2    C412430   2.499   4.039  13.277 -0.1784  0.2163  0.2362
  846MPD2    C512431   2.540   3.997  13.151  0.7416  0.3511  0.6337
  846MPD2     H12432   2.558   4.371  13.237 -0.1266  0.2484  0.1393
  846MPD2    H112433   2.479   3.958  13.347  2.3273 -0.7525 -0.1702
  846MPD2    H212434   2.580   4.056  12.955  1.6221 -0.3384  0.7314
  846MPD2    H312435   2.537   3.890  13.132  1.6085 -0.1350  3.2123
  846MPD2     N12436   2.498   4.217  13.444 -0.6106 -0.0472 -1.0738
  846MPD2    H512437   2.513   4.316  13.464  0.7958 -0.5634  0.4065
  846MPD2    N112438   2.599   4.330  12.981 -0.1028  0.1281  0.1903
  846MPD2    H712439   2.619   4.426  13.006 -0.0870 -0.0989  1.0510
  847MPD2     C12440   3.105   0.516  13.661  0.4817  0.0163 -0.2814
  847MPD2    C112441   3.103   0.554  13.796 -0.1082 -0.5805 -0.2237
  847MPD2    C212442   3.068   0.461  13.887  0.1656 -0.3940  0.1449
  847MPD2    C312443   3.021   0.328  13.851 -0.1514  0.5072 -0.5343
  847MPD2    C412444   3.028   0.288  13.717  0.5139 -0.5845  0.0662
  847MPD2    C512445   3.064   0.384  13.627 -0.4999  0.1040  0.3184
  847MPD2     H12446   3.067   0.492  13.991  1.3977 -0.8688  0.2940
  847MPD2    H112447   2.993   0.189  13.690  0.8455 -0.7667  0.3090
  847MPD2    H212448   3.151   0.571  13.579  2.8123 -1.3216  0.1367
  847MPD2    H312449   3.085   0.359  13.524 -1.2534 -0.3340  0.2705
  847MPD2     N12450   2.971   0.248  13.957 -0.6141  0.1980  0.2345
  847MPD2    H512451   2.985   0.285  14.051  1.3542 -0.2197  0.0941
  847MPD2    N112452   3.134   0.688  13.839  0.1033  0.3313  0.0394
  847MPD2    H712453   3.131   0.708  13.938  0.8376  0.1721  0.0874
  848MPD2     C12454   0.431   3.724  15.907  0.7844 -0.0920 -0.0381
  848MPD2    C112455   0.460   3.794  16.024  0.1220  0.5614  0.9598
  848MPD2    C212456   0.508   3.925  16.019  0.0691  0.4254 -0.5804
  848MPD2    C312457   0.529   3.985  15.892  0.3341 -0.1027 -1.4512
  848MPD2    C412458   0.518   3.910  15.776 -0.0752 -0.8171  0.3191
  848MPD2    C512459   0.468   3.787  15.792  0.1078 -0.3549 -0.7073
  848MPD2     H12460   0.523   3.979  16.112 -1.7712  0.9873 -0.6018
  848MPD2    H112461   0.550   3.950  15.680 -0.0983 -2.2870 -0.3062
  848MPD2    H212462   0.380   3.628  15.914 -0.1831  0.4893  0.8782
  848MPD2    H312463   0.445   3.744  15.695  0.9242 -0.0605 -1.0362
  848MPD2     N12464   0.555   4.117  15.870  1.2061 -0.4702  0.6033
  848MPD2    H512465   0.570   4.143  15.773  3.0292 -0.9992  0.7486
  848MPD2    N112466   0.446   3.731  16.154 -0.3633 -0.2771  0.3842
  848MPD2    H712467   0.487   3.780  16.233 -1.0463 -0.5786  0.9214
  849MPD2     C12468   4.072   3.538  13.906  0.2182 -0.2512 -0.3140
  849MPD2    C112469   4.188   3.558  13.836 -0.4154 -0.7131 -0.1769
  849MPD2    C212470   4.306   3.558  13.904  0.3668 -0.3141 -0.2225
  849MPD2    C312471   4.311   3.550  14.047 -0.5750 -0.2447  0.1991
  849MPD2    C412472   4.186   3.545  14.111 -0.2923 -0.6276  0.4334
  849MPD2    C512473   4.068   3.543  14.040 -0.2382 -0.0742 -0.2391
  849MPD2     H12474   4.395   3.563  13.842  0.5788 -0.7622  0.0503
  849MPD2    H112475   4.184   3.535  14.219  0.6686 -0.1462  0.4968
  849MPD2    H212476   3.980   3.514  13.854  0.1962  0.0317 -0.4107
  849MPD2    H312477   3.970   3.530  14.086  0.0650 -0.4105  0.3099
  849MPD2     N12478   4.436   3.546  14.121 -0.9548 -0.5187  0.0502
  849MPD2    H512479   4.431   3.527  14.220  1.9978  0.9763  0.5071
  849MPD2    N112480   4.190   3.563  13.696 -0.1377 -0.6170  0.1815
  849MPD2    H712481   4.280   3.578  13.652  0.3075 -0.0245  1.2893
  850MPD2     C12482   2.648   1.432  14.315 -0.0143 -0.0247 -0.3685
  850MPD2    C112483   2.617   1.474  14.442 -0.5201  0.1323 -0.5718
  850MPD2    C212484   2.720   1.533  14.522  0.9158  0.4798  0.6490
  850MPD2    C312485   2.845   1.515  14.484 -1.0628 -0.2003  0.6625
  850MPD2    C412486   2.871   1.481  14.356 -0.5063 -0.0797 -0.0891
  850MPD2    C512487   2.777   1.445  14.270  0.3013  0.2423  0.4160
  850MPD2     H12488   2.695   1.574  14.619  1.7824  0.0872  1.0282
  850MPD2    H112489   2.976   1.462  14.334 -0.5548  2.4206 -2.5509
  850MPD2    H212490   2.574   1.377  14.258  0.3480 -0.4380 -0.4386
  850MPD2    H312491   2.804   1.412  14.171 -1.4942 -1.4667  0.5059
  850MPD2     N12492   2.950   1.534  14.572  0.0212  0.2697  0.0899
  850MPD2    H512493   3.042   1.527  14.531  0.6085  0.0328  1.4298
  850MPD2    N112494   2.480   1.476  14.474 -0.4614  0.5761 -0.0702
  850MPD2    H712495   2.423   1.444  14.397 -0.2186  0.3341 -0.1514
  851MPD2     C12496   3.020   1.278  15.089 -0.0340  0.7304  0.5086
  851MPD2    C112497   2.948   1.221  14.987 -0.1603  0.6173 -0.7187
  851MPD2    C212498   2.985   1.112  14.911 -0.1754 -0.0682 -0.5599
  851MPD2    C312499   3.104   1.052  14.941  0.2673  0.5580 -0.3778
  851MPD2    C412500   3.179   1.101  15.041 -0.0672 -0.1537 -0.1305
  851MPD2    C512501   3.137   1.210  15.110 -0.3915  0.0693 -0.0339
  851MPD2     H12502   2.916   1.072  14.838  1.2240 -0.7976 -1.4789
  851MPD2    H112503   3.272   1.053  15.066  0.3098  0.2309 -0.7977
  851MPD2    H212504   2.990   1.356  15.158  2.4879  0.6277  1.7342
  851MPD2    H312505   3.198   1.255  15.187  0.5455 -0.3425 -0.5311
  851MPD2     N12506   3.128   0.935  14.865  0.1497  0.0264 -0.0383
  851MPD2    H512507   3.050   0.906  14.806 -0.6082 -1.0353  1.4715
  851MPD2    N112508   2.824   1.286  14.958 -0.2153 -0.0669  0.7709
  851MPD2    H712509   2.797   1.364  15.018 -1.3494 -0.6497  1.0220
  852MPD2     C12510   2.431   4.283   8.969  0.1206  0.0242  0.4176
  852MPD2    C112511   2.369   4.193   9.057  0.0375  0.0884 -0.4921
  852MPD2    C212512   2.427   4.164   9.179 -0.2114 -0.1523 -0.1332
  852MPD2    C312513   2.551   4.215   9.211 -0.1652 -1.1324 -0.6262
  852MPD2    C412514   2.616   4.294   9.119  0.3738 -0.2876 -0.3783
  852MPD2    C512515   2.548   4.341   9.009  0.3927 -0.0194  0.6994
  852MPD2     H12516   2.388   4.082   9.238 -0.0701  1.2018  1.8839
  852MPD2    H112517   2.715   4.336   9.135  0.6272 -0.8599 -0.4301
  852MPD2    H212518   2.391   4.295   8.869  0.8012 -0.7120  0.0520
  852MPD2    H312519   2.605   4.386   8.929 -1.7202 -0.3275 -0.9820
  852MPD2     N12520   2.606   4.179   9.340  0.1689  0.7671  0.0669
  852MPD2    H512521   2.557   4.102   9.386  3.1829 -0.7648  0.7021
  852MPD2    N112522   2.244   4.129   9.028  0.1755  0.2400  0.2196
  852MPD2    H712523   2.205   4.073   9.103  0.6760 -1.5587 -0.8793
  853MPD2     C12524   4.011   3.377  11.968 -0.4264 -0.1540 -0.5323
  853MPD2    C112525   3.894   3.445  11.921 -0.0988  0.2987 -0.3661
  853MPD2    C212526   3.855   3.426  11.788 -0.1343  0.1570 -0.4323
  853MPD2    C312527   3.927   3.347  11.701  0.6147  0.1491 -0.1113
  853MPD2    C412528   4.039   3.289  11.747 -0.1159  0.0058 -0.0043
  853MPD2    C512529   4.079   3.300  11.876  0.2798  0.3118  0.3093
  853MPD2     H12530   3.765   3.480  11.761 -0.2217  0.1049 -0.2463
  853MPD2    H112531   4.097   3.221  11.685 -0.1010 -0.1473  0.1789
  853MPD2    H212532   4.045   3.388  12.070  0.2330 -0.4606 -0.7149
  853MPD2    H312533   4.164   3.246  11.915  0.3031  0.4562  0.4593
  853MPD2     N12534   3.893   3.319  11.563  0.2079  0.3558  0.6056
  853MPD2    H512535   3.943   3.244  11.517 -1.0541  0.5876 -1.1301
  853MPD2    N112536   3.823   3.526  12.016  0.4881 -0.3113 -0.0627
  853MPD2    H712537   3.870   3.530  12.105 -0.3500  0.4886  0.3385
  854MPD2     C12538   0.904   4.163  12.813  0.7221 -0.2407 -0.1803
  854MPD2    C112539   0.962   4.105  12.700 -0.1933  0.4907  0.5108
  854MPD2    C212540   1.023   3.979  12.706 -0.5580 -0.1589  0.0696
  854MPD2    C312541   1.017   3.912  12.828  0.1856  0.1869 -0.6787
  854MPD2    C412542   0.948   3.958  12.934  0.0367 -1.4118 -0.0650
  854MPD2    C512543   0.905   4.090  12.928 -0.0976  0.0831  0.2409
  854MPD2     H12544   1.075   3.944  12.617  0.8527 -2.5943  1.8626
  854MPD2    H112545   0.951   3.906  13.029  1.2859 -0.8625  0.1945
  854MPD2    H212546   0.862   4.261  12.831  1.5331  0.4299 -2.0430
  854MPD2    H312547   0.860   4.142  13.012  1.5262  0.7873  0.6739
  854MPD2     N12548   1.073   3.783  12.844  0.5672  0.0068 -0.4064
  854MPD2    H512549   1.063   3.748  12.938  1.5635 -0.2963 -0.4153
  854MPD2    N112550   0.955   4.179  12.583 -0.3615  0.1018 -0.4504
  854MPD2    H712551   0.906   4.268  12.575 -0.4356  0.1990  1.1589
  855MPD2     C12552   1.547   3.659  13.522 -0.7687 -0.4701  0.8473
  855MPD2    C112553   1.452   3.564  13.511 -0.5353  0.4721 -0.7369
  855MPD2    C212554   1.405   3.535  13.387 -0.9942  0.3108  0.1180
  855MPD2    C312555   1.448   3.611  13.277  0.0717  0.9379 -0.6682
  855MPD2    C412556   1.535   3.713  13.294 -0.5051  0.2330  0.7482
  855MPD2    C512557   1.586   3.730  13.415  0.2680  0.5131 -0.4070
  855MPD2     H12558   1.343   3.446  13.379  0.6163 -0.5674 -2.7914
  855MPD2    H112559   1.584   3.779  13.223 -0.2292  0.6048  1.2856
  855MPD2    H212560   1.589   3.681  13.619  1.0780  0.8568 -0.2518
  855MPD2    H312561   1.658   3.811  13.423  1.1598 -0.4795  1.6733
  855MPD2     N12562   1.403   3.592  13.142 -0.5554  0.2441  0.0438
  855MPD2    H512563   1.404   3.672  13.079 -2.2760  1.6780  1.8239
  855MPD2    N112564   1.402   3.495  13.628  0.2769 -0.6047 -0.0636
  855MPD2    H712565   1.330   3.427  13.605  0.4743 -1.5717  2.1123
  856MPD2     C12566   4.190   4.252  12.962  0.5389  0.1040  0.6400
  856MPD2    C112567   4.196   4.275  13.096  0.4453 -1.2582 -0.6247
  856MPD2    C212568   4.090   4.334  13.157 -1.2519  0.0418 -0.5376
  856MPD2    C312569   3.968   4.375  13.083  0.3712  0.0396 -0.3753
  856MPD2    C412570   3.970   4.354  12.943  0.4214 -0.1968  0.6091
  856MPD2    C512571   4.077   4.286  12.891  0.2724 -0.3096  0.1192
  856MPD2     H12572   4.105   4.355  13.262 -1.5396 -0.1237 -0.4656
  856MPD2    H112573   3.891   4.384  12.876  1.2669  1.1679  0.2318
  856MPD2    H212574   4.269   4.199  12.909  0.1383  0.9372 -0.7962
  856MPD2    H312575   4.080   4.271  12.784 -0.4636 -0.4463  0.1151
  856MPD2     N12576   3.859   4.450  13.132  0.4386  0.1563  0.2298
  856MPD2    H512577   3.785   4.475  13.068 -0.2563 -2.6231 -0.0689
  856MPD2    N112578   4.305   4.239  13.175  0.6068 -0.0467 -0.1621
  856MPD2    H712579   4.282   4.259  13.272 -0.7721  1.9486 -0.8858
  857MPD2     C12580   0.042   1.788  12.558 -0.4871 -0.0783 -0.2675
  857MPD2    C112581   0.178   1.814  12.557  0.0475 -0.6672 -0.5653
  857MPD2    C212582   0.219   1.935  12.617  0.7073 -0.1190 -0.0865
  857MPD2    C312583   0.129   2.024  12.665 -0.3641 -0.7618 -0.3872
  857MPD2    C412584   4.725   2.002  12.663 -0.2759  1.2350 -0.2478
  857MPD2    C512585   4.681   1.890  12.595 -0.7020 -0.2401  0.0179
  857MPD2     H12586   0.326   1.948  12.627  0.7048  1.2755 -1.8571
  857MPD2    H112587   4.657   2.068  12.714 -0.3721  0.6258  0.4258
  857MPD2    H212588   0.002   1.696  12.516 -1.7319 -0.2556  1.3407
  857MPD2    H312589   4.574   1.870  12.589 -0.7961  0.1247  0.5199
  857MPD2     N12590   0.179   2.135  12.737  0.0697 -0.5345  0.3252
  857MPD2    H512591   0.271   2.119  12.777 -0.7647 -1.9315  1.7131
  857MPD2    N112592   0.264   1.707  12.512 -0.0527  0.4130 -0.5317
  857MPD2    H712593   0.219   1.618  12.495  0.1266  0.4389 -1.1557
  858MPD2     C12594   0.751   1.107  16.489 -0.3378  0.0305 -0.1990
  858MPD2    C112595   0.885   1.114  16.528  0.8897 -0.1689 -0.2136
  858MPD2    C212596   0.917   1.182  16.644 -0.5366  1.1079  0.7753
  858MPD2    C312597   0.820   1.231  16.724 -0.4678  0.3866  0.5448
  858MPD2    C412598   0.689   1.228  16.677  0.1549  0.0239  1.3949
  858MPD2    C512599   0.656   1.171  16.558  0.7010 -0.7891 -0.6615
  858MPD2     H12600   1.020   1.198  16.674  0.1598 -0.3340 -0.8687
  858MPD2    H112601   0.612   1.276  16.735 -0.5647  1.1692 -0.4985
  858MPD2    H212602   0.729   1.061  16.393 -1.4140  1.6356 -0.7170
  858MPD2    H312603   0.553   1.171  16.523  0.2832  3.7110  0.5928
  858MPD2     N12604   0.843   1.288  16.856  0.5484  0.0188  0.1806
  858MPD2    H512605   0.759   1.305  16.911  0.0667 -1.6159 -0.0324
  858MPD2    N112606   0.983   1.058  16.444 -0.2387  0.1663 -0.4923
  858MPD2    H712607   0.944   1.011  16.363 -0.7906 -2.6910  1.4280
  859MPD2     C12608   4.344   3.453  15.259  0.1011  0.5907 -0.3512
  859MPD2    C112609   4.478   3.452  15.264  0.4553 -0.0029  0.7759
  859MPD2    C212610   4.537   3.360  15.345  0.1139  0.7449  0.3098
  859MPD2    C312611   4.460   3.261  15.400 -0.0929  0.1194 -0.0155
  859MPD2    C412612   4.327   3.269  15.397 -0.2427  0.1930  0.7215
  859MPD2    C512613   4.266   3.364  15.324 -0.3250 -0.0609 -0.5849
  859MPD2     H12614   4.644   3.361  15.359  0.0609 -1.9124  0.9537
  859MPD2    H112615   4.256   3.199  15.439 -0.2233 -0.4476 -0.3222
  859MPD2    H212616   4.285   3.527  15.206 -1.3805 -0.1227  0.3174
  859MPD2    H312617   4.158   3.371  15.322 -0.3635 -0.2665  0.8668
  859MPD2     N12618   4.516   3.140  15.441  0.4385  0.7208 -0.4407
  859MPD2    H512619   4.454   3.065  15.470  1.9065  0.2266  1.4097
  859MPD2    N112620   4.557   3.530  15.184  0.2604  0.2150 -0.3985
  859MPD2    H712621   4.657   3.513  15.191  0.1306 -1.0225 -1.5509
  860MPD2     C12622   1.876   2.858  11.628 -0.1776  0.1094  0.7048
  860MPD2    C112623   1.820   2.867  11.756 -0.0698 -0.3693 -0.7354
  860MPD2    C212624   1.706   2.942  11.769 -0.1403  0.7096 -0.3441
  860MPD2    C312625   1.657   3.006  11.655 -0.4540  0.5878  0.6198
  860MPD2    C412626   1.716   3.000  11.533 -0.0095 -0.0220 -0.3886
  860MPD2    C512627   1.830   2.928  11.523  0.2172  0.1488  0.1394
  860MPD2     H12628   1.660   2.947  11.867 -1.7000  2.8279 -1.1978
  860MPD2    H112629   1.688   3.055  11.444  0.4375 -1.4247 -1.3953
  860MPD2    H212630   1.963   2.797  11.606 -0.7016  1.0217 -3.9046
  860MPD2    H312631   1.879   2.922  11.426 -0.4311  2.5262 -0.3327
  860MPD2     N12632   1.539   3.084  11.682 -0.2006  0.4057 -0.1804
  860MPD2    H512633   1.503   3.085  11.777 -1.6938 -1.1659 -0.7402
  860MPD2    N112634   1.865   2.815  11.872 -0.0957 -0.3070  0.6339
  860MPD2    H712635   1.813   2.840  11.956  0.4294  1.6654  0.3709
  861MPD2     C12636   0.385   1.203  10.719 -0.1385  0.2036 -0.1184
  861MPD2    C112637   0.431   1.337  10.730 -0.3831 -0.1829 -0.2350
  861MPD2    C212638   0.379   1.438  10.654  0.3289  0.7735 -0.3328
  861MPD2    C312639   0.264   1.413  10.575  0.0125 -0.0243 -0.2592
  861MPD2    C412640   0.211   1.280  10.558 -0.1058 -0.1252  0.0591
  861MPD2    C512641   0.282   1.186  10.628 -0.1082  0.2869 -0.5475
  861MPD2     H12642   0.421   1.538  10.664  0.9209  0.4153  0.7512
  861MPD2    H112643   0.131   1.254  10.490 -0.4015 -1.3471  0.8759
  861MPD2    H212644   0.408   1.116  10.780  1.3494 -0.2109 -1.2660
  861MPD2    H312645   0.249   1.085  10.607  0.0445  0.1998 -0.3722
  861MPD2     N12646   0.201   1.515  10.499 -0.3768 -0.6466 -0.3576
  861MPD2    H512647   0.123   1.491  10.438 -0.9268  2.4697 -0.9084
  861MPD2    N112648   0.549   1.371  10.809 -0.9856  0.9513  0.3675
  861MPD2    H712649   0.588   1.463  10.788 -2.5150  1.7415  0.9419
  862MPD2     C12650   0.138   1.785   9.789 -0.4400  0.1268 -0.0699
  862MPD2    C112651   0.157   1.693   9.890  0.3384 -0.6608 -0.6828
  862MPD2    C212652   0.196   1.565   9.853  0.3513 -0.1971  0.0338
  862MPD2    C312653   0.209   1.525   9.721 -1.0330 -0.4822  0.5566
  862MPD2    C412654   0.189   1.619   9.627  0.2251 -0.1064  0.1741
  862MPD2    C512655   0.159   1.750   9.659  0.9717 -0.8162 -0.3576
  862MPD2     H12656   0.219   1.494   9.931  1.4290  1.8697  1.5842
  862MPD2    H112657   0.197   1.596   9.522 -3.5409  0.0131 -0.1335
  862MPD2    H212658   0.113   1.890   9.799 -0.7759 -0.0772  1.2916
  862MPD2    H312659   0.156   1.830   9.586  2.7692  0.2485  0.7268
  862MPD2     N12660   0.255   1.396   9.697 -0.3598  0.1211  0.3791
  862MPD2    H512661   0.278   1.353   9.786 -1.2884 -0.8506  0.1481
  862MPD2    N112662   0.152   1.715  10.030 -0.3885 -0.0823 -0.1825
  862MPD2    H712663   0.158   1.635  10.093  1.6736 -1.0235 -1.5655
  863MPD2     C12664   4.329   0.054  16.082  0.1208 -0.5909 -0.9288
  863MPD2    C112665   4.220   0.070  16.169 -0.6463  0.0650 -0.5289
  863MPD2    C212666   4.249   0.036  16.297 -0.5673 -0.7499 -0.0102
  863MPD2    C312667   4.370   0.012  16.354  0.0097  0.0304 -0.0359
  863MPD2    C412668   4.472   4.717  16.265  0.1400 -0.3645  0.0443
  863MPD2    C512669   4.451   0.008  16.132 -0.4211  0.2769  0.0125
  863MPD2     H12670   4.169   0.030  16.369 -2.0337  3.8678 -1.2341
  863MPD2    H112671   4.569   4.677  16.290 -0.1569 -0.9920  0.1834
  863MPD2    H212672   4.317   0.068  15.976  0.7005  1.8692 -0.6770
  863MPD2    H312673   4.543   4.726  16.076 -0.1258 -0.5528  0.6318
  863MPD2     N12674   4.405   0.003  16.493 -0.2131  0.0224 -0.2136
  863MPD2    H512675   4.494   4.694  16.526  0.9321  2.5991 -0.5382
  863MPD2    N112676   4.097   0.116  16.124 -0.2479  0.4531 -0.1072
  863MPD2    H712677   4.092   0.144  16.027 -0.5498 -1.2685 -0.6048
  864MPD2     C12678   4.570   1.592  16.993 -0.3789 -0.3055  0.0623
  864MPD2    C112679   4.632   1.508  16.898 -0.1893  0.6126  0.2183
  864MPD2    C212680   4.725   1.560  16.803  0.0942  0.5336  0.4010
  864MPD2    C312681   0.023   1.703  16.805 -0.1861 -0.6177 -0.4085
  864MPD2    C412682   4.681   1.775  16.900 -0.3582 -0.2218 -0.2234
  864MPD2    C512683   4.589   1.727  16.984  0.0519  0.0739  0.4138
  864MPD2     H12684   0.046   1.493  16.733  1.8613  0.4188  1.6932
  864MPD2    H112685   4.706   1.880  16.909  1.3447 -0.6520  0.1416
  864MPD2    H212686   4.504   1.551  17.068  1.9463  2.0722  3.3739
  864MPD2    H312687   4.537   1.786  17.059  1.1303 -0.1835  1.3555
  864MPD2     N12688   0.112   1.773  16.715  0.3115  0.3241  0.6128
  864MPD2    H512689   0.125   1.872  16.735  0.2467  0.4180  0.1952
  864MPD2    N112690   4.608   1.368  16.888  0.5973 -0.6141 -0.4313
  864MPD2    H712691   4.640   1.317  16.806  0.9717  0.1819 -0.7788
  865MPD2     C12692   4.561   1.812  16.188 -0.2133 -0.2855 -0.7559
  865MPD2    C112693   4.702   1.814  16.191 -0.2057  0.6241  0.3703
  865MPD2    C212694   0.041   1.921  16.252 -0.0936  0.5970 -0.9505
  865MPD2    C312695   4.692   2.028  16.292  0.2058 -0.1015 -0.2719
  865MPD2    C412696   4.560   2.034  16.276 -0.4592 -0.6473  0.6123
  865MPD2    C512697   4.493   1.927  16.225 -0.0079  0.2346 -0.1366
  865MPD2     H12698   0.150   1.921  16.256 -0.1766  0.3808  1.1802
  865MPD2    H112699   4.501   2.122  16.300 -0.1245 -0.4138  0.5774
  865MPD2    H212700   4.515   1.727  16.140  0.0920 -2.6634  3.1579
  865MPD2    H312701   4.386   1.938  16.211  0.1972  1.1069 -0.9926
  865MPD2     N12702   0.023   2.142  16.361 -0.3053 -0.7053 -0.2009
  865MPD2    H512703   4.698   2.228  16.347 -0.1066 -0.8899 -2.0662
  865MPD2    N112704   0.052   1.703  16.141 -0.6508 -0.3442  0.1520
  865MPD2    H712705   0.003   1.617  16.119 -1.1958 -0.0299  0.1594
  866MPD2     C12706   1.137   2.425  10.956 -0.5064 -0.4880 -0.1066
  866MPD2    C112707   1.126   2.326  10.862  0.2826  0.1884 -0.5561
  866MPD2    C212708   1.002   2.309  10.807 -0.5651 -0.2003  0.4957
  866MPD2    C312709   0.890   2.390  10.821  0.4058 -0.2809  0.0281
  866MPD2    C412710   0.903   2.489  10.919 -0.0124 -0.2584 -0.0319
  866MPD2    C512711   1.024   2.508  10.989 -0.6518 -0.2953 -1.2429
  866MPD2     H12712   0.989   2.235  10.730  2.2410 -1.3024  1.1041
  866MPD2    H112713   0.820   2.554  10.943  1.1086  1.7278 -1.5461
  866MPD2    H212714   1.232   2.470  10.979 -2.1763  2.5878  0.7711
  866MPD2    H312715   1.047   2.595  11.050 -0.4311 -0.1930 -1.4708
  866MPD2     N12716   0.770   2.373  10.748 -0.1181 -0.2901  0.8515
  866MPD2    H512717   0.689   2.423  10.783  1.5467  0.7483  3.2253
  866MPD2    N112718   1.239   2.251  10.835  0.6149  0.4480  0.0924
  866MPD2    H712719   1.322   2.285  10.883  1.3511  1.6597 -2.0268
  867MPD2     C12720   3.319   1.448  15.810 -0.6697 -0.0786 -0.5702
  867MPD2    C112721   3.354   1.372  15.920 -0.5475 -0.1905 -0.6917
  867MPD2    C212722   3.272   1.360  16.031 -0.0045  0.6276  0.1064
  867MPD2    C312723   3.168   1.454  16.044  0.8873  0.9583  0.5267
  867MPD2    C412724   3.138   1.547  15.938 -0.0114 -0.5276  0.5448
  867MPD2    C512725   3.205   1.529  15.818 -0.6288  0.1049  0.2685
  867MPD2     H12726   3.289   1.288  16.111  1.5565 -1.0799 -1.7762
  867MPD2    H112727   3.061   1.624  15.943  2.5769  2.1064 -0.2191
  867MPD2    H212728   3.376   1.440  15.719  0.9953  2.4765  0.2265
  867MPD2    H312729   3.169   1.593  15.738 -1.7637  0.7018  1.2630
  867MPD2     N12730   3.078   1.457  16.153  0.5191  0.2548 -0.8462
  867MPD2    H512731   3.013   1.535  16.148  0.1336 -0.0686 -0.8282
  867MPD2    N112732   3.464   1.285  15.911 -0.0602 -0.3200 -0.1976
  867MPD2    H712733   3.513   1.277  15.822 -0.7785  1.8748 -0.7707
  868MPD2     C12734   0.703   0.266  12.298  0.4703  0.2075  0.1278
  868MPD2    C112735   0.735   0.278  12.434  1.2058 -1.0017 -0.7307
  868MPD2    C212736   0.634   0.342  12.512 -0.3638  0.8164  0.1691
  868MPD2    C312737   0.514   0.375  12.462 -0.5501 -0.2934  0.2045
  868MPD2    C412738   0.476   0.337  12.334 -0.2183  0.2411 -0.0996
  868MPD2    C512739   0.574   0.281  12.257 -0.1439 -0.2564  1.0828
  868MPD2     H12740   0.650   0.370  12.616 -0.2710 -0.7605  0.5925
  868MPD2    H112741   0.385   0.376  12.291 -0.3661 -0.5613 -0.5017
  868MPD2    H212742   0.782   0.214  12.245  1.9553  1.0368  1.5159
  868MPD2    H312743   0.543   0.250  12.158  1.3824 -0.0103  0.5360
  868MPD2     N12744   0.429   0.445  12.546 -0.1162 -0.4456  0.0470
  868MPD2    H512745   0.472   0.476  12.633 -3.8607 -0.9842  2.1200
  868MPD2    N112746   0.861   0.243  12.480 -0.4991  0.0938  0.0538
  868MPD2    H712747   0.922   0.198  12.413 -1.2164 -0.8691  0.0376
  869MPD2     C12748   1.911   3.243   1.380  0.5159  0.4028 -0.2197
  869MPD2    C112749   1.777   3.276   1.350  0.0023 -0.2520  0.5222
  869MPD2    C212750   1.747   3.347   1.241 -0.2581 -0.2403  0.2841
  869MPD2    C312751   1.851   3.405   1.173  0.4584 -0.1235 -0.1927
  869MPD2    C412752   1.988   3.389   1.213  1.0175  0.0737  1.1488
  869MPD2    C512753   2.012   3.305   1.319 -0.0119 -0.3824  0.5254
  869MPD2     H12754   1.646   3.380   1.222  0.4776  0.9752 -1.4864
  869MPD2    H112755   2.060   3.458   1.170  1.1171 -0.2442  0.8100
  869MPD2    H212756   1.922   3.178   1.465  2.5017  0.0723 -0.7256
  869MPD2    H312757   2.115   3.285   1.346 -0.5937 -0.5965  2.5797
  869MPD2     N12758   1.826   3.499   1.069 -0.0951  0.5721  0.0915
  869MPD2    H512759   1.906   3.546   1.029  0.4561  0.2126  0.7653
  869MPD2    N112760   1.676   3.209   1.428  0.5703  0.3067 -0.2692
  869MPD2    H712761   1.700   3.166   1.516  3.7232  2.4147 -0.1144
  870MPD2     C12762   0.617   2.911   0.883 -0.6732 -0.1668 -0.1944
  870MPD2    C112763   0.754   2.920   0.889  0.5156  0.6526 -0.4184
  870MPD2    C212764   0.836   2.964   0.789  0.7035 -0.2320  0.5657
  870MPD2    C312765   0.769   3.020   0.678 -0.4345 -0.3425  0.1087
  870MPD2    C412766   0.632   3.021   0.678  0.0447 -0.0768  0.0450
  870MPD2    C512767   0.550   2.971   0.780  0.3066 -0.5609 -0.6791
  870MPD2     H12768   0.943   2.973   0.803  0.9425 -0.1866 -1.2005
  870MPD2    H112769   0.578   3.065   0.595 -1.2520 -1.2172  0.2717
  870MPD2    H212770   0.561   2.879   0.970 -0.1123 -0.2694  0.1310
  870MPD2    H312771   0.442   2.975   0.781  0.3573  0.9165 -1.5896
  870MPD2     N12772   0.849   3.066   0.577  0.4563 -0.0051 -0.4613
  870MPD2    H512773   0.949   3.055   0.589  0.7322 -0.3301 -2.8951
  870MPD2    N112774   0.805   2.866   1.009 -0.4025  0.6191  0.0937
  870MPD2    H712775   0.738   2.834   1.077 -0.7239  0.6464 -0.2123
  871MPD2     C12776   2.325   1.166  16.072  0.4011  0.3005  0.1670
  871MPD2    C112777   2.333   1.148  16.207 -0.6979 -0.0939  0.5819
  871MPD2    C212778   2.392   1.030  16.258  0.5126 -0.0915  0.7474
  871MPD2    C312779   2.440   0.929  16.175  0.2004 -0.4704 -0.5774
  871MPD2    C412780   2.417   0.945  16.039  0.1877 -0.0120  0.1346
  871MPD2    C512781   2.357   1.061  15.988 -0.3697 -0.0953 -0.2948
  871MPD2     H12782   2.415   1.021  16.364 -0.1182 -1.3274  0.7794
  871MPD2    H112783   2.440   0.862  15.974 -2.9926 -0.5356 -0.3172
  871MPD2    H212784   2.279   1.262  16.051 -3.2118 -1.6202 -0.7902
  871MPD2    H312785   2.333   1.053  15.882  1.5792 -2.5658 -0.5568
  871MPD2     N12786   2.502   0.813  16.234 -0.4438 -0.1106  0.0262
  871MPD2    H512787   2.494   0.788  16.332  1.4454  1.5692  0.6147
  871MPD2    N112788   2.286   1.257  16.289 -0.2894  0.1220  0.3127
  871MPD2    H712789   2.264   1.343  16.239  0.7890  0.6808  0.8086
  872MPD2     C12790   3.298   4.254  13.389 -0.2600 -0.0760  0.3995
  872MPD2    C112791   3.370   4.139  13.403 -0.1952  1.1899 -0.4831
  872MPD2    C212792   3.318   4.032  13.481  0.4909  0.2588 -0.2171
  872MPD2    C312793   3.190   4.040  13.543  0.2787 -1.1432  0.0450
  872MPD2    C412794   3.120   4.151  13.509  0.1410  0.6974  0.4527
  872MPD2    C512795   3.170   4.258  13.442 -0.1537  0.0399 -0.5138
  872MPD2     H12796   3.387   3.951  13.500 -0.3773 -0.4597 -0.0799
  872MPD2    H112797   3.020   4.167  13.547  0.2434 -0.8014  1.3377
  872MPD2    H212798   3.333   4.333  13.324  1.0837  0.8316  2.2213
  872MPD2    H312799   3.110   4.348  13.433 -1.2188 -0.7574 -1.2269
  872MPD2     N12800   3.129   3.944  13.620  0.0265 -0.3382  0.0557
  872MPD2    H512801   3.041   3.968  13.665 -0.3621  0.3821 -1.0867
  872MPD2    N112802   3.496   4.120  13.338  0.0235  0.2172 -0.2818
  872MPD2    H712803   3.547   4.033  13.346  0.2597  0.4311  0.5187
  873MPD2     C12804   0.953   4.664   0.570 -0.1484 -0.2668  0.2482
  873MPD2    C112805   0.825   4.624   0.548 -0.4416 -0.1264  0.4574
  873MPD2    C212806   0.801   4.508   0.476 -0.2239  1.3021 -0.5618
  873MPD2    C312807   0.902   4.416   0.441 -1.1556  0.3774  0.2932
  873MPD2    C412808   1.033   4.452   0.479 -0.2371 -0.6331  1.3299
  873MPD2    C512809   1.064   4.580   0.534 -0.0400 -0.8188 -0.1918
  873MPD2     H12810   0.697   4.477   0.473  0.6515 -1.6533 -0.4692
  873MPD2    H112811   1.120   4.391   0.456 -0.0172  0.1408  0.0558
  873MPD2    H212812   0.956   0.034   0.619  0.3834  0.6700 -1.6685
  873MPD2    H312813   1.167   4.609   0.551 -0.9997  2.2506  0.4620
  873MPD2     N12814   0.884   4.283   0.399 -0.3056 -0.6592 -0.2295
  873MPD2    H512815   0.967   4.229   0.375  0.5399 -0.0328  1.2377
  873MPD2    N112816   0.722   4.704   0.594 -0.6441  0.0395  0.5013
  873MPD2    H712817   0.740   0.024   0.683  0.3914  0.9171 -0.1655
  874MPD2     C12818   4.561   4.144  15.678  0.5202 -0.4318 -0.3673
  874MPD2    C112819   4.656   4.080  15.763 -0.4460  0.5524  0.0045
  874MPD2    C212820   0.050   4.138  15.790  0.1909  0.7362 -0.3289
  874MPD2    C312821   0.072   4.268  15.738 -0.0301 -0.3993  0.5029
  874MPD2    C412822   4.704   4.332  15.658  0.1425 -0.1850 -0.4348
  874MPD2    C512823   4.585   4.264  15.628 -0.6782 -0.1757 -0.7155
  874MPD2     H12824   0.128   4.087  15.844 -2.0365  0.2760  2.4383
  874MPD2    H112825   4.716   4.435  15.626  2.5051  0.0630  1.2229
  874MPD2    H212826   4.466   4.103  15.647 -1.0551  1.2205  2.2857
  874MPD2    H312827   4.511   4.316  15.569 -0.2564  0.5622 -0.6062
  874MPD2     N12828   0.188   4.334  15.780  0.3917 -0.4992 -0.3546
  874MPD2    H512829   0.239   4.290  15.855  0.5894 -0.4525 -0.4595
  874MPD2    N112830   4.625   3.946  15.810  0.1968  0.0114 -0.2554
  874MPD2    H712831   4.532   3.913  15.786  1.1007 -1.7498 -1.3800
  875MPD2     C12832   1.278   2.403  14.405  0.5171  0.4522 -0.1841
  875MPD2    C112833   1.174   2.482  14.451  0.0405  0.6419  0.5434
  875MPD2    C212834   1.183   2.552  14.573  0.6048 -0.8180  0.1702
  875MPD2    C312835   1.307   2.560  14.636 -0.5267 -0.3844 -0.4260
  875MPD2    C412836   1.406   2.477  14.590 -0.1523 -0.5304  0.4481
  875MPD2    C512837   1.395   2.411  14.469  0.4919 -0.2179 -0.0267
  875MPD2     H12838   1.110   2.631  14.590  1.1176  0.0412 -1.5889
  875MPD2    H112839   1.509   2.486  14.625  0.6106  0.8409 -2.1344
  875MPD2    H212840   1.276   2.338  14.318 -2.0761  0.5915 -0.2193
  875MPD2    H312841   1.479   2.350  14.437  1.5886  0.1408  2.1478
  875MPD2     N12842   1.340   2.637  14.755 -0.6534 -0.0603 -0.6216
  875MPD2    H512843   1.437   2.626  14.781  0.0579  0.6921 -2.9069
  875MPD2    N112844   1.041   2.479  14.393  0.5183  0.2934  0.0040
  875MPD2    H712845   0.969   2.530  14.443  0.3064 -0.0014 -0.0007
  876MPD2     C12846   4.507   3.710  15.507 -0.3400  0.4128 -0.1329
  876MPD2    C112847   4.640   3.704  15.541  0.0727  0.1473  0.7820
  876MPD2    C212848   4.682   3.603  15.626 -0.0436  0.1640  0.7220
  876MPD2    C312849   4.598   3.500  15.662  0.4861  0.1112  0.2258
  876MPD2    C412850   4.461   3.514  15.639 -0.0822  0.5628 -0.0153
  876MPD2    C512851   4.426   3.621  15.566 -0.2647 -0.4559  0.8677
  876MPD2     H12852   0.063   3.599  15.643  0.0373 -1.7079 -0.1840
  876MPD2    H112853   4.385   3.441  15.664 -0.4827  1.2672  0.8053
  876MPD2    H212854   4.472   3.787  15.439 -1.4198 -0.0474 -0.0867
  876MPD2    H312855   4.323   3.621  15.532  0.0147 -0.5437  0.0078
  876MPD2     N12856   4.653   3.384  15.726  0.5206 -0.5360  0.1479
  876MPD2    H512857   0.026   3.365  15.725  0.6569  0.0927  1.3951
  876MPD2    N112858   0.002   3.811  15.500  0.3209 -0.6274 -0.1043
  876MPD2    H712859   4.686   3.871  15.431  0.4693 -1.8116 -1.2274
  877MPD2     C12860   4.674   4.174  15.000 -0.4183  0.4044 -0.5971
  877MPD2    C112861   0.067   4.240  15.024  1.3459 -0.0593  0.4771
  877MPD2    C212862   0.148   4.276  14.918 -0.8555  0.5056  0.1257
  877MPD2    C312863   0.114   4.251  14.784 -0.8700  0.6068 -0.4302
  877MPD2    C412864   4.711   4.194  14.761  0.3779  0.1908 -0.1703
  877MPD2    C512865   4.633   4.161  14.867 -0.5029  0.5460 -0.5589
  877MPD2     H12866   0.247   4.313  14.940 -0.8594  1.0883 -0.8182
  877MPD2    H112867   4.677   4.164  14.662  0.3319  1.4619 -0.5444
  877MPD2    H212868   4.608   4.138  15.077  0.5377  0.6436  0.3416
  877MPD2    H312869   4.544   4.103  14.843 -0.1679 -0.7271  1.3293
  877MPD2     N12870   0.205   4.266  14.674 -0.2077  0.4877  0.0901
  877MPD2    H512871   0.182   4.236  14.580  1.1374 -2.4807  0.7258
  877MPD2    N112872   0.115   4.255  15.154  0.0442  0.3628  0.3865
  877MPD2    H712873   0.215   4.273  15.159 -0.3857  2.7680  0.4702
  878MPD2     C12874   4.411   2.928  12.862  0.1350 -0.4783 -0.3948
  878MPD2    C112875   4.446   3.052  12.833 -0.2849  0.1966  0.3327
  878MPD2    C212876   4.417   3.152  12.928  0.4590 -0.7675 -0.5341
  878MPD2    C312877   4.355   3.127  13.048 -0.0371  0.2352 -0.2069
  878MPD2    C412878   4.316   2.997  13.079  0.0192 -0.4130 -0.0909
  878MPD2    C512879   4.352   2.900  12.984  0.4771  0.6512 -0.4605
  878MPD2     H12880   4.457   3.250  12.905 -1.6189 -0.5884 -3.2613
  878MPD2    H112881   4.286   2.961  13.176 -1.4765 -0.1915 -0.4767
  878MPD2    H212882   4.433   2.843  12.798 -0.4501 -1.8140  1.1562
  878MPD2    H312883   4.320   2.799  13.005  0.6710  0.4873 -0.9566
  878MPD2     N12884   4.337   3.239  13.133  0.4013 -0.0424  0.2692
  878MPD2    H512885   4.371   3.331  13.108 -1.6003  1.0963  1.7080
  878MPD2    N112886   4.503   3.068  12.706  0.4689  0.0898  0.1582
  878MPD2    H712887   4.515   2.980  12.656 -2.4853 -0.1884 -0.0656
  879MPD2     C12888   0.181   0.437  16.482 -0.6020  0.7660  0.0457
  879MPD2    C112889   0.237   0.315  16.512 -0.2711 -0.6344 -0.9067
  879MPD2    C212890   0.211   0.211  16.423  0.8443  0.4262 -0.0727
  879MPD2    C312891   0.134   0.243  16.308  0.3176  0.3865 -0.0887
  879MPD2    C412892   0.075   0.362  16.290 -0.7668  0.1647  0.1444
  879MPD2    C512893   0.104   0.462  16.375 -0.0614  0.2108  0.1155
  879MPD2     H12894   0.256   0.113  16.435  0.7606  0.4590  0.5007
  879MPD2    H112895   0.011   0.378  16.203 -2.9767 -1.3068  1.5107
  879MPD2    H212896   0.203   0.516  16.553 -0.4215  0.6863  0.0778
  879MPD2    H312897   0.053   0.556  16.354 -1.4764 -0.3052  1.2544
  879MPD2     N12898   0.105   0.158  16.208  0.0819  0.0614 -0.0045
  879MPD2    H512899   0.049   0.180  16.126  0.8850  1.3275 -0.2088
  879MPD2    N112900   0.313   0.303  16.624 -0.1210 -0.1345  0.1001
  879MPD2    H712901   0.317   0.385  16.684  0.3584 -0.9719  1.2262
  880MPD2     C12902   1.150   1.953  17.601  0.6302  0.0099 -0.3406
  880MPD2    C112903   1.266   1.986  17.668 -0.0891 -0.6090  0.5845
  880MPD2    C212904   1.325   1.900   0.050  0.5658 -0.2606  0.1648
  880MPD2    C312905   1.273   1.769   0.066  0.4704  0.2379 -0.4458
  880MPD2    C412906   1.162   1.738  17.706 -0.6669 -0.0502 -0.4968
  880MPD2    C512907   1.100   1.833  17.626 -0.2094 -0.2583 -0.2587
  880MPD2     H12908   1.423   1.925   0.088  0.5209  0.4572 -0.2003
  880MPD2    H112909   1.111   1.643   0.011 -0.7402  0.1873  1.0519
  880MPD2    H212910   1.102   2.009  17.521  0.1131  0.8388  0.5542
  880MPD2    H312911   1.004   1.805  17.583 -0.4519 -1.2527  0.9129
  880MPD2     N12912   1.346   1.671   0.145  0.4194 -0.6218  0.5336
  880MPD2    H512913   1.429   1.706   0.192  2.1233 -1.4019 -1.9043
  880MPD2    N112914   1.321   2.113  17.629 -0.0872  0.3081 -0.5298
  880MPD2    H712915   1.271   2.159  17.553  2.4791  0.1547 -2.2823
  881MPD2     C12916   1.713   2.661  16.913  0.0474  0.4226  0.2819
  881MPD2    C112917   1.673   2.530  16.939 -0.4874  0.5178  0.3534
  881MPD2    C212918   1.631   2.497  17.066  0.1389  0.0698 -0.2984
  881MPD2    C312919   1.649   2.583  17.170 -0.2816 -0.1095  0.0634
  881MPD2    C412920   1.704   2.710  17.146 -0.0337 -0.1200 -0.2940
  881MPD2    C512921   1.733   2.744  17.015 -0.0869 -0.3464 -0.6672
  881MPD2     H12922   1.588   2.398  17.080 -1.4662  0.5362 -1.8844
  881MPD2    H112923   1.731   2.780  17.225 -4.4764  1.5968 -0.2724
  881MPD2    H212924   1.762   2.679  16.818  1.4561  0.7058  1.0780
  881MPD2    H312925   1.783   2.839  17.002 -1.0189 -0.0560 -2.0586
  881MPD2     N12926   1.603   2.554  17.300 -0.6214 -0.4816 -0.9260
  881MPD2    H512927   1.633   2.618  17.373 -3.3711 -1.0341  0.6709
  881MPD2    N112928   1.650   2.451  16.824 -0.2814 -0.4157 -0.7095
  881MPD2    H712929   1.674   2.494  16.735  2.0759  1.0477  0.6308
  882MPD2     C12930   0.286   3.954  14.026 -0.1612  0.5702 -0.2663
  882MPD2    C112931   0.229   4.069  14.075  0.0417  0.3261 -0.0455
  882MPD2    C212932   0.093   4.083  14.069  0.2284 -0.0551  0.8183
  882MPD2    C312933   0.014   3.994  13.990 -0.0773  0.9562 -0.5806
  882MPD2    C412934   0.080   3.885  13.930  0.2882 -0.7387 -0.5949
  882MPD2    C512935   0.211   3.863  13.951  0.3559 -0.2209 -0.3823
  882MPD2     H12936   0.043   4.176  14.092 -1.1164 -1.2356  2.7062
  882MPD2    H112937   0.021   3.807  13.884  1.1458 -1.2799 -0.7739
  882MPD2    H212938   0.393   3.942  14.044  0.0932  2.8022 -0.2934
  882MPD2    H312939   0.251   3.772  13.908 -0.0664  0.0409 -1.3277
  882MPD2     N12940   4.599   3.996  13.972 -0.1815  0.0810 -0.7512
  882MPD2    H512941   4.552   3.928  13.912  0.7577 -0.9875 -0.2584
  882MPD2    N112942   0.310   4.155  14.147  0.3775  0.5839 -0.0916
  882MPD2    H712943   0.407   4.133  14.170  0.3716  0.6261 -0.0242
  883MPD2     C12944   1.962   3.945  15.642  0.3305 -0.2052  0.4756
  883MPD2    C112945   2.020   4.075  15.659  0.2829 -0.4655  0.3887
  883MPD2    C212946   2.094   4.101  15.776 -0.3730  0.0157  0.3531
  883MPD2    C312947   2.118   3.998  15.868 -0.3906  0.4023  0.2914
  883MPD2    C412948   2.050   3.880  15.855 -0.2427  0.5616 -0.5405
  883MPD2    C512949   1.973   3.853  15.748  0.2820  0.1543 -0.2928
  883MPD2     H12950   2.127   4.202  15.799 -1.2686  0.3468  0.1973
  883MPD2    H112951   2.052   3.798  15.926 -0.5687  0.4356 -0.6798
  883MPD2    H212952   1.903   3.914  15.557 -0.3900 -2.4573  1.8122
  883MPD2    H312953   1.919   3.760  15.740 -1.1634  0.9046  0.7846
  883MPD2     N12954   2.195   4.035  15.982 -0.3700 -0.5617 -0.5989
  883MPD2    H512955   2.251   4.120  15.980  0.0993 -0.8691 -0.4202
  883MPD2    N112956   1.997   4.180  15.568 -0.2841  0.6255  0.7794
  883MPD2    H712957   2.052   4.264  15.585  2.6317 -1.2056  0.5437
  884MPD2     C12958   3.612   4.457  14.923  0.0889  0.0477 -0.6393
  884MPD2    C112959   3.589   4.557  14.841  0.1049 -0.1522 -0.0124
  884MPD2    C212960   3.467   4.622  14.836 -0.5194  0.1999  0.0112
  884MPD2    C312961   3.357   4.580  14.916 -0.1636  0.3070 -0.2996
  884MPD2    C412962   3.378   4.470  15.001 -0.0366  0.8737  0.4067
  884MPD2    C512963   3.506   4.417  15.005  0.3784  0.0576  0.3941
  884MPD2     H12964   3.457   4.692  14.754 -1.0193  0.9930  0.7492
  884MPD2    H112965   3.307   4.428  15.071  1.6132 -0.6223  1.1370
  884MPD2    H212966   3.710   4.410  14.924  1.1960  2.4006  2.3173
  884MPD2    H312967   3.535   4.337  15.073  0.2185  0.4724  0.9527
  884MPD2     N12968   3.231   4.644  14.899 -0.0530  0.7895  0.2618
  884MPD2    H512969   3.225   4.715  14.826  1.5057 -1.0449 -1.6566
  884MPD2    N112970   3.686   4.609  14.755 -0.2341  0.2107  0.2403
  884MPD2    H712971   3.654   4.674  14.684 -3.7156 -0.5185  1.1661
  885MPD2     C12972   2.044   0.610   0.120 -0.4542  0.3435 -0.7379
  885MPD2    C112973   2.063   0.484   0.076  0.6132  0.2613 -0.5408
  885MPD2    C212974   2.011   0.454  17.658 -0.2302 -0.3020  0.2315
  885MPD2    C312975   1.931   0.545  17.587 -0.1850  0.9864  0.1443
  885MPD2    C412976   1.901   0.667  17.645 -0.0334  0.1385 -0.7351
  885MPD2    C512977   1.963   0.701   0.053  0.0608 -0.3778  0.5199
  885MPD2     H12978   2.042   0.365  17.604 -2.0516 -0.4756 -0.5024
  885MPD2    H112979   1.828   0.733  17.599 -0.7336  0.4858  0.8851
  885MPD2    H212980   2.099   0.642   0.207 -0.4644  1.7731 -1.2464
  885MPD2    H312981   1.942   0.800   0.091  0.3293 -0.1380  0.0370
  885MPD2     N12982   1.888   0.510  17.458  0.3324 -0.6916 -0.9232
  885MPD2    H512983   1.904   0.415  17.426  0.7945 -0.4950 -1.2741
  885MPD2    N112984   2.152   0.401   0.148  0.4663  0.0835  0.5081
  885MPD2    H712985   2.196   0.447   0.227  2.6059  1.3689 -1.4363
  886MPD2     C12986   3.272   3.276  14.596 -0.0970 -0.4897 -0.1771
  886MPD2    C112987   3.366   3.304  14.697  1.1640 -0.0584  0.0214
  886MPD2    C212988   3.440   3.424  14.697  0.3544 -0.0409 -0.6006
  886MPD2    C312989   3.420   3.514  14.591 -0.6653  0.3552  0.4748
  886MPD2    C412990   3.324   3.493  14.500  0.1535  0.6032 -0.0860
  886MPD2    C512991   3.255   3.374  14.500  0.2004  0.2310  0.1232
  886MPD2     H12992   3.509   3.446  14.778  0.8288 -1.7556 -0.5497
  886MPD2    H112993   3.298   3.561  14.420 -1.9924 -0.9754 -0.7117
  886MPD2    H212994   3.227   3.177  14.594  0.6877 -0.8380 -0.8981
  886MPD2    H312995   3.196   3.357  14.411 -1.5617  3.2252  0.7355
  886MPD2     N12996   3.486   3.637  14.578  0.4669  1.0588  0.2515
  886MPD2    H512997   3.466   3.686  14.491  0.9862 -0.8568 -0.9509
  886MPD2    N112998   3.411   3.208  14.789 -0.0309  0.3270  0.2893
  886MPD2    H712999   3.483   3.242  14.852 -0.0306  1.2338 -0.1896
  887MPD2     C13000   3.979   3.262  15.011 -0.0435  0.1530  0.5057
  887MPD2    C113001   3.845   3.294  14.986 -0.4209 -0.2610 -0.3247
  887MPD2    C213002   3.811   3.430  14.966 -0.2694 -0.4501 -0.2999
  887MPD2    C313003   3.913   3.528  14.964  0.0773  0.4574 -0.2689
  887MPD2    C413004   4.041   3.488  14.986  0.0285 -0.0775  0.3600
  887MPD2    C513005   4.073   3.360  14.995 -0.9671  0.0763 -0.6811
  887MPD2     H13006   3.710   3.457  14.936 -0.6867 -0.8447  0.7410
  887MPD2    H113007   4.120   3.561  14.983  1.5487 -1.7880 -1.0075
  887MPD2    H213008   4.021   3.163  15.022  2.3855  1.5704  4.0170
  887MPD2    H313009   4.178   3.330  14.997 -1.1665 -0.6361 -0.6546
  887MPD2     N13010   3.871   3.661  14.943 -0.3217 -0.3179  1.0166
  887MPD2    H513011   3.777   3.676  14.910  0.0540 -1.7054 -0.7042
  887MPD2    N113012   3.746   3.198  15.005  0.6117 -0.5849 -0.4652
  887MPD2    H713013   3.658   3.240  14.978  1.8467  1.5955 -1.0367
  888MPD2     C13014   1.362   3.594  14.660  0.0924  0.2648  0.8435
  888MPD2    C113015   1.331   3.678  14.764 -0.6565 -0.6378 -0.1931
  888MPD2    C213016   1.384   3.807  14.775  0.2143 -0.4468  0.6090
  888MPD2    C313017   1.456   3.861  14.664 -0.0517 -0.7013 -0.1695
  888MPD2    C413018   1.485   3.765  14.561  0.4334 -0.0515  0.0407
  888MPD2    C513019   1.436   3.645  14.556 -0.4260 -0.3014  0.5216
  888MPD2     H13020   1.341   3.884  14.839 -0.3874  0.7811 -1.2581
  888MPD2    H113021   1.548   3.797  14.479 -0.0772 -0.8701 -0.6795
  888MPD2    H213022   1.307   3.502  14.643 -1.7771  1.3014  1.3147
  888MPD2    H313023   1.456   3.591  14.464 -2.2757 -1.3226  0.7235
  888MPD2     N13024   1.523   3.992  14.667  0.0096  0.0901 -0.3788
  888MPD2    H513025   1.520   4.038  14.757  0.9037  0.0329 -0.3204
  888MPD2    N113026   1.253   3.620  14.866  0.2341  0.5198  0.8043
  888MPD2    H713027   1.214   3.682  14.936  0.8905  1.3853  0.4044
  889MPD2     C13028   0.077   2.784  12.518 -0.5870 -0.5269 -0.3213
  889MPD2    C113029   0.156   2.803  12.628 -0.2718  0.1257  0.2835
  889MPD2    C213030   0.169   2.935  12.676 -0.3239 -0.1997  0.2471
  889MPD2    C313031   0.115   3.044  12.603 -0.7945  0.4040  0.5073
  889MPD2    C413032   0.050   3.020  12.486 -0.6748  0.1764 -0.4639
  889MPD2    C513033   0.033   2.890  12.445 -0.1056 -0.8172 -0.0204
  889MPD2     H13034   0.205   2.948  12.777  1.6635  0.3734 -0.5322
  889MPD2    H113035   0.004   3.091  12.418 -1.5764 -0.4684 -0.5245
  889MPD2    H213036   0.078   2.684  12.475 -0.2606 -1.2097  1.2655
  889MPD2    H313037   4.717   2.876  12.347  0.8631  1.0727 -0.7099
  889MPD2     N13038   0.130   3.172  12.662  0.5508 -0.0317  0.2050
  889MPD2    H513039   0.170   3.171  12.755 -1.0296  1.5239  0.9065
  889MPD2    N113040   0.188   2.688  12.709 -0.2208 -0.4531 -0.1835
  889MPD2    H713041   0.165   2.595  12.675  2.9012 -1.0956 -0.5281
  890MPD2     C13042   0.058   0.056  14.196  0.6598 -0.0893  0.1123
  890MPD2    C113043   0.129   0.137  14.284  0.1989 -0.2100 -0.1653
  890MPD2    C213044   0.144   0.092  14.417  0.1573 -0.1052 -0.4700
  890MPD2    C313045   0.092   4.699  14.461  0.0419  0.7067 -0.0268
  890MPD2    C413046   0.024   4.622  14.368  0.4857  0.1466  0.4766
  890MPD2    C513047   0.014   4.663  14.239 -0.2248  0.2004  0.5936
  890MPD2     H13048   0.179   0.158  14.496 -0.0382 -0.1205 -0.3721
  890MPD2    H113049   4.715   4.525  14.399 -0.9019  1.1629  2.0663
  890MPD2    H213050   0.058   0.089  14.093 -3.5486 -1.1197 -0.2379
  890MPD2    H313051   4.692   4.599  14.167  1.8028 -0.9617  0.2649
  890MPD2     N13052   0.083   4.681  14.604 -0.2963  0.1405  0.3881
  890MPD2    H513053   0.138   0.009  14.670  2.1048 -1.0930 -0.5967
  890MPD2    N113054   0.175   0.258  14.236 -0.4051 -0.0048 -0.6560
  890MPD2    H713055   0.158   0.281  14.139 -0.7852  0.0330 -0.5812
  891MPD2     C13056   3.183   3.426  16.407 -0.4473 -0.2189 -0.2797
  891MPD2    C113057   3.078   3.360  16.470  1.1812 -1.0435 -0.6937
  891MPD2    C213058   3.107   3.273  16.577  0.4349 -0.6827 -0.9587
  891MPD2    C313059   3.240   3.260  16.617  0.0089 -0.6698  0.0329
  891MPD2    C413060   3.341   3.335  16.566  0.0686  0.1340  0.4795
  891MPD2    C513061   3.312   3.408  16.454 -0.3719  0.0283 -0.3118
  891MPD2     H13062   3.032   3.216  16.631  1.6909 -0.7748  0.6934
  891MPD2    H113063   3.443   3.324  16.600  0.5822  1.1977 -0.7360
  891MPD2    H213064   3.162   3.487  16.320  1.0860  2.4536  1.2467
  891MPD2    H313065   3.400   3.452  16.409 -1.7281  2.3429 -0.6953
  891MPD2     N13066   3.261   3.166  16.723  0.0581  0.0576  0.1322
  891MPD2    H513067   3.180   3.121  16.763  0.3802 -0.0344  0.6895
  891MPD2    N113068   2.953   3.376  16.411  0.9627  0.5498 -0.0837
  891MPD2    H713069   2.943   3.437  16.330 -0.2392  2.9050  1.8216
  892MPD2     C13070   3.882   4.237  14.653 -0.3525  0.8656 -0.2499
  892MPD2    C113071   3.818   4.256  14.532 -0.4943 -0.1277 -0.2892
  892MPD2    C213072   3.893   4.244  14.420 -0.6335 -0.6737 -0.2813
  892MPD2    C313073   4.026   4.199  14.430 -0.5276 -0.2491 -0.3915
  892MPD2    C413074   4.088   4.190  14.551  0.5757 -0.0100  0.1772
  892MPD2    C513075   4.014   4.214  14.665 -0.4885  0.0944 -0.3396
  892MPD2     H13076   3.838   4.259  14.328  1.5316 -0.5342 -1.5709
  892MPD2    H113077   4.190   4.155  14.563  0.8645 -0.3825 -3.2621
  892MPD2    H213078   3.837   4.245  14.751  0.0669  1.3040 -0.0949
  892MPD2    H313079   4.064   4.205  14.761 -1.4661 -2.6171 -0.1051
  892MPD2     N13080   4.104   4.172  14.320  0.0926 -0.0772 -0.6298
  892MPD2    H513081   4.204   4.169  14.341  0.1159 -0.2394 -0.7637
  892MPD2    N113082   3.679   4.284  14.519 -0.5604 -0.2056 -0.1129
  892MPD2    H713083   3.646   4.299  14.424 -0.5165  1.6420  0.1713
  893MPD2     C13084   0.325   3.673   0.659 -0.1530  0.0284  0.0948
  893MPD2    C113085   0.333   3.536   0.680  0.3509 -0.3186  0.1340
  893MPD2    C213086   0.222   3.457   0.697  0.0962  0.7149  0.3019
  893MPD2    C313087   0.096   3.513   0.696 -0.2576 -0.6179  0.1844
  893MPD2    C413088   0.089   3.651   0.668 -0.1292 -0.6167  0.1255
  893MPD2    C513089   0.206   3.725   0.646 -0.5788 -0.2489  0.0552
  893MPD2     H13090   0.239   3.350   0.701  0.2178  0.6820 -1.4675
  893MPD2    H113091   4.717   3.693   0.677 -0.5328 -1.7302  0.8809
  893MPD2    H213092   0.418   3.724   0.638 -0.4578  0.9478  1.0175
  893MPD2    H313093   0.199   3.830   0.621  1.5724 -0.1633 -0.1762
  893MPD2     N13094   4.704   3.449   0.740 -0.0956 -0.5255  0.7412
  893MPD2    H513095   4.627   3.513   0.758 -0.6978 -1.3047  0.9545
  893MPD2    N113096   0.467   3.493   0.677 -0.7075  0.7619  0.6570
  893MPD2    H713097   0.539   3.556   0.645 -0.3153  0.3757  0.7823
  894MPD2     C13098   3.360   0.592   0.667  0.3209 -0.1760  0.1878
  894MPD2    C113099   3.340   0.667   0.783  0.1644 -0.1873  0.3495
  894MPD2    C213100   3.365   0.800   0.787 -0.3298 -0.8307  0.3381
  894MPD2    C313101   3.411   0.867   0.675 -0.7448  0.6219  0.4630
  894MPD2    C413102   3.438   0.792   0.569 -0.0483  0.6479  0.1913
  894MPD2    C513103   3.403   0.657   0.563  0.4128  0.0287 -0.1909
  894MPD2     H13104   3.331   0.859   0.872 -0.4723 -1.1994  0.5389
  894MPD2    H113105   3.476   0.837   0.477 -0.3464 -1.5711 -1.0095
  894MPD2    H213106   3.324   0.490   0.662  0.2975 -0.1877  0.6138
  894MPD2    H313107   3.437   0.604   0.475  1.4748 -1.1436  0.9200
  894MPD2     N13108   3.437   1.004   0.688  0.2304  0.1886  0.4450
  894MPD2    H513109   3.410   1.045   0.778  1.3727  1.3647  0.2497
  894MPD2    N113110   3.289   0.608   0.901  0.3723 -0.2112 -0.7877
  894MPD2    H713111   3.284   0.676   0.976 -1.4994 -0.8506 -0.3433
  895MPD2     C13112   2.865   3.256  13.123  0.2017 -0.0065 -0.5111
  895MPD2    C113113   2.812   3.193  13.007  0.4046 -0.0063 -0.2339
  895MPD2    C213114   2.860   3.065  12.970  0.7941  0.1208  0.0316
  895MPD2    C313115   2.945   2.995  13.055  0.1198 -0.1656  1.0260
  895MPD2    C413116   2.982   3.063  13.173 -0.0838 -0.3335 -0.4724
  895MPD2    C513117   2.952   3.189  13.202  0.3866 -0.0994 -0.1171
  895MPD2     H13118   2.814   3.016  12.885  1.6411  1.8344 -1.4316
  895MPD2    H113119   3.049   3.014  13.243  0.3393 -1.4320 -1.6445
  895MPD2    H213120   2.828   3.350  13.162  0.2745 -1.1376  2.3082
  895MPD2    H313121   2.989   3.230  13.296  2.4427 -1.7566 -0.1878
  895MPD2     N13122   2.976   2.857  13.038 -0.4302 -0.2654  0.4345
  895MPD2    H513123   3.001   2.799  13.118  0.4882 -0.2243  0.1821
  895MPD2    N113124   2.691   3.237  12.947 -0.1050  0.5000  0.6733
  895MPD2    H713125   2.646   3.167  12.889 -0.7910  1.3097  0.2249
  896MPD2     C13126   4.504   2.110   1.725 -0.3634 -0.2240  0.0034
  896MPD2    C113127   4.530   2.016   1.628 -1.0878  0.1728 -0.0684
  896MPD2    C213128   4.445   1.908   1.612 -0.6425 -0.1304  0.8968
  896MPD2    C313129   4.321   1.920   1.677  0.4402  0.2260 -0.6188
  896MPD2    C413130   4.297   2.015   1.775 -0.4821  0.0050 -0.9116
  896MPD2    C513131   4.393   2.112   1.806 -0.1219 -0.2827  0.4144
  896MPD2     H13132   4.460   1.836   1.533  0.7741  1.2689 -0.1135
  896MPD2    H113133   4.207   2.008   1.836  0.6054  0.4591  0.7375
  896MPD2    H213134   4.582   2.181   1.751  0.1322 -0.7503 -0.0561
  896MPD2    H313135   4.380   2.192   1.879  2.0514  1.3943 -1.0429
  896MPD2     N13136   4.223   1.824   1.637  0.3725  0.3007 -0.2930
  896MPD2    H513137   4.252   1.746   1.578 -0.1671 -0.7843  0.8772
  896MPD2    N113138   4.653   2.038   1.549 -0.2076  0.4242 -0.4901
  896MPD2    H713139   4.711   2.120   1.560  2.8148 -1.4425 -2.4457
  897MPD2     C13140   1.022   2.676   9.817  0.6604 -0.8910  0.4368
  897MPD2    C113141   0.963   2.808   9.847 -0.0634 -0.4003 -0.2182
  897MPD2    C213142   0.901   2.832   9.967  0.3332  0.4780 -0.4435
  897MPD2    C313143   0.877   2.728  10.058 -0.8503  0.0157 -0.0396
  897MPD2    C413144   0.943   2.611  10.027 -0.1269  0.0720 -0.4810
  897MPD2    C513145   1.010   2.580   9.913 -0.6711  0.2799 -0.5015
  897MPD2     H13146   0.849   2.926   9.981  0.2521  0.3181  0.3060
  897MPD2    H113147   0.923   2.530  10.096 -1.5874 -0.9899 -2.1375
  897MPD2    H213148   1.075   2.651   9.727  0.2830 -1.6358  0.4229
  897MPD2    H313149   1.050   2.483   9.887  1.9245  1.0851  0.5819
  897MPD2     N13150   0.808   2.745  10.180  0.2296 -0.1344  0.0255
  897MPD2    H513151   0.778   2.840  10.201 -0.6006 -0.3875 -0.0270
  897MPD2    N113152   0.976   2.906   9.745  0.1820 -0.5517  0.8832
  897MPD2    H713153   0.998   2.875   9.651  2.0732  1.6271  0.6061
  898MPD2     C13154   4.000   3.977  16.918  0.3625  0.1150 -0.7375
  898MPD2    C113155   4.003   4.050  17.035  0.7286  0.1188  0.4234
  898MPD2    C213156   3.890   4.094  17.090 -0.5097 -0.4619  0.0031
  898MPD2    C313157   3.769   4.078  17.026  0.1442 -0.2481  0.3496
  898MPD2    C413158   3.772   4.016  16.899  0.0268  0.4508  0.6007
  898MPD2    C513159   3.883   3.961  16.848 -0.5731  0.0116  0.0374
  898MPD2     H13160   3.892   4.138  17.189  2.0597  0.2232 -0.3594
  898MPD2    H113161   3.680   3.982  16.852  1.8345 -0.1471 -2.4831
  898MPD2    H213162   4.089   3.933  16.874 -0.3045  0.3958 -2.3637
  898MPD2    H313163   3.883   3.908  16.754 -0.6149  0.2883 -0.1201
  898MPD2     N13164   3.651   4.113  17.096 -0.2194 -0.2349 -0.0767
  898MPD2    H513165   3.667   4.148  17.190  1.4719 -3.4578  0.8332
  898MPD2    N113166   4.118   4.072  17.107  0.2251  0.6187  0.3528
  898MPD2    H713167   4.111   4.134  17.187 -0.3694  0.9241  0.0667
  899MPD2     C13168   3.943   4.483  17.053 -0.5857 -0.3726 -0.0443
  899MPD2    C113169   4.030   4.574  17.107  0.4789  0.0536  0.0931
  899MPD2    C213170   4.009   4.624  17.237  0.1458 -0.7529 -0.2052
  899MPD2    C313171   3.903   4.576  17.311  0.2371  0.4105 -0.1396
  899MPD2    C413172   3.821   4.480  17.252 -0.3157 -0.0731  0.2722
  899MPD2    C513173   3.838   4.436  17.120  0.2157 -0.2143 -0.1262
  899MPD2     H13174   4.083   4.687  17.286  2.4224 -2.1602 -1.8367
  899MPD2    H113175   3.738   4.443  17.311 -1.8565  0.9790 -1.2211
  899MPD2    H213176   3.968   4.448  16.954  0.0352 -0.7991  0.2616
  899MPD2    H313177   3.774   4.358  17.081  0.2352  0.1399 -0.8875
  899MPD2     N13178   3.858   4.628  17.436 -0.6130  0.7485 -0.0810
  899MPD2    H513179   3.768   4.598  17.474 -1.0074  1.7550 -0.2356
  899MPD2    N113180   4.144   4.609  17.030 -0.4483  0.0807 -0.4889
  899MPD2    H713181   4.147   4.573  16.935  0.9519  1.7449 -1.0647
  900MPD2     C13182   4.045   1.070  12.258 -0.7644 -0.3610 -0.4662
  900MPD2    C113183   3.989   0.971  12.168  0.9116  0.2349 -0.6612
  900MPD2    C213184   3.870   1.007  12.103 -0.0935  0.2721  0.1816
  900MPD2    C313185   3.806   1.122  12.133  0.1077 -0.1269  0.4615
  900MPD2    C413186   3.851   1.217  12.227 -1.1601  0.3103 -0.1291
  900MPD2    C513187   3.976   1.187  12.286 -0.7240  0.1473 -0.0805
  900MPD2     H13188   3.826   0.939  12.030  0.4073 -1.0718  1.1304
  900MPD2    H113189   3.801   1.312  12.240 -2.6960 -0.3910 -0.8790
  900MPD2    H213190   4.142   1.062  12.304 -1.4552  0.4243  1.1239
  900MPD2    H313191   4.030   1.257  12.349 -0.0350 -0.4247 -0.0373
  900MPD2     N13192   3.692   1.138  12.044  0.2051 -0.4553  0.0457
  900MPD2    H513193   3.669   1.049  12.001 -1.3602  0.3008 -0.6686
  900MPD2    N113194   4.058   0.848  12.130  0.6596 -0.0761  0.5202
  900MPD2    H713195   4.008   0.782  12.070 -0.6063  0.1667  1.2907
  901MPD2     C13196   3.835   4.689  11.798  0.2586 -0.2234 -0.0748
  901MPD2    C113197   3.934   4.653  11.881  0.2307  0.3686  0.0203
  901MPD2    C213198   3.990   0.021  11.952 -0.9740  0.0347  0.2195
  901MPD2    C313199   3.976   0.153  11.933  0.6585  0.2557  0.2346
  901MPD2    C413200   3.895   0.189  11.831 -0.8114  0.6938  0.1194
  901MPD2    C513201   3.827   0.094  11.763  0.2283 -0.3171  0.4262
  901MPD2     H13202   4.060   4.716  12.030 -1.8731  0.4636  1.1943
  901MPD2    H113203   3.892   0.291  11.795  1.1887  0.2529 -1.3256
  901MPD2    H213204   3.764   4.617  11.761  0.5095 -0.6143  0.1958
  901MPD2    H313205   3.767   0.125  11.678 -1.5649  3.8265  3.2173
  901MPD2     N13206   4.063   0.246  12.004  0.1284 -0.0876  0.6818
  901MPD2    H513207   4.134   0.217  12.070  0.5247  1.2273  0.8294
  901MPD2    N113208   3.963   4.517  11.885  0.0348  0.1169 -0.0942
  901MPD2    H713209   3.899   4.458  11.835 -0.9495  0.3416  0.8939
  902MPD2     C13210   3.023   3.708  12.878  0.3541 -0.8054 -0.5053
  902MPD2    C113211   2.976   3.702  12.748  0.5099 -0.1042 -0.2258
  902MPD2    C213212   2.958   3.578  12.683  0.4787  0.0504  0.5797
  902MPD2    C313213   3.003   3.465  12.743 -0.6538 -1.2567 -0.6275
  902MPD2    C413214   3.050   3.472  12.878  0.0816 -0.6955 -0.3997
  902MPD2    C513215   3.042   3.588  12.945  0.4989  0.0722 -0.7844
  902MPD2     H13216   2.911   3.568  12.585  1.3485 -0.6742  0.2370
  902MPD2    H113217   3.058   3.380  12.935 -0.3536 -0.8611 -0.6038
  902MPD2    H213218   3.027   3.798  12.937  1.6530 -1.5374  0.4963
  902MPD2    H313219   3.072   3.600  13.049  1.3395  2.4029 -1.3029
  902MPD2     N13220   2.995   3.341  12.677  0.3527 -0.6684 -0.4680
  902MPD2    H513221   2.946   3.346  12.588  0.9473  0.2318 -0.7527
  902MPD2    N113222   2.942   3.815  12.676  0.5014  0.1570  0.8435
  902MPD2    H713223   2.919   3.789  12.581  0.7801  1.0530  0.5356
  903MPD2     C13224   2.456   3.275  12.509 -0.9640 -0.1897  0.1102
  903MPD2    C113225   2.505   3.153  12.465 -0.5223  0.2840 -0.1744
  903MPD2    C213226   2.424   3.057  12.424  0.8054 -0.0220  0.6809
  903MPD2    C313227   2.289   3.080  12.402 -0.3853  0.1654  0.7503
  903MPD2    C413228   2.239   3.201  12.454  0.0463 -0.0553 -0.3266
  903MPD2    C513229   2.326   3.295  12.506 -0.0514 -0.9507  0.6321
  903MPD2     H13230   2.457   2.954  12.411 -0.9134 -0.2362 -1.9775
  903MPD2    H113231   2.134   3.224  12.448  0.6953  2.2835 -2.5972
  903MPD2    H213232   2.520   3.348  12.557 -2.1185 -0.1100  1.5317
  903MPD2    H313233   2.281   3.375  12.563 -0.6444 -1.6756  1.1935
  903MPD2     N13234   2.196   2.996  12.340  0.6652  0.3271  0.0878
  903MPD2    H513235   2.096   3.010  12.331  0.6446 -0.4889 -0.9542
  903MPD2    N113236   2.644   3.128  12.480  0.8945  0.6894 -0.3717
  903MPD2    H713237   2.700   3.210  12.501 -0.0982  0.9350  1.2959
  904MPD2     C13238   2.478   2.887  13.892 -0.2118 -0.1201  0.0598
  904MPD2    C113239   2.577   2.966  13.837  0.4521 -0.8238  0.5784
  904MPD2    C213240   2.712   2.931  13.845 -0.6358  0.4859  0.3596
  904MPD2    C313241   2.740   2.813  13.902 -0.1737  0.3689  0.1498
  904MPD2    C413242   2.641   2.730  13.941 -0.1038  0.3133 -0.3229
  904MPD2    C513243   2.512   2.765  13.938 -0.3265  0.1139  0.2023
  904MPD2     H13244   2.790   2.987  13.796 -1.0891 -0.8150 -1.8326
  904MPD2    H113245   2.664   2.634  13.986 -1.2437  1.2894  2.3643
  904MPD2    H213246   2.374   2.918  13.898 -0.4280 -0.6262 -0.9100
  904MPD2    H313247   2.430   2.710  13.983 -0.8226 -0.0054 -0.8348
  904MPD2     N13248   2.875   2.774  13.905  0.4423 -0.4053  0.4122
  904MPD2    H513249   2.944   2.846  13.884  0.5477 -0.8270 -0.6499
  904MPD2    N113250   2.549   3.085  13.766 -0.4881 -0.1383  0.2647
  904MPD2    H713251   2.634   3.138  13.746  0.8847 -1.6106  2.2077
  905MPD2     C13252   2.208   2.800  13.309  0.4216 -0.3786  0.0358
  905MPD2    C113253   2.309   2.872  13.255  0.3675 -0.3934 -0.2612
  905MPD2    C213254   2.399   2.812  13.170  0.7329  0.1502  0.2732
  905MPD2    C313255   2.397   2.683  13.141  0.0817  0.1733  0.9316
  905MPD2    C413256   2.300   2.608  13.205 -0.5825 -0.1061  0.0260
  905MPD2    C513257   2.210   2.667  13.285 -0.2400 -0.4101 -0.7917
  905MPD2     H13258   2.480   2.873  13.131  0.6830 -0.2384 -0.4404
  905MPD2    H113259   2.298   2.502  13.184  3.3719 -0.0061 -0.7938
  905MPD2    H213260   2.128   2.843  13.369 -0.4058 -0.0202 -1.3302
  905MPD2    H313261   2.138   2.598  13.327 -0.0843 -0.6748 -0.9614
  905MPD2     N13262   2.480   2.614  13.055  0.4257  0.7975  0.6423
  905MPD2    H513263   2.470   2.513  13.052 -1.2331  1.0258 -1.8855
  905MPD2    N113264   2.314   2.997  13.315  0.7284  0.6228  0.1676
  905MPD2    H713265   2.248   3.025  13.386 -2.0174 -0.5899 -1.9171
  906MPD2     C13266   4.708   2.606  11.045 -0.2471 -0.3881  0.4709
  906MPD2    C113267   4.675   2.526  10.940  0.1313  0.2976  0.2542
  906MPD2    C213268   4.644   2.397  10.976 -0.3386 -0.3064 -0.0768
  906MPD2    C313269   4.646   2.354  11.106 -0.7044  0.3283  0.2524
  906MPD2    C413270   4.678   2.444  11.205 -0.4158 -0.0392 -0.5492
  906MPD2    C513271   4.703   2.572  11.174  0.3231  0.1504  0.6672
  906MPD2     H13272   4.614   2.329  10.897 -2.9534  0.7368  0.0291
  906MPD2    H113273   4.652   2.410  11.305  1.6335  0.5106  0.1552
  906MPD2    H213274   0.002   2.711  11.029  2.5839 -1.1971 -1.3345
  906MPD2    H313275   0.003   2.646  11.249  0.3748  0.8701 -0.0693
  906MPD2     N13276   4.597   2.222  11.150 -0.3771 -0.2406  0.1188
  906MPD2    H513277   4.566   2.217  11.246 -2.7697 -0.1392 -0.6497
  906MPD2    N113278   4.672   2.556  10.804  0.7188 -0.2877 -0.6380
  906MPD2    H713279   4.662   2.478  10.740 -0.4871  1.0768 -2.1168
  907MPD2     C13280   3.495   1.936  15.101 -0.0103  0.3932 -0.0251
  907MPD2    C113281   3.599   1.845  15.112  0.3487 -0.5199  0.6290
  907MPD2    C213282   3.664   1.836  15.234 -0.1056 -0.0144 -0.4655
  907MPD2    C313283   3.631   1.923  15.342  0.0867 -0.6020  0.3348
  907MPD2    C413284   3.534   2.016  15.320 -0.3649 -0.0688  0.7911
  907MPD2    C513285   3.466   2.023  15.201 -0.0586 -0.2630  0.0234
  907MPD2     H13286   3.735   1.754  15.244  0.7831  1.0275  1.7056
  907MPD2    H113287   3.517   2.087  15.400 -1.8458 -1.7565  1.9871
  907MPD2    H213288   3.421   1.936  15.022 -0.4279 -1.0518  0.3761
  907MPD2    H313289   3.385   2.095  15.193  0.0244 -0.3136 -1.2920
  907MPD2     N13290   3.699   1.906  15.463 -0.9386 -0.3021  0.4067
  907MPD2    H513291   3.773   1.836  15.465 -0.2045  0.4950  1.2196
  907MPD2    N113292   3.631   1.754  15.006  0.2093 -0.4504  0.4440
  907MPD2    H713293   3.708   1.692  15.026  1.2910  1.2885  1.7046
  908MPD2     C13294   0.826   2.751   8.947 -0.1755 -0.5929  0.1807
  908MPD2    C113295   0.906   2.700   9.047  0.0114  0.8212 -0.0465
  908MPD2    C213296   0.926   2.778   9.153  0.5423  0.2126  0.2806
  908MPD2    C313297   0.866   2.905   9.168 -0.1322 -0.0737 -0.2703
  908MPD2    C413298   0.793   2.960   9.060  0.1045  0.2139  0.0011
  908MPD2    C513299   0.764   2.870   8.960 -0.4529  0.8440  0.2898
  908MPD2     H13300   0.974   2.734   9.240 -2.5555 -1.3810  1.2025
  908MPD2    H113301   0.752   3.060   9.054  1.3478  0.7238  0.0588
  908MPD2    H213302   0.807   2.692   8.858 -0.7631 -1.8905  1.1635
  908MPD2    H313303   0.714   2.896   8.868 -0.4080  1.6356  0.4863
  908MPD2     N13304   0.892   2.984   9.283  0.5424 -0.3946 -0.3697
  908MPD2    H513305   0.950   2.940   9.353  0.3005  2.5774  1.6974
  908MPD2    N113306   0.960   2.571   9.050 -0.8888  0.4360  0.1218
  908MPD2    H713307   1.009   2.556   9.138 -1.3531  0.3803  0.3659
  909MPD2     C13308   2.139   0.569  11.648  0.0152  0.3186 -0.5843
  909MPD2    C113309   2.040   0.609  11.560  0.6665  0.4323  0.6258
  909MPD2    C213310   1.929   0.681  11.601 -0.3114 -0.0006 -0.4914
  909MPD2    C313311   1.903   0.698  11.732  0.2740 -0.4463  0.1419
  909MPD2    C413312   1.989   0.645  11.829  0.4100  0.2797  0.0239
  909MPD2    C513313   2.105   0.585  11.783  0.7155 -0.3495  0.2890
  909MPD2     H13314   1.884   0.741  11.522 -2.2181  0.9298  1.3138
  909MPD2    H113315   1.965   0.657  11.934 -0.5140 -1.0249 -0.0263
  909MPD2    H213316   2.226   0.509  11.625 -0.3808 -0.4087 -0.2037
  909MPD2    H313317   2.180   0.558  11.856  1.4690  0.2618 -0.2528
  909MPD2     N13318   1.789   0.780  11.748 -0.1537  0.2879 -0.6850
  909MPD2    H513319   1.757   0.824  11.662 -1.2392 -0.3137 -0.5763
  909MPD2    N113320   2.059   0.606  11.418  0.4072 -0.5938 -0.2905
  909MPD2    H713321   1.986   0.629  11.351 -0.2015  0.3499  0.7029
  910MPD2     C13322   3.361   2.374  15.213 -0.0291 -0.3885  0.1122
  910MPD2    C113323   3.497   2.392  15.231  0.8969 -0.1272 -0.0082
  910MPD2    C213324   3.574   2.435  15.127 -0.2207 -0.7901 -0.2853
  910MPD2    C313325   3.527   2.461  14.998  0.1203  0.0947  0.6955
  910MPD2    C413326   3.390   2.446  14.980 -0.4564 -0.4231  0.4777
  910MPD2    C513327   3.309   2.413  15.088 -0.3220 -0.2547 -0.3444
  910MPD2     H13328   3.680   2.450  15.146 -0.4638  0.6867 -0.0701
  910MPD2    H113329   3.346   2.473  14.884  0.0906  1.2112  0.6888
  910MPD2    H213330   3.289   2.339  15.286 -0.8096  1.0676  0.0436
  910MPD2    H313331   3.201   2.405  15.077 -0.3504  2.0935 -2.0109
  910MPD2     N13332   3.603   2.520  14.888 -0.6333 -0.2300  0.3903
  910MPD2    H513333   3.549   2.548  14.807 -1.9555  1.3467  1.7927
  910MPD2    N113334   3.543   2.370  15.366 -0.3933  0.1080 -0.4688
  910MPD2    H713335   3.471   2.327  15.424  0.2041 -0.1303  0.0961
  911MPD2     C13336   1.148   3.031  16.010 -0.4062  0.5718 -0.2598
  911MPD2    C113337   1.242   3.129  16.030  0.7205  0.0215 -0.2997
  911MPD2    C213338   1.210   3.262  15.992  0.1043  0.5820 -0.0294
  911MPD2    C313339   1.088   3.287  15.934 -0.2360  0.0423  0.6176
  911MPD2    C413340   0.992   3.191  15.923  0.0984  0.5868 -0.1224
  911MPD2    C513341   1.024   3.063  15.952  0.5610 -0.0627 -0.3060
  911MPD2     H13342   1.281   3.343  16.003  0.0248  0.7202 -0.5429
  911MPD2    H113343   0.891   3.206  15.884  0.0742  1.6278  0.3491
  911MPD2    H213344   1.158   2.926  16.037  0.8976  0.6075 -0.6169
  911MPD2    H313345   0.949   2.986  15.932 -0.4285  1.5238 -2.7223
  911MPD2     N13346   1.052   3.411  15.870  0.1604 -0.1467  0.2428
  911MPD2    H513347   0.957   3.416  15.834  0.0390  0.1250  0.6038
  911MPD2    N113348   1.374   3.097  16.066 -0.0650 -0.1746 -0.0907
  911MPD2    H713349   1.405   3.002  16.083 -0.4546 -0.2010  0.4776
  912MPD2     C13350   0.902   3.079  15.535  0.0076 -0.8627  0.2293
  912MPD2    C113351   0.815   3.178  15.587  0.5301 -0.2830 -0.8246
  912MPD2    C213352   0.717   3.144  15.680 -0.2914  0.5669 -0.2899
  912MPD2    C313353   0.721   3.013  15.723 -0.6891 -0.1035 -0.5934
  912MPD2    C413354   0.819   2.920  15.684 -0.1110 -0.8077 -0.6239
  912MPD2    C513355   0.907   2.959  15.589 -0.1231 -0.1744 -0.2125
  912MPD2     H13356   0.641   3.215  15.711 -0.9773 -0.0480 -0.6055
  912MPD2    H113357   0.813   2.816  15.712  2.3637 -0.3579  1.6230
  912MPD2    H213358   0.974   3.092  15.456  1.8004  0.5517  2.1098
  912MPD2    H313359   0.973   2.884  15.546 -1.7873 -0.3287 -2.5114
  912MPD2     N13360   0.627   2.983  15.821 -0.0970 -0.5174  0.2753
  912MPD2    H513361   0.580   3.070  15.846  2.3731  1.2230 -1.0779
  912MPD2    N113362   0.845   3.319  15.550 -0.9109 -0.1858  0.1742
  912MPD2    H713363   0.934   3.335  15.505 -0.4985 -0.1049  1.0125
  913MPD2     C13364   1.292   4.043   9.717  0.4577  0.5175  0.2457
  913MPD2    C113365   1.387   4.140   9.728 -0.2847 -0.7798  0.2330
  913MPD2    C213366   1.391   4.238   9.628  0.2919  0.2165  0.3351
  913MPD2    C313367   1.319   4.227   9.517 -0.8170  0.0116  0.2150
  913MPD2    C413368   1.208   4.137   9.513  0.8265 -0.2044  0.9547
  913MPD2    C513369   1.197   4.043   9.617  0.1657 -0.4443 -0.3160
  913MPD2     H13370   1.460   4.320   9.643  2.0363 -1.0343 -0.7666
  913MPD2    H113371   1.141   4.118   9.430 -1.3179  3.5958  1.8213
  913MPD2    H213372   1.279   3.975   9.801 -0.9853  0.6630  0.1455
  913MPD2    H313373   1.118   3.970   9.612  1.5153 -1.8751 -0.7699
  913MPD2     N13374   1.327   4.317   9.404 -0.7102  0.4183  0.2363
  913MPD2    H513375   1.248   4.309   9.341 -0.7899 -1.9757  0.6508
  913MPD2    N113376   1.458   4.152   9.851  0.5182 -0.0656  0.0372
  913MPD2    H713377   1.443   4.073   9.913  0.5316 -0.8034 -0.8856
  914MPD2     C13378   3.648   3.903  11.387  0.0810  0.0422 -0.1680
  914MPD2    C113379   3.682   4.037  11.377 -0.0700 -0.6144 -1.0023
  914MPD2    C213380   3.728   4.096  11.494  0.3211 -0.2727 -0.5303
  914MPD2    C313381   3.749   4.024  11.612  0.5753 -0.0884  0.5153
  914MPD2    C413382   3.720   3.886  11.612  0.0881  0.9918 -0.3291
  914MPD2    C513383   3.668   3.831  11.494 -0.8826  0.8792  0.0198
  914MPD2     H13384   3.757   4.200  11.493 -1.4480  0.2251 -1.0152
  914MPD2    H113385   3.731   3.813  11.692  0.8024  2.8990  1.3057
  914MPD2    H213386   3.621   3.844  11.300 -1.4482 -0.7960  0.8865
  914MPD2    H313387   3.643   3.726  11.500  0.0187  0.5972 -1.0465
  914MPD2     N13388   3.818   4.091  11.717  0.0914  0.4265 -0.1444
  914MPD2    H513389   3.831   4.192  11.707  1.6690  0.1039 -1.4688
  914MPD2    N113390   3.679   4.105  11.254  0.3168  0.4459 -0.3386
  914MPD2    H713391   3.626   4.053  11.184  1.0240 -0.5618 -0.1178
  915MPD2     C13392   2.722   0.185  15.573 -0.0742  0.1754  0.3267
  915MPD2    C113393   2.606   0.224  15.513 -0.4359 -0.3258 -0.4086
  915MPD2    C213394   2.490   0.225  15.590 -0.4510 -0.2496  0.6064
  915MPD2    C313395   2.493   0.173  15.718  0.0478 -0.5609  0.4408
  915MPD2    C413396   2.616   0.129  15.773  0.2541 -0.2750 -0.3861
  915MPD2    C513397   2.731   0.138  15.700  0.1239  0.5630  0.3213
  915MPD2     H13398   2.398   0.272  15.559 -0.1285  0.0201  0.0505
  915MPD2    H113399   2.635   0.092  15.874 -1.5368 -1.9827 -0.6793
  915MPD2    H213400   2.817   0.199  15.522 -0.2882 -0.8809 -0.3631
  915MPD2    H313401   2.821   0.112  15.754 -0.2822 -0.7701  0.3437
  915MPD2     N13402   2.368   0.158  15.791  0.4140 -0.1783 -0.4461
  915MPD2    H513403   2.291   0.213  15.755 -1.2885 -2.0843  0.3113
  915MPD2    N113404   2.620   0.280  15.386  0.0139 -0.2406  0.2291
  915MPD2    H713405   2.710   0.280  15.339 -0.2418  0.4837 -0.2661
  916MPD2     C13406   0.433   3.207  15.472 -0.0944  0.4700 -0.0622
  916MPD2    C113407   0.395   3.094  15.537 -0.6882 -0.2730  1.1350
  916MPD2    C213408   0.452   2.973  15.496 -0.6711  0.3749  0.2994
  916MPD2    C313409   0.553   2.977  15.405 -0.6134  0.3946  0.4312
  916MPD2    C413410   0.591   3.085  15.340  0.2263  0.6509  0.2766
  916MPD2    C513411   0.529   3.201  15.372 -0.3445 -0.0970 -0.3295
  916MPD2     H13412   0.426   2.881  15.548  1.5754 -0.6926 -0.4749
  916MPD2    H113413   0.676   3.095  15.273 -0.1366 -1.4026 -0.5152
  916MPD2    H213414   0.402   3.310  15.490 -0.4747  0.2685  0.4270
  916MPD2    H313415   0.561   3.294  15.327  0.5107  0.6413  1.8106
  916MPD2     N13416   0.615   2.844  15.382  0.6741 -0.0318  0.5852
  916MPD2    H513417   0.585   2.766  15.440 -1.0700  1.8500  2.2272
  916MPD2    N113418   0.293   3.104  15.638  0.5162 -0.8622 -0.4723
  916MPD2    H713419   0.254   3.196  15.653 -2.2417 -2.1286  0.1708
  917MPD2     C13420   0.775   0.140  10.440 -0.4682 -0.2546  0.3366
  917MPD2    C113421   0.831   0.216  10.543 -0.9161 -0.7697  0.3447
  917MPD2    C213422   0.922   0.318  10.509  0.0106 -0.4001 -0.3253
  917MPD2    C313423   0.959   0.341  10.377 -0.2246  0.0079 -0.2785
  917MPD2    C413424   0.912   0.257  10.282 -0.7295 -0.8893  0.3667
  917MPD2    C513425   0.816   0.161  10.308  0.2126  0.8601  0.4511
  917MPD2     H13426   0.943   0.398  10.578  1.3780 -1.2902  0.2791
  917MPD2    H113427   0.923   0.282  10.177 -1.9660  1.1740  0.7205
  917MPD2    H213428   0.696   0.068  10.459 -0.5527 -0.3099 -0.2352
  917MPD2    H313429   0.770   0.112  10.222 -0.5573 -0.5591  1.6620
  917MPD2     N13430   1.043   0.444  10.343 -0.2599 -0.2320  0.2083
  917MPD2    H513431   1.055   0.472  10.246  0.4734  2.2070  1.0009
  917MPD2    N113432   0.799   0.175  10.675 -1.1359  0.5674  0.0668
  917MPD2    H713433   0.731   0.100  10.683  2.1126 -2.4458 -0.9486
  918MPD2     C13434   1.063   0.582  11.574  1.2412  0.3395 -0.0453
  918MPD2    C113435   1.166   0.494  11.533  0.5211 -0.4478  0.4576
  918MPD2    C213436   1.141   0.406  11.428  0.8690 -0.5215  0.1343
  918MPD2    C313437   1.015   0.401  11.365  0.4737  0.1151 -0.6730
  918MPD2    C413438   0.918   0.487  11.400 -0.1368  0.6466 -0.2755
  918MPD2    C513439   0.945   0.581  11.501  0.6224 -0.5334 -0.0328
  918MPD2     H13440   1.210   0.334  11.385  1.0970  0.4906 -1.1822
  918MPD2    H113441   0.821   0.490  11.351 -0.2024 -2.7742 -0.3620
  918MPD2    H213442   1.064   0.665  11.644  0.9807  1.0063 -0.8292
  918MPD2    H313443   0.862   0.643  11.531 -0.2304 -1.6212 -0.1313
  918MPD2     N13444   0.998   0.306  11.267 -0.1911  0.2533  0.2806
  918MPD2    H513445   1.076   0.269  11.214  0.5381 -1.8968  2.8774
  918MPD2    N113446   1.293   0.493  11.596 -0.3532  0.5263  0.3168
  918MPD2    H713447   1.360   0.427  11.558  0.4758  0.9144  1.0966
  919MPD2     C13448   1.396   4.060  10.974  0.2465  0.4003 -0.4967
  919MPD2    C113449   1.350   3.940  10.923  0.0886  0.9597  0.0606
  919MPD2    C213450   1.314   3.933  10.788 -0.0974  0.2942  0.4782
  919MPD2    C313451   1.336   4.039  10.704 -0.1288 -0.4859  0.0639
  919MPD2    C413452   1.372   4.157  10.761  0.3161  0.1213  0.1302
  919MPD2    C513453   1.412   4.165  10.891 -0.3170  0.1384 -0.3212
  919MPD2     H13454   1.286   3.837  10.746  0.2175 -0.4010  1.8615
  919MPD2    H113455   1.381   4.245  10.697 -0.9555  2.1052  2.6815
  919MPD2    H213456   1.436   4.063  11.075 -1.2654  0.8695  0.0888
  919MPD2    H313457   1.427   4.264  10.932 -0.2198 -0.2576  0.6004
  919MPD2     N13458   1.294   4.040  10.571 -0.1997  0.1788 -0.2246
  919MPD2    H513459   1.314   4.126  10.520 -1.1019 -1.0999 -2.7425
  919MPD2    N113460   1.331   3.831  11.008 -0.0215  0.2107  0.4043
  919MPD2    H713461   1.277   3.752  10.973  0.3411  0.5582 -0.9637
  920MPD2     C13462   1.092   4.538   9.715 -0.7127  0.0536  0.1920
  920MPD2    C113463   1.003   4.438   9.704 -0.5241 -0.1597  0.3682
  920MPD2    C213464   1.010   4.335   9.805 -0.5230  0.0181 -0.0263
  920MPD2    C313465   1.111   4.338   9.907 -0.3022  1.2287 -0.5200
  920MPD2    C413466   1.203   4.436   9.901  0.5474  0.3251  0.0625
  920MPD2    C513467   1.188   4.539   9.821  0.1802 -0.3146 -0.4874
  920MPD2     H13468   0.934   4.258   9.806  1.3350 -1.8168  0.7394
  920MPD2    H113469   1.290   4.434   9.966  1.1923 -0.5852 -0.8271
  920MPD2    H213470   1.097   4.623   9.647 -0.3134 -1.7752 -2.0698
  920MPD2    H313471   1.263   4.618   9.826  0.2453 -0.6188  2.7687
  920MPD2     N13472   1.109   4.234  10.007  0.1898 -0.3182  0.0210
  920MPD2    H513473   1.020   4.187  10.021 -0.4526 -0.3045 -3.7815
  920MPD2    N113474   0.894   4.431   9.612  0.4783 -0.1827 -0.8189
  920MPD2    H713475   0.846   4.342   9.620 -0.0937  0.1560 -0.5070
  921MPD2     C13476   2.195   3.324  16.696  0.3528 -0.4089 -0.1906
  921MPD2    C113477   2.206   3.312  16.556  0.3786 -0.0404  0.0696
  921MPD2    C213478   2.095   3.290  16.482  0.1862  0.6390 -0.3501
  921MPD2    C313479   1.971   3.280  16.541 -0.0502  0.5500 -0.6554
  921MPD2    C413480   1.952   3.314  16.674  0.5911 -0.3080  0.4311
  921MPD2    C513481   2.069   3.342  16.746  0.1119  0.0220 -0.3177
  921MPD2     H13482   2.097   3.278  16.374  2.0604 -1.0939 -0.1262
  921MPD2    H113483   1.855   3.330  16.720  0.0934 -0.2677 -0.6470
  921MPD2    H213484   2.283   3.344  16.755 -0.8801  1.0775  1.1759
  921MPD2    H313485   2.070   3.365  16.852 -0.4187  2.2701 -0.8004
  921MPD2     N13486   1.860   3.230  16.478 -0.4177 -0.3069  0.1362
  921MPD2    H513487   1.775   3.214  16.532  1.3941  0.2414  3.1197
  921MPD2    N113488   2.336   3.321  16.500 -0.5591 -0.4136  0.0758
  921MPD2    H713489   2.411   3.329  16.568 -0.3716  0.4912 -0.2402
  922MPD2     C13490   2.271   1.515  16.973  1.2884  0.4877  0.0278
  922MPD2    C113491   2.202   1.503  17.088 -0.2198  0.7965  0.3016
  922MPD2    C213492   2.198   1.378  17.146  0.8944  0.7794 -0.8180
  922MPD2    C313493   2.274   1.270  17.102 -0.0986  0.0474  0.4501
  922MPD2    C413494   2.340   1.286  16.984  0.0625 -0.3318  0.3308
  922MPD2    C513495   2.343   1.412  16.921  0.7310  0.0059 -0.3515
  922MPD2     H13496   2.140   1.367  17.237  0.5758  1.6688 -0.9151
  922MPD2    H113497   2.393   1.207  16.933 -0.8239 -0.9281  0.3250
  922MPD2    H213498   2.269   1.608  16.918 -0.7015  0.8155  0.6477
  922MPD2    H313499   2.404   1.426  16.832  1.1997 -1.4911 -0.2615
  922MPD2     N13500   2.274   1.144  17.174  0.2338  0.3424  0.0489
  922MPD2    H513501   2.235   1.152  17.267  1.6877  1.4878  0.5743
  922MPD2    N113502   2.123   1.616  17.130 -0.2771 -0.9156 -0.3640
  922MPD2    H713503   2.053   1.592  17.199  1.3530 -2.0988  0.8892
  923MPD2     C13504   3.784   2.397   8.715 -0.1247  0.0084  0.4571
  923MPD2    C113505   3.841   2.501   8.778 -0.0606 -0.0926  0.5042
  923MPD2    C213506   3.982   2.489   8.800 -0.3322 -0.6010 -0.2170
  923MPD2    C313507   4.059   2.376   8.771  0.1864  0.7946 -0.3622
  923MPD2    C413508   3.987   2.268   8.726  0.0274  0.5441 -0.0488
  923MPD2    C513509   3.856   2.284   8.697  1.0626 -0.0872 -0.1006
  923MPD2     H13510   4.030   2.573   8.848  0.0599 -0.8838 -0.1187
  923MPD2    H113511   4.040   2.176   8.703 -0.9117 -0.5013  1.9900
  923MPD2    H213512   3.679   2.390   8.688 -0.4857  0.6100  1.6664
  923MPD2    H313513   3.796   2.204   8.654  1.5840 -0.1311 -0.7581
  923MPD2     N13514   4.198   2.378   8.781  0.4768  0.3992 -0.0802
  923MPD2    H513515   4.244   2.296   8.742  1.3308  1.1797 -0.7068
  923MPD2    N113516   3.763   2.606   8.821  0.1690 -0.6947  0.8170
  923MPD2    H713517   3.668   2.612   8.786  0.0415 -0.2377  1.2431
  924MPD2     C13518   3.294   1.729  16.369 -0.0714 -0.2599 -0.3966
  924MPD2    C113519   3.429   1.713  16.367  0.1872 -0.3315  0.1803
  924MPD2    C213520   3.494   1.713  16.245  0.0255 -0.2935 -0.3750
  924MPD2    C313521   3.424   1.730  16.129  0.2553  0.3678 -0.3462
  924MPD2    C413522   3.289   1.756  16.132 -0.1168  0.4218 -0.2858
  924MPD2    C513523   3.222   1.754  16.253  0.7943 -0.5977 -0.1103
  924MPD2     H13524   3.602   1.703  16.245  0.1067  0.5082  1.0965
  924MPD2    H113525   3.240   1.778  16.038  1.0810 -0.2555 -1.0672
  924MPD2    H213526   3.243   1.737  16.464  0.5506 -1.1826  0.0221
  924MPD2    H313527   3.116   1.773  16.259  0.8779 -0.4012  0.7025
  924MPD2     N13528   3.487   1.740  16.003  0.3062 -0.0638  0.1509
  924MPD2    H513529   3.432   1.776  15.926  0.0804  0.5804  0.6170
  924MPD2    N113530   3.501   1.697  16.487 -0.3130  0.3508  0.6431
  924MPD2    H713531   3.442   1.698  16.570 -0.0891 -0.3491  0.8121
  925MPD2     C13532   3.179   3.835  14.422 -0.3056 -0.0959 -0.5909
  925MPD2    C113533   3.072   3.785  14.354 -0.3557 -0.5279  0.2264
  925MPD2    C213534   2.940   3.785  14.398 -0.5359 -0.2465  0.1396
  925MPD2    C313535   2.932   3.809  14.538 -0.0177 -0.4366 -0.6604
  925MPD2    C413536   3.040   3.854  14.606  0.2883 -0.3464 -0.2971
  925MPD2    C513537   3.157   3.882  14.545  0.4917 -0.7878  0.2709
  925MPD2     H13538   2.847   3.766  14.346 -1.1537 -1.1708  1.5957
  925MPD2    H113539   3.027   3.882  14.709 -0.0654 -0.1970 -0.3841
  925MPD2    H213540   3.280   3.843  14.384  0.1166  0.7424  0.7121
  925MPD2    H313541   3.239   3.936  14.592  1.2215 -1.5786 -0.1030
  925MPD2     N13542   2.822   3.779  14.613  0.0189  0.2719  0.7002
  925MPD2    H513543   2.840   3.759  14.711 -1.6163 -0.3075  0.8839
  925MPD2    N113544   3.078   3.755  14.216 -1.0721 -0.3579  0.1559
  925MPD2    H713545   2.988   3.744  14.170 -0.5092 -2.2265 -0.5254
  926MPD2     C13546   1.371   2.251  13.522  0.6668  0.9157 -0.1271
  926MPD2    C113547   1.287   2.306  13.428  0.1408  0.8941 -0.3874
  926MPD2    C213548   1.317   2.319  13.290 -0.2931  0.5018  0.1701
  926MPD2    C313549   1.442   2.280  13.246 -0.3357  0.1353 -0.1877
  926MPD2    C413550   1.522   2.219  13.333 -0.1659  0.3961  0.0830
  926MPD2    C513551   1.495   2.213  13.468 -0.4678 -0.4989  0.2219
  926MPD2     H13552   1.237   2.343  13.222  0.2169  1.2359 -0.1759
  926MPD2    H113553   1.617   2.183  13.297 -0.2112 -0.6330  0.9761
  926MPD2    H213554   1.353   2.248  13.629  0.6185  0.2694 -0.1501
  926MPD2    H313555   1.559   2.164  13.541  0.7340  1.9858  0.8286
  926MPD2     N13556   1.476   2.277  13.103  0.9169 -0.4304 -0.1484
  926MPD2    H513557   1.557   2.220  13.082  1.0076 -0.5927  0.6475
  926MPD2    N113558   1.162   2.354  13.467 -0.3384  0.1321 -0.2482
  926MPD2    H713559   1.106   2.403  13.398 -0.2507 -0.8552 -1.0210
  927MPD2     C13560   0.726   4.626   0.164  0.5411  0.9018 -0.2174
  927MPD2    C113561   0.849   4.676   0.193  0.2317  0.3490 -0.9733
  927MPD2    C213562   0.959   4.610   0.146 -0.8134 -0.3348 -0.6466
  927MPD2    C313563   0.949   4.488   0.089  0.1167  0.1272 -0.1245
  927MPD2    C413564   0.828   4.442   0.054 -0.8112 -0.2669  0.1408
  927MPD2    C513565   0.717   4.509   0.100 -0.1812  0.7009  0.0073
  927MPD2     H13566   1.059   4.646   0.167 -1.1612 -0.3164  1.0031
  927MPD2    H113567   0.824   4.338   0.024 -0.1161 -0.4505  0.6975
  927MPD2    H213568   0.637   4.678   0.198 -0.1450 -0.0507 -0.5778
  927MPD2    H313569   0.615   4.473   0.099 -0.2661  0.9546 -0.4833
  927MPD2     N13570   1.078   4.425   0.074 -0.0746  0.2101  0.3084
  927MPD2    H513571   1.159   4.470   0.114 -0.7087  0.5436  1.2091
  927MPD2    N113572   0.850   0.085   0.249 -0.6294  0.5674 -0.4528
  927MPD2    H713573   0.774   0.096   0.316 -0.1911  1.9796 -0.2063
  928MPD2     C13574   4.219   3.975   0.725 -0.2081 -0.3625 -0.1957
  928MPD2    C113575   4.313   3.873   0.712 -0.2248 -0.8004  0.0868
  928MPD2    C213576   4.369   3.840   0.591 -0.4445 -0.1554 -0.2590
  928MPD2    C313577   4.322   3.903   0.478  0.8134 -0.1614 -0.5803
  928MPD2    C413578   4.212   3.997   0.489  0.5527  0.2565  0.2776
  928MPD2    C513579   4.162   4.023   0.608 -0.5695  0.2717 -0.1595
  928MPD2     H13580   4.435   3.754   0.584  2.6737  2.2293 -0.0220
  928MPD2    H113581   4.169   4.033   0.396 -0.3116  0.0136  0.5816
  928MPD2    H213582   4.182   4.004   0.822 -0.3152 -1.4921  0.0931
  928MPD2    H313583   4.074   4.085   0.621 -1.1051 -0.9154  1.9305
  928MPD2     N13584   4.378   3.865   0.348  0.0724  0.4241 -0.0069
  928MPD2    H513585   4.330   3.902   0.266  2.3388 -0.5271 -1.7868
  928MPD2    N113586   4.348   3.808   0.834 -0.1817 -0.4774 -0.5837
  928MPD2    H713587   4.291   3.838   0.913 -0.6789 -2.1838 -0.2894
  929MPD2     C13588   4.367   2.498  10.046 -0.3459 -0.3507 -0.9812
  929MPD2    C113589   4.258   2.419  10.080  0.1321  0.4738 -0.1101
  929MPD2    C213590   4.130   2.437  10.025  0.0144 -0.1784 -0.1476
  929MPD2    C313591   4.106   2.548   9.942  1.1448 -0.4275 -0.4053
  929MPD2    C413592   4.215   2.621   9.902  0.2454 -0.7555  0.0699
  929MPD2    C513593   4.341   2.601   9.961  0.2621 -0.1186 -0.5208
  929MPD2     H13594   4.048   2.377  10.064 -1.8496  2.1276 -0.4878
  929MPD2    H113595   4.198   2.706   9.837  0.1498 -0.4206  0.5340
  929MPD2    H213596   4.460   2.499  10.102  0.3169  1.8205 -2.1261
  929MPD2    H313597   4.415   2.673   9.928  0.7200 -0.6323 -0.6115
  929MPD2     N13598   3.986   2.583   9.890 -0.2881  1.1313  0.1292
  929MPD2    H513599   3.983   2.674   9.845 -0.2923  0.6415 -0.8580
  929MPD2    N113600   4.278   2.325  10.184 -0.0563  0.2573  0.1569
  929MPD2    H713601   4.373   2.327  10.222  0.3176 -1.3248 -0.6945
  930MPD2     C13602   1.230   0.533  13.863 -0.3259  0.0254  0.3673
  930MPD2    C113603   1.354   0.546  13.801 -0.2194 -0.0077 -0.9112
  930MPD2    C213604   1.381   0.459  13.696  0.3602  0.0587 -0.1534
  930MPD2    C313605   1.275   0.366  13.659  0.0490  0.1540  0.5015
  930MPD2    C413606   1.155   0.359  13.728  0.3273 -0.1763  0.5249
  930MPD2    C513607   1.138   0.437  13.835  0.1502  0.1694  0.3629
  930MPD2     H13608   1.474   0.459  13.641  0.7760  2.5197  0.5677
  930MPD2    H113609   1.081   0.288  13.692  0.1715  0.4528 -0.3859
  930MPD2    H213610   1.204   0.608  13.937  3.5036 -0.5651  2.3249
  930MPD2    H313611   1.048   0.426  13.893 -0.5229 -2.0132 -1.0823
  930MPD2     N13612   1.287   0.274  13.554 -0.4141 -0.5696 -0.5804
  930MPD2    H513613   1.203   0.225  13.526 -0.5035  1.1205 -3.2493
  930MPD2    N113614   1.418   0.677  13.822  0.1158 -0.4152 -0.6599
  930MPD2    H713615   1.361   0.749  13.865  0.1911  0.9540 -2.8335
  931MPD2     C13616   1.512   0.371   0.611 -0.1648 -0.1462 -0.2199
  931MPD2    C113617   1.389   0.341   0.665  0.1342 -0.0032 -0.4804
  931MPD2    C213618   1.380   0.278   0.788  0.0276 -0.5470  0.2719
  931MPD2    C313619   1.496   0.228   0.846  0.6387 -0.1166 -1.1109
  931MPD2    C413620   1.616   0.251   0.789  0.1272 -0.3951  0.1023
  931MPD2    C513621   1.626   0.326   0.671 -0.1108 -0.7094  0.3884
  931MPD2     H13622   1.288   0.231   0.819 -0.5425 -0.0933 -0.7728
  931MPD2    H113623   1.710   0.212   0.824  0.1368  1.1250  1.7648
  931MPD2    H213624   1.513   0.423   0.516 -1.7340 -2.6409 -1.6070
  931MPD2    H313625   1.724   0.337   0.627  0.6034 -2.6630  1.4856
  931MPD2     N13626   1.501   0.139   0.959 -0.1605  0.4408  0.2436
  931MPD2    H513627   1.588   0.091   0.978 -1.5765 -2.2975 -0.1639
  931MPD2    N113628   1.276   0.376   0.583  0.0514 -0.9507 -0.3067
  931MPD2    H713629   1.295   0.417   0.493 -0.5227 -2.1076 -0.9494
  932MPD2     C13630   2.355   2.929  11.289  0.3074  0.1264 -0.4120
  932MPD2    C113631   2.442   3.025  11.241 -0.5140  0.2124  0.8186
  932MPD2    C213632   2.571   3.023  11.277 -0.2766  0.2689  0.2052
  932MPD2    C313633   2.619   2.938  11.373 -0.4823  0.3340  0.0332
  932MPD2    C413634   2.533   2.851  11.432 -0.3380 -0.6443  0.1379
  932MPD2    C513635   2.398   2.840  11.384 -0.0879 -0.0661  0.7201
  932MPD2     H13636   2.639   3.090  11.226 -2.7571  3.4517  1.0503
  932MPD2    H113637   2.564   2.786  11.513 -1.0096 -0.6658  0.3765
  932MPD2    H213638   2.256   2.911  11.246 -0.0794  1.5473 -0.1272
  932MPD2    H313639   2.328   2.772  11.432 -1.3221  0.7937  0.1636
  932MPD2     N13640   2.754   2.930  11.402  0.0630  0.2732  0.4111
  932MPD2    H513641   2.777   2.860  11.472  1.1451  1.6181  1.4121
  932MPD2    N113642   2.402   3.112  11.138 -0.4169  0.7889  0.1895
  932MPD2    H713643   2.473   3.165  11.089 -1.2808  0.7047 -1.1631
  933MPD2     C13644   3.942   3.529   1.346 -0.0041  0.4103  0.3957
  933MPD2    C113645   3.994   3.619   1.253 -0.4444  0.3818 -0.0112
  933MPD2    C213646   3.919   3.728   1.220 -0.1455  0.5280  0.1669
  933MPD2    C313647   3.814   3.761   1.295  0.2241  0.5556 -0.1742
  933MPD2    C413648   3.766   3.685   1.400  0.4035 -0.2630 -0.0588
  933MPD2    C513649   3.829   3.569   1.421  1.2236  0.5998  0.3637
  933MPD2     H13650   3.951   3.793   1.139  1.6443 -0.7007 -0.0956
  933MPD2    H113651   3.682   3.723   1.457 -0.1883  0.0643 -1.1374
  933MPD2    H213652   3.997   3.439   1.371  1.1456  0.2657 -2.6527
  933MPD2    H313653   3.792   3.508   1.502  0.8592 -0.3750 -0.5261
  933MPD2     N13654   3.750   3.883   1.249 -0.0021  0.1473 -0.0179
  933MPD2    H513655   3.785   3.939   1.172  1.0292 -0.2382  0.1752
  933MPD2    N113656   4.115   3.605   1.191  0.3504 -0.3612 -0.3590
  933MPD2    H713657   4.146   3.675   1.125  1.2324 -0.4395 -0.0239
  934MPD2     C13658   4.367   1.437   1.928 -0.2891  0.2831  0.9489
  934MPD2    C113659   4.452   1.447   1.815 -0.0628 -0.1668  0.5177
  934MPD2    C213660   4.437   1.357   1.706 -0.2678  0.1492  0.2913
  934MPD2    C313661   4.330   1.271   1.703  0.2839 -0.1296 -0.5456
  934MPD2    C413662   4.252   1.271   1.814  0.2955  0.1561 -0.2419
  934MPD2    C513663   4.275   1.341   1.928 -0.5372  0.2893 -0.2955
  934MPD2     H13664   4.508   1.365   1.624 -0.5345  0.2922  0.0735
  934MPD2    H113665   4.166   1.205   1.814 -0.1106  0.6815 -1.5670
  934MPD2    H213666   4.376   1.503   2.014  3.3317 -0.2653  0.9810
  934MPD2    H313667   4.202   1.320   2.005 -3.5590  1.4949 -2.8201
  934MPD2     N13668   4.292   1.205   1.587  0.5520 -0.7040  0.5805
  934MPD2    H513669   4.202   1.158   1.586 -0.9106  2.0973  0.7828
  934MPD2    N113670   4.554   1.542   1.808 -0.1615  0.7606 -0.2698
  934MPD2    H713671   4.618   1.536   1.729 -1.2852  1.9509 -1.2674
  935MPD2     C13672   0.039   0.608   0.947  0.1123 -0.3433  0.3492
  935MPD2    C113673   4.662   0.656   0.867 -0.2146  0.2620  0.3316
  935MPD2    C213674   4.563   0.735   0.930  0.1744  0.7983 -0.0794
  935MPD2    C313675   4.579   0.762   1.064  0.7878  0.2387  0.1135
  935MPD2    C413676   4.679   0.707   1.142  0.4296 -0.0153 -0.2383
  935MPD2    C513677   0.047   0.631   1.085 -0.1600 -0.1993 -0.5509
  935MPD2     H13678   4.494   0.780   0.860 -0.9503 -0.2006  0.3929
  935MPD2    H113679   4.688   0.738   1.246 -0.8228  1.4150 -0.5541
  935MPD2    H213680   0.127   0.558   0.908 -0.4864 -0.4640 -0.8567
  935MPD2    H313681   0.124   0.582   1.142 -0.3610  2.0159  1.6320
  935MPD2     N13682   4.485   0.842   1.132  0.6374 -0.7208  0.1086
  935MPD2    H513683   4.509   0.855   1.230 -2.3017  1.0517  0.5915
  935MPD2    N113684   4.665   0.650   0.722  0.2940  0.3239  0.0175
  935MPD2    H713685   4.577   0.675   0.677 -0.7269 -1.6247  0.9521
  936MPD2     C13686   3.060   2.016  12.327 -0.3383  0.5474 -0.4314
  936MPD2    C113687   3.062   2.021  12.463 -0.3326  0.3374  0.0237
  936MPD2    C213688   3.148   2.110  12.531 -0.1253 -0.1507 -0.3292
  936MPD2    C313689   3.252   2.176  12.469 -0.2366 -0.1529 -0.4296
  936MPD2    C413690   3.250   2.166  12.337  1.1644  0.6984 -0.2453
  936MPD2    C513691   3.148   2.101  12.267  0.1638 -0.5303 -0.8855
  936MPD2     H13692   3.136   2.113  12.638 -0.6212  1.0629 -0.4130
  936MPD2    H113693   3.322   2.210  12.270  3.0761 -2.1255 -0.0378
  936MPD2    H213694   2.998   1.954  12.264  0.0897 -0.4312  0.1112
  936MPD2    H313695   3.147   2.101  12.158 -1.6462 -0.8746 -0.8680
  936MPD2     N13696   3.346   2.259  12.532  0.0650  0.7109 -0.2334
  936MPD2    H513697   3.419   2.295  12.471  1.7401 -1.1662  0.6591
  936MPD2    N113698   2.984   1.937  12.548 -0.3796 -0.6716  0.2972
  936MPD2    H713699   2.990   1.951  12.649  1.8656  0.7047 -0.0258
  937MPD2     C13700   1.309   3.250  10.790 -0.4370  0.7599  0.0772
  937MPD2    C113701   1.424   3.316  10.829 -0.4297 -0.2127  0.2208
  937MPD2    C213702   1.498   3.369  10.727 -0.2973 -0.5974 -0.0723
  937MPD2    C313703   1.479   3.341  10.597 -0.6336 -0.0657 -0.3044
  937MPD2    C413704   1.374   3.258  10.558  0.0966  0.0177 -0.1731
  937MPD2    C513705   1.294   3.222  10.658 -0.3657 -0.8278 -0.3647
  937MPD2     H13706   1.587   3.428  10.743 -1.3424  1.8138 -2.9543
  937MPD2    H113707   1.358   3.229  10.455 -1.3146  1.2300 -0.3083
  937MPD2    H213708   1.252   3.192  10.862  0.8577 -0.3289  0.2467
  937MPD2    H313709   1.215   3.151  10.637 -2.7409  1.0041  2.3825
  937MPD2     N13710   1.566   3.405  10.505  0.0363  0.2959 -0.7262
  937MPD2    H513711   1.635   3.462  10.553 -0.2986  0.2326 -0.1726
  937MPD2    N113712   1.448   3.363  10.957  0.6504 -0.6927 -0.3332
  937MPD2    H713713   1.531   3.419  10.973  0.1082 -0.3245  1.2024
  938MPD2     C13714   3.734   0.604   0.813 -0.6429 -0.0493 -0.3049
  938MPD2    C113715   3.869   0.581   0.828  0.1365 -0.2476  0.0131
  938MPD2    C213716   3.914   0.466   0.892  0.3552 -0.2937  0.7802
  938MPD2    C313717   3.826   0.364   0.927  0.1448  0.3549  0.4611
  938MPD2    C413718   3.693   0.386   0.904  0.3875 -0.2733 -0.5693
  938MPD2    C513719   3.649   0.504   0.853  0.3778  0.1325 -0.4452
  938MPD2     H13720   4.020   0.457   0.914  0.9233  0.0753 -1.8279
  938MPD2    H113721   3.619   0.311   0.930 -0.8463  1.2299  0.2650
  938MPD2    H213722   3.692   0.690   0.763  1.2384  1.2823  0.4064
  938MPD2    H313723   3.544   0.527   0.840 -0.4156 -3.3941 -0.1857
  938MPD2     N13724   3.871   0.244   0.986 -0.3957  0.1746 -0.8371
  938MPD2    H513725   3.793   0.182   1.001 -1.5573  1.3224 -2.0664
  938MPD2    N113726   3.964   0.679   0.783 -0.2210 -0.0710  0.4391
  938MPD2    H713727   4.062   0.656   0.787  0.0446  1.1495  0.8113
  939MPD2     C13728   4.400   1.445   0.565 -0.4922 -0.1638  0.6837
  939MPD2    C113729   4.472   1.569   0.567 -0.9853  0.0253  0.2770
  939MPD2    C213730   4.602   1.575   0.539 -0.0425  0.1822  0.1002
  939MPD2    C313731   4.675   1.461   0.517  0.1282 -0.1776  0.2501
  939MPD2    C413732   4.610   1.338   0.512  0.0531 -0.3295  0.6623
  939MPD2    C513733   4.470   1.331   0.533  0.0497 -0.3457  0.2924
  939MPD2     H13734   4.642   1.675   0.534 -1.3312  0.7840  2.1255
  939MPD2    H113735   4.661   1.253   0.469 -0.4712  0.4724 -1.5392
  939MPD2    H213736   4.293   1.445   0.583 -0.5284  1.8970  0.5252
  939MPD2    H313737   4.418   1.237   0.516  1.4957 -1.1083  0.0010
  939MPD2     N13738   0.090   1.475   0.485  0.8183  0.8638 -0.2115
  939MPD2    H513739   0.131   1.568   0.483  1.7751  0.3900 -2.3761
  939MPD2    N113740   4.405   1.696   0.587 -0.1217 -0.0821  0.3467
  939MPD2    H713741   4.463   1.779   0.589 -0.1129 -0.1249  1.6019
  940MPD2     C13742   4.384   1.910  13.536 -0.5264  0.0259 -0.1162
  940MPD2    C113743   4.479   1.819  13.540 -0.1775 -0.7869 -0.3955
  940MPD2    C213744   4.520   1.765  13.415 -0.3555  0.4835  0.1354
  940MPD2    C313745   4.460   1.799  13.289  0.0332 -0.1035 -0.7799
  940MPD2    C413746   4.360   1.892  13.298 -0.3002 -0.1938  0.8248
  940MPD2    C513747   4.324   1.947  13.417  0.9293 -0.1706 -0.5638
  940MPD2     H13748   4.598   1.689  13.417 -0.5579  0.3437  3.2511
  940MPD2    H113749   4.317   1.926  13.204  4.0405 -0.3225 -1.2083
  940MPD2    H213750   4.352   1.960  13.627 -0.8838 -0.7413  0.1772
  940MPD2    H313751   4.255   2.030  13.420  0.4468 -0.7043  2.4516
  940MPD2     N13752   4.493   1.743  13.162 -0.4476  0.2507 -0.5208
  940MPD2    H513753   4.437   1.753  13.078  0.7784  0.2461 -1.3319
  940MPD2    N113754   4.550   1.779  13.661 -0.8486 -0.3558 -0.4383
  940MPD2    H713755   4.636   1.725  13.656 -0.1997  0.5962  0.5790
  941MPD2     C13756   2.976   1.249   9.103 -0.0018  0.4711 -0.1086
  941MPD2    C113757   3.098   1.187   9.132 -0.7277  0.4807  0.5409
  941MPD2    C213758   3.093   1.060   9.184  0.7369  0.5788 -0.4865
  941MPD2    C313759   2.972   0.987   9.198 -0.8920  0.4929  0.1180
  941MPD2    C413760   2.856   1.049   9.151 -0.2689 -0.2256 -0.1006
  941MPD2    C513761   2.856   1.185   9.117  0.2882  0.4121 -0.3038
  941MPD2     H13762   3.182   1.035   9.241  1.0360  1.4332 -0.5875
  941MPD2    H113763   2.761   0.999   9.161 -0.0618 -0.8734 -1.3253
  941MPD2    H213764   2.965   1.351   9.070  0.8546  1.0606  1.4237
  941MPD2    H313765   2.768   1.241   9.086 -1.7219 -3.2798 -1.2020
  941MPD2     N13766   2.960   0.859   9.249 -1.1041  0.5759 -0.1488
  941MPD2    H513767   2.869   0.815   9.239  0.1180 -1.5733 -1.8731
  941MPD2    N113768   3.225   1.247   9.101 -0.8312  0.1727 -0.2450
  941MPD2    H713769   3.309   1.196   9.128 -0.4756  0.5745 -0.5852
  942MPD2     C13770   2.480   3.617   9.425 -0.2210  0.7745  0.2794
  942MPD2    C113771   2.616   3.644   9.422  0.5044 -0.0058  0.0908
  942MPD2    C213772   2.707   3.564   9.493 -0.1536 -1.0153  0.1671
  942MPD2    C313773   2.654   3.448   9.555  0.6704 -0.1274  0.2822
  942MPD2    C413774   2.519   3.425   9.571  0.5733  0.2633 -0.2555
  942MPD2    C513775   2.431   3.517   9.510  0.3080  0.1587 -0.2187
  942MPD2     H13776   2.812   3.584   9.473 -0.2970 -0.9554 -0.5223
  942MPD2    H113777   2.486   3.344   9.636 -1.7161 -0.0294 -1.7948
  942MPD2    H213778   2.404   3.670   9.369 -1.4482  0.1082  1.3255
  942MPD2    H313779   2.324   3.500   9.513  0.0764  1.6413 -0.1935
  942MPD2     N13780   2.733   3.341   9.610  0.3927  0.4083 -0.1371
  942MPD2    H513781   2.677   3.262   9.641 -0.6200  2.0506  2.1589
  942MPD2    N113782   2.665   3.733   9.325 -0.3074  0.7328 -0.6938
  942MPD2    H713783   2.761   3.716   9.296  0.9859  2.7910  2.4686
  943MPD2     C13784   1.729   1.420   8.839  0.0547 -0.2862 -0.1635
  943MPD2    C113785   1.763   1.315   8.926 -0.9010 -0.0642  0.1394
  943MPD2    C213786   1.853   1.334   9.030 -0.2409 -0.5642  0.5826
  943MPD2    C313787   1.897   1.458   9.061  0.4092 -0.2307 -1.0823
  943MPD2    C413788   1.865   1.562   8.979  0.1325  0.1560 -0.3394
  943MPD2    C513789   1.789   1.544   8.866 -0.4037 -0.5455  0.1088
  943MPD2     H13790   1.868   1.250   9.098 -1.4645  0.0372  1.5977
  943MPD2    H113791   1.901   1.661   9.005 -1.6337  0.1770  1.9736
  943MPD2    H213792   1.661   1.421   8.755  0.1078 -0.0944 -0.2046
  943MPD2    H313793   1.765   1.631   8.807  1.4108  1.8093  2.8615
  943MPD2     N13794   1.983   1.488   9.173  0.4531  0.1214 -0.5091
  943MPD2    H513795   2.035   1.575   9.173  2.4955 -1.0882  0.6090
  943MPD2    N113796   1.705   1.191   8.890 -0.5383 -0.2689 -0.7900
  943MPD2    H713797   1.649   1.188   8.805 -0.9973 -0.5671 -0.4826
  944MPD2     C13798   1.892   4.666  10.217 -0.1972 -0.6132 -0.0254
  944MPD2    C113799   1.999   0.026  10.230 -0.6408  0.0692  0.2133
  944MPD2    C213800   2.024   0.083  10.356  0.7183  0.3952 -0.3104
  944MPD2    C313801   1.952   0.047  10.469 -0.2662 -0.2479  0.6100
  944MPD2    C413802   1.841   4.690  10.451 -0.3119  0.9085  0.3005
  944MPD2    C513803   1.810   4.642  10.324 -0.6223  0.6164  0.4730
  944MPD2     H13804   2.104   0.157  10.365  1.5859 -0.5813  0.0138
  944MPD2    H113805   1.773   4.670  10.532 -0.0248 -0.2873  0.2418
  944MPD2    H213806   1.870   4.621  10.121  1.2341  1.2116 -1.2074
  944MPD2    H313807   1.731   4.568  10.320 -0.1673  0.0775  1.6018
  944MPD2     N13808   1.993   0.103  10.585  0.5571  0.1235 -0.5491
  944MPD2    H513809   2.068   0.171  10.591 -0.0246  0.5584  1.9440
  944MPD2    N113810   2.079   0.038  10.115 -0.2265  0.1957  0.7111
  944MPD2    H713811   2.032   0.001  10.033 -1.8614  2.2238  0.7474
    1TCq1    O113812   0.856   0.748  14.119  0.1054  0.6499  0.4448
    1TCq1    C113813   0.779   0.828  14.194 -0.1345  0.5196 -0.1156
    1TCq1    O213814   0.682   0.898  14.146  0.5444 -0.0260  0.2955
    1TCq1    C213815   0.865   0.856  14.306 -0.0118  0.3536 -1.2103
    1TCq1    C313816   0.902   0.744  14.387  0.2432  0.3241  0.3320
    1TCq1    C413817   0.941   0.767  14.515  0.0814  0.1403 -0.1734
    1TCq1    C513818   0.930   0.894  14.571 -0.1694 -0.7345  0.0022
    1TCq1    C613819   0.889   0.999  14.491 -0.7758  0.0468 -0.1081
    1TCq1    C713820   0.861   0.985  14.353  0.5155  0.2862 -0.6335
    1TCq1    C813821   0.865   1.129  14.561 -0.1185 -0.6663  0.4860
    1TCq1    O413822   0.914   1.145  14.674  0.1183 -0.5477 -0.1397
    1TCq1    C913823   0.976   0.652  14.602  0.0077  0.2218  0.1226
    1TCq1    O513824   1.051   0.682  14.697  0.6519  0.0204 -0.0827
    1TCq1    O613825   0.912   0.546  14.587  0.1526 -0.4320  0.0594
    1TCq1    H113826   0.943   0.731  14.161  0.4358 -0.2349 -0.6000
    1TCq1    H213827   0.903   0.641  14.354 -0.3329  0.6032 -0.5724
    1TCq1    H313828   0.946   0.904  14.678 -0.4040 -1.8285  0.1324
    1TCq1    H413829   0.825   1.066  14.292 -2.1799 -1.6648 -1.6231
    2MPD2     C13830   0.623   1.570  14.611  0.1492  0.1056 -0.1289
    2MPD2    C113831   0.593   1.523  14.485  0.8222  0.5927  0.5958
    2MPD2    C213832   0.638   1.394  14.449 -0.1987 -0.3716 -0.2386
    2MPD2    C313833   0.719   1.326  14.533 -0.5039  0.1561 -0.3453
    2MPD2    C413834   0.752   1.381  14.652 -0.5184 -0.0217 -0.5163
    2MPD2    C513835   0.703   1.502  14.690  0.0361  0.8264  0.1315
    2MPD2     H13836   0.619   1.348  14.353 -1.9007  1.1888 -0.6442
    2MPD2    H113837   0.795   1.328  14.737 -0.1176 -2.0606 -1.9966
    2MPD2    H213838   0.574   1.659  14.649 -1.7437 -0.9815 -0.0427
    2MPD2    H313839   0.721   1.532  14.793 -0.7753  1.1116  0.1963
    2MPD2     N13840   0.771   1.199  14.494 -0.0613  0.4656 -0.4864
    2MPD2    H513841   0.741   1.158  14.407  1.7051 -0.9303 -0.4333
    2MPD2    N113842   0.534   1.614  14.393  0.2632 -0.1035 -0.2731
    2MPD2    H713843   0.498   1.700  14.434  0.5512 -0.0836 -0.0661
    3TMC2    C113844   0.457   1.705  14.196 -0.1550  0.6601  0.2834
    3TMC2    C213845   0.451   1.823  14.264  0.6113 -0.9120 -0.1091
    3TMC2    C313846   0.413   1.936  14.187  0.1767 -0.4569  0.0805
    3TMC2    C413847   0.406   1.690  14.069  0.3408  0.1339  0.1268
    3TMC2    C513848   0.357   1.800  14.013  0.2583  0.3008 -0.1521
    3TMC2    C613849   0.358   1.924  14.068 -0.0984  0.5986  0.5015
    3TMC2     C13850   0.505   1.582  14.261  0.7602  1.1466 -0.1279
    3TMC2     O13851   0.517   1.479  14.199 -0.2138 -0.2438  0.0789
    3TMC2     H13852   0.490   1.847  14.362 -0.5613 -1.0566  0.3969
    3TMC2    H113853   0.427   1.602  14.010 -1.1034  0.9513 -1.5825
    3TMC2    H213854   0.316   2.008  14.013 -0.3484  1.5034  2.0900
    3TMC2    C713855   0.308   1.782  13.876 -0.4908 -0.1702  0.8636
    3TMC2    C813856   0.407   2.060  14.260  0.3931  1.0405 -1.1374
    3TMC2    O113857   0.315   1.675  13.821 -0.7132  0.2489  0.0733
    3TMC2    O213858   0.307   2.129  14.275  0.0280 -0.0432 -0.4943
    3TMC2    O513859   0.527   2.079  14.314  0.3115  0.5874 -0.4188
    3TMC2    H513860   0.587   2.002  14.300  0.4578  0.5698  0.3468
    4MPD2     C13861   3.644   2.362  13.475  0.0037 -0.2073 -0.2988
    4MPD2    C113862   3.710   2.429  13.368 -0.6970  0.3560  0.8444
    4MPD2    C213863   3.853   2.436  13.364 -0.3541 -0.1632  0.2345
    4MPD2    C313864   3.924   2.362  13.458 -0.1542 -0.4176  0.0805
    4MPD2    C413865   3.854   2.275  13.540  0.2768 -0.4350  0.0761
    4MPD2    C513866   3.718   2.289  13.563  0.0260  0.3256 -0.2200
    4MPD2     H13867   3.907   2.486  13.285 -1.5458 -0.0562 -0.5073
    4MPD2    H113868   3.898   2.206  13.611 -0.0970 -1.7160 -0.9272
    4MPD2    H213869   3.536   2.372  13.481  0.1183  0.7879  0.1441
    4MPD2    H313870   3.669   2.230  13.640 -3.0966  0.8787 -1.8220
    4MPD2     N13871   4.064   2.371  13.467  0.5368 -0.7250  0.0080
    4MPD2    H513872   4.104   2.440  13.404  0.4124 -1.7771 -1.2134
    4MPD2    N113873   3.630   2.484  13.259 -0.2418 -1.1388  0.3357
    4MPD2    H713874   3.529   2.477  13.260 -0.1550 -2.6152 -2.6342
    5TCq2    C113875   4.152   2.304  13.555  0.4144 -0.6552 -0.0301
    5TCq2    O213876   4.124   2.218  13.638  0.2117 -0.7136  0.3701
    5TCq2    C213877   4.293   2.350  13.542  0.1653  0.5157 -1.1930
    5TCq2    C313878   4.329   2.440  13.438 -0.7028 -0.7463 -0.2138
    5TCq2    C413879   4.464   2.444  13.403  1.1268 -0.0451 -0.6423
    5TCq2    C513880   4.555   2.367  13.470  0.0278  1.1580 -1.1009
    5TCq2    C613881   4.513   2.279  13.569 -0.6487 -0.0817 -0.2982
    5TCq2    C713882   4.384   2.270  13.606  0.3047  0.0331  0.9990
    5TCq2    C813883   4.602   2.183  13.623 -0.0841  0.1777 -0.0171
    5TCq2    O413884   4.589   2.156  13.740  0.2882  0.3136  0.1590
    5TCq2    C913885   4.512   2.519  13.283 -0.1556 -0.4966  0.3081
    5TCq2    O513886   4.634   2.535  13.269 -0.2825 -0.5943  0.4196
    5TCq2    O613887   4.417   2.551  13.203 -0.3782  0.0020  0.3454
    5TCq2    H213888   4.250   2.491  13.383 -0.8821 -0.5385  0.2397
    5TCq2    H313889   4.658   2.363  13.436  0.5199 -0.4036  0.6239
    5TCq2    H413890   4.347   2.187  13.664  2.4761  0.0196  2.3516
    6MPD1     C13891   3.276   4.331  12.964 -0.1215 -0.2925 -0.4899
    6MPD1    C113892   3.335   4.296  12.846  0.0716  0.1451 -0.1169
    6MPD1    C213893   3.361   4.161  12.816  0.1245 -0.4218 -0.0169
    6MPD1    C313894   3.313   4.062  12.894 -0.1481 -0.5074 -0.2372
    6MPD1    C413895   3.245   4.094  13.006 -0.0232 -0.2949 -0.0086
    6MPD1    C513896   3.235   4.232  13.043 -0.4082  0.0709  0.5096
    6MPD1     H13897   3.416   4.149  12.723 -0.0080  1.0928 -0.2963
    6MPD1    H113898   3.202   4.028  13.080 -0.7035 -0.4623 -0.5580
    6MPD1    H213899   3.251   4.434  12.986 -0.6548 -0.2920 -1.1136
    6MPD1    H313900   3.183   4.251  13.137  0.4901 -1.7186  1.3740
    6MPD1     N13901   3.326   3.924  12.872  0.1245  0.1996  0.3212
    6MPD1    H513902   3.277   3.859  12.933  0.3038 -0.0873  0.1611
    6MPD1    N113903   3.393   4.406  12.766  0.2915 -0.3149 -0.3882
    6MPD1    H613904   3.353   4.493  12.799  1.5173 -0.7106  2.1423
    6MPD1    H713905   3.386   4.397  12.665 -0.4769  0.2803 -0.3866
    7MPD2     C13906   3.365   3.289  13.277 -0.1615  0.3554  0.2987
    7MPD2    C113907   3.338   3.257  13.150 -0.4315 -0.1265 -0.4004
    7MPD2    C213908   3.321   3.123  13.116  0.6340 -0.0421  0.2081
    7MPD2    C313909   3.334   3.024  13.208 -0.6179 -0.0836 -0.3433
    7MPD2    C413910   3.352   3.052  13.338  0.1250 -0.4863 -0.0977
    7MPD2    C513911   3.365   3.187  13.366  0.8771  0.1906  0.2360
    7MPD2     H13912   3.294   3.100  13.014 -1.1476  2.0161  0.2273
    7MPD2    H113913   3.374   2.972  13.408 -1.0542 -0.5224  0.2271
    7MPD2    H213914   3.379   3.387  13.322  0.3804 -0.9620  3.0364
    7MPD2    H313915   3.385   3.224  13.466  5.5995  1.9497 -1.3369
    7MPD2     N13916   3.320   2.886  13.168  0.7470  0.1010 -0.1479
    7MPD2    H513917   3.312   2.820  13.245  0.4041 -0.6021 -0.7961
    7MPD2    N113918   3.305   3.345  13.041 -0.7702 -0.2285 -0.1779
    7MPD2    H713919   3.273   3.313  12.950  1.3181 -0.6655 -0.7748
    8TMC3    C113920   3.369   2.702  13.018  0.0966  1.2650 -0.1425
    8TMC3    C213921   3.472   2.663  13.105 -0.3519  0.8444  0.3612
    8TMC3    C313922   3.583   2.592  13.055  0.1635  0.4250 -0.4396
    8TMC3    C413923   3.377   2.677  12.882 -0.5937  0.1609 -0.5789
    8TMC3    C513924   3.495   2.629  12.832  0.0587  1.0570 -0.0850
    8TMC3    C613925   3.595   2.582  12.916  0.2417  0.0373  0.1864
    8TMC3     C13926   3.329   2.843  13.033 -0.0679 -0.4747 -0.0662
    8TMC3     O13927   3.333   2.905  12.929  0.2323  0.4916 -0.3194
    8TMC3     H13928   3.457   2.676  13.212  1.6224  0.5689  0.6766
    8TMC3    H113929   3.305   2.717  12.811 -0.7037  3.0454  1.1484
    8TMC3    H213930   3.691   2.565  12.868  1.4289  1.5244  2.0127
    8TMC3    C713931   3.550   2.715  12.724  0.6424 -0.2149  0.8508
    8TMC3    C813932   3.681   2.523  13.137  0.1828 -0.7546 -0.0124
    8TMC3    O113933   3.650   2.665  12.671  0.5378  0.0459 -0.2844
    8TMC3    O213934   3.791   2.505  13.086 -0.6912  0.2957  0.3021
    9TMC3    C113935   3.384   3.717  12.779  0.4478  0.2750  0.6953
    9TMC3    C213936   3.407   3.643  12.667  0.2126  0.5505  0.1997
    9TMC3    C313937   3.403   3.506  12.678  0.0240  0.1766  0.1565
    9TMC3    C413938   3.378   3.675  12.904  0.8402  0.3440 -1.3800
    9TMC3    C513939   3.381   3.536  12.910 -0.1419  0.9001 -0.3282
    9TMC3    C613940   3.384   3.454  12.805  0.0572 -0.3082  0.1084
    9TMC3     C13941   3.384   3.861  12.762  0.0478  0.0418  0.6766
    9TMC3     O13942   3.431   3.911  12.663 -0.3714  0.2006 -0.0497
    9TMC3     H13943   3.418   3.692  12.571 -2.2461  1.7247  0.5118
    9TMC3    H113944   3.358   3.732  12.994 -3.1134 -0.6858 -1.6068
    9TMC3    H213945   3.398   3.349  12.830  3.1919  0.3050  1.0461
    9TMC3    C713946   3.357   3.477  13.047 -0.0052 -0.4319 -0.5758
    9TMC3    C813947   3.440   3.413  12.573 -0.3043 -0.3360 -0.0617
    9TMC3    O113948   3.395   3.537  13.146 -0.0097 -0.3810 -0.2367
    9TMC3    O213949   3.452   3.455  12.460 -0.1605  0.5578 -0.0988
   10MPD2     C13950   3.639   2.943  12.539 -0.1807 -0.0525  0.0586
   10MPD2    C113951   3.536   2.943  12.631  0.4031  0.4761 -0.0930
   10MPD2    C213952   3.471   3.059  12.654 -0.2106 -0.5664  0.7548
   10MPD2    C313953   3.498   3.173  12.580  0.0257 -0.2206 -0.0080
   10MPD2    C413954   3.601   3.172  12.493  0.2808  0.7303 -0.1798
   10MPD2    C513955   3.673   3.056  12.478  0.3625 -0.0042 -0.2369
   10MPD2     H13956   3.399   3.054  12.735 -0.6280 -2.3549  0.2562
   10MPD2    H113957   3.630   3.258  12.434 -1.0322  0.0012 -1.8684
   10MPD2    H213958   3.695   2.852  12.525  2.0667  1.3037  0.1598
   10MPD2    H313959   3.758   3.040  12.412  0.6627  2.2734 -0.3931
   10MPD2     N13960   3.417   3.284  12.613 -0.2363 -0.6709  0.1275
   10MPD2    H513961   3.358   3.279  12.696 -0.2498  0.6476  0.1831
   10MPD2    N113962   3.502   2.842  12.712 -0.1830 -0.1007 -0.2413
   10MPD2    H713963   3.439   2.879  12.783  1.2198 -1.3321  1.6598
   11MPD2     C13964   0.210   1.812  13.594  0.0645 -0.2767 -0.0781
   11MPD2    C113965   0.180   1.891  13.702 -0.9009  0.5032 -0.2701
   11MPD2    C213966   0.097   1.999  13.676  0.0863  0.7915 -0.6586
   11MPD2    C313967   0.043   2.023  13.550  0.1649 -0.2726  0.3794
   11MPD2    C413968   0.089   1.944  13.444 -0.5263  0.2805  0.0723
   11MPD2    C513969   0.172   1.835  13.464 -0.5371 -0.7683 -0.0906
   11MPD2     H13970   0.078   2.072  13.754  1.9081 -2.1809  2.5427
   11MPD2    H113971   0.047   1.961  13.345 -0.6796 -0.8057 -0.0483
   11MPD2    H213972   0.276   1.726  13.600 -1.2523 -1.2194  0.9953
   11MPD2    H313973   0.200   1.777  13.378 -0.0765  0.3273 -0.6778
   11MPD2     N13974   4.670   2.117  13.525  0.0410 -0.1584  0.4741
   11MPD2    H513975   4.647   2.133  13.427  0.3613 -0.4706  0.3456
   11MPD2    N113976   0.231   1.885  13.833  0.2746 -0.2383  0.0572
   11MPD2    H713977   0.212   1.963  13.895 -0.0421 -0.4024  0.1656
    1MPD1     C13978   1.750   4.196  16.792 -0.0664  0.2504 -0.2531
    1MPD1    C113979   1.746   4.089  16.880  0.4553  0.2400 -0.8867
    1MPD1    C213980   1.827   3.980  16.864 -0.2922 -0.1044  0.3021
    1MPD1    C313981   1.926   3.983  16.766  0.3748 -0.1052  0.6350
    1MPD1    C413982   1.918   4.081  16.671 -0.6296 -0.7815 -0.3925
    1MPD1    C513983   1.831   4.183  16.677 -0.3022 -0.2494  0.3881
    1MPD1     H13984   1.825   3.893  16.929 -1.7079  0.5182  1.0739
    1MPD1    H113985   1.990   4.073  16.591  0.6886 -1.4888  0.8627
    1MPD1    H213986   1.702   4.291  16.813 -2.7800 -0.9049 -1.0955
    1MPD1    H313987   1.833   4.260  16.601 -0.2795  1.1327  1.7891
    1MPD1     N13988   2.026   3.886  16.750  0.4555 -0.2812  0.4882
    1MPD1    H513989   2.089   3.897  16.671 -1.9660  0.4026 -1.3351
    1MPD1    N113990   1.687   4.111  17.008  0.4373  0.4576 -1.0347
    1MPD1    H613991   1.664   4.021  17.051 -0.1704  2.1311  2.0878
    1MPD1    H713992   1.604   4.168  17.004  0.8093  1.2409  2.3935
    2MPD1     C13993   2.545   3.356  17.490 -0.2121  0.5517  0.3050
    2MPD1    C113994   2.411   3.340  17.457 -0.9890 -0.2484 -0.4297
    2MPD1    C213995   2.362   3.392  17.338 -0.1096  0.9180 -0.4752
    2MPD1    C313996   2.434   3.478  17.254  0.2392  0.0517  0.6580
    2MPD1    C413997   2.565   3.485  17.283 -0.3261  0.6746 -0.1340
    2MPD1    C513998   2.618   3.430  17.402  0.1886  0.0245  0.8588
    2MPD1     H13999   2.258   3.378  17.311 -0.3506  0.2164  0.8143
    2MPD1    H114000   2.636   3.540  17.223 -1.7642  1.7620 -0.8382
    2MPD1    H214001   2.596   3.313  17.575 -0.1584  1.0105  0.5057
    2MPD1    H314002   2.721   3.453  17.426  0.4069  0.0888 -0.1363
    2MPD1     N14003   2.385   3.527  17.132 -0.0007  0.1189  0.1291
    2MPD1    H514004   2.286   3.513  17.117 -0.4354 -0.2344  3.4436
    2MPD1    N114005   2.321   3.264  17.526  0.3347 -0.3814  1.0652
    2MPD1    H614006   2.358   3.240  17.617  1.5599  3.1961  1.5060
    2MPD1    H714007   2.234   3.315  17.541  0.3690 -0.7337  2.4141
    3TMC3    C114008   2.385   3.632  16.915  0.1486  0.9551  0.4930
    3TMC3    C214009   2.455   3.660  16.802  0.2013 -0.0909  0.0339
    3TMC3    C314010   2.388   3.706  16.692  0.6516  0.2464  0.0890
    3TMC3    C414011   2.255   3.677  16.927  0.9013  0.2723  0.1998
    3TMC3    C514012   2.191   3.728  16.822  0.4680  0.0118  0.3908
    3TMC3    C614013   2.255   3.745  16.699 -0.0541  0.0205 -0.9710
    3TMC3     C14014   2.463   3.572  17.026 -0.1857  0.3154  0.1308
    3TMC3     O14015   2.580   3.545  16.997  0.7985 -0.2578  0.6872
    3TMC3     H14016   2.553   3.624  16.775  0.5374  0.9046 -0.0670
    3TMC3    H114017   2.188   3.659  17.011  1.5756  1.3217  0.9511
    3TMC3    H214018   2.203   3.780  16.610  0.1138  0.5115 -0.8703
    3TMC3    C714019   2.066   3.794  16.850 -0.6215 -0.0263 -0.2192
    3TMC3    C814020   2.468   3.731  16.569  0.6910  0.4030 -0.7580
    3TMC3    O114021   2.006   3.773  16.956  0.2349 -0.6767  0.4951
    3TMC3    O214022   2.591   3.724  16.583  0.2240  0.5330 -0.3635
    4MPD1     C14023   2.545   3.732  16.064  0.3626 -0.1822  0.1165
    4MPD1    C114024   2.413   3.693  16.090  0.0535  0.8482  0.9381
    4MPD1    C214025   2.375   3.682  16.218 -0.2400 -0.0508  0.0510
    4MPD1    C314026   2.455   3.718  16.326 -0.4549 -0.1346 -0.3020
    4MPD1    C414027   2.580   3.749  16.301  0.2394 -0.3105  0.6078
    4MPD1    C514028   2.630   3.756  16.171 -0.4167  0.0329  0.4849
    4MPD1     H14029   2.275   3.644  16.235  0.7896 -2.3817  0.8838
    4MPD1    H114030   2.651   3.773  16.380 -0.6503  1.6892  0.7931
    4MPD1    H214031   2.590   3.752  15.967 -0.5644  2.1421  0.1761
    4MPD1    H314032   2.738   3.765  16.162 -0.3916 -0.0672  0.6906
    4MPD1     N14033   2.393   3.720  16.456  0.2264  0.6147  0.3875
    4MPD1    H514034   2.295   3.694  16.449  0.5631 -0.6177  0.2342
    4MPD1    N114035   2.340   3.671  15.976  0.2389 -0.4151  0.1987
    4MPD1    H614036   2.373   3.745  15.914  1.3009 -2.9647 -2.2959
    4MPD1    H714037   2.245   3.700  16.000  0.7815 -1.0605  3.0788
    1TCq1    O114038   3.351   2.849  10.995  0.4508 -0.2660 -0.2646
    1TCq1    C114039   3.400   2.884  10.876 -0.4182  0.1133  0.2232
    1TCq1    O214040   3.462   2.815  10.795  0.0695  0.2022 -0.0021
    1TCq1    C214041   3.398   3.032  10.868  0.1364  0.0983 -0.2337
    1TCq1    C314042   3.288   3.097  10.906  0.6537 -0.1415  0.2946
    1TCq1    C414043   3.255   3.216  10.846  0.4105  0.3666  0.4813
    1TCq1    C514044   3.339   3.287  10.768 -0.3622 -0.3539 -0.7711
    1TCq1    C614045   3.446   3.217  10.722 -0.1684  0.0996  0.2319
    1TCq1    C714046   3.478   3.091  10.768  0.0743 -0.7456  1.1885
    1TCq1    C814047   3.529   3.276  10.628 -0.0644 -0.4576  0.4052
    1TCq1    O414048   3.620   3.206  10.582  0.0428 -0.4019 -0.3613
    1TCq1    C914049   3.160   3.294  10.914  0.1012 -0.0836  0.4695
    1TCq1    O514050   3.139   3.271  11.036 -0.2209  0.4815  0.1707
    1TCq1    O614051   3.108   3.389  10.849 -0.3926 -0.0938 -0.1415
    1TCq1    H114052   3.328   2.917  11.063 -4.1018 -2.1614  0.0911
    1TCq1    H214053   3.213   3.052  10.970 -1.9143  1.7849 -1.3710
    1TCq1    H314054   3.312   3.391  10.757 -1.9646 -0.7955 -0.9358
    1TCq1    H414055   3.559   3.039  10.718  0.1145 -0.0700  0.5439
    2MPD1     C14056   3.670   3.664  10.326  0.1242 -0.0582  0.1880
    2MPD1    C114057   3.570   3.711  10.402 -0.2995  0.0120 -0.0955
    2MPD1    C214058   3.492   3.626  10.482 -0.4415 -0.3912  0.2823
    2MPD1    C314059   3.551   3.493  10.506 -0.8351 -0.2635  0.2251
    2MPD1    C414060   3.658   3.448  10.433 -0.7326  0.0287 -0.3564
    2MPD1    C514061   3.708   3.527  10.335  0.4862  0.4063  1.0241
    2MPD1     H14062   3.400   3.658  10.530 -0.2656 -2.0482  1.7409
    2MPD1    H114063   3.685   3.343  10.432  1.2784  0.5515 -1.6740
    2MPD1    H214064   3.718   3.731  10.256 -0.0045  0.1699  0.3170
    2MPD1    H314065   3.783   3.491  10.265 -0.6507  1.0415 -0.5275
    2MPD1     N14066   3.491   3.407  10.596 -0.2989  0.4403  0.3520
    2MPD1    H514067   3.417   3.452  10.649 -2.1411 -4.4383  1.9657
    2MPD1    N114068   3.530   3.844  10.392 -0.1529 -0.3550  0.1692
    2MPD1    H614069   3.451   3.878  10.446 -0.0540  1.1658 -0.6434
    2MPD1    H714070   3.600   3.918  10.387 -2.3707  1.8990  2.4433
    1TCq1    O114071   4.168   4.230   8.736  0.3251  0.0718 -0.6329
    1TCq1    C114072   4.276   4.152   8.744  0.7136 -0.2154  0.9324
    1TCq1    O214073   4.307   4.047   8.692  0.0875 -0.6908 -0.5832
    1TCq1    C214074   4.368   4.214   8.836  0.0327 -1.0526 -0.4567
    1TCq1    C314075   4.358   4.345   8.871 -0.6909  0.5639  0.1890
    1TCq1    C414076   4.466   4.418   8.910 -0.4176 -0.2544  0.0988
    1TCq1    C514077   4.584   4.370   8.891 -0.4084 -0.6320 -0.5620
    1TCq1    C614078   4.592   4.233   8.869 -0.1681 -0.1741  0.7395
    1TCq1    C714079   4.485   4.154   8.844  0.3993 -0.0463  0.4716
    1TCq1    C814080   4.718   4.168   8.841 -0.0435  0.3205  0.3437
    1TCq1    O414081   0.004   4.049   8.814 -0.2240  0.3366 -0.0989
    1TCq1    C914082   4.441   4.563   8.903  0.1240  0.3996  0.1127
    1TCq1    O514083   4.334   4.613   8.944 -0.2267 -0.2954  0.2738
    1TCq1    O614084   4.548   4.629   8.897  0.2035 -0.2733  0.1241
    1TCq1    H114085   4.154   4.292   8.811 -1.7989 -0.7018 -0.3967
    1TCq1    H214086   4.278   4.411   8.840 -0.9299 -0.5194 -1.4973
    1TCq1    H314087   4.670   4.433   8.912 -0.0408 -1.0629 -0.7668
    1TCq1    H414088   4.490   4.046   8.831 -0.1173  0.1783 -1.4813
    2MPD1     C14089   0.485   4.199   8.700  0.0775  0.1848  0.0944
    2MPD1    C114090   0.435   4.329   8.700  0.8430  0.1060  0.6676
    2MPD1    C214091   0.300   4.342   8.720 -0.0887  0.2900  0.2531
    2MPD1    C314092   0.224   4.234   8.762  0.5569 -0.1483  0.6818
    2MPD1    C414093   0.278   4.107   8.771 -0.8861 -0.2784 -0.2079
    2MPD1    C514094   0.412   4.091   8.742 -0.1564  0.1931  0.3098
    2MPD1     H14095   0.260   4.442   8.731  0.9501  0.7632 -0.3038
    2MPD1    H114096   0.228   4.018   8.807 -1.4503 -0.4842 -1.4709
    2MPD1    H214097   0.590   4.180   8.679  0.4506  1.0072  1.2389
    2MPD1    H314098   0.458   3.993   8.746  0.5294  0.4386 -1.6120
    2MPD1     N14099   0.087   4.261   8.798  0.5848  0.0003  0.5539
    2MPD1    H514100   0.050   4.354   8.781  0.3738 -0.1927 -0.0595
    2MPD1    N114101   0.503   4.448   8.661  0.0502  0.0544  0.5130
    2MPD1    H614102   0.603   4.437   8.673  0.2908  2.1038  0.3358
    2MPD1    H714103   0.472   4.528   8.716 -3.3915 -0.5763 -0.4829
    1MPD1     C14104   4.342   1.879  12.195  0.2032  0.0290  0.0300
    1MPD1    C114105   4.389   1.947  12.303  0.9134 -0.2114  0.0056
    1MPD1    C214106   4.487   2.039  12.281 -0.2514 -0.7351 -0.4507
    1MPD1    C314107   4.539   2.058  12.155 -0.0912  0.1130  0.6999
    1MPD1    C414108   4.487   1.995  12.044  0.1171 -0.1569  0.3982
    1MPD1    C514109   4.395   1.899  12.066 -0.6173  1.0006  0.1101
    1MPD1     H14110   4.530   2.094  12.364 -0.8711 -1.7931  0.5688
    1MPD1    H114111   4.532   1.996  11.945 -1.5883  1.0033 -0.3694
    1MPD1    H214112   4.270   1.799  12.207  2.8060 -2.2100  0.5792
    1MPD1    H314113   4.368   1.843  11.977  1.2037  2.5576 -1.4261
    1MPD1     N14114   4.646   2.150  12.137 -0.0667 -0.4798 -0.4270
    1MPD1    H514115   4.685   2.188  12.223 -1.6641  2.6401 -1.0516
    1MPD1    N114116   4.323   1.939  12.426  0.4972  0.3932  0.4319
    1MPD1    H614117   4.393   1.943  12.500 -1.5878  2.5683  2.2491
    1MPD1    H714118   4.269   1.853  12.435  0.7245  0.2457  0.4159
    2MPD1     C14119   4.364   3.950  10.923  0.7213  0.4530  0.0971
    2MPD1    C114120   4.324   3.876  11.039  0.4055 -0.1781 -0.8404
    2MPD1    C214121   4.325   3.736  11.023  0.3251  0.1858  0.3810
    2MPD1    C314122   4.360   3.676  10.906  0.3077 -0.8531  0.5515
    2MPD1    C414123   4.382   3.749  10.791  0.1431  0.2112 -0.2310
    2MPD1    C514124   4.391   3.889  10.805 -0.9127  0.8175  0.5728
    2MPD1     H14125   4.314   3.676  11.112 -0.0904 -0.1431  0.1116
    2MPD1    H114126   4.403   3.702  10.695 -0.3283 -1.2651  0.3797
    2MPD1    H214127   4.361   4.058  10.924  1.9649  0.4704  0.8989
    2MPD1    H314128   4.433   3.947  10.723  0.2493  0.8411  1.1774
    2MPD1     N14129   4.376   3.539  10.901  0.5251  1.0342  0.0461
    2MPD1    H514130   4.390   3.491  10.813  1.3215 -1.5039  1.5303
    2MPD1    N114131   4.333   3.941  11.165  0.8279 -0.7235 -0.0243
    2MPD1    H614132   4.300   3.881  11.240  1.3230 -1.1714 -0.1686
    2MPD1    H714133   4.290   4.033  11.170 -1.0727 -1.5384 -1.4777
    3MPD1     C14134   4.224   2.779  10.338  0.7416  0.1278  0.2907
    3MPD1    C114135   4.277   2.710  10.448  0.1036  0.7608  0.2827
    3MPD1    C214136   4.315   2.782  10.558  0.1127  0.8349  0.0647
    3MPD1    C314137   4.313   2.917  10.551 -0.2093 -0.2508 -0.5681
    3MPD1    C414138   4.255   2.987  10.445 -0.1147  1.2481  0.2006
    3MPD1    C514139   4.199   2.910  10.348  0.8969  0.0057  0.6839
    3MPD1     H14140   4.361   2.736  10.645 -0.9376 -3.6131 -1.7095
    3MPD1    H114141   4.230   3.092  10.439 -1.0157  1.0359  0.2012
    3MPD1    H214142   4.172   2.728  10.258 -0.1315  0.2423  0.7783
    3MPD1    H314143   4.166   2.970  10.263  0.5400 -2.1822 -0.7089
    3MPD1     N14144   4.369   2.981  10.661  0.5520 -0.3864  0.1426
    3MPD1    H514145   4.379   2.925  10.744  0.2583 -1.0701 -0.2886
    3MPD1    N114146   4.294   2.566  10.448  0.1314  0.3627  1.0700
    3MPD1    H614147   4.307   2.532  10.353  2.3492  1.7169  0.8938
    3MPD1    H714148   4.374   2.538  10.505  1.2241  0.1078 -0.6097
    4MPD2     C14149   0.061   2.855  12.064 -0.0863  0.5456 -0.6673
    4MPD2    C114150   0.183   2.790  12.056  1.0881  0.6538  0.0255
    4MPD2    C214151   0.285   2.856  11.992 -0.1427  0.5602  0.9410
    4MPD2    C314152   0.269   2.984  11.926  0.5058 -0.2878  0.0838
    4MPD2    C414153   0.138   3.031  11.925 -0.1170  0.0612  0.1604
    4MPD2    C514154   0.037   2.975  11.995  0.0614 -0.0896  0.8746
    4MPD2     H14155   0.380   2.805  11.998 -0.2779  0.3859  1.5730
    4MPD2    H114156   0.116   3.129  11.885  1.4267  0.7202  0.9543
    4MPD2    H214157   4.704   2.806  12.112  0.3511  0.2103 -0.2407
    4MPD2    H314158   4.665   3.019  12.001  0.0186 -0.5422  3.4996
    4MPD2     N14159   0.360   3.045  11.843 -0.4860  0.1198  0.5186
    4MPD2    H514160   0.322   3.103  11.769  2.7719  0.8229 -0.5975
    4MPD2    N114161   0.218   2.672  12.127  0.2518 -0.1025  0.0743
    4MPD2    H714162   0.311   2.636  12.109 -0.1312 -0.3940 -1.2917
    5TMC3    C114163   0.170   2.450  12.186 -0.1847 -1.0506  0.5849
    5TMC3    C214164   0.059   2.375  12.151  0.2832  0.9596 -0.0850
    5TMC3    C314165   0.086   2.284  12.055 -0.4409 -0.2690 -0.5791
    5TMC3    C414166   0.299   2.430  12.135  0.7910 -0.0535 -0.1613
    5TMC3    C514167   0.315   2.330  12.047 -0.1318  0.9569  0.5283
    5TMC3    C614168   0.204   2.252  11.999 -0.6546  0.1383  0.4585
    5TMC3     C14169   0.131   2.589  12.195  0.2388  0.7125 -0.5309
    5TMC3     O14170   0.013   2.611  12.220 -0.5114 -0.1209  0.5726
    5TMC3     H14171   4.682   2.389  12.176  0.2722  1.0857 -0.1997
    5TMC3    H114172   0.386   2.492  12.149  0.4335  0.2745  0.6399
    5TMC3    H214173   0.219   2.174  11.926 -0.4433 -0.2494  0.9174
    5TMC3    C714174   0.432   2.338  11.952 -0.0340 -0.4891 -0.1035
    5TMC3    C814175   4.706   2.192  12.021  0.0997  1.2864  0.0012
    5TMC3    O114176   0.418   2.309  11.834  0.6223  0.6959  0.3668
    5TMC3    O214177   4.708   2.141  11.912 -0.7257  0.6803 -0.1243
    6TMC3    C114178   4.432   3.321  10.966 -0.4927 -0.5472  0.0166
    6TMC3    C214179   4.382   3.277  10.849  0.3391  0.4821 -0.2742
    6TMC3    C314180   4.441   3.162  10.799 -0.2601 -0.1478 -0.1729
    6TMC3    C414181   4.544   3.273  11.022  0.5867 -0.3030  0.4493
    6TMC3    C514182   4.604   3.161  10.960 -0.3712  0.1119  0.0553
    6TMC3    C614183   4.543   3.093  10.854 -0.1649  0.3773 -0.4243
    6TMC3     C14184   4.387   3.453  11.007  0.7506  0.5320  0.0462
    6TMC3     O14185   4.406   3.484  11.125  0.3033 -0.8433 -0.9023
    6TMC3     H14186   4.303   3.322  10.790  1.5796  0.0120 -2.2915
    6TMC3    H114187   4.578   3.292  11.124  0.4556 -1.1114  0.6420
    6TMC3    H214188   4.594   3.013  10.802  0.2085 -0.4526  1.2085
    6TMC3    C714189   4.724   3.110  11.025 -0.6732  0.0828  0.5696
    6TMC3    C814190   4.379   3.121  10.674 -0.2330  0.1872  0.3574
    6TMC3    O114191   0.059   3.197  11.092 -0.9699  0.3448 -0.4518
    6TMC3    O214192   4.350   3.213  10.596 -0.2051  0.0020  0.4530
    7MPD2     C14193   0.866   2.595  11.916  0.6015 -0.6685  0.1818
    7MPD2    C114194   0.770   2.577  11.822 -0.2095  0.3606 -0.4355
    7MPD2    C214195   0.669   2.490  11.844  0.0998 -0.0466 -0.3130
    7MPD2    C314196   0.665   2.424  11.966 -0.1972 -0.4266 -0.2419
    7MPD2    C414197   0.770   2.427  12.050 -0.6843  0.4944  0.3963
    7MPD2    C514198   0.864   2.520  12.027 -0.1483 -0.2828  0.4893
    7MPD2     H14199   0.592   2.479  11.768  0.8666  2.3322 -1.4410
    7MPD2    H114200   0.762   2.381  12.148  1.2293  0.8589  0.7108
    7MPD2    H214201   0.947   2.666  11.906 -0.4765  0.6186  0.6950
    7MPD2    H314202   0.937   2.538  12.105 -0.4471  1.8764  0.2632
    7MPD2     N14203   0.550   2.366  12.020 -0.0351 -0.1376  0.2861
    7MPD2    H514204   0.553   2.358  12.121 -3.2768  0.7719  0.4685
    7MPD2    N114205   0.771   2.682  11.725  0.3761 -0.5832  0.0590
    7MPD2    H714206   0.834   2.759  11.748  1.0595 -1.5105  1.2823
    8TMC3    C114207   0.664   2.844  11.588 -0.4038 -0.5585  0.4406
    8TMC3    C214208   0.571   2.862  11.484  0.2413 -0.3910  0.3737
    8TMC3    C314209   0.487   2.970  11.503 -0.1088 -0.1210  0.1137
    8TMC3    C414210   0.652   2.926  11.700  0.6144 -0.1649 -0.1158
    8TMC3    C514211   0.555   3.021  11.717 -0.1844  0.0364 -0.6506
    8TMC3    C614212   0.477   3.049  11.610  0.4064 -0.3910 -0.3073
    8TMC3     C14213   0.681   2.704  11.628 -0.9368  0.4387  0.0133
    8TMC3     O14214   0.604   2.622  11.579  0.1406  0.0963 -0.1385
    8TMC3     H14215   0.565   2.787  11.407  3.5244 -1.2927  1.0001
    8TMC3    H114216   0.706   2.896  11.790 -0.7561 -1.3581  0.3141
    8TMC3    H214217   0.409   3.134  11.606 -0.3021 -0.9668 -0.4800
    8TMC3    C714218   0.489   3.005  11.840 -1.0632  0.1002  0.1684
    8TMC3    C814219   0.387   2.991  11.393  0.5980 -0.4715  0.3478
    8TMC3    O114220   0.554   2.960  11.933 -0.4257 -0.1443  0.0784
    8TMC3    O214221   0.278   3.028  11.429 -0.3393 -0.3879 -1.2975
    9MPD2     C14222   0.420   2.831  11.073 -0.4043 -0.1461 -0.3131
    9MPD2    C114223   0.360   2.915  11.158  0.4810 -0.7926  0.3963
    9MPD2    C214224   0.242   2.972  11.128 -0.4025 -0.1781 -0.5581
    9MPD2    C314225   0.172   2.933  11.012  0.2996 -0.2007 -0.1725
    9MPD2    C414226   0.234   2.842  10.928 -0.1951 -0.0072 -0.1375
    9MPD2    C514227   0.355   2.779  10.961 -0.1537  0.3866  0.8385
    9MPD2     H14228   0.194   3.040  11.197 -1.0191 -0.3724 -0.7931
    9MPD2    H114229   0.204   2.830  10.824  1.8874 -1.8626 -0.5364
    9MPD2    H214230   0.524   2.800  11.079 -0.2525  0.1822 -1.2068
    9MPD2    H314231   0.417   2.740  10.881  0.1117  1.5044  0.5067
    9MPD2     N14232   0.042   2.991  10.969 -0.2080 -0.3035 -0.0327
    9MPD2    H514233   4.720   2.935  10.901 -0.5207 -0.4724  0.3295
    9MPD2    N114234   0.436   2.948  11.274 -0.5691 -0.5686  0.3591
    9MPD2    H714235   0.536   2.930  11.277 -0.8401 -2.3779 -1.4372
    1MPD1     C14236   4.121   2.326  16.811 -0.3129 -0.1303  0.0768
    1MPD1    C114237   4.117   2.462  16.847 -1.4796  0.3258 -0.3700
    1MPD1    C214238   4.231   2.540  16.829  0.1605 -0.2704  0.7974
    1MPD1    C314239   4.351   2.484  16.799  0.0022 -0.8601 -0.7673
    1MPD1    C414240   4.357   2.351  16.791 -0.4505  0.6313  0.1717
    1MPD1    C514241   4.245   2.273  16.794  0.0540  0.4022 -0.2174
    1MPD1     H14242   4.219   2.648  16.824 -1.5474 -0.4877  0.0803
    1MPD1    H114243   4.452   2.301  16.772 -1.2550 -0.2487 -1.5613
    1MPD1    H214244   4.033   2.263  16.813 -0.3943 -0.0329 -0.5897
    1MPD1    H314245   4.249   2.166  16.779 -3.1784  0.3268 -0.5878
    1MPD1     N14246   4.469   2.559  16.766  0.1967 -0.7926  0.3676
    1MPD1    H514247   4.557   2.508  16.757  1.2842  1.3822 -1.3455
    1MPD1    N114248   3.992   2.517  16.871  0.0728 -0.5330  0.2269
    1MPD1    H614249   3.945   2.446  16.926  0.8937 -1.2202  0.0516
    1MPD1    H714250   3.995   2.602  16.927  2.4464 -0.8249  0.5631
    2MPD1     C14251   4.450   3.279  16.124 -0.3962  0.1496  0.9569
    2MPD1    C114252   4.365   3.182  16.178 -0.3684 -0.0415  0.4872
    2MPD1    C214253   4.402   3.114  16.292  0.4939  0.1254 -0.3394
    2MPD1    C314254   4.536   3.118  16.329 -0.1376  0.0087 -0.0691
    2MPD1    C414255   4.625   3.197  16.264 -0.5368 -0.1649  0.0317
    2MPD1    C514256   4.581   3.282  16.166  0.1127 -0.1521 -0.4906
    2MPD1     H14257   4.328   3.054  16.343 -1.8290  1.7247 -1.8787
    2MPD1    H114258   0.003   3.215  16.283 -0.8689 -1.0181  2.6836
    2MPD1    H214259   4.419   3.331  16.034 -0.5043 -1.3550  0.1268
    2MPD1    H314260   4.648   3.355  16.122 -0.5406  0.8377  0.1527
    2MPD1     N14261   4.571   3.032  16.442 -0.2302  0.4313  0.2433
    2MPD1    H514262   4.506   2.969  16.487  2.2039 -0.9347  1.8515
    2MPD1    N114263   4.232   3.180  16.129 -0.4763 -0.0447  0.7976
    2MPD1    H614264   4.227   3.201  16.030  2.4490  1.0134  0.8625
    2MPD1    H714265   4.187   3.089  16.128  1.7455 -1.1421 -0.8703
    3TCq2    C114266   4.703   3.013  16.471  0.2231  0.0211  0.6298
    3TCq2    O214267   0.074   3.044  16.407  0.3228 -0.1047  0.2151
    3TCq2    C214268   4.709   2.904  16.569 -0.4971  0.5778 -0.5086
    3TCq2    C314269   0.092   2.822  16.559 -0.1783  0.0037 -0.1248
    3TCq2    C414270   0.089   2.696  16.615 -0.1362 -0.0223 -0.7604
    3TCq2    C514271   4.710   2.658  16.698  0.0789  0.4385  0.3439
    3TCq2    C614272   4.603   2.745  16.709  0.5247 -0.2495 -0.0834
    3TCq2    C714273   4.595   2.863  16.642  0.4366 -0.0259 -0.2638
    3TCq2    C814274   4.470   2.698  16.749 -0.2317 -0.1003 -0.6067
    3TCq2    O414275   4.383   2.783  16.746 -0.1316 -0.5221 -0.6318
    3TCq2    C914276   0.203   2.610  16.609 -0.9233  0.3158  0.3058
    3TCq2    O514277   0.196   2.499  16.661  0.8023  0.3724 -0.2071
    3TCq2    O614278   0.296   2.649  16.530 -0.2245  0.0108 -0.1188
    3TCq2    H214279   0.171   2.843  16.487 -0.0370 -0.4620 -0.1083
    3TCq2    H314280   4.706   2.559  16.742  1.2641  0.3152  0.1719
    3TCq2    H414281   4.507   2.923  16.661  0.7848  0.9396 -1.7624
    1TCq1    O114282   2.359   1.140  12.804  0.0896  0.4807 -0.5496
    1TCq1    C114283   2.419   1.124  12.926  0.2820  0.5473 -1.0466
    1TCq1    O214284   2.365   1.105  13.033 -0.1081  0.0434 -0.1677
    1TCq1    C214285   2.552   1.089  12.895 -0.5920  0.1442 -0.0280
    1TCq1    C314286   2.580   0.957  12.898 -0.0733  0.3827  0.5899
    1TCq1    C414287   2.706   0.922  12.853  0.3987 -0.0747 -0.4333
    1TCq1    C514288   2.794   1.010  12.796 -0.4005 -0.5074  0.2628
    1TCq1    C614289   2.753   1.140  12.779 -0.5950 -0.7633  0.5395
    1TCq1    C714290   2.629   1.182  12.831 -0.0313  0.6238 -0.7951
    1TCq1    C814291   2.845   1.231  12.730 -0.7785 -0.1623  0.4428
    1TCq1    O414292   2.810   1.333  12.680  0.1955 -0.6238  0.3566
    1TCq1    C914293   2.744   0.783  12.847 -0.0999  0.5787  0.3956
    1TCq1    O514294   2.662   0.704  12.906  0.3738 -0.5882  0.0708
    1TCq1    O614295   2.834   0.746  12.762  0.3527  0.4692  0.6542
    1TCq1    H114296   2.417   1.165  12.728 -0.3333  0.5378 -0.8555
    1TCq1    H214297   2.508   0.883  12.930 -1.4967  1.8821  0.8216
    1TCq1    H314298   2.888   0.970  12.758  0.7489  3.2674 -0.8600
    1TCq1    H414299   2.601   1.287  12.833  0.0684  0.6260  0.3511
    2MPD2     C14300   3.087   1.335  12.623 -0.3824 -0.1092 -0.0407
    2MPD2    C114301   3.088   1.269  12.747  0.1434 -0.2029  0.7125
    2MPD2    C214302   3.205   1.268  12.824  0.1834 -0.2366  0.5758
    2MPD2    C314303   3.313   1.345  12.785 -0.8288 -0.2821  0.2939
    2MPD2    C414304   3.315   1.407  12.663 -0.0542 -0.7186  0.3257
    2MPD2    C514305   3.199   1.402  12.587  0.1674 -0.0653 -0.0018
    2MPD2     H14306   3.206   1.225  12.924 -2.2617 -0.3429  0.5561
    2MPD2    H114307   3.411   1.434  12.620  0.1861 -0.7354  0.8518
    2MPD2    H214308   3.004   1.325  12.554 -0.0526 -2.5145 -0.0994
    2MPD2    H314309   3.194   1.441  12.486  1.5496 -0.2986 -0.1601
    2MPD2     N14310   3.431   1.318  12.863  0.1057  0.2266  0.0198
    2MPD2    H514311   3.410   1.266  12.948 -2.1820  3.2382  1.3186
    2MPD2    N114312   2.969   1.209  12.790 -0.3167 -0.0444  0.2520
    2MPD2    H714313   2.983   1.136  12.859  3.8262 -0.7325 -1.3233
    3TCq1    O114314   3.737   0.962  13.075  0.1304 -0.1107 -0.2641
    3TCq1    C114315   3.718   1.055  13.177  0.6654 -0.7261  0.0396
    3TCq1    O214316   3.758   1.045  13.290 -0.2035 -0.2919  0.0698
    3TCq1    C214317   3.724   1.187  13.108  0.5323  0.0256  0.5302
    3TCq1    C314318   3.822   1.273  13.149 -0.7815 -0.6117  0.2114
    3TCq1    C414319   3.823   1.398  13.093  1.0916 -0.1522 -1.0596
    3TCq1    C514320   3.736   1.437  12.993 -0.0324 -0.3760  0.0981
    3TCq1    C614321   3.633   1.358  12.966  0.1571  0.0622 -0.0760
    3TCq1    C714322   3.626   1.228  13.024 -0.9589  0.0627 -0.0151
    3TCq1    C814323   3.546   1.393  12.856 -1.2095  0.1662 -0.1797
    3TCq1    O414324   3.570   1.483  12.779  0.0668  0.2268 -0.6311
    3TCq1    C914325   3.928   1.481  13.123 -0.0590 -0.5650 -0.5445
    3TCq1    O514326   3.969   1.465  13.240  0.1353  0.5705  0.2173
    3TCq1    O614327   3.951   1.573  13.043 -0.0745  0.2309  0.4289
    3TCq1    H114328   3.688   0.989  12.994 -0.1161 -0.9156 -0.3860
    3TCq1    H214329   3.899   1.241  13.218 -1.1079 -1.1277  0.3396
    3TCq1    H314330   3.748   1.539  12.957  1.5149 -0.6352 -0.0884
    3TCq1    H414331   3.550   1.153  13.007 -0.0468 -1.0764  0.8823
    1MPD2     C14332   2.436   1.937  14.888 -0.1979  0.2257 -0.2025
    1MPD2    C114333   2.453   1.924  14.750  0.2785 -0.4997  0.3126
    1MPD2    C214334   2.575   1.953  14.698  0.1689  0.5247  0.4983
    1MPD2    C314335   2.681   1.988  14.774 -0.4446 -0.1964 -0.6392
    1MPD2    C414336   2.670   2.006  14.915 -0.0352  0.4245  0.5211
    1MPD2    C514337   2.538   1.984  14.969  0.2457 -0.0265 -0.9371
    1MPD2     H14338   2.588   1.945  14.591  1.2652 -0.4108  0.6923
    1MPD2    H114339   2.748   2.040  14.982 -0.9394 -0.3284  1.9574
    1MPD2    H214340   2.340   1.930  14.938 -0.3502 -2.7494 -0.9052
    1MPD2    H314341   2.530   2.002  15.076 -1.1335  1.2626 -1.2580
    1MPD2     N14342   2.808   2.015  14.707  0.6815  0.1993  0.1208
    1MPD2    H514343   2.812   2.004  14.606  0.6913 -1.1469  0.2775
    1MPD2    N114344   2.338   1.901  14.668 -0.6268  0.1466  0.5015
    1MPD2    H714345   2.247   1.912  14.711 -0.0246 -0.0693  1.8374
    2TMC3    C114346   2.232   1.853  14.465  0.5989  0.3263  0.8275
    2TMC3    C214347   2.245   1.762  14.356  0.5968  0.0764  0.0332
    2TMC3    C314348   2.223   1.802  14.224 -0.0454  0.3442  0.6030
    2TMC3    C414349   2.192   1.985  14.438  0.3586  0.6639 -0.2403
    2TMC3    C514350   2.194   2.018  14.305  0.3335 -0.1706 -0.7509
    2TMC3    C614351   2.207   1.934  14.206  0.4152  0.3767  0.0261
    2TMC3     C14352   2.348   1.846  14.549 -0.2429 -0.5693  0.7918
    2TMC3     O14353   2.447   1.791  14.496  0.1249  0.0389 -0.5489
    2TMC3     H14354   2.270   1.657  14.370 -0.0814 -0.2242 -1.0187
    2TMC3    H114355   2.194   2.056  14.521  0.0328  1.3307 -0.8054
    2TMC3    H214356   2.216   1.970  14.104 -2.5772  2.7712  0.5892
    2TMC3    C714357   2.160   2.147  14.268 -0.4917  0.5953  0.8890
    2TMC3    C814358   2.334   1.770  14.140 -0.6971 -0.1650 -0.3900
    2TMC3    O114359   2.055   2.175  14.213  0.1840  0.4398 -0.0173
    2TMC3    O214360   2.318   1.739  14.024  0.0955 -0.3916  0.0283
    3TCq1    O114361   3.008   3.113  14.270  0.1691  0.4913  0.2065
    3TCq1    C114362   2.942   3.049  14.174 -0.1773  0.1069 -0.4290
    3TCq1    O214363   2.876   3.106  14.090  0.0244  0.1573  0.3346
    3TCq1    C214364   2.886   2.930  14.241 -0.6367 -0.5481 -0.0918
    3TCq1    C314365   2.979   2.827  14.246 -0.0488 -0.0833 -0.4146
    3TCq1    C414366   2.940   2.703  14.256  0.3712  0.3749 -0.5594
    3TCq1    C514367   2.804   2.664  14.258 -0.0494 -0.8364 -0.2097
    3TCq1    C614368   2.714   2.767  14.259 -0.0505  0.0886 -0.7777
    3TCq1    C714369   2.757   2.896  14.234  0.2563 -0.2596  0.4817
    3TCq1    C814370   2.567   2.751  14.259 -0.0134  0.1252 -0.4980
    3TCq1    O414371   2.501   2.849  14.257  0.1174  0.3130 -0.3469
    3TCq1    C914372   3.039   2.600  14.263 -0.2017  0.3463 -0.8396
    3TCq1    O514373   3.004   2.487  14.217 -0.0348  0.0674 -0.0879
    3TCq1    O614374   3.152   2.625  14.321 -0.1341  0.1713 -0.3662
    3TCq1    H114375   3.018   3.066  14.356 -0.2285  0.6387  0.3342
    3TCq1    H214376   3.086   2.840  14.244  0.1949 -1.9474  1.5370
    3TCq1    H314377   2.782   2.558  14.258 -0.4051 -0.7611  1.7061
    3TCq1    H414378   2.692   2.980  14.213  0.8677 -0.2572 -1.3495
    4MPD2     C14379   2.291   2.643  14.255  0.1872  0.2718 -0.1896
    4MPD2    C114380   2.405   2.567  14.274 -0.5841 -0.5912 -0.4471
    4MPD2    C214381   2.399   2.432  14.294 -0.6839 -0.0105 -0.3797
    4MPD2    C314382   2.276   2.367  14.290  0.3965 -0.2318  0.2301
    4MPD2    C414383   2.160   2.446  14.277 -0.4305  0.6374 -0.5482
    4MPD2    C514384   2.170   2.579  14.268 -0.3783 -0.2361 -0.5540
    4MPD2     H14385   2.492   2.378  14.295 -0.9646 -0.4544  1.4073
    4MPD2    H114386   2.059   2.409  14.292 -0.4008  1.1444  0.9085
    4MPD2    H214387   2.284   2.751  14.267 -5.0120  0.0787 -1.4786
    4MPD2    H314388   2.075   2.630  14.270  0.3454  1.1610 -2.1334
    4MPD2     N14389   2.274   2.228  14.280 -0.5903 -0.2272  0.0643
    4MPD2    H514390   2.366   2.190  14.297 -0.4150  0.6550  1.1202
    4MPD2    N114391   2.536   2.622  14.275  0.1283 -0.1031 -0.3404
    4MPD2    H714392   2.616   2.560  14.282  2.2769  2.3752 -2.8777
    5TMC2    C114393   3.030   1.957  14.437 -0.0844 -0.6467  0.8566
    5TMC2    C214394   3.117   1.856  14.442 -0.2040  0.9321 -0.3640
    5TMC2    C314395   3.173   1.846  14.564 -0.4737 -1.2079 -0.0735
    5TMC2    C414396   2.995   2.046  14.536  0.0677  0.4923  0.8713
    5TMC2    C514397   3.044   2.022  14.667  0.0332  0.1588 -0.1393
    5TMC2    C614398   3.141   1.924  14.674 -0.4938  0.3290 -0.4967
    5TMC2     C14399   2.906   1.922  14.367 -0.2609 -0.1020 -0.4687
    5TMC2     O14400   2.810   1.978  14.415 -0.6722  0.0855 -0.8073
    5TMC2     H14401   3.140   1.785  14.364 -0.2452  2.1107 -1.4421
    5TMC2    H114402   2.922   2.126  14.531  0.0686  0.5436  1.5996
    5TMC2    H214403   3.179   1.902  14.773 -0.3898  2.4662 -0.0648
    5TMC2    C714404   2.936   2.019  14.765  0.1590 -0.3964 -0.1954
    5TMC2    C814405   3.308   1.797  14.564 -0.1426 -0.0485  1.0474
    5TMC2    O114406   2.962   1.985  14.879 -0.2404  0.3038  0.1295
    5TMC2    O214407   3.317   1.675  14.566  0.4797 -0.1311 -0.2319
    5TMC2    O514408   3.371   1.875  14.469  0.1989 -0.2561 -0.3100
    5TMC2    H514409   3.335   1.966  14.472  0.3347 -0.1794 -1.2055
    6MPD2     C14410   2.601   1.680  14.037 -0.2616 -0.0622  0.1350
    6MPD2    C114411   2.578   1.747  14.153  0.6723 -0.4531  0.0742
    6MPD2    C214412   2.679   1.797  14.232  0.3177 -0.1722 -0.4312
    6MPD2    C314413   2.810   1.773  14.186 -0.2892  0.1531  0.3331
    6MPD2    C414414   2.829   1.704  14.071  0.0042  0.1939 -0.7560
    6MPD2    C514415   2.726   1.643  14.004 -0.3033 -0.0419  0.3347
    6MPD2     H14416   2.657   1.852  14.323 -0.6703 -2.5628  0.7880
    6MPD2    H114417   2.923   1.679  14.022 -0.8025 -0.6586 -1.8583
    6MPD2    H214418   2.521   1.669  13.965 -0.0172 -2.4022  0.2229
    6MPD2    H314419   2.746   1.571  13.926  1.2857  2.2920 -1.3844
    6MPD2     N14420   2.917   1.827  14.259 -0.1003 -0.2100  0.6842
    6MPD2    H514421   3.008   1.824  14.215 -2.2406 -0.8700 -3.6680
    6MPD2    N114422   2.451   1.771  14.208  0.7911 -0.3629 -0.2709
    6MPD2    H714423   2.443   1.818  14.298 -1.0306  0.5658 -0.9068
  945NH3     N114424   3.954   3.618  16.216  0.0475  0.0673  0.2111
  945NH3     H214425   3.888   3.629  16.140  0.1296  1.5022  0.3519
  945NH3     H314426   3.951   3.707  16.263 -3.1541  0.2909 -0.4215
  945NH3     H414427   4.045   3.621  16.171 -0.0159 -0.7063  0.0315
  946SOD     NA14428   1.947   0.472  14.512 -0.2114 -0.1074 -0.5330
  947SOD     NA14429   1.327   3.667   2.159  0.6466  0.0956  0.4180
  948SOD     NA14430   1.925   1.823   9.627 -0.0590 -0.4508  0.2231
  949SOD     NA14431   2.179   2.674   1.082  0.4388  0.3662 -0.2018
  950SOD     NA14432   2.197   0.911   7.257  0.4755 -0.1955 -0.4691
  951SOD     NA14433   0.507   2.771   2.160  0.1974 -0.0121  0.0759
  952SOD     NA14434   3.636   0.778  11.552  0.4259  0.2555  0.4024
  953SOD     NA14435   3.765   1.881  12.704  0.0594 -0.2981 -0.1514
  954SOD     NA14436   1.885   0.786  10.160 -0.0485  0.5533 -0.3272
  955SOD     NA14437   4.336   4.563  13.982  0.0480  0.2793  0.1782
  956SOD     NA14438   4.674   0.522   1.605  0.1869 -0.0887 -0.3045
  957SOD     NA14439   2.695   0.052   8.705 -0.1017 -0.2261  0.0929
  958SOD     NA14440   4.462   0.299  13.678 -0.3318 -0.2845 -0.1669
  959SOD     NA14441   4.257   1.983  13.948  0.4886 -0.7393  0.2223
  960SOD     NA14442   3.726   1.114   9.450  0.0393 -0.0889  0.2943
  961SOD     NA14443   3.356   2.253  11.733 -0.8280 -0.0815 -0.0755
  962SOD     NA14444   2.812   0.313   9.798  0.4790  0.4878  0.3232
  963SOD     NA14445   3.255   3.224  11.209 -0.3242 -0.3990 -0.5413
  964SOD     NA14446   1.524   4.453   8.446  0.0035  0.3962 -0.0192
  965SOD     NA14447   1.394   0.968   2.568  0.1964 -0.2101 -0.0303
  966SOD     NA14448   4.574   2.439  15.782 -0.0979  0.2823 -0.0543
  967SOD     NA14449   3.313   2.124  16.717 -0.0393  0.3938 -0.1887
  968SOD     NA14450   2.324   1.935   9.751 -0.4592 -0.2631  0.2306
  969SOD     NA14451   3.933   2.751   0.809  0.2430 -0.2034 -0.2184
  970SOD     NA14452   1.468   3.600   9.188  0.0041 -0.1769  0.2411
  971SOD     NA14453   1.263   0.476  12.264 -0.0280  0.1027 -0.0056
  972SOD     NA14454   3.240   0.784  11.543 -0.1868  0.0214  0.2402
  973SOD     NA14455   2.667   0.169  10.111  0.3057  0.8742  0.5965
  974SOD     NA14456   1.847   0.593  12.681  0.1152  0.1274  0.2117
  975SOD     NA14457   4.625   4.034   1.780  0.5245  0.0082 -0.4378
  976SOD     NA14458   2.827   1.720   9.829  0.0123 -0.1306 -0.2661
  977SOD     NA14459   3.927   2.081  13.010  0.2808 -0.0118  0.7620
  978SOD     NA14460   4.528   1.471   4.998 -0.1214 -0.5249 -0.4557
  979SOD     NA14461   1.112   0.624  12.588  0.1940  0.6836 -0.3300
  980SOD     NA14462   0.668   0.216  14.644 -0.0776  0.0531  0.1699
  981SOD     NA14463   3.034   2.337  11.814  0.1878  0.5228 -0.0077
  982SOD     NA14464   0.149   1.054   0.366  0.0537 -0.6256  0.4672
  983SOD     NA14465   0.957   0.109   9.425 -0.4068  0.1360 -0.5037
  984SOD     NA14466   3.520   2.848  10.315  0.1529 -0.2155  0.0831
  985SOD     NA14467   4.313   0.797  10.999  0.8009 -0.3818  0.1602
  986SOD     NA14468   0.866   2.065   0.243 -0.0977  0.3571 -0.0483
  987SOD     NA14469   4.177   2.706  15.586  0.0909 -0.1911 -0.0329
  988SOD     NA14470   3.820   2.242   2.975 -0.3767 -0.0299 -0.2993
  989SOD     NA14471   2.778   2.769   1.770 -0.0487  0.8452 -0.2835
  990SOD     NA14472   3.258   4.326   5.728 -0.4970 -0.1979 -0.2520
  991SOD     NA14473   3.560   2.728  14.361  0.4410 -0.1012  0.1596
  992SOD     NA14474   4.525   0.453  16.461  0.7387  0.2519 -0.4288
  993SOD     NA14475   3.566   0.761  11.851  0.4951 -0.1809 -0.4736
  994SOD     NA14476   2.143   2.037  10.062  0.2862 -0.4894 -0.3108
  995SOD     NA14477   3.861   2.487  13.929  0.4712  0.1162 -0.1294
  996SOD     NA14478   1.659   0.466  10.889  0.2375 -0.6473  0.1072
  997SOD     NA14479   2.843   3.183   6.350  0.2907 -0.1048  0.2157
  998SOD     NA14480   0.300   0.958   0.112  0.1061  0.3724 -0.6719
  999SOD     NA14481   3.271   3.871  15.762 -0.1216  0.5105  0.1097
 1000SOD     NA14482   0.312   2.468  16.423 -0.2881  0.2306  0.0613
 1001SOD     NA14483   3.675   3.279  16.884  0.0388 -0.2828  0.4690
 1002SOD     NA14484   0.973   2.474  12.685 -0.1905  0.1127  0.4822
 1003SOD     NA14485   3.049   3.951  10.044  0.0828 -0.1189 -0.9206
 1004SOD     NA14486   4.357   2.917   1.258  0.0309 -0.2629 -0.1992
 1005SOD     NA14487   1.340   4.666  14.013 -0.2766  0.0814 -0.1410
 1006SOD     NA14488   2.637   0.288   9.511  0.1071  0.9236  0.0747
 1007SOD     NA14489   3.315   1.059  11.354 -0.2071  0.5575 -0.2151
 1008SOD     NA14490   0.151   0.981  14.308 -0.0334  0.2043  0.0680
 1009SOD     NA14491   2.882   2.356  14.086 -0.0263  0.2416  0.3969
 1010SOD     NA14492   3.467   3.642   1.700 -0.1443  0.0385 -0.5639
 1011SOD     NA14493   2.530   0.313   9.198  0.1480 -0.7483 -0.0099
 1012SOL     OW14494   0.691   4.416   5.718 -0.0396 -0.6817 -0.1003
 1012SOL    HW114495   0.685   4.328   5.680  2.3951  0.1445 -2.3666
 1012SOL    HW214496   0.640   4.405   5.798  0.8181 -0.0559  0.5372
 1013SOL     OW14497   2.400   1.660   5.602  0.4396  0.1546 -0.4645
 1013SOL    HW114498   2.370   1.617   5.522 -0.4296  1.1885 -0.7010
 1013SOL    HW214499   2.458   1.730   5.572  0.9449 -0.6789 -1.4156
 1014SOL     OW14500   2.901   3.750  14.942  0.4254  0.1895  0.7097
 1014SOL    HW114501   2.927   3.663  14.911  0.5010  1.0302 -1.5810
 1014SOL    HW214502   2.837   3.730  15.010  0.2286  0.3869  0.5816
 1015SOL     OW14503   2.448   0.780  12.580  0.1101  0.0636 -0.1130
 1015SOL    HW114504   2.523   0.837  12.565  0.3575 -0.5520 -1.2203
 1015SOL    HW214505   2.489   0.697  12.603 -0.4778 -0.4799 -1.0113
 1016SOL     OW14506   1.359   1.080   9.932  0.3185  0.2201 -0.2837
 1016SOL    HW114507   1.266   1.099   9.921 -0.3121 -0.2648  4.1425
 1016SOL    HW214508   1.360   0.986   9.915 -0.4070  0.1254  0.1939
 1017SOL     OW14509   2.298   4.327   7.272 -0.0570  0.3082  0.2259
 1017SOL    HW114510   2.305   4.232   7.263  3.3894  0.7786 -2.2112
 1017SOL    HW214511   2.373   4.342   7.330  1.0071  0.1678 -1.1203
 1018SOL     OW14512   1.673   2.026   2.246 -0.5487 -0.2506  0.3236
 1018SOL    HW114513   1.676   1.931   2.232  1.3371 -0.1281 -0.1262
 1018SOL    HW214514   1.635   2.050   2.161  1.6067 -2.3647 -1.2502
 1019SOL     OW14515   3.540   0.280   3.133 -0.0107 -0.4801 -0.0528
 1019SOL    HW114516   3.458   0.247   3.169  0.5088 -0.8579  0.7900
 1019SOL    HW214517   3.528   0.277   3.038  0.3186  0.9808 -0.1386
 1020SOL     OW14518   3.588   0.806   4.138  0.2589 -0.7625 -0.2494
 1020SOL    HW114519   3.641   0.773   4.066  2.6313 -1.1130  1.6269
 1020SOL    HW214520   3.538   0.875   4.095 -1.6269 -0.9177  1.6858
 1021SOL     OW14521   0.331   1.034  15.455 -0.3318 -0.2764 -0.3479
 1021SOL    HW114522   0.368   1.045  15.367  0.6863 -0.0750  0.0993
 1021SOL    HW214523   0.311   1.124  15.482 -1.7082 -0.2245 -1.5678
 1022SOL     OW14524   3.684   1.836  13.828 -0.6171  0.2189  0.5953
 1022SOL    HW114525   3.592   1.821  13.807  0.4102 -1.9355 -2.3196
 1022SOL    HW214526   3.698   1.924  13.792  1.9170 -0.1515  0.6619
 1023SOL     OW14527   4.466   3.173   7.696 -0.6616 -0.2235 -0.0221
 1023SOL    HW114528   4.440   3.174   7.604  0.4702  0.3539 -0.3406
 1023SOL    HW214529   4.454   3.265   7.720  1.0947 -0.7001  2.6585
 1024SOL     OW14530   1.537   4.603  10.475 -0.2631 -0.4059 -0.0696
 1024SOL    HW114531   1.506   4.566  10.392  1.5785  0.8663 -1.3175
 1024SOL    HW214532   1.535   4.695  10.450 -0.8230 -1.0705 -2.4856
 1025SOL     OW14533   4.222   0.304   8.436  0.0620 -0.1183  0.1167
 1025SOL    HW114534   4.303   0.336   8.395  0.1734 -0.3034  0.1951
 1025SOL    HW214535   4.262   0.241   8.495  1.8437 -1.3206 -2.3819
 1026SOL     OW14536   3.006   3.619  17.391  0.8525  0.3504  0.3184
 1026SOL    HW114537   2.985   3.546  17.332 -0.3094  0.4104  0.6561
 1026SOL    HW214538   2.928   3.675  17.388 -0.2665 -1.1519  0.8839
 1027SOL     OW14539   3.802   2.560  13.675  0.3061 -0.3127 -0.0800
 1027SOL    HW114540   3.838   2.648  13.662 -1.0567  0.2263 -0.2122
 1027SOL    HW214541   3.870   2.515  13.625  0.7355  0.7226 -0.4311
 1028SOL     OW14542   3.671   2.924   3.719  0.6471 -0.4070  0.7368
 1028SOL    HW114543   3.688   2.995   3.656  0.3209 -0.3814  0.6750
 1028SOL    HW214544   3.718   2.854   3.675  1.0624  0.1901  0.2209
 1029SOL     OW14545   2.569   2.951  12.747 -0.7357 -0.1307 -0.1185
 1029SOL    HW114546   2.598   2.894  12.676  2.1175  1.7678 -0.4967
 1029SOL    HW214547   2.585   2.887  12.817 -1.8953 -0.3431 -0.0527
 1030SOL     OW14548   0.457   1.427   1.882 -0.1505  0.3155 -0.7339
 1030SOL    HW114549   0.472   1.493   1.950  3.0132  0.2897 -1.4352
 1030SOL    HW214550   0.542   1.424   1.838  0.4003  1.8754  0.2532
 1031SOL     OW14551   3.309   0.514  10.252 -0.1652  0.3633  0.7035
 1031SOL    HW114552   3.356   0.593  10.279 -1.4752  0.1421  3.6252
 1031SOL    HW214553   3.376   0.451  10.281  1.1222  1.7691  0.7442
 1032SOL     OW14554   2.088   4.056   8.084 -0.3369 -0.3970  0.1529
 1032SOL    HW114555   2.027   4.030   8.015  1.7537  0.1886 -1.9275
 1032SOL    HW214556   2.047   4.138   8.112  1.0422  0.3800 -0.0868
 1033SOL     OW14557   2.586   2.197   2.613 -0.3680 -0.0328 -0.1342
 1033SOL    HW114558   2.539   2.174   2.693  1.0303 -0.5439  0.5320
 1033SOL    HW214559   2.527   2.172   2.543  1.3863  1.1285 -2.0425
 1034SOL     OW14560   1.235   2.482   6.792 -0.1614  0.1430  0.1694
 1034SOL    HW114561   1.140   2.474   6.789 -0.1098  0.0727 -1.2160
 1034SOL    HW214562   1.250   2.479   6.886 -1.3181  0.1556  0.3503
 1035SOL     OW14563   2.207   0.051  17.088  0.1534 -0.0705 -0.0374
 1035SOL    HW114564   2.121   0.092  17.079 -1.0156 -2.2714  0.9469
 1035SOL    HW214565   2.249   0.081  17.007 -0.2730  0.4293 -0.0731
 1036SOL     OW14566   3.992   1.997   0.282  0.3948  0.1913  0.0301
 1036SOL    HW114567   3.954   2.015   0.368  2.4223  2.6927  0.3897
 1036SOL    HW214568   3.915   2.031   0.237  1.3365  2.5424  0.2132
 1037SOL     OW14569   3.009   1.696   3.573 -0.0033 -0.2719  0.3187
 1037SOL    HW114570   3.075   1.699   3.642 -0.8490  0.5764  1.0938
 1037SOL    HW214571   3.053   1.732   3.496  1.1129  1.0264  1.5628
 1038SOL     OW14572   4.650   1.797   8.702 -0.0032 -0.0822  0.0914
 1038SOL    HW114573   4.587   1.851   8.655  1.3081  1.6395  0.3126
 1038SOL    HW214574   0.000   1.793   8.646 -0.2857 -1.6510 -0.1990
 1039SOL     OW14575   3.041   1.811   9.876 -0.4302 -0.0029  0.7965
 1039SOL    HW114576   3.098   1.788   9.803 -0.2744  1.6912  0.3834
 1039SOL    HW214577   3.080   1.889   9.915  3.5713 -3.1118  2.9692
 1040SOL     OW14578   3.110   3.106   2.624  0.6182  0.0007 -0.7276
 1040SOL    HW114579   3.195   3.065   2.641 -0.3103 -1.4743  0.2944
 1040SOL    HW214580   3.069   3.032   2.580 -0.0766  0.3504 -0.6712
 1041SOL     OW14581   1.363   3.314   1.751 -0.5113  0.1689  0.2537
 1041SOL    HW114582   1.425   3.383   1.727 -0.9630  0.6615  0.4988
 1041SOL    HW214583   1.288   3.323   1.692 -0.7540 -0.9071  0.3926
 1042SOL     OW14584   3.576   0.089   4.053 -0.3541 -0.3307 -0.2104
 1042SOL    HW114585   3.508   0.142   4.095  1.5991  0.6000  1.8103
 1042SOL    HW214586   3.560   0.118   3.964 -2.3067  2.6624  1.1035
 1043SOL     OW14587   3.258   0.020   4.169  0.6581  0.7613  0.1252
 1043SOL    HW114588   3.353   0.035   4.174  0.7536  0.3610 -0.4837
 1043SOL    HW214589   3.220   0.081   4.233  1.7586 -0.1790  1.6875
 1044SOL     OW14590   0.472   2.624  15.531  0.3730  0.3278  0.1731
 1044SOL    HW114591   0.493   2.533  15.549  1.4214  0.6328  0.5254
 1044SOL    HW214592   0.391   2.615  15.481  0.8602 -0.8972 -0.3681
 1045SOL     OW14593   1.273   4.448   8.034 -0.4441  0.1489 -0.8960
 1045SOL    HW114594   1.243   4.525   7.986  0.6615  3.4692  3.7917
 1045SOL    HW214595   1.301   4.399   7.957 -1.1271  0.7086 -1.4970
 1046SOL     OW14596   4.255   3.205   8.383  0.7681 -0.0318  0.0878
 1046SOL    HW114597   4.266   3.178   8.475  0.9227  1.6682  0.5586
 1046SOL    HW214598   4.163   3.179   8.376  0.4729  1.0732 -0.1288
 1047SOL     OW14599   2.592   1.343   4.487  0.0731 -0.0872  0.1972
 1047SOL    HW114600   2.651   1.407   4.447 -2.7797  1.3208 -1.7282
 1047SOL    HW214601   2.523   1.401   4.520 -0.9171 -0.5530 -1.0478
 1048SOL     OW14602   0.934   3.968  11.056  0.6905 -0.1041 -0.5569
 1048SOL    HW114603   0.985   3.918  11.119 -1.0036 -0.4549  0.5276
 1048SOL    HW214604   0.850   3.981  11.100  1.3539  3.6534 -0.3829
 1049SOL     OW14605   0.263   2.813  17.461 -0.3814 -0.7479 -0.4392
 1049SOL    HW114606   0.321   2.812  17.537 -0.6536 -0.5433 -0.2280
 1049SOL    HW214607   0.286   2.728  17.421  0.3612 -0.7997  0.0952
 1050SOL     OW14608   3.532   3.868   5.313 -0.1432 -0.4587  0.2902
 1050SOL    HW114609   3.484   3.796   5.272 -0.3905 -0.3000  0.3031
 1050SOL    HW214610   3.614   3.875   5.263 -0.5398 -0.7712 -0.4130
 1051SOL     OW14611   2.931   4.285   7.110 -0.2448 -0.1726  0.3720
 1051SOL    HW114612   3.006   4.226   7.112  0.3282  0.4802 -1.6285
 1051SOL    HW214613   2.958   4.339   7.035 -2.2482  0.0645 -0.1778
 1052SOL     OW14614   3.629   2.192   3.506  0.7041  0.4319  0.5602
 1052SOL    HW114615   3.618   2.213   3.413 -0.9119  2.0918  1.1440
 1052SOL    HW214616   3.541   2.192   3.543  0.3532  2.0287 -0.2369
 1053SOL     OW14617   2.996   1.813  10.691 -0.2938  0.1861  0.3490
 1053SOL    HW114618   2.985   1.790  10.599 -2.4325  0.4328  0.5477
 1053SOL    HW214619   3.090   1.804  10.707 -0.7838  0.5155  3.5805
 1054SOL     OW14620   4.398   0.602   4.618  0.3962  0.4701 -0.0035
 1054SOL    HW114621   4.478   0.589   4.566 -0.1009  0.5736 -0.7970
 1054SOL    HW214622   4.338   0.649   4.560  2.0923  0.0976 -2.0436
 1055SOL     OW14623   0.831   2.096   4.886 -0.3988  0.3391  0.2249
 1055SOL    HW114624   0.811   2.063   4.973  0.8157 -0.0507  0.3560
 1055SOL    HW214625   0.751   2.144   4.865 -1.3684 -0.9142  1.0302
 1056SOL     OW14626   4.235   3.077   6.804  0.4042  0.3744 -0.7995
 1056SOL    HW114627   4.283   3.103   6.726  0.8940 -0.4429 -0.7628
 1056SOL    HW214628   4.266   2.987   6.812  1.1147  0.5932 -1.1015
 1057SOL     OW14629   2.485   0.849   4.112 -0.3570  0.3426  0.2245
 1057SOL    HW114630   2.411   0.909   4.103  0.6961  1.5913 -0.0647
 1057SOL    HW214631   2.516   0.850   4.203 -0.1152 -0.6872  0.1506
 1058SOL     OW14632   2.092   1.760   7.470  0.1692  0.3326  0.4418
 1058SOL    HW114633   2.038   1.837   7.488 -2.2067 -0.9541 -1.1943
 1058SOL    HW214634   2.073   1.756   7.376  1.0375  0.3017  0.2672
 1059SOL     OW14635   2.219   3.203   2.976 -0.0556  0.1146  0.1419
 1059SOL    HW114636   2.126   3.179   2.975  0.1328 -0.6078 -0.0657
 1059SOL    HW214637   2.251   3.152   2.902  1.4747 -0.1270  0.9662
 1060SOL     OW14638   0.295   3.520   9.556 -0.5225  0.0244  0.9572
 1060SOL    HW114639   0.342   3.591   9.512 -0.9015  0.7174  1.6777
 1060SOL    HW214640   0.238   3.568   9.616 -1.6720  0.7315 -0.7283
 1061SOL     OW14641   2.024   0.038   3.802 -0.4636  0.1847  0.7714
 1061SOL    HW114642   2.059   4.703   3.867  0.6224 -0.9071 -0.8379
 1061SOL    HW214643   2.048   4.720   3.721 -2.2984  0.7593 -0.0834
 1062SOL     OW14644   4.332   3.035   9.754 -0.1162 -0.3533 -0.6378
 1062SOL    HW114645   4.421   3.063   9.774  0.2687 -1.0046 -1.4566
 1062SOL    HW214646   4.355   2.954   9.708 -0.2069 -1.6556  1.5724
 1063SOL     OW14647   2.960   3.314  12.347 -0.4043  0.2022  0.0198
 1063SOL    HW114648   3.054   3.329  12.345 -0.0524 -1.5341  2.6873
 1063SOL    HW214649   2.940   3.304  12.254 -0.3506 -0.8201  0.1139
 1064SOL     OW14650   3.252   4.375  11.038  0.4560  0.0643  0.1362
 1064SOL    HW114651   3.232   4.395  11.129 -0.8127  0.4277 -0.2283
 1064SOL    HW214652   3.221   4.285  11.034 -1.0580  0.5643  0.8118
 1065SOL     OW14653   0.034   3.997  10.939 -0.0609  0.6783 -0.2458
 1065SOL    HW114654   4.709   3.929  10.983 -0.3428  0.8410 -0.3216
 1065SOL    HW214655   0.113   3.991  10.992  1.7143  2.6033 -2.6803
 1066SOL     OW14656   0.811   3.018   6.478  0.3090 -0.6294  0.1872
 1066SOL    HW114657   0.874   2.979   6.539  1.4464  1.9083  0.6198
 1066SOL    HW214658   0.784   2.939   6.430  1.9302 -1.3837  0.4937
 1067SOL     OW14659   3.497   4.457   2.917 -0.5264 -0.7250  0.2720
 1067SOL    HW114660   3.582   4.442   2.878 -0.8569  1.1202 -1.1324
 1067SOL    HW214661   3.461   4.370   2.936  0.0943 -1.1077 -0.3501
 1068SOL     OW14662   0.047   4.333   9.492 -0.3002  0.3091  0.3206
 1068SOL    HW114663   0.021   4.323   9.583  0.7130  0.7035  0.6498
 1068SOL    HW214664   0.142   4.323   9.490 -0.4779 -1.3587  0.4176
 1069SOL     OW14665   0.665   1.742  11.972  0.0438 -0.1096 -0.2569
 1069SOL    HW114666   0.714   1.680  12.026  1.8117  0.6359 -1.0226
 1069SOL    HW214667   0.607   1.781  12.037  2.1675  0.2153  1.4412
 1070SOL     OW14668   2.519   1.219   6.873 -0.1260  1.4109  0.4717
 1070SOL    HW114669   2.534   1.166   6.794 -1.0199  0.7476  0.7519
 1070SOL    HW214670   2.446   1.271   6.841  0.3798  1.7515 -0.1483
 1071SOL     OW14671   0.116   3.506   9.285  0.2981  0.0375 -0.6328
 1071SOL    HW114672   0.023   3.519   9.303  0.6803  0.7878  0.7969
 1071SOL    HW214673   0.156   3.583   9.325 -1.3555  1.3300 -1.4607
 1072SOL     OW14674   2.587   2.496   1.007  0.2011  0.3051  0.4603
 1072SOL    HW114675   2.675   2.468   1.032  0.4424 -0.0463 -0.7846
 1072SOL    HW214676   2.609   2.520   0.917 -1.3174  0.1284  0.0461
 1073SOL     OW14677   2.424   2.270   8.504 -0.5261  0.0605 -0.5145
 1073SOL    HW114678   2.443   2.328   8.431 -1.4220  2.2871  1.0184
 1073SOL    HW214679   2.511   2.250   8.538 -0.4638  0.2984 -0.5408
 1074SOL     OW14680   2.720   0.243   2.996 -0.2790 -0.7453 -0.0530
 1074SOL    HW114681   2.764   0.294   3.064 -1.3176  0.7985 -0.5226
 1074SOL    HW214682   2.730   0.302   2.921 -1.3565 -0.6731 -0.1461
 1075SOL     OW14683   0.489   0.454   5.323  0.3638  0.0865  0.3538
 1075SOL    HW114684   0.469   0.524   5.385  1.9651 -0.2847  1.2828
 1075SOL    HW214685   0.526   0.387   5.381 -0.0986  1.3171  2.0530
 1076SOL     OW14686   3.364   4.218   4.970  0.2085 -0.3533 -0.2472
 1076SOL    HW114687   3.360   4.194   4.878 -0.1062 -0.3260 -0.2430
 1076SOL    HW214688   3.270   4.208   4.988  0.2818 -0.2391  0.2134
 1077SOL     OW14689   4.352   0.894   3.191  0.5446  0.6303 -0.3553
 1077SOL    HW114690   4.269   0.940   3.202 -0.7307 -1.5195 -1.0177
 1077SOL    HW214691   4.363   0.860   3.102  1.3743  0.7855 -0.3156
 1078SOL     OW14692   3.440   1.913   2.303  0.0184  0.0729  0.0656
 1078SOL    HW114693   3.349   1.932   2.283  0.0494  1.6218  1.3810
 1078SOL    HW214694   3.441   1.819   2.286 -2.3818 -0.1709  1.3551
 1079SOL     OW14695   4.156   2.896   1.336 -0.0691  0.0804  0.0911
 1079SOL    HW114696   4.063   2.914   1.325 -0.4112 -1.1297  1.0843
 1079SOL    HW214697   4.149   2.826   1.401 -0.7437  0.7180  0.6960
 1080SOL     OW14698   2.886   3.287  11.098 -0.6882  0.2408  0.1389
 1080SOL    HW114699   2.876   3.203  11.143  0.4665 -0.2757 -0.5748
 1080SOL    HW214700   2.976   3.285  11.067  0.2926 -2.0153  3.1702
 1081SOL     OW14701   4.357   1.917  14.164  0.3637 -0.5128 -0.3768
 1081SOL    HW114702   4.355   1.821  14.170 -2.1086 -0.3609  1.1912
 1081SOL    HW214703   4.357   1.935  14.258 -3.0063  1.5689 -0.7832
 1082SOL     OW14704   0.749   4.231   3.099 -0.4519 -0.2359 -0.3745
 1082SOL    HW114705   0.745   4.152   3.153 -0.2796  0.3487  0.4924
 1082SOL    HW214706   0.654   4.229   3.083 -0.5011  2.8478 -0.4625
 1083SOL     OW14707   4.533   1.352  15.537  0.0370  0.0376  0.4873
 1083SOL    HW114708   4.552   1.410  15.611 -1.4146 -1.6400  2.2058
 1083SOL    HW214709   4.599   1.283  15.536 -0.6297 -0.5678 -1.1512
 1084SOL     OW14710   2.146   1.127   1.703 -0.7875  0.3184  0.4086
 1084SOL    HW114711   2.194   1.210   1.703  1.0995 -0.7632  1.8543
 1084SOL    HW214712   2.163   1.102   1.612 -0.4193 -0.2177  0.6247
 1085SOL     OW14713   0.534   2.485   6.869  0.3387 -0.1178 -0.1150
 1085SOL    HW114714   0.480   2.528   6.802  0.3749 -0.6201 -0.4679
 1085SOL    HW214715   0.581   2.421   6.816 -2.7478 -2.2489 -0.2633
 1086SOL     OW14716   1.375   3.574   1.968  0.1974 -0.1196 -0.4391
 1086SOL    HW114717   1.317   3.525   1.910  1.6031  0.3117 -2.2333
 1086SOL    HW214718   1.464   3.554   1.937 -0.0081  0.5469 -1.4864
 1087SOL     OW14719   3.219   2.730   6.906  0.0873 -0.0857  0.0294
 1087SOL    HW114720   3.297   2.709   6.855 -1.0154  2.6631 -2.7405
 1087SOL    HW214721   3.154   2.744   6.837  1.7201  1.2666 -1.2176
 1088SOL     OW14722   2.831   3.261   6.871  0.0933 -0.3319 -0.1792
 1088SOL    HW114723   2.834   3.167   6.856 -0.5562 -0.0133 -2.4040
 1088SOL    HW214724   2.920   3.294   6.868 -0.6850  1.9474  1.7255
 1089SOL     OW14725   3.632   4.376   6.008  0.5329 -0.3568 -0.1536
 1089SOL    HW114726   3.711   4.418   5.974 -0.1379  0.0939 -1.1075
 1089SOL    HW214727   3.621   4.431   6.085  3.0688 -0.0872  0.0237
 1090SOL     OW14728   4.079   2.647   1.480 -0.1455  0.6565  0.1839
 1090SOL    HW114729   4.084   2.643   1.384 -1.0898 -1.8258  0.2128
 1090SOL    HW214730   4.124   2.564   1.497  0.4726  1.2237  1.2809
 1091SOL     OW14731   1.068   3.119  10.125  0.3216  0.1775 -0.1536
 1091SOL    HW114732   1.027   3.158  10.048 -1.2872  2.5063  1.8866
 1091SOL    HW214733   1.110   3.048  10.077  2.2759  0.7635  0.6541
 1092SOL     OW14734   1.067   0.852  12.548 -0.5320 -0.5033  0.1490
 1092SOL    HW114735   1.130   0.891  12.487  1.0641  1.3405  3.0039
 1092SOL    HW214736   1.071   0.903  12.629 -1.7008 -0.2122  0.0207
 1093SOL     OW14737   1.161   4.638   4.485 -0.0403 -0.2029  0.3818
 1093SOL    HW114738   1.191   0.000   4.467 -1.1097 -0.1608 -1.2263
 1093SOL    HW214739   1.154   4.599   4.398 -1.2459 -0.0380  0.4006
 1094SOL     OW14740   3.519   1.941   8.061 -0.5707  0.4544  0.0880
 1094SOL    HW114741   3.607   1.922   8.029 -1.6532 -2.3184 -1.2148
 1094SOL    HW214742   3.531   2.025   8.106  0.8482  0.1038  0.3464
 1095SOL     OW14743   3.126   1.678   7.732  0.4968  0.4854  0.0548
 1095SOL    HW114744   3.162   1.626   7.803  1.7284  1.2606 -0.0103
 1095SOL    HW214745   3.189   1.677   7.660 -1.7147 -0.0820 -1.9074
 1096SOL     OW14746   4.091   0.423  15.759  0.0074 -0.4183  0.0283
 1096SOL    HW114747   4.161   0.487  15.745 -0.9972  0.2876 -1.7484
 1096SOL    HW214748   4.019   0.460  15.708 -0.2022  0.8564  1.2474
 1097SOL     OW14749   2.806   3.283   8.441  0.6632 -0.3273 -0.1583
 1097SOL    HW114750   2.817   3.325   8.356 -0.2185  2.6532  1.1892
 1097SOL    HW214751   2.857   3.345   8.493  1.3458  0.3218 -1.5928
 1098SOL     OW14752   0.229   3.599  12.206  0.2816 -0.8637 -0.1264
 1098SOL    HW114753   0.182   3.518  12.227  0.5878 -1.1842 -0.6793
 1098SOL    HW214754   0.311   3.560  12.238  0.5826  0.7141  0.9943
 1099SOL     OW14755   0.750   3.754   5.853 -0.0284  0.5430  0.2317
 1099SOL    HW114756   0.826   3.720   5.899  1.3775  1.2937 -1.5347
 1099SOL    HW214757   0.753   3.838   5.899  1.5643  0.6824 -0.1064
 1100SOL     OW14758   4.543   0.098   8.072 -0.4805 -0.4506  0.0009
 1100SOL    HW114759   4.461   0.068   8.109  0.0416 -0.8318  0.8345
 1100SOL    HW214760   4.573   0.014   8.036 -1.7799 -0.8052 -0.2695
 1101SOL     OW14761   2.184   3.869  12.774  0.5463  0.6538  0.0977
 1101SOL    HW114762   2.232   3.951  12.780  0.3317  0.8314 -0.6336
 1101SOL    HW214763   2.228   3.829  12.849 -0.0414  0.6735  0.4468
 1102SOL     OW14764   0.031   1.327   4.369  0.0021 -0.4079 -0.3758
 1102SOL    HW114765   4.689   1.262   4.354  0.8171 -1.5727  0.9461
 1102SOL    HW214766   4.702   1.404   4.361  1.5981  0.7571 -0.2587
 1103SOL     OW14767   0.626   3.539   2.792 -0.3092  0.1638  0.2188
 1103SOL    HW114768   0.702   3.495   2.830 -0.2996 -0.3464 -0.3832
 1103SOL    HW214769   0.590   3.466   2.740 -1.7644  2.9899 -2.7429
 1104SOL     OW14770   2.795   4.062  13.422 -0.5237 -0.4338  0.3620
 1104SOL    HW114771   2.700   4.057  13.408 -0.2944  0.4964 -1.4369
 1104SOL    HW214772   2.816   4.155  13.430 -2.7624  0.0620  0.3353
 1105SOL     OW14773   3.709   0.250   4.877  0.0801  0.0950  0.0014
 1105SOL    HW114774   3.752   0.275   4.959  0.6021 -0.0695 -0.2171
 1105SOL    HW214775   3.650   0.325   4.867  1.1317  0.8228 -0.9050
 1106SOL     OW14776   3.302   2.401   6.617 -0.4966 -0.3539 -0.2589
 1106SOL    HW114777   3.356   2.481   6.617 -0.4253 -0.3919 -1.5115
 1106SOL    HW214778   3.323   2.357   6.699 -0.6585  1.4947  0.7898
 1107SOL     OW14779   1.921   4.229   5.733 -0.4265 -0.1129  0.8941
 1107SOL    HW114780   1.974   4.298   5.773 -0.3641 -0.5720  1.6045
 1107SOL    HW214781   1.849   4.285   5.704  1.0562  0.9212 -0.7584
 1108SOL     OW14782   0.585   2.706  12.121 -0.0288  0.4312  0.1590
 1108SOL    HW114783   0.643   2.679  12.051 -2.2707 -3.5417 -0.1573
 1108SOL    HW214784   0.563   2.798  12.103 -0.0381  0.3133 -0.4336
 1109SOL     OW14785   4.696   3.394   1.917 -0.3239 -0.2521 -0.8807
 1109SOL    HW114786   4.675   3.457   1.986  3.1247 -0.3899  0.3038
 1109SOL    HW214787   0.057   3.369   1.947 -0.2286 -1.2026 -1.9861
 1110SOL     OW14788   4.643   0.275   4.728 -0.2569  0.3935 -0.3363
 1110SOL    HW114789   4.700   0.208   4.765  0.5794  0.5432 -1.3124
 1110SOL    HW214790   4.654   0.350   4.786  1.5124  0.1682 -0.3728
 1111SOL     OW14791   3.300   2.065   4.772  0.8187  0.4118  0.3436
 1111SOL    HW114792   3.253   2.062   4.856  0.9274 -1.2043  0.3358
 1111SOL    HW214793   3.389   2.085   4.801  0.8447  1.4118 -0.4081
 1112SOL     OW14794   0.716   1.286   2.605  0.1705  0.1480  0.0750
 1112SOL    HW114795   0.630   1.245   2.613 -0.1705  1.1936  1.7601
 1112SOL    HW214796   0.738   1.274   2.513  0.5472 -2.0129  0.4565
 1113SOL     OW14797   2.096   2.232  10.162 -0.1087 -0.3652  0.2738
 1113SOL    HW114798   2.042   2.239  10.241  0.8873  0.1004  0.9071
 1113SOL    HW214799   2.155   2.305  10.181  0.6667 -1.1208  0.7901
 1114SOL     OW14800   2.818   4.307   1.692 -0.7213 -0.2014  0.1684
 1114SOL    HW114801   2.757   4.259   1.636 -1.7104 -0.3432  1.3759
 1114SOL    HW214802   2.759   4.333   1.763 -1.0315  2.9226 -1.2380
 1115SOL     OW14803   2.871   0.617  12.310  0.1898  0.2821  0.3096
 1115SOL    HW114804   2.861   0.668  12.390  0.8929  1.0299 -0.0754
 1115SOL    HW214805   2.862   0.530  12.349  1.4534 -0.1241 -0.3030
 1116SOL     OW14806   2.970   2.198   7.605 -0.3513  0.4725  0.4167
 1116SOL    HW114807   3.046   2.215   7.661 -0.4897 -1.0093  1.0731
 1116SOL    HW214808   2.901   2.191   7.671 -1.2822  1.1987 -0.4819
 1117SOL     OW14809   1.808   0.171  16.487  0.5928  0.2002 -0.5731
 1117SOL    HW114810   1.865   0.153  16.562 -0.0107  1.3211  0.1677
 1117SOL    HW214811   1.727   0.211  16.520 -0.0132  2.5000 -4.9342
 1118SOL     OW14812   0.279   3.181   5.859  0.3903  0.0160 -0.0777
 1118SOL    HW114813   0.241   3.214   5.777 -1.2304 -1.0413  0.2520
 1118SOL    HW214814   0.278   3.086   5.844  0.1148  0.1193 -0.7435
 1119SOL     OW14815   1.288   3.194   9.411  0.1348 -0.0046  0.5993
 1119SOL    HW114816   1.300   3.175   9.504 -0.7916 -0.3320  0.6521
 1119SOL    HW214817   1.274   3.104   9.382  2.4436 -0.5208  1.0680
 1120SOL     OW14818   0.394   4.188   7.398 -0.0171 -0.6392  0.4812
 1120SOL    HW114819   0.396   4.267   7.344  0.7975 -0.4620  0.7629
 1120SOL    HW214820   0.472   4.201   7.453  1.5008 -1.4138 -1.5013
 1121SOL     OW14821   0.408   3.021  13.000 -0.2131 -0.0087 -0.3081
 1121SOL    HW114822   0.366   3.076  12.934  0.1760  1.8455  0.9934
 1121SOL    HW214823   0.365   2.937  12.982  1.5186 -1.8288  4.1668
 1122SOL     OW14824   1.814   4.593   7.002  0.0871 -0.2883  0.5709
 1122SOL    HW114825   1.836   4.589   7.095 -1.7497  0.3625  1.0297
 1122SOL    HW214826   1.813   4.686   6.982  1.5742  0.1150  2.3938
 1123SOL     OW14827   0.492   2.556   5.184 -0.2801  0.0181 -0.3434
 1123SOL    HW114828   0.579   2.595   5.192  0.0823 -1.0476  1.0393
 1123SOL    HW214829   0.504   2.465   5.213 -1.3585  0.8944  2.9259
 1124SOL     OW14830   0.305   2.018  11.089  0.3701 -0.7222  0.2695
 1124SOL    HW114831   0.260   1.937  11.066  1.7067 -1.2929 -0.2987
 1124SOL    HW214832   0.394   1.986  11.075 -0.1398 -2.6366  1.4711
 1125SOL     OW14833   2.874   3.953   4.642  0.0315  0.2179 -0.1373
 1125SOL    HW114834   2.882   3.910   4.557 -2.6632  0.5407 -0.5648
 1125SOL    HW214835   2.965   3.956   4.672 -0.9306  1.4761  2.6855
 1126SOL     OW14836   1.684   0.539   5.974 -0.5072 -0.6295 -0.6786
 1126SOL    HW114837   1.646   0.612   6.022  1.0961 -0.4599  0.3565
 1126SOL    HW214838   1.770   0.534   6.016 -1.3788  0.5203  1.2377
 1127SOL     OW14839   2.327   0.126   8.576 -0.6514 -0.5068 -0.6260
 1127SOL    HW114840   2.405   0.166   8.539  1.1230 -2.8906  0.5128
 1127SOL    HW214841   2.267   0.154   8.507  0.6242  1.5027 -0.8859
 1128SOL     OW14842   4.673   3.645  13.143  0.5893  0.5163  0.5884
 1128SOL    HW114843   4.677   3.689  13.058  0.4998  1.6658  1.1743
 1128SOL    HW214844   0.020   3.689  13.185  0.5716 -1.7711  3.0333
 1129SOL     OW14845   2.115   3.532  17.500 -0.2826 -0.2419 -0.3033
 1129SOL    HW114846   2.044   3.596  17.503  0.4159  0.4108  1.9824
 1129SOL    HW214847   2.128   3.516  17.594 -1.8335  2.4420  0.3525
 1130SOL     OW14848   0.170   3.646   9.995 -0.6160 -0.1972 -0.5957
 1130SOL    HW114849   0.171   3.635   9.900 -0.5964  0.2844 -0.6512
 1130SOL    HW214850   0.223   3.724  10.010 -2.2632  1.0421 -1.2396
 1131SOL     OW14851   4.335   3.254   7.948  0.3314 -0.4237 -0.6183
 1131SOL    HW114852   4.242   3.268   7.967  0.4472  0.4179 -0.6728
 1131SOL    HW214853   4.341   3.307   7.869 -2.1925 -0.5352 -0.8868
 1132SOL     OW14854   4.559   2.648   3.843  0.3028 -0.2284  0.1374
 1132SOL    HW114855   4.587   2.620   3.930 -0.4240 -1.4964 -0.0446
 1132SOL    HW214856   4.543   2.740   3.865 -0.0844 -1.2774  4.2751
 1133SOL     OW14857   0.608   3.290  13.899  0.4411 -0.3724 -0.1451
 1133SOL    HW114858   0.594   3.326  13.812 -0.0979 -2.0744 -0.7453
 1133SOL    HW214859   0.547   3.335  13.957 -0.6583 -1.5797 -0.3869
 1134SOL     OW14860   1.473   4.645   3.290  0.4089 -0.0299  0.4615
 1134SOL    HW114861   1.516   4.642   3.205 -2.5692  0.9148 -1.0766
 1134SOL    HW214862   1.388   4.609   3.265 -0.1545  0.4749  1.6505
 1135SOL     OW14863   4.061   3.221   2.868  0.2242  0.0291 -0.6260
 1135SOL    HW114864   4.015   3.262   2.941  1.7157 -0.8873  0.8366
 1135SOL    HW214865   4.087   3.134   2.898 -0.0126  0.4194  0.7200
 1136SOL     OW14866   4.707   3.622   7.536 -0.1031 -0.0610  0.0507
 1136SOL    HW114867   4.649   3.548   7.516 -0.0157  0.0487 -0.5959
 1136SOL    HW214868   4.649   3.678   7.588 -1.5088 -2.1105  0.7135
 1137SOL     OW14869   4.463   1.602   6.258  0.0331  0.2617 -0.0491
 1137SOL    HW114870   4.497   1.556   6.336 -1.0579 -0.9670 -0.3005
 1137SOL    HW214871   4.380   1.554   6.260  0.4200 -0.4571 -2.2101
 1138SOL     OW14872   2.908   3.230   4.162 -0.0914 -0.0854 -0.3639
 1138SOL    HW114873   2.879   3.159   4.219  3.5045 -0.4954  0.9451
 1138SOL    HW214874   2.839   3.229   4.095 -0.4344 -0.5220 -0.0027
 1139SOL     OW14875   2.595   3.453   5.661  0.6864 -0.3599  0.3008
 1139SOL    HW114876   2.614   3.546   5.648  4.1003 -1.0284  0.5773
 1139SOL    HW214877   2.680   3.425   5.695  0.9273  0.4005  0.3223
 1140SOL     OW14878   2.082   4.625   5.657 -0.0634 -0.8212  0.0649
 1140SOL    HW114879   2.012   4.647   5.718 -0.3964  1.9421 -1.2819
 1140SOL    HW214880   2.054   4.679   5.583 -1.4377  0.2922  1.3917
 1141SOL     OW14881   4.498   0.083  13.737  0.3454 -0.1772 -0.0478
 1141SOL    HW114882   4.565   0.033  13.783  0.7780  0.1526 -0.3229
 1141SOL    HW214883   4.433   0.016  13.719  0.8049 -0.3913 -0.9406
 1142SOL     OW14884   2.913   4.399  12.044  0.3678  0.1335  0.3469
 1142SOL    HW114885   2.988   4.368  11.994 -1.3054  0.0903 -2.1272
 1142SOL    HW214886   2.942   4.484  12.077  1.0986 -0.2231  0.6210
 1143SOL     OW14887   1.820   2.371   3.780 -0.4430  0.4069 -0.1266
 1143SOL    HW114888   1.728   2.396   3.771 -0.1437  1.2728 -0.7466
 1143SOL    HW214889   1.829   2.292   3.727  0.8314  0.5870 -0.1879
 1144SOL     OW14890   4.263   1.846   5.646  0.3521 -0.0757 -0.2068
 1144SOL    HW114891   4.235   1.933   5.674  1.5900  0.9509 -2.1711
 1144SOL    HW214892   4.297   1.864   5.558  0.2521  2.5683  0.3084
 1145SOL     OW14893   1.509   2.227   7.009  0.5137 -0.1184 -0.2000
 1145SOL    HW114894   1.555   2.301   7.049 -0.9990  1.0184 -0.5530
 1145SOL    HW214895   1.572   2.160   7.035 -0.1761 -0.5965  0.2406
 1146SOL     OW14896   0.686   0.767   5.277 -0.4833 -0.3504 -0.2496
 1146SOL    HW114897   0.647   0.787   5.362  2.5566  0.0334  1.0482
 1146SOL    HW214898   0.651   0.687   5.236  0.1965 -1.1715  0.7699
 1147SOL     OW14899   2.646   3.225  11.983 -0.7288  0.4717 -0.4241
 1147SOL    HW114900   2.649   3.290  11.913  0.4806  0.2419 -0.5897
 1147SOL    HW214901   2.554   3.203  11.995 -0.4716  0.1261  0.9019
 1148SOL     OW14902   0.991   4.649  13.354 -0.7296 -0.5107  0.0860
 1148SOL    HW114903   0.907   4.607  13.374 -0.2464 -0.4746  2.1671
 1148SOL    HW214904   0.955   4.717  13.297  0.3524 -0.1641 -0.1747
 1149SOL     OW14905   0.120   2.508   0.969  0.7277  0.0021 -0.1836
 1149SOL    HW114906   0.119   2.413   0.956  0.1816  0.0704 -0.6626
 1149SOL    HW214907   0.098   2.542   0.883  1.4433  0.2161 -0.2784
 1150SOL     OW14908   3.918   4.084   4.728  0.3389  0.1334 -0.1931
 1150SOL    HW114909   3.916   3.990   4.746  0.3135 -0.2344 -2.1186
 1150SOL    HW214910   3.995   4.102   4.783  1.6021 -0.6243 -1.7184
 1151SOL     OW14911   0.000   2.723   1.575  0.0556 -0.1431  0.3272
 1151SOL    HW114912   0.027   2.792   1.636  3.0424  0.2457 -1.4058
 1151SOL    HW214913   0.088   2.710   1.540  0.0402 -2.9498  1.3140
 1152SOL     OW14914   3.991   2.575   0.252  0.4330  0.0835  0.1877
 1152SOL    HW114915   4.087   2.576   0.258  0.3918 -0.0881  0.8387
 1152SOL    HW214916   3.974   2.526   0.171  1.0282  0.8601 -0.4089
 1153SOL     OW14917   0.188   2.684   5.613 -0.6108  0.3899 -0.7423
 1153SOL    HW114918   0.246   2.696   5.537 -2.1096 -3.0183 -2.4485
 1153SOL    HW214919   0.228   2.600   5.634 -0.6651  0.4487 -0.4160
 1154SOL     OW14920   3.922   2.070   2.835  0.2979  0.5532 -0.3004
 1154SOL    HW114921   3.870   1.996   2.865 -0.1852 -0.6152 -4.0215
 1154SOL    HW214922   3.954   2.043   2.749  1.1934  0.2827  0.1209
 1155SOL     OW14923   4.577   3.010   4.095  0.0551  0.5420  0.6763
 1155SOL    HW114924   4.618   2.933   4.134 -1.3357 -0.7178 -0.3449
 1155SOL    HW214925   4.483   2.990   4.101  0.0885 -0.4372 -1.9448
 1156SOL     OW14926   0.336   0.956   7.029 -0.0373 -0.0053  0.2948
 1156SOL    HW114927   0.421   0.992   7.056  1.1075 -2.3847 -0.1709
 1156SOL    HW214928   0.298   0.910   7.103  0.1441 -0.0159  0.3821
 1157SOL     OW14929   3.669   1.058  17.331  0.1011 -0.4216  0.1955
 1157SOL    HW114930   3.728   1.115  17.381 -1.1316  0.5428  0.5264
 1157SOL    HW214931   3.588   1.085  17.374  0.6834 -0.3030  1.2146
 1158SOL     OW14932   0.111   2.264  15.288 -0.3037 -0.2565 -0.3275
 1158SOL    HW114933   0.204   2.285  15.297 -0.5119  0.9690 -1.0623
 1158SOL    HW214934   0.099   2.192  15.350  1.4647  0.9399  1.4254
 1159SOL     OW14935   4.530   3.971   3.624 -0.6906 -0.3556 -0.4311
 1159SOL    HW114936   4.558   3.892   3.577  1.4748  1.2795 -1.8462
 1159SOL    HW214937   4.434   3.966   3.629 -0.6398  0.2983  1.3537
 1160SOL     OW14938   2.054   1.571  10.783  0.3681 -0.4824  0.0511
 1160SOL    HW114939   2.057   1.665  10.765 -0.2677 -0.1761  1.5505
 1160SOL    HW214940   2.112   1.565  10.858 -0.8141  1.3684  1.1114
 1161SOL     OW14941   1.314   2.194   1.943 -0.1161 -0.0400  0.3013
 1161SOL    HW114942   1.295   2.219   2.033  1.2013 -1.3745  0.9453
 1161SOL    HW214943   1.293   2.278   1.902 -0.2580 -0.4597 -0.4885
 1162SOL     OW14944   2.925   2.713   0.294 -0.0824 -0.0109  0.1383
 1162SOL    HW114945   2.900   2.656   0.367  0.1270 -0.3736 -0.0705
 1162SOL    HW214946   2.962   2.779   0.352  0.2990  0.0820 -0.2108
 1163SOL     OW14947   0.863   2.893   7.037  0.1817  0.1813  0.1419
 1163SOL    HW114948   0.802   2.891   7.110  3.1208 -1.4221  2.5563
 1163SOL    HW214949   0.937   2.948   7.062  0.8618 -0.8112  0.3111
 1164SOL     OW14950   4.121   1.427   7.927  0.1638  0.3195  0.4214
 1164SOL    HW114951   4.213   1.450   7.917  0.2608 -1.2518 -2.3560
 1164SOL    HW214952   4.105   1.514   7.963  0.6168  1.3833 -1.9221
 1165SOL     OW14953   2.744   0.301   4.755 -0.0480 -0.2877 -0.2261
 1165SOL    HW114954   2.672   0.329   4.698 -0.1698 -1.8503 -0.8561
 1165SOL    HW214955   2.725   0.356   4.830  0.0336 -0.5977  0.0205
 1166SOL     OW14956   0.040   1.186  15.461 -0.0338  0.1504 -0.1631
 1166SOL    HW114957   0.128   1.218  15.478  0.1071  0.5821 -1.7492
 1166SOL    HW214958   0.032   1.192  15.366 -1.0787  3.1796  0.1112
 1167SOL     OW14959   2.932   1.850  17.231 -0.1949  0.2142  0.3717
 1167SOL    HW114960   2.993   1.832  17.160 -1.7586 -1.9643 -0.4051
 1167SOL    HW214961   2.980   1.805  17.301  0.4662  0.2773 -0.0438
 1168SOL     OW14962   2.232   3.730  11.865 -1.1761  0.0094 -0.1226
 1168SOL    HW114963   2.235   3.790  11.790 -3.5287  1.5807  1.0493
 1168SOL    HW214964   2.301   3.664  11.860 -1.7449 -0.5186 -1.0810
 1169SOL     OW14965   2.813   1.216   0.677 -0.1593  0.1163  0.1994
 1169SOL    HW114966   2.883   1.151   0.684  0.9104  1.4890  2.3691
 1169SOL    HW214967   2.865   1.294   0.695  0.8598 -0.2274 -1.2165
 1170SOL     OW14968   3.127   4.114   5.704 -0.0821  0.0456 -0.1287
 1170SOL    HW114969   3.193   4.045   5.694 -0.3495 -0.0801 -1.0476
 1170SOL    HW214970   3.067   4.069   5.644  0.3408  0.2428 -0.6947
 1171SOL     OW14971   2.259   0.439   7.824  0.2109 -0.0689  0.0521
 1171SOL    HW114972   2.291   0.446   7.914  0.2360  0.9613 -0.0399
 1171SOL    HW214973   2.188   0.375   7.831  0.4481 -0.4935 -1.3924
 1172SOL     OW14974   4.703   4.060  12.891 -0.1256 -0.3706  0.1134
 1172SOL    HW114975   4.698   3.965  12.890 -2.4476 -0.2822  3.0514
 1172SOL    HW214976   4.619   4.078  12.933 -0.2491 -0.7871  0.0418
 1173SOL     OW14977   2.884   0.246  15.278 -0.8356  0.1572  0.0413
 1173SOL    HW114978   2.959   0.238  15.337 -0.4035  0.8356 -0.4204
 1173SOL    HW214979   2.912   0.322  15.227 -0.7634  2.4027  3.4840
 1174SOL     OW14980   2.530   0.939   0.246 -0.4149  0.0913 -0.2776
 1174SOL    HW114981   2.552   1.032   0.246  0.0929 -0.0261  1.4957
 1174SOL    HW214982   2.518   0.921   0.339  2.9828  0.1090  0.1704
 1175SOL     OW14983   0.662   2.817   3.664  0.5639  0.1534 -0.3345
 1175SOL    HW114984   0.683   2.910   3.657 -1.1254  0.7313  2.2948
 1175SOL    HW214985   0.728   2.785   3.603  0.9846  2.3033 -1.0150
 1176SOL     OW14986   3.530   3.402   1.291 -0.1426  0.1659  0.0574
 1176SOL    HW114987   3.599   3.357   1.243  1.1849  1.1145  1.0882
 1176SOL    HW214988   3.517   3.463   1.219  2.7798 -1.5437 -1.9150
 1177SOL     OW14989   2.706   0.951   5.510 -0.1405  0.6682  0.1241
 1177SOL    HW114990   2.718   0.856   5.510  1.0543  0.8283 -0.5849
 1177SOL    HW214991   2.654   0.956   5.590  0.2709 -1.2867  0.4891
 1178SOL     OW14992   0.566   0.811   6.477  0.0530 -0.0820  0.6641
 1178SOL    HW114993   0.532   0.861   6.403 -0.3672  0.0930  0.9743
 1178SOL    HW214994   0.550   0.870   6.550 -0.3349  2.3314 -1.3989
 1179SOL     OW14995   2.318   0.636   7.655 -0.1909  0.0508  0.0681
 1179SOL    HW114996   2.288   0.555   7.696  1.0694 -1.6926 -2.4955
 1179SOL    HW214997   2.290   0.701   7.720 -0.7274  0.0747 -0.1787
 1180SOL     OW14998   4.152   0.031  11.689  0.1427  0.1393 -0.5266
 1180SOL    HW114999   4.211   0.032  11.765  0.2916 -1.5609 -0.6215
 1180SOL    HW215000   4.066   0.056  11.722 -0.6206 -0.9134 -1.7372
 1181SOL     OW15001   3.397   2.043  14.774  0.4528 -0.3490 -0.1815
 1181SOL    HW115002   3.404   1.954  14.809 -1.2799 -0.2829  0.3486
 1181SOL    HW215003   3.485   2.078  14.785  0.6222 -0.5768 -0.8012
 1182SOL     OW15004   3.743   2.638  12.036  0.3504 -0.4209 -0.0512
 1182SOL    HW115005   3.765   2.586  11.958 -1.6158  0.7587 -1.4144
 1182SOL    HW215006   3.824   2.665  12.079 -0.6836  1.0361  0.9800
 1183SOL     OW15007   4.437   0.145   1.898  0.2402 -0.6610 -0.3389
 1183SOL    HW115008   4.412   0.091   1.973  1.1964 -0.4667  0.1166
 1183SOL    HW215009   4.471   0.227   1.933 -1.0027 -0.7273  1.0292
 1184SOL     OW15010   1.575   2.947   8.669 -0.4882  0.3921 -0.1316
 1184SOL    HW115011   1.658   2.901   8.684 -0.5860 -0.2918 -1.6060
 1184SOL    HW215012   1.594   2.969   8.578 -3.5834 -1.9226 -1.3372
 1185SOL     OW15013   2.807   3.873  16.556  0.5192  0.2063  0.2865
 1185SOL    HW115014   2.740   3.805  16.569  0.1063  0.7086  0.7872
 1185SOL    HW215015   2.885   3.825  16.529 -0.0087 -0.3436 -0.2671
 1186SOL     OW15016   0.591   3.733   8.884  0.0418 -0.2651 -0.1392
 1186SOL    HW115017   0.595   3.638   8.884  1.1640 -0.2235 -1.4059
 1186SOL    HW215018   0.509   3.756   8.928  1.2629  1.5569  1.1927
 1187SOL     OW15019   1.507   3.609   2.271  0.2806  0.1356 -0.0484
 1187SOL    HW115020   1.557   3.618   2.352 -0.3833  0.6788  0.3051
 1187SOL    HW215021   1.580   3.625   2.211 -0.3287  2.0324 -0.3066
 1188SOL     OW15022   2.498   3.304   1.344 -0.3406  0.1515 -0.6476
 1188SOL    HW115023   2.503   3.362   1.269  0.8202 -0.9267 -1.3939
 1188SOL    HW215024   2.530   3.224   1.302 -0.6003  0.6490 -1.7687
 1189SOL     OW15025   1.282   3.852   0.432  0.0725  0.3223  0.3739
 1189SOL    HW115026   1.223   3.835   0.506 -0.9284  1.0215 -0.2748
 1189SOL    HW215027   1.368   3.837   0.470  0.2305  2.9978  1.0896
 1190SOL     OW15028   1.686   2.055   3.371 -0.0864  0.0670 -0.5365
 1190SOL    HW115029   1.739   2.082   3.296  1.7018  0.7129  0.9621
 1190SOL    HW215030   1.629   1.981   3.350  0.4753 -0.5682  0.1712
 1191SOL     OW15031   0.180   1.254  11.666  0.3914  0.0849  0.2170
 1191SOL    HW115032   0.234   1.267  11.588  0.7464 -1.6417  0.1831
 1191SOL    HW215033   0.223   1.175  11.697  0.2518  0.4238  1.2604
 1192SOL     OW15034   1.062   1.396  15.868  1.1381 -0.1666 -0.2110
 1192SOL    HW115035   1.152   1.412  15.895  1.5602 -0.2145 -1.5690
 1192SOL    HW215036   1.048   1.467  15.806 -1.0288 -1.8829 -1.7181
 1193SOL     OW15037   4.458   3.885  10.379 -0.1432 -0.0775  0.1347
 1193SOL    HW115038   4.393   3.926  10.436 -0.6267 -0.5418 -0.0812
 1193SOL    HW215039   4.535   3.871  10.435 -0.1459  1.0758  0.4225
 1194SOL     OW15040   2.997   4.546   3.287 -0.2413  0.0716  0.5390
 1194SOL    HW115041   2.975   4.510   3.374  0.5029 -0.0946  0.6596
 1194SOL    HW215042   3.085   4.511   3.270  0.7411  1.6799  2.2278
 1195SOL     OW15043   3.905   4.479   5.990 -0.3078  0.0217 -0.6897
 1195SOL    HW115044   3.854   4.561   5.995 -2.5225 -1.3380 -1.0545
 1195SOL    HW215045   3.987   4.515   5.957  0.1783 -2.5058 -2.1905
 1196SOL     OW15046   1.506   1.254   3.454  0.1649  0.2529  0.6988
 1196SOL    HW115047   1.503   1.346   3.427 -1.5096 -0.6591 -2.2312
 1196SOL    HW215048   1.595   1.247   3.488 -0.1152  1.1697  1.6136
 1197SOL     OW15049   4.537   3.177   3.835  0.1353 -0.4907 -0.6963
 1197SOL    HW115050   4.471   3.246   3.841  1.3357  0.6772 -0.9006
 1197SOL    HW215051   4.537   3.171   3.931 -0.1479 -2.5998 -0.8200
 1198SOL     OW15052   4.216   3.495   9.601  0.1242  0.4039 -0.0482
 1198SOL    HW115053   4.292   3.465   9.652 -0.7970 -2.2658 -0.2190
 1198SOL    HW215054   4.182   3.414   9.562  1.8599 -0.9032  1.1499
 1199SOL     OW15055   2.868   1.605   7.834 -0.6207  0.0907 -0.1100
 1199SOL    HW115056   2.885   1.517   7.800 -3.6139 -0.4056 -0.2614
 1199SOL    HW215057   2.942   1.658   7.803  0.0312 -0.9102 -0.2931
 1200SOL     OW15058   0.651   4.547  11.451  0.4555  0.4431 -0.1624
 1200SOL    HW115059   0.620   4.557  11.361 -0.0298  1.5549  0.1355
 1200SOL    HW215060   0.582   4.598  11.493 -0.9532 -0.6167 -1.1493
 1201SOL     OW15061   4.396   2.013  15.873  0.7808 -0.4947 -0.0696
 1201SOL    HW115062   4.462   2.069  15.912  0.3740  1.2509 -1.8524
 1201SOL    HW215063   4.443   1.981  15.796  0.4760  2.4694 -1.4808
 1202SOL     OW15064   2.665   0.509   6.548 -0.2211 -0.0462  0.0875
 1202SOL    HW115065   2.604   0.500   6.622 -1.0721 -2.0910 -0.8701
 1202SOL    HW215066   2.603   0.530   6.479 -1.4917 -0.0853  1.2012
 1203SOL     OW15067   2.188   4.594  10.488  0.5098 -0.0685  0.0706
 1203SOL    HW115068   2.109   4.633  10.449  0.6991 -0.8433 -1.1102
 1203SOL    HW215069   2.153   4.507  10.510 -0.6182  0.6630  1.2071
 1204SOL     OW15070   2.994   4.340  16.710 -0.4992 -0.2814  0.0778
 1204SOL    HW115071   2.989   4.246  16.724  0.8800  0.5019  5.7924
 1204SOL    HW215072   2.901   4.362  16.723 -0.1988  1.2208 -0.3396
 1205SOL     OW15073   0.018   1.346   1.474 -0.3092 -0.4364 -0.2426
 1205SOL    HW115074   4.651   1.325   1.469 -0.5225  0.4984 -0.1328
 1205SOL    HW215075   0.015   1.439   1.453 -3.5652 -0.5148 -0.1696
 1206SOL     OW15076   2.507   4.183  14.836 -0.1747  0.4474 -0.1553
 1206SOL    HW115077   2.460   4.140  14.907  1.7470  0.4242  1.1084
 1206SOL    HW215078   2.592   4.138  14.841 -0.8543 -0.5330  2.8255
 1207SOL     OW15079   2.949   2.994   6.364 -0.0048  0.1848 -0.8970
 1207SOL    HW115080   2.976   2.909   6.330 -0.9037 -0.1935 -0.6751
 1207SOL    HW215081   2.982   3.000   6.454 -0.2268  0.2614 -0.8204
 1208SOL     OW15082   1.712   4.504   8.307  0.5470  0.0769  0.5171
 1208SOL    HW115083   1.689   4.462   8.224  1.6332  0.4011  0.0481
 1208SOL    HW215084   1.807   4.488   8.308  0.7260  1.1173  0.5681
 1209SOL     OW15085   3.476   1.865   4.103  0.3601 -0.2082  0.6832
 1209SOL    HW115086   3.503   1.949   4.067  0.6601  0.1291  1.7013
 1209SOL    HW215087   3.392   1.896   4.137 -1.2896 -3.1171 -0.7271
 1210SOL     OW15088   3.771   1.881   3.634  0.1805  0.2012  0.3452
 1210SOL    HW115089   3.723   1.798   3.640  0.4130  0.1020  0.8551
 1210SOL    HW215090   3.724   1.932   3.569  0.4239  1.7056  1.3457
 1211SOL     OW15091   0.795   1.682   5.066  0.6082  0.0832  0.3317
 1211SOL    HW115092   0.776   1.649   4.978 -1.3601  0.4362  0.6227
 1211SOL    HW215093   0.815   1.597   5.105  1.1767  0.5684  1.1023
 1212SOL     OW15094   3.599   4.725  14.478 -0.5813 -0.1991 -0.3302
 1212SOL    HW115095   3.645   4.664  14.420  4.0003  1.9910  1.0475
 1212SOL    HW215096   3.625   0.083  14.442 -0.9796  0.6376  1.3859
 1213SOL     OW15097   0.656   1.216   8.023 -0.5749 -0.6545  0.4665
 1213SOL    HW115098   0.628   1.245   8.110 -1.6116 -1.3498  0.3563
 1213SOL    HW215099   0.571   1.184   7.994 -1.5110  1.9971  0.3061
 1214SOL     OW15100   3.468   3.760  15.836  0.8258  0.2295  0.1022
 1214SOL    HW115101   3.481   3.666  15.850  1.1968  0.4672  1.4242
 1214SOL    HW215102   3.537   3.779  15.773  1.6092 -2.2054  0.2469
 1215SOL     OW15103   2.194   4.205  17.525 -0.3569  0.0040 -0.0714
 1215SOL    HW115104   2.253   4.204  17.450  1.0143 -0.2652  1.0103
 1215SOL    HW215105   2.162   4.294  17.513  2.2298  1.1887  1.9379
 1216SOL     OW15106   2.374   1.994   6.796  0.2205  0.0580 -0.3101
 1216SOL    HW115107   2.382   1.899   6.794 -0.0468  0.0457 -0.9969
 1216SOL    HW215108   2.462   2.021   6.824 -0.4120  0.7036  1.0435
 1217SOL     OW15109   0.968   3.743  11.231  0.2623 -0.2577 -0.2770
 1217SOL    HW115110   0.960   3.750  11.327 -0.7829 -0.9775 -0.3231
 1217SOL    HW215111   0.947   3.651  11.223  0.9301 -0.3819 -0.6543
 1218SOL     OW15112   1.636   3.034   7.799 -0.8111 -0.2610  0.1646
 1218SOL    HW115113   1.673   2.946   7.796 -0.5813 -0.2226  2.1954
 1218SOL    HW215114   1.615   3.042   7.706 -2.7529 -1.8540  0.4774
 1219SOL     OW15115   4.106   1.335   4.662 -0.1470  0.5753  0.6614
 1219SOL    HW115116   4.023   1.375   4.689 -0.5504 -1.7143  2.7656
 1219SOL    HW215117   4.117   1.261   4.722 -1.4291  0.7331  1.0973
 1220SOL     OW15118   1.939   0.687   3.485  0.4051 -0.0240  0.2765
 1220SOL    HW115119   1.847   0.663   3.498  0.2492  0.3666 -0.0670
 1220SOL    HW215120   1.961   0.638   3.406  0.9413 -1.4895  1.3408
 1221SOL     OW15121   1.396   3.184   1.985 -0.3643 -0.1265 -0.3329
 1221SOL    HW115122   1.382   3.235   1.905 -0.3614  0.0971 -0.1895
 1221SOL    HW215123   1.476   3.217   2.026 -0.6052  2.2851 -1.8526
 1222SOL     OW15124   0.376   1.765   0.742  0.3132  0.3285 -0.1150
 1222SOL    HW115125   0.343   1.804   0.823 -0.2890  1.4512 -0.8983
 1222SOL    HW215126   0.471   1.765   0.756  0.6774 -1.1246 -2.5159
 1223SOL     OW15127   2.241   3.567   2.543 -0.7048 -0.0014 -0.1631
 1223SOL    HW115128   2.311   3.513   2.580 -0.6456 -0.0867 -0.3939
 1223SOL    HW215129   2.274   3.651   2.573 -0.6799 -0.4462  1.0292
 1224SOL     OW15130   0.604   3.004   4.331  0.2906 -0.0670 -0.3440
 1224SOL    HW115131   0.572   2.951   4.259 -1.9960 -2.1103  2.1535
 1224SOL    HW215132   0.614   3.086   4.283 -3.1953  0.4693 -0.1484
 1225SOL     OW15133   2.808   2.779   2.806  0.2179 -0.9183  0.3215
 1225SOL    HW115134   2.772   2.692   2.819 -1.1518 -0.6104 -1.4373
 1225SOL    HW215135   2.741   2.831   2.851 -1.0443 -0.1695 -2.4130
 1226SOL     OW15136   0.407   3.976  10.735 -0.4696 -0.2364  0.6136
 1226SOL    HW115137   0.400   4.069  10.714  2.5523 -0.1956 -0.1935
 1226SOL    HW215138   0.441   3.986  10.823 -0.8115  1.4924  0.5624
 1227SOL     OW15139   3.739   3.627  13.159  0.1835  0.2010  0.0554
 1227SOL    HW115140   3.695   3.618  13.074 -1.2506 -1.5583  0.9915
 1227SOL    HW215141   3.828   3.592  13.149  0.7207  1.7870 -0.8072
 1228SOL     OW15142   0.193   3.407   2.314 -1.0273 -0.2160 -0.1584
 1228SOL    HW115143   0.234   3.494   2.318 -2.1108  0.3482 -1.4045
 1228SOL    HW215144   0.203   3.384   2.222 -1.0120 -1.1377  0.0770
 1229SOL     OW15145   3.438   0.302   3.824  0.0620 -0.3901 -0.1231
 1229SOL    HW115146   3.439   0.381   3.878 -0.2008 -0.3695 -0.1461
 1229SOL    HW215147   3.495   0.329   3.752 -0.4425 -1.6644 -1.0083
 1230SOL     OW15148   0.331   3.047   4.198 -0.4321 -0.3689  0.4651
 1230SOL    HW115149   0.305   3.057   4.106  0.0451  2.2112  0.6125
 1230SOL    HW215150   0.344   3.139   4.222  1.8839 -1.0080  1.7136
 1231SOL     OW15151   0.636   0.974  10.685  0.1649  0.0418 -0.4849
 1231SOL    HW115152   0.597   0.953  10.770  0.8636 -1.0935 -0.4396
 1231SOL    HW215153   0.595   1.060  10.675 -1.6085 -0.4126  2.7493
 1232SOL     OW15154   2.303   2.490   2.758  0.1883 -0.3649 -0.1435
 1232SOL    HW115155   2.246   2.422   2.793 -2.1601  1.0612 -1.1710
 1232SOL    HW215156   2.254   2.571   2.775  0.0595 -0.4629 -0.0506
 1233SOL     OW15157   1.656   0.155   2.905  0.1339 -0.6054  0.6236
 1233SOL    HW115158   1.585   0.197   2.857 -1.2463 -0.7068  2.5764
 1233SOL    HW215159   1.682   0.221   2.968  1.7066 -0.8186  0.1805
 1234SOL     OW15160   1.650   1.740   2.231 -0.2422 -0.6110 -0.1454
 1234SOL    HW115161   1.558   1.724   2.254 -0.5634  1.0410 -0.3110
 1234SOL    HW215162   1.682   1.652   2.249 -0.3427 -0.7806 -0.8100
 1235SOL     OW15163   3.820   1.786  14.299  0.3637  0.3418  0.0375
 1235SOL    HW115164   3.860   1.729  14.233  0.0814 -1.0212  1.0505
 1235SOL    HW215165   3.744   1.819  14.251  1.4756  1.8531 -0.6916
 1236SOL     OW15166   2.192   1.560   2.183 -0.1040  0.2214 -0.2607
 1236SOL    HW115167   2.181   1.560   2.088  0.5524 -0.4132 -0.3409
 1236SOL    HW215168   2.183   1.470   2.213  1.1634 -0.3708 -1.6580
 1237SOL     OW15169   1.561   0.684  11.373  0.1120  0.1222  0.1874
 1237SOL    HW115170   1.500   0.703  11.444  0.9298  3.9264 -0.1130
 1237SOL    HW215171   1.578   0.769  11.332 -1.3989  0.1720 -0.3266
 1238SOL     OW15172   2.838   1.952   4.405  0.3226  0.0176 -0.3811
 1238SOL    HW115173   2.922   1.909   4.386  0.6073  0.2904  0.2815
 1238SOL    HW215174   2.840   1.949   4.500 -0.2745  0.0897 -0.3679
 1239SOL     OW15175   2.183   3.677   5.154  0.1584 -0.2534 -0.6081
 1239SOL    HW115176   2.162   3.633   5.237 -1.7964  2.7603  0.4788
 1239SOL    HW215177   2.147   3.615   5.091 -2.7727  0.2340  0.5866
 1240SOL     OW15178   2.341   3.410   6.275 -0.4354 -0.0258 -0.1148
 1240SOL    HW115179   2.297   3.347   6.332  1.5425 -2.8482 -1.7197
 1240SOL    HW215180   2.381   3.476   6.332 -1.6020 -0.6530  1.4314
 1241SOL     OW15181   1.619   1.263   5.612  0.4637  0.1101  0.8481
 1241SOL    HW115182   1.637   1.201   5.542  0.1188 -1.5806  2.2593
 1241SOL    HW215183   1.530   1.291   5.589  1.0086  0.7975 -0.4033
 1242SOL     OW15184   3.720   2.057   1.931 -1.1212  0.1271  0.2015
 1242SOL    HW115185   3.686   2.090   2.014 -1.2244  1.1619 -0.2665
 1242SOL    HW215186   3.654   2.094   1.873 -1.3575 -0.2442  0.2318
 1243SOL     OW15187   1.264   4.133   3.928 -0.1875 -0.2092 -0.3381
 1243SOL    HW115188   1.331   4.087   3.878 -1.9853 -1.4714 -1.5964
 1243SOL    HW215189   1.322   4.140   4.004 -1.0770  0.7754  0.2548
 1244SOL     OW15190   2.769   4.440   2.522  0.0042 -0.1760  0.1365
 1244SOL    HW115191   2.837   4.504   2.503  0.8865 -1.0761  0.2763
 1244SOL    HW215192   2.700   4.496   2.559  0.9249  1.2887 -0.3971
 1245SOL     OW15193   0.612   4.514  14.765 -0.7137  0.2102  0.1932
 1245SOL    HW115194   0.539   4.454  14.752 -0.2321 -0.9659  3.0235
 1245SOL    HW215195   0.566   4.588  14.806 -0.7479  0.1322  0.2958
 1246SOL     OW15196   3.123   3.354  14.161 -0.1973 -0.3965  0.2097
 1246SOL    HW115197   3.105   3.264  14.191  0.8784 -0.1908  1.4746
 1246SOL    HW215198   3.113   3.345  14.066  0.8571 -1.9848  0.2438
 1247SOL     OW15199   1.992   0.414   6.346 -0.1834  0.2785  0.2715
 1247SOL    HW115200   2.069   0.383   6.299 -1.3348 -2.0031 -0.1112
 1247SOL    HW215201   2.014   0.506   6.357 -0.0442  0.3304 -0.4092
 1248SOL     OW15202   2.989   0.728   8.597  0.0175  0.0461  0.1775
 1248SOL    HW115203   2.983   0.670   8.672 -1.8896  0.0930  0.0741
 1248SOL    HW215204   3.018   0.660   8.536 -1.6704  1.3158 -2.0555
 1249SOL     OW15205   2.663   2.690   2.223  0.4512  0.7334  0.6387
 1249SOL    HW115206   2.749   2.649   2.216 -1.2032 -2.9204  1.4135
 1249SOL    HW215207   2.614   2.611   2.248  1.1174  0.2792  0.5218
 1250SOL     OW15208   2.099   0.098   1.632  0.1283 -0.6208  0.2566
 1250SOL    HW115209   2.072   0.010   1.660 -0.7157 -0.5526 -0.3347
 1250SOL    HW215210   2.175   0.074   1.580 -0.8845 -0.2808 -1.3885
 1251SOL     OW15211   2.220   4.354   3.908 -0.3678  0.4462  0.1864
 1251SOL    HW115212   2.172   4.334   3.828 -0.7888 -0.2140  0.6011
 1251SOL    HW215213   2.228   4.449   3.911 -1.8509  0.6541 -2.3328
 1252SOL     OW15214   3.324   0.827   7.088 -0.4373 -0.1576  0.0584
 1252SOL    HW115215   3.418   0.844   7.093 -0.0951 -1.2628 -2.4789
 1252SOL    HW215216   3.305   0.837   7.181 -0.4759  0.1571  0.0182
 1253SOL     OW15217   3.226   2.938   1.021  0.7969 -0.1094 -0.1425
 1253SOL    HW115218   3.287   2.936   0.947  0.6118  1.2697 -0.3311
 1253SOL    HW215219   3.287   2.960   1.092  2.8596 -0.6956 -1.7235
 1254SOL     OW15220   2.473   0.285  17.057  0.0075 -0.4310  0.4245
 1254SOL    HW115221   2.440   0.335  17.131  0.5339  0.0290  0.3497
 1254SOL    HW215222   2.402   0.268  16.995  0.2446 -0.3525  0.1269
 1255SOL     OW15223   1.180   1.179   5.666 -0.2797  0.4619  0.5871
 1255SOL    HW115224   1.189   1.199   5.759 -1.8198  0.3940  0.7603
 1255SOL    HW215225   1.217   1.091   5.658  3.8472  2.2174  0.4220
 1256SOL     OW15226   2.720   2.671   9.987 -0.1121  0.0415 -0.3855
 1256SOL    HW115227   2.779   2.720   9.929  0.1627  0.2848  0.1026
 1256SOL    HW215228   2.647   2.724  10.019  0.3764  0.2693  0.3610
 1257SOL     OW15229   1.310   3.227   3.420 -0.2782 -0.2718  0.0042
 1257SOL    HW115230   1.277   3.238   3.331 -0.4384 -1.7839 -0.1259
 1257SOL    HW215231   1.291   3.133   3.421  1.0969 -0.5535 -0.0581
 1258SOL     OW15232   1.192   3.256   0.865  0.0049 -0.5510 -0.0350
 1258SOL    HW115233   1.275   3.286   0.901 -1.0526  1.0412  1.0543
 1258SOL    HW215234   1.130   3.283   0.932  1.0898 -0.0462  0.7749
 1259SOL     OW15235   1.880   1.698   6.955  0.9424 -0.2744  0.2770
 1259SOL    HW115236   1.891   1.667   6.866  2.4258  1.4589 -0.1484
 1259SOL    HW215237   1.968   1.730   6.976  0.8656 -0.6469  1.1685
 1260SOL     OW15238   3.320   1.000   4.498  0.1124 -0.0826 -0.5790
 1260SOL    HW115239   3.412   0.974   4.508  0.5396  1.7325  0.1119
 1260SOL    HW215240   3.278   0.920   4.466 -0.1885  0.0328 -0.4780
 1261SOL     OW15241   0.060   0.953   5.567 -0.0802 -0.4239  0.0933
 1261SOL    HW115242   0.140   0.901   5.560  0.5306  0.3568  1.3122
 1261SOL    HW215243   0.003   0.901   5.624 -1.2565  1.2094  0.4168
 1262SOL     OW15244   2.461   3.622  15.637 -0.2949  0.2415 -0.4047
 1262SOL    HW115245   2.434   3.583  15.720 -1.7846  1.8300 -0.1174
 1262SOL    HW215246   2.527   3.683  15.670 -0.4165 -0.3292  0.9171
 1263SOL     OW15247   3.345   2.969   2.220 -0.3559  0.5303 -0.9592
 1263SOL    HW115248   3.268   3.027   2.217 -1.0920 -0.4009  0.3011
 1263SOL    HW215249   3.321   2.922   2.140 -2.4226 -0.1448  0.0702
 1264SOL     OW15250   2.127   2.670   0.709  0.2644  0.1200 -0.1247
 1264SOL    HW115251   2.135   2.736   0.778 -1.9047 -0.0954  0.3397
 1264SOL    HW215252   2.033   2.663   0.690  0.2209 -0.7465  0.4025
 1265SOL     OW15253   3.921   0.773  10.484  0.0862 -0.3523  0.0384
 1265SOL    HW115254   3.935   0.700  10.423 -2.2508 -1.1855  0.4835
 1265SOL    HW215255   4.007   0.814  10.474  0.2825 -0.4617  1.3152
 1266SOL     OW15256   3.073   3.447   6.607  0.0424  0.1334 -0.6346
 1266SOL    HW115257   3.115   3.485   6.530  1.6712 -2.5139 -1.0524
 1266SOL    HW215258   3.002   3.405   6.558 -0.2622 -1.4797  1.1740
 1267SOL     OW15259   0.259   3.005   8.223 -0.2382 -0.3617 -0.4992
 1267SOL    HW115260   0.273   3.099   8.231 -0.7334 -0.3060 -0.3006
 1267SOL    HW215261   0.235   2.984   8.133 -0.6000  1.9965 -0.9591
 1268SOL     OW15262   3.376   3.596   2.196  0.1917  0.6527 -0.2737
 1268SOL    HW115263   3.348   3.664   2.256  1.2863  0.7953  0.0752
 1268SOL    HW215264   3.471   3.589   2.205  0.2855  1.6534 -0.5741
 1269SOL     OW15265   0.833   1.162   1.122  0.2615  0.6336 -0.1688
 1269SOL    HW115266   0.746   1.201   1.128 -0.7972 -1.5044 -1.3182
 1269SOL    HW215267   0.821   1.069   1.143 -1.4076  0.7363 -0.7208
 1270SOL     OW15268   2.233   2.455   3.701 -1.1120  0.0765  0.2030
 1270SOL    HW115269   2.217   2.361   3.709 -0.7733 -0.0527 -0.6699
 1270SOL    HW215270   2.265   2.459   3.611 -3.4920 -0.9686 -0.6985
 1271SOL     OW15271   2.825   1.403   6.213  0.8567  0.4077  0.2285
 1271SOL    HW115272   2.910   1.361   6.199 -0.0092 -1.1014 -0.5222
 1271SOL    HW215273   2.843   1.433   6.302  1.3800 -1.2451  0.6757
 1272SOL     OW15274   0.879   2.061  16.843 -0.6108 -0.5203 -0.0141
 1272SOL    HW115275   0.847   2.148  16.868  0.1714 -0.3982  0.5806
 1272SOL    HW215276   0.974   2.064  16.850 -0.8362 -0.0501  2.8664
 1273SOL     OW15277   2.985   0.948  11.820  0.3155  0.3450 -0.0321
 1273SOL    HW115278   2.928   0.871  11.817  0.9449 -0.0776 -1.2307
 1273SOL    HW215279   2.970   0.972  11.912 -0.9551  0.0270 -0.1527
 1274SOL     OW15280   2.814   3.563  11.663 -0.7898  0.0497 -0.1056
 1274SOL    HW115281   2.784   3.649  11.632  1.1933  1.1706  1.1166
 1274SOL    HW215282   2.908   3.573  11.679 -0.6398  0.8449 -1.4253
 1275SOL     OW15283   1.186   4.502  13.971  0.0089  0.1327  0.0516
 1275SOL    HW115284   1.100   4.543  13.983 -1.1755 -3.0221  2.4044
 1275SOL    HW215285   1.161   4.412  13.953  1.7571 -0.1173 -1.1402
 1276SOL     OW15286   2.827   3.427   2.654  0.3680  0.0526  0.5055
 1276SOL    HW115287   2.901   3.419   2.714  0.6190  1.0967  0.3286
 1276SOL    HW215288   2.782   3.343   2.649  2.7724 -1.2166  0.1922
 1277SOL     OW15289   3.677   4.661   7.575 -0.6933  0.5815 -0.0827
 1277SOL    HW115290   3.608   4.702   7.627 -1.6708  0.0560 -0.9633
 1277SOL    HW215291   3.745   0.002   7.570 -1.5271  1.5041  1.0280
 1278SOL     OW15292   4.188   2.304  14.722  0.1570  0.3131 -0.6971
 1278SOL    HW115293   4.186   2.399  14.732 -1.7145  0.1392  0.6780
 1278SOL    HW215294   4.257   2.278  14.783 -0.9641 -1.0247  0.0041
 1279SOL     OW15295   3.704   0.152   2.624 -0.5091 -0.2856  0.0957
 1279SOL    HW115296   3.630   0.213   2.627  0.2232  0.5389  1.2932
 1279SOL    HW215297   3.776   0.211   2.645 -0.1806 -0.4172 -0.6761
 1280SOL     OW15298   2.743   2.517   2.890 -0.2618 -0.7008 -0.1683
 1280SOL    HW115299   2.756   2.476   2.976 -0.9393 -0.2379  0.1542
 1280SOL    HW215300   2.828   2.502   2.848  0.7306  3.3067  0.3297
 1281SOL     OW15301   1.696   3.607  11.247 -0.1901  0.0264  0.6650
 1281SOL    HW115302   1.647   3.673  11.295  2.0080  1.7466  0.5624
 1281SOL    HW215303   1.711   3.538  11.311  0.8858 -0.3291  0.0421
 1282SOL     OW15304   3.206   1.479   7.907 -0.1336 -0.0960 -0.6327
 1282SOL    HW115305   3.246   1.393   7.902  2.3750  0.9615  1.0480
 1282SOL    HW215306   3.152   1.470   7.986  0.1066  0.1175 -0.4410
 1283SOL     OW15307   3.738   1.762   5.666  0.3426  0.5771 -0.3399
 1283SOL    HW115308   3.803   1.801   5.608 -1.2853 -0.9292 -3.2182
 1283SOL    HW215309   3.758   1.668   5.665 -0.0882  0.4914 -1.3649
 1284SOL     OW15310   4.230   0.611   4.199  0.4764 -0.5919  0.1480
 1284SOL    HW115311   4.292   0.642   4.134  0.0687  1.1824  0.6134
 1284SOL    HW215312   4.249   0.517   4.210  1.3078 -0.2666  1.5216
 1285SOL     OW15313   3.108   1.678  17.352  0.2457 -0.4153 -0.0243
 1285SOL    HW115314   3.189   1.727  17.338  0.4099  0.0090  2.4795
 1285SOL    HW215315   3.146   1.621  17.418 -2.1222 -1.5422  0.3536
 1286SOL     OW15316   1.171   0.936   3.294 -0.6114 -0.1220 -0.4772
 1286SOL    HW115317   1.252   0.948   3.343 -0.6426 -0.7893 -0.2648
 1286SOL    HW215318   1.118   0.997   3.345 -0.4985  1.8283 -2.6575
 1287SOL     OW15319   0.023   4.558  17.117  0.5229  0.1657 -0.7348
 1287SOL    HW115320   0.091   4.524  17.058  0.0926  1.1327 -1.7919
 1287SOL    HW215321   0.076   4.563  17.196 -0.3996  1.3454 -0.1879
 1288SOL     OW15322   1.402   0.760   1.304  0.6201  0.3171  0.1605
 1288SOL    HW115323   1.380   0.686   1.248 -0.0107  0.0079  0.8163
 1288SOL    HW215324   1.482   0.729   1.347  0.6771 -0.0239 -0.1931
 1289SOL     OW15325   2.255   1.504   6.940 -0.8496 -0.0381  0.1493
 1289SOL    HW115326   2.221   1.594   6.942 -0.2555  0.2328 -1.7626
 1289SOL    HW215327   2.307   1.500   6.860 -2.7969 -0.4378 -1.1019
 1290SOL     OW15328   0.416   0.232   5.587  0.5320  0.0887 -0.1840
 1290SOL    HW115329   0.400   0.160   5.648 -2.3583  0.2253 -0.7889
 1290SOL    HW215330   0.379   0.191   5.508  1.2534 -3.3127  1.2327
 1291SOL     OW15331   1.683   3.790   3.191  0.2599  0.3142  0.4147
 1291SOL    HW115332   1.650   3.810   3.104 -1.3889 -1.5511  0.6171
 1291SOL    HW215333   1.665   3.698   3.209 -0.3410  0.4890  0.7069
 1292SOL     OW15334   2.562   3.983  17.669  0.3655 -0.3910 -0.1520
 1292SOL    HW115335   2.573   3.890  17.646  0.0087  0.3010 -3.1597
 1292SOL    HW215336   2.469   3.978  17.649  0.7015 -0.0822 -1.8530
 1293SOL     OW15337   3.717   3.210  12.130  0.0694 -0.0557 -0.2242
 1293SOL    HW115338   3.630   3.200  12.170  0.1810 -1.7935 -0.3858
 1293SOL    HW215339   3.775   3.221  12.205  0.7128  1.1674 -0.9117
 1294SOL     OW15340   3.803   0.676  15.768  0.3421 -0.1709 -0.3239
 1294SOL    HW115341   3.828   0.617  15.696 -1.7950 -0.2916 -0.9747
 1294SOL    HW215342   3.714   0.640  15.778 -0.5207  1.9624 -0.4073
 1295SOL     OW15343   3.456   2.023   6.132  0.0133 -0.3040 -0.1849
 1295SOL    HW115344   3.378   2.053   6.085  0.7464  1.4342 -0.2921
 1295SOL    HW215345   3.418   1.969   6.201  0.1087 -0.7405 -0.4669
 1296SOL     OW15346   2.021   1.749   6.077  0.5099 -0.0965 -0.3531
 1296SOL    HW115347   2.043   1.829   6.029  1.2442  0.4197  0.8447
 1296SOL    HW215348   1.928   1.745   6.056  0.0644 -1.4464  1.9512
 1297SOL     OW15349   1.842   0.022   8.205  0.1458  0.4595 -0.2793
 1297SOL    HW115350   1.774   4.681   8.206  1.0967 -0.4919  1.5075
 1297SOL    HW215351   1.868   0.027   8.297 -0.5489 -0.5948 -0.0172
 1298SOL     OW15352   2.063   3.470  15.098  0.7817  0.3166  0.1348
 1298SOL    HW115353   2.007   3.413  15.149  0.9067  0.2422  0.1897
 1298SOL    HW215354   2.132   3.486  15.162  2.4466 -0.5786 -1.4210
 1299SOL     OW15355   1.380   2.670   8.657 -0.2768  0.1260  0.1280
 1299SOL    HW115356   1.314   2.684   8.724  1.4942 -1.1387  2.1451
 1299SOL    HW215357   1.459   2.715   8.688  0.0453  1.1526 -2.1692
 1300SOL     OW15358   4.530   2.212  15.667 -0.2792 -0.0679 -0.3467
 1300SOL    HW115359   4.470   2.241  15.598  2.1611  2.8121 -1.2523
 1300SOL    HW215360   4.537   2.119  15.644 -2.0151  0.2077 -1.9805
 1301SOL     OW15361   2.695   1.095   1.673 -0.2265 -0.2555  0.3942
 1301SOL    HW115362   2.745   1.015   1.690  2.1685  0.4456 -3.5911
 1301SOL    HW215363   2.661   1.122   1.759  1.3328  0.1358  0.8791
 1302SOL     OW15364   0.230   3.357   2.024 -0.0821  0.9202  0.1714
 1302SOL    HW115365   0.235   3.263   2.006  0.1157  0.9716 -0.0509
 1302SOL    HW215366   0.312   3.387   1.984  0.9265 -1.9822  0.1304
 1303SOL     OW15367   1.869   1.477   0.087 -0.2588  0.3734  0.1899
 1303SOL    HW115368   1.785   1.433   0.068 -0.9521  1.2905  1.1402
 1303SOL    HW215369   1.892   1.508   0.000  0.3676 -2.7154 -0.7525
 1304SOL     OW15370   4.682   4.551  16.500  0.6644 -0.4163  0.5313
 1304SOL    HW115371   0.014   4.475  16.502 -0.7756 -1.4946  1.7702
 1304SOL    HW215372   0.021   4.619  16.479 -0.0652 -0.4332 -1.7644
 1305SOL     OW15373   0.981   3.989   6.779  0.2060  0.7671 -0.2673
 1305SOL    HW115374   0.935   3.987   6.863  0.5061  1.0304 -0.0984
 1305SOL    HW215375   1.066   3.954   6.805 -0.6989 -0.4165  1.1316
 1306SOL     OW15376   1.130   1.481   5.845 -0.6233  0.1381  0.4017
 1306SOL    HW115377   1.119   1.409   5.908  0.2212  0.9899  1.5274
 1306SOL    HW215378   1.059   1.464   5.784 -0.4111 -0.9028  0.4474
 1307SOL     OW15379   1.707   0.357   2.150 -0.1547 -0.2869 -0.1911
 1307SOL    HW115380   1.689   0.276   2.198  2.0291 -0.1866  0.8102
 1307SOL    HW215381   1.794   0.343   2.112 -0.7966 -0.7272 -1.4911
 1308SOL     OW15382   4.247   4.123   3.575  0.1596 -0.5327  0.1608
 1308SOL    HW115383   4.210   4.036   3.560 -1.4393  0.2046 -0.2339
 1308SOL    HW215384   4.192   4.173   3.513 -0.3707 -0.7544  0.4494
 1309SOL     OW15385   1.603   3.338  12.585  0.5891 -0.9553 -0.6307
 1309SOL    HW115386   1.579   3.251  12.617 -4.3142  0.9737  1.0297
 1309SOL    HW215387   1.691   3.320  12.552  0.6073 -1.0037 -0.5547
 1310SOL     OW15388   2.302   2.839   5.431 -0.7176 -0.3564  0.4460
 1310SOL    HW115389   2.353   2.895   5.374  0.0153 -1.1576  0.3088
 1310SOL    HW215390   2.371   2.784   5.468 -0.7075 -0.7192 -0.1139
 1311SOL     OW15391   4.568   0.144  12.008 -0.0353  0.1676  0.2085
 1311SOL    HW115392   4.595   0.111  12.094  3.4247 -0.7847 -1.2502
 1311SOL    HW215393   4.552   0.237  12.024  0.4867  0.4373 -0.8184
 1312SOL     OW15394   4.281   1.051   8.696  0.4416 -0.0288  0.8886
 1312SOL    HW115395   4.227   1.019   8.768 -2.4211  1.0543 -0.7954
 1312SOL    HW215396   4.370   1.051   8.731  1.7037 -2.0081 -2.2483
 1313SOL     OW15397   0.807   2.733   7.708  0.5948 -0.3891  0.3484
 1313SOL    HW115398   0.817   2.654   7.656 -1.1493 -0.6321  0.3954
 1313SOL    HW215399   0.793   2.787   7.631 -1.5168 -1.6530 -0.1535
 1314SOL     OW15400   2.711   0.791   3.974  0.3116 -0.0809  0.3433
 1314SOL    HW115401   2.632   0.825   4.015  0.8285  0.7257  0.6611
 1314SOL    HW215402   2.776   0.859   3.993 -0.4493  0.2560  1.6831
 1315SOL     OW15403   3.003   1.947   5.398 -0.3282 -0.2980 -0.7371
 1315SOL    HW115404   2.970   1.914   5.481 -0.4688 -1.7739 -1.3778
 1315SOL    HW215405   3.096   1.965   5.412 -0.6041 -0.3361  1.1236
 1316SOL     OW15406   0.023   3.913   5.677 -0.4534  0.8939  0.5889
 1316SOL    HW115407   0.094   3.934   5.738 -0.6235  4.0342 -0.3024
 1316SOL    HW215408   0.072   3.910   5.595 -3.1148  1.1420 -1.0104
 1317SOL     OW15409   0.897   0.581  12.696 -0.4105  0.0377  0.0251
 1317SOL    HW115410   0.861   0.492  12.701  1.2346 -0.6256  0.0757
 1317SOL    HW215411   0.844   0.629  12.760 -0.0157  0.9519 -0.3363
 1318SOL     OW15412   1.831   0.280   4.014  0.5047 -0.2955 -0.2338
 1318SOL    HW115413   1.902   0.287   4.077 -0.2211  0.6526  0.4898
 1318SOL    HW215414   1.795   0.199   4.051  0.2157  0.0148  0.1614
 1319SOL     OW15415   3.610   3.074   0.608  0.7863  0.1010  0.0981
 1319SOL    HW115416   3.674   3.136   0.574  1.9171 -0.9054  0.3863
 1319SOL    HW215417   3.667   3.002   0.634 -0.7798 -0.3917  2.1563
 1320SOL     OW15418   2.973   2.561   5.300  0.1299  0.2239  0.1975
 1320SOL    HW115419   2.951   2.647   5.264 -0.6779 -1.0180 -2.2229
 1320SOL    HW215420   3.040   2.540   5.235  2.7124  1.2474  2.5135
 1321SOL     OW15421   3.778   1.476  11.231 -0.0306 -0.5664  1.2054
 1321SOL    HW115422   3.849   1.412  11.232 -0.3480 -0.9310  0.5329
 1321SOL    HW215423   3.791   1.518  11.315 -0.8358  0.7302  0.6823
 1322SOL     OW15424   1.425   1.238  14.854 -0.5318  0.0017 -0.6234
 1322SOL    HW115425   1.361   1.180  14.813 -0.8027  0.2915 -0.6080
 1322SOL    HW215426   1.385   1.324  14.861 -1.3772 -0.3514 -1.1174
 1323SOL     OW15427   0.532   3.885   2.758 -0.3707 -0.2344 -0.1570
 1323SOL    HW115428   0.475   3.929   2.822 -0.6721  0.3314 -0.8074
 1323SOL    HW215429   0.490   3.800   2.749  1.9754 -1.3493 -0.4851
 1324SOL     OW15430   4.510   0.875   5.197 -0.1531  0.2942 -0.0267
 1324SOL    HW115431   4.534   0.861   5.106 -1.2365  0.8704 -0.3981
 1324SOL    HW215432   4.416   0.855   5.202  0.1310 -0.7602  1.3123
 1325SOL     OW15433   1.335   2.124   1.431 -0.1777  0.5107  0.2036
 1325SOL    HW115434   1.254   2.076   1.448  0.2593 -0.1570  0.4284
 1325SOL    HW215435   1.373   2.145   1.516 -0.5521 -2.6598  1.1892
 1326SOL     OW15436   2.611   4.126   3.305  0.0391 -0.5903  0.3408
 1326SOL    HW115437   2.584   4.057   3.366 -0.1030  0.1467  1.1236
 1326SOL    HW215438   2.530   4.177   3.299 -1.4231 -2.9311 -0.0075
 1327SOL     OW15439   4.246   4.405   5.208  0.1284  0.1982 -0.6821
 1327SOL    HW115440   4.260   4.489   5.163 -1.1864  1.9184  2.1418
 1327SOL    HW215441   4.330   4.358   5.208  0.3518  0.5810  1.1103
 1328SOL     OW15442   1.123   4.441  16.071 -0.2877 -0.1493 -0.1444
 1328SOL    HW115443   1.202   4.389  16.088 -0.6967 -0.9037 -0.5963
 1328SOL    HW215444   1.136   4.464  15.979 -3.2437  0.9626 -0.2645
 1329SOL     OW15445   4.407   2.227   1.384 -0.2693  0.2127 -0.1641
 1329SOL    HW115446   4.438   2.151   1.434 -1.0035  1.1810  1.7489
 1329SOL    HW215447   4.482   2.285   1.397  2.2808 -2.9075 -0.9356
 1330SOL     OW15448   0.872   0.664   7.242  0.2860  0.6915 -0.0112
 1330SOL    HW115449   0.870   0.596   7.174  0.2627  0.7160 -0.0350
 1330SOL    HW215450   0.957   0.705   7.226  1.5960 -1.1747  2.1583
 1331SOL     OW15451   0.141   2.193  10.973  0.4206  0.0791 -0.1229
 1331SOL    HW115452   0.187   2.129  11.027 -0.3632 -0.9686 -0.7083
 1331SOL    HW215453   0.053   2.158  10.964  1.4889 -2.6874 -0.0354
 1332SOL     OW15454   0.799   2.383   3.285  0.2798 -0.7459  0.0956
 1332SOL    HW115455   0.891   2.376   3.258 -0.1386 -1.3843 -1.1639
 1332SOL    HW215456   0.776   2.440   3.212 -0.3123 -1.5182 -0.3250
 1333SOL     OW15457   2.006   2.279   1.290  0.3223  0.3945 -0.8040
 1333SOL    HW115458   2.066   2.312   1.223  0.0612  1.9819 -0.2503
 1333SOL    HW215459   2.001   2.354   1.349 -1.4804  0.8917 -1.5735
 1334SOL     OW15460   0.707   3.572   6.060  0.2943 -0.1246 -0.0751
 1334SOL    HW115461   0.718   3.577   5.965 -0.6565 -0.1737 -0.1873
 1334SOL    HW215462   0.613   3.561   6.068  0.3769  0.0185  1.1947
 1335SOL     OW15463   3.941   0.079   5.690  0.2188 -0.3126  0.0772
 1335SOL    HW115464   4.005   0.080   5.618 -0.8877 -3.8869 -0.9894
 1335SOL    HW215465   3.864   0.125   5.657 -0.5980 -2.9723 -1.7505
 1336SOL     OW15466   3.883   0.824   3.586 -0.4635 -0.5947  0.4010
 1336SOL    HW115467   3.881   0.920   3.581 -0.9403 -0.6549 -0.5445
 1336SOL    HW215468   3.849   0.813   3.675  1.7753 -1.5148  1.1385
 1337SOL     OW15469   2.471   0.010  15.169 -0.0675  0.1130  0.1642
 1337SOL    HW115470   2.551   4.692  15.197 -0.1937 -0.2795 -0.1120
 1337SOL    HW215471   2.424   0.033  15.249 -0.7126  0.7791 -0.4077
 1338SOL     OW15472   0.120   3.596   4.678  0.0244  0.9831  0.0220
 1338SOL    HW115473   0.211   3.607   4.704 -0.2362  0.9665  0.9241
 1338SOL    HW215474   0.129   3.626   4.587  0.7574 -0.5024 -0.3961
 1339SOL     OW15475   3.350   2.593   1.028 -0.1838 -0.5018 -0.1016
 1339SOL    HW115476   3.324   2.552   1.110 -1.1889 -1.1024 -0.7090
 1339SOL    HW215477   3.284   2.557   0.967  0.8554 -1.1112 -0.8752
 1340SOL     OW15478   3.967   3.639   2.790 -0.4501  0.1122 -0.8585
 1340SOL    HW115479   4.035   3.699   2.758 -0.0637 -0.4946 -1.1798
 1340SOL    HW215480   3.899   3.704   2.809  0.6464  1.5755 -1.9274
 1341SOL     OW15481   0.692   0.804   8.080  0.0841 -0.8729  0.3168
 1341SOL    HW115482   0.755   0.771   8.015  1.8073 -2.3237  2.7058
 1341SOL    HW215483   0.638   0.867   8.032  0.2725 -0.5474  0.5329
 1342SOL     OW15484   2.288   2.774   4.713  0.2136 -0.1682 -0.1018
 1342SOL    HW115485   2.312   2.741   4.799  3.2439 -3.4131 -2.2244
 1342SOL    HW215486   2.194   2.795   4.719  0.1339 -0.5260 -0.0978
 1343SOL     OW15487   1.678   3.364   3.066  0.3007  0.8597 -0.0583
 1343SOL    HW115488   1.708   3.450   3.038 -0.3014  0.5966 -1.5048
 1343SOL    HW215489   1.608   3.395   3.123 -0.4160 -0.0519 -0.4589
 1344SOL     OW15490   1.553   1.034   4.943  0.0543 -0.2294  0.0653
 1344SOL    HW115491   1.521   0.963   5.000  0.5851 -0.5944 -0.0892
 1344SOL    HW215492   1.611   1.075   5.008 -0.0481  1.7564 -1.1270
 1345SOL     OW15493   2.578   0.154   5.090 -0.3310  0.1842 -0.6158
 1345SOL    HW115494   2.601   0.138   4.999  1.7385 -0.5954  0.0419
 1345SOL    HW215495   2.639   0.121   5.157  2.0113  2.6896 -1.5266
 1346SOL     OW15496   0.955   3.726  16.529  0.2128 -0.0116  0.5300
 1346SOL    HW115497   1.014   3.655  16.550 -0.0407 -0.2649  0.3871
 1346SOL    HW215498   0.892   3.663  16.495  0.5865 -0.2845  0.3508
 1347SOL     OW15499   4.713   0.159  12.559  0.1565  0.3824 -0.0210
 1347SOL    HW115500   0.032   0.144  12.476 -0.8731  1.1413 -0.7434
 1347SOL    HW215501   0.055   0.159  12.625  0.0288  1.7780  0.1072
 1348SOL     OW15502   1.074   3.328   6.665 -0.5324  0.3540 -0.1846
 1348SOL    HW115503   1.121   3.348   6.584 -0.2718  1.8185  0.3309
 1348SOL    HW215504   0.983   3.321   6.635 -0.3134 -0.3147 -0.7165
 1349SOL     OW15505   3.663   1.526   2.168 -0.4568 -0.2133 -0.1769
 1349SOL    HW115506   3.610   1.599   2.135 -1.3950 -0.5225  0.6361
 1349SOL    HW215507   3.610   1.449   2.145  0.1788 -0.8594  0.5059
 1350SOL     OW15508   0.301   2.316   8.462 -0.0246 -0.0905  0.2707
 1350SOL    HW115509   0.278   2.363   8.382  2.4831  0.3903 -0.1829
 1350SOL    HW215510   0.222   2.293   8.510  0.1883  0.8540  1.0899
 1351SOL     OW15511   2.856   0.730   5.838  0.5121 -0.1827  0.2870
 1351SOL    HW115512   2.808   0.677   5.774  1.9487 -0.3553 -0.6553
 1351SOL    HW215513   2.913   0.658   5.864 -0.3517 -0.0445  2.4945
 1352SOL     OW15514   3.984   2.451   6.038  0.1818 -0.4873 -0.1569
 1352SOL    HW115515   3.942   2.423   5.957  0.5787  0.0886 -0.5694
 1352SOL    HW215516   4.078   2.455   6.020  0.0803  1.9932 -0.1195
 1353SOL     OW15517   4.208   0.130   8.870 -0.3267 -0.1899  0.0177
 1353SOL    HW115518   4.157   0.121   8.951 -0.6683  0.4374 -0.1304
 1353SOL    HW215519   4.260   0.051   8.883 -0.4529 -0.4897 -1.3469
 1354SOL     OW15520   2.802   3.424   4.576 -0.2378 -0.1626  0.2742
 1354SOL    HW115521   2.738   3.368   4.620 -1.1255  1.4371  1.0086
 1354SOL    HW215522   2.873   3.431   4.640 -1.2585  2.1955  1.1276
 1355SOL     OW15523   4.210   3.510  13.042 -0.0787 -0.1227  0.0404
 1355SOL    HW115524   4.283   3.544  12.990  0.9115 -0.9731  0.8771
 1355SOL    HW215525   4.141   3.574  13.022 -1.9615 -1.8562  0.9064
 1356SOL     OW15526   2.508   3.479   3.681 -0.6322  0.0973 -0.1553
 1356SOL    HW115527   2.515   3.559   3.733  3.4238 -0.1191 -0.3858
 1356SOL    HW215528   2.483   3.420   3.752  2.0610  1.2823  1.7548
 1357SOL     OW15529   2.050   4.446  12.026 -0.0131  0.0270  0.3573
 1357SOL    HW115530   2.052   4.444  11.930  0.5233  1.6092  0.3253
 1357SOL    HW215531   2.045   4.541  12.040 -0.4327  0.1389 -0.5645
 1358SOL     OW15532   3.913   2.582   7.624  0.1534 -0.2017  0.2489
 1358SOL    HW115533   3.962   2.544   7.697 -1.8183 -0.3612  1.4925
 1358SOL    HW215534   3.894   2.502   7.575  0.1427  0.3862 -0.7052
 1359SOL     OW15535   0.781   3.260   8.000 -0.1264 -0.1061  0.1590
 1359SOL    HW115536   0.798   3.270   8.094 -0.7158 -0.1336  0.2674
 1359SOL    HW215537   0.842   3.189   7.978 -0.4045  0.1520 -1.4362
 1360SOL     OW15538   2.028   4.385   4.834 -0.0037  0.1800  0.3185
 1360SOL    HW115539   1.958   4.335   4.791  0.9640  1.1997 -2.3782
 1360SOL    HW215540   2.099   4.323   4.850 -1.5089 -1.5749  0.2374
 1361SOL     OW15541   1.781   1.439   0.572 -0.0461  0.1992  0.1890
 1361SOL    HW115542   1.866   1.475   0.597 -0.2636  2.1373 -1.8411
 1361SOL    HW215543   1.765   1.473   0.484 -1.0824 -1.4421 -0.2541
 1362SOL     OW15544   4.264   4.606   0.506  0.3756  0.4633 -0.8323
 1362SOL    HW115545   4.243   4.651   0.424  0.6094 -0.6709 -1.5155
 1362SOL    HW215546   4.353   4.636   0.524  1.1513 -2.7994  0.7151
 1363SOL     OW15547   2.057   1.006   5.679  0.1913  0.1036 -0.6405
 1363SOL    HW115548   2.131   0.957   5.714 -0.4268 -0.4127 -0.0551
 1363SOL    HW215549   2.086   1.095   5.699 -1.9832  0.9413 -1.2083
 1364SOL     OW15550   1.223   3.347   5.811 -0.5044  0.0336  0.1322
 1364SOL    HW115551   1.315   3.372   5.811 -0.5583  0.2653 -2.0703
 1364SOL    HW215552   1.209   3.322   5.903 -3.8464  0.3960 -0.2742
 1365SOL     OW15553   0.922   1.269   2.788 -0.2104 -0.7660  0.0644
 1365SOL    HW115554   0.849   1.279   2.727 -1.6920 -0.8348  1.8213
 1365SOL    HW215555   0.902   1.181   2.820  0.8413 -1.1362 -0.3031
 1366SOL     OW15556   0.809   2.521   4.420 -0.1879  0.2767  0.6035
 1366SOL    HW115557   0.802   2.606   4.462  0.1925  0.9354 -0.6807
 1366SOL    HW215558   0.820   2.542   4.327 -2.3330  0.0924  0.2900
 1367SOL     OW15559   2.557   2.877   5.267 -0.6635  0.1708  0.1114
 1367SOL    HW115560   2.572   2.783   5.258 -0.8184  0.1012  0.5802
 1367SOL    HW215561   2.523   2.905   5.182  0.1614 -0.9465 -0.5868
 1368SOL     OW15562   3.515   1.122   9.572 -0.2370 -0.1039 -0.7180
 1368SOL    HW115563   3.421   1.130   9.586 -0.5274 -0.2200 -2.6320
 1368SOL    HW215564   3.534   1.048   9.631  0.5327 -1.3815 -2.5409
 1369SOL     OW15565   1.233   4.433   2.235  0.3768  0.0836 -0.0598
 1369SOL    HW115566   1.156   4.451   2.181 -0.9578 -2.9780  0.8017
 1369SOL    HW215567   1.235   4.337   2.233 -3.8077 -0.0172  0.6748
 1370SOL     OW15568   4.666   2.157   7.544 -0.4750  0.3995  0.7789
 1370SOL    HW115569   4.636   2.196   7.627 -0.5149 -1.8475  1.8305
 1370SOL    HW215570   4.592   2.104   7.514 -0.6039  0.5377  0.8522
 1371SOL     OW15571   1.358   1.301   4.920 -0.5848  0.2140 -0.6338
 1371SOL    HW115572   1.400   1.226   4.964  0.8218  3.7729  4.1198
 1371SOL    HW215573   1.416   1.323   4.847 -0.7687  1.1084 -0.5103
 1372SOL     OW15574   3.330   2.496   3.151  0.3587 -0.4227 -0.3788
 1372SOL    HW115575   3.300   2.504   3.060 -0.9201 -3.2909 -0.2112
 1372SOL    HW215576   3.420   2.517   3.128  0.5167 -1.4273 -0.6692
 1373SOL     OW15577   2.358   3.932   6.956 -0.0039  0.8290 -0.1450
 1373SOL    HW115578   2.339   3.875   7.031 -0.4618  0.1283 -0.7836
 1373SOL    HW215579   2.277   3.925   6.904  0.6432 -2.1181 -0.7554
 1374SOL     OW15580   1.729   3.433   6.754 -0.2466  0.2079  0.0881
 1374SOL    HW115581   1.706   3.348   6.792  0.1782  0.1419  0.1978
 1374SOL    HW215582   1.746   3.476   6.837 -0.0230 -0.3723  0.3396
 1375SOL     OW15583   2.863   2.693  11.823 -0.2861 -0.2376 -0.3372
 1375SOL    HW115584   2.928   2.626  11.800  0.0434  0.1127 -0.4175
 1375SOL    HW215585   2.917   2.771  11.833  0.0804 -0.4478 -0.6756
 1376SOL     OW15586   3.194   2.030   0.486  0.7968 -0.3110 -0.6782
 1376SOL    HW115587   3.158   1.990   0.565 -0.0111 -2.3186 -2.0710
 1376SOL    HW215588   3.281   1.989   0.482  0.5618 -0.8666 -0.0873
 1377SOL     OW15589   2.988   2.688   4.310 -0.1584 -0.1367  0.1764
 1377SOL    HW115590   2.979   2.605   4.356 -0.7549 -0.3855 -0.3957
 1377SOL    HW215591   2.896   2.701   4.288 -0.4077  1.2406  1.9570
 1378SOL     OW15592   1.782   1.644   5.139 -0.4382 -0.0336 -0.1646
 1378SOL    HW115593   1.790   1.556   5.176  1.8654  0.4523  0.4904
 1378SOL    HW215594   1.709   1.633   5.078  0.1987 -2.3622 -0.5115
 1379SOL     OW15595   3.890   2.020   5.923 -0.2336 -0.0605 -0.6395
 1379SOL    HW115596   3.796   2.003   5.919 -0.3100 -0.9077  3.9857
 1379SOL    HW215597   3.899   2.000   6.017  0.1888  0.3412 -0.5958
 1380SOL     OW15598   3.744   2.477   1.210  0.2837 -0.5745  0.0605
 1380SOL    HW115599   3.756   2.541   1.280 -0.0762 -0.2180 -0.2037
 1380SOL    HW215600   3.774   2.403   1.263 -2.6386 -0.8027  1.4048
 1381SOL     OW15601   1.487   0.826   2.937  0.1683  0.6968  0.4196
 1381SOL    HW115602   1.559   0.847   2.996 -0.9565  0.6262  1.8048
 1381SOL    HW215603   1.531   0.846   2.854  2.8016  1.8295  2.1062
 1382SOL     OW15604   4.136   2.726   3.867  0.1728  0.4985  0.2571
 1382SOL    HW115605   4.082   2.801   3.892 -2.2081 -1.7167  1.8338
 1382SOL    HW215606   4.118   2.668   3.941 -1.4172 -1.3553 -1.5742
 1383SOL     OW15607   1.501   3.841   6.367  0.1386  0.1657 -0.3982
 1383SOL    HW115608   1.480   3.931   6.341 -3.3032 -0.7984 -0.9756
 1383SOL    HW215609   1.505   3.850   6.463 -1.6959 -1.8099 -0.1338
 1384SOL     OW15610   3.470   0.633   8.505 -0.2395  0.0354 -0.1237
 1384SOL    HW115611   3.455   0.539   8.509 -1.3004  0.2746  1.4295
 1384SOL    HW215612   3.529   0.641   8.430 -1.7514  2.4209 -1.0645
 1385SOL     OW15613   3.900   3.558   2.274 -0.3983  0.2139 -0.3310
 1385SOL    HW115614   3.955   3.564   2.197  0.3705  1.0193  0.2847
 1385SOL    HW215615   3.927   3.630   2.332  0.1639 -1.7919  1.9345
 1386SOL     OW15616   3.510   3.044   5.626  0.0421  0.2049  0.1807
 1386SOL    HW115617   3.515   2.950   5.644  0.8342  0.1311 -0.4383
 1386SOL    HW215618   3.597   3.081   5.640  1.0406 -2.1874  0.3012
 1387SOL     OW15619   2.799   0.725   6.454 -0.2950 -0.2097 -0.0868
 1387SOL    HW115620   2.865   0.734   6.523 -0.1531  2.0222 -0.5152
 1387SOL    HW215621   2.764   0.644   6.491 -2.6179  2.2201  3.0073
 1388SOL     OW15622   0.474   4.220   2.531 -0.5669 -0.3891  0.2404
 1388SOL    HW115623   0.547   4.169   2.566  0.3351  0.3612 -0.5700
 1388SOL    HW215624   0.528   4.296   2.512  0.2336 -1.0621 -0.2074
 1389SOL     OW15625   4.084   2.393  16.377  0.0507 -0.1457  0.2149
 1389SOL    HW115626   4.068   2.459  16.444  0.7863 -0.5528  0.7899
 1389SOL    HW215627   4.157   2.350  16.420 -1.2368 -0.8024  1.7321
 1390SOL     OW15628   3.479   1.574   5.433  0.4054  0.4745 -0.0358
 1390SOL    HW115629   3.474   1.667   5.411 -0.8531  0.6590  0.9839
 1390SOL    HW215630   3.448   1.581   5.524  0.5249  0.5738 -0.0028
 1391SOL     OW15631   4.586   0.093  11.743 -0.1479 -0.1222 -0.0636
 1391SOL    HW115632   4.627   0.008  11.762 -0.6016 -0.3326 -0.0367
 1391SOL    HW215633   4.537   0.096  11.825  0.7352 -1.4634  0.5171
 1392SOL     OW15634   3.954   2.270   6.748  0.1381  0.2920  0.2045
 1392SOL    HW115635   3.922   2.233   6.666 -1.0256  0.3185  0.6400
 1392SOL    HW215636   3.998   2.196   6.789  0.1387 -0.5729 -1.3926
 1393SOL     OW15637   1.779   4.236  13.130  0.0988 -0.4683  0.5491
 1393SOL    HW115638   1.746   4.318  13.167 -0.7825  0.0173 -1.3170
 1393SOL    HW215639   1.845   4.276  13.074 -0.3098  0.3710  0.6646
 1394SOL     OW15640   1.558   1.890  11.055 -0.3263  0.0103  0.8677
 1394SOL    HW115641   1.482   1.834  11.039  0.9798 -1.8432  1.2100
 1394SOL    HW215642   1.528   1.962  11.111  0.6694  1.2354 -0.1754
 1395SOL     OW15643   2.649   3.089   4.434  0.4648  0.6285  0.1831
 1395SOL    HW115644   2.583   3.151   4.404 -0.4781 -1.3456 -1.7976
 1395SOL    HW215645   2.593   3.015   4.458  2.2151 -1.0022 -0.7587
 1396SOL     OW15646   1.090   4.152   4.251 -0.4404 -1.2004 -0.4737
 1396SOL    HW115647   1.025   4.204   4.296 -0.0671  0.6607 -2.0850
 1396SOL    HW215648   1.171   4.158   4.302 -0.9809  1.1338  0.0809
 1397SOL     OW15649   4.134   4.521   9.065  0.0406  0.2188  0.4098
 1397SOL    HW115650   4.134   4.585   9.136 -1.9663 -0.2366  0.8138
 1397SOL    HW215651   4.207   4.546   9.008 -0.1055 -3.5920 -1.4817
 1398SOL     OW15652   1.545   1.940  11.454 -0.0744  0.2028  0.2951
 1398SOL    HW115653   1.569   2.015  11.508 -0.1725  0.1887  0.3581
 1398SOL    HW215654   1.509   1.988  11.379 -2.1951 -1.2195  0.3849
 1399SOL     OW15655   1.229   2.914  16.389  0.0814  0.0401  0.3460
 1399SOL    HW115656   1.170   2.871  16.328 -1.4560 -0.0704  1.8981
 1399SOL    HW215657   1.225   3.006  16.363  2.8560  0.0857  0.0164
 1400SOL     OW15658   2.929   1.149  15.568 -0.2411 -0.1057  0.1598
 1400SOL    HW115659   2.854   1.117  15.618 -0.1679 -1.1429 -0.3902
 1400SOL    HW215660   2.882   1.223  15.531  1.5343  0.9322  0.0053
 1401SOL     OW15661   3.881   0.933  11.044 -0.5156  0.5662  0.7327
 1401SOL    HW115662   3.793   0.966  11.065 -2.4903 -2.0360 -3.5635
 1401SOL    HW215663   3.914   0.914  11.132 -0.2028 -4.2255 -0.4279
 1402SOL     OW15664   1.056   4.725   0.956  0.3027  0.7732 -0.0396
 1402SOL    HW115665   1.104   4.695   0.879  0.3115  1.5935 -0.3597
 1402SOL    HW215666   1.120   0.061   0.990 -0.3936  1.5770 -0.1853
 1403SOL     OW15667   2.247   0.810   5.761  0.6215 -0.7487  0.4299
 1403SOL    HW115668   2.174   0.749   5.775 -1.3033  1.2627 -0.7533
 1403SOL    HW215669   2.276   0.788   5.672 -2.2566 -0.1449 -0.6534
 1404SOL     OW15670   4.359   1.102   6.352 -0.2006 -0.2345 -0.6145
 1404SOL    HW115671   4.394   1.180   6.394 -0.5408 -0.5656  0.2933
 1404SOL    HW215672   4.332   1.053   6.430 -0.3456 -0.0662 -0.5602
 1405SOL     OW15673   3.048   2.570   0.920 -0.1896  0.4832 -0.2107
 1405SOL    HW115674   3.052   2.604   0.831  1.6466 -0.5952 -0.5235
 1405SOL    HW215675   3.095   2.487   0.918 -0.6580  0.2114  0.1198
 1406SOL     OW15676   3.935   4.304  13.782  0.2662 -0.2686  0.1405
 1406SOL    HW115677   3.937   4.273  13.692 -0.7417  1.0151 -0.3236
 1406SOL    HW215678   3.908   4.394  13.763 -0.7958 -0.5017  0.5399
 1407SOL     OW15679   3.599   2.559   6.970 -0.3056 -0.0187 -0.2049
 1407SOL    HW115680   3.634   2.629   6.915  1.7624 -2.0203 -1.4655
 1407SOL    HW215681   3.648   2.484   6.936 -2.5375 -2.2735  1.5337
 1408SOL     OW15682   3.697   0.410  11.691  0.1162  0.1809 -0.6275
 1408SOL    HW115683   3.791   0.419  11.676  0.2829  1.1318  0.9431
 1408SOL    HW215684   3.682   0.453  11.775  2.1602 -0.3804  0.0352
 1409SOL     OW15685   4.241   1.450   2.612  0.7333 -0.1659  0.1984
 1409SOL    HW115686   4.309   1.492   2.558  1.0290 -0.6189  0.2176
 1409SOL    HW215687   4.284   1.368   2.636  1.2776 -0.6826 -2.5643
 1410SOL     OW15688   2.684   3.665   7.682 -0.4634 -0.2636 -0.4562
 1410SOL    HW115689   2.744   3.672   7.757 -2.8158 -2.6405  1.6515
 1410SOL    HW215690   2.729   3.627   7.607 -0.4764 -0.6306 -0.2795
 1411SOL     OW15691   1.898   2.257   7.683  0.3070 -0.3480  0.0995
 1411SOL    HW115692   1.899   2.318   7.610 -3.1213 -0.2114  0.1377
 1411SOL    HW215693   1.990   2.237   7.696  0.2346 -1.3148 -0.9502
 1412SOL     OW15694   2.930   0.160   6.155 -0.2178 -0.0603 -0.5999
 1412SOL    HW115695   2.949   0.253   6.142  0.7795 -0.2815 -0.7334
 1412SOL    HW215696   2.942   0.133   6.064 -1.0883  0.4515 -0.8609
 1413SOL     OW15697   2.197   2.431   5.604  0.3016 -0.1276  0.5180
 1413SOL    HW115698   2.171   2.416   5.695 -0.3641 -2.3450 -0.0439
 1413SOL    HW215699   2.291   2.445   5.615  0.0137  3.1595 -1.1344
 1414SOL     OW15700   2.926   2.736  12.148  0.0105  0.0725 -0.5704
 1414SOL    HW115701   2.957   2.781  12.069  1.5435 -0.1434 -0.0970
 1414SOL    HW215702   2.831   2.738  12.140  0.0226 -0.4228 -0.8067
 1415SOL     OW15703   4.572   4.386   5.989 -0.8770  0.2098 -0.1395
 1415SOL    HW115704   4.589   4.306   6.038 -3.9505 -0.8900 -0.8833
 1415SOL    HW215705   4.570   4.451   6.059 -0.9657  0.1491 -0.0858
 1416SOL     OW15706   4.403   3.623   6.555  0.5806 -0.5150  0.4272
 1416SOL    HW115707   4.473   3.577   6.510 -0.2716 -0.3708 -1.0640
 1416SOL    HW215708   4.347   3.548   6.572 -1.6226  0.7628 -1.1220
 1417SOL     OW15709   3.307   3.317   8.853  0.1702 -0.1002 -0.1488
 1417SOL    HW115710   3.212   3.314   8.859  0.0853  2.7661  0.0714
 1417SOL    HW215711   3.323   3.321   8.759 -2.4190 -2.7118 -0.6781
 1418SOL     OW15712   3.610   4.084   8.022  0.2080 -0.2497  0.0716
 1418SOL    HW115713   3.534   4.096   7.965  0.3123 -1.3591 -0.2948
 1418SOL    HW215714   3.674   4.142   7.980 -1.1566 -0.5917 -2.4871
 1419SOL     OW15715   1.948   3.630   5.780  0.5117 -0.3136  0.0170
 1419SOL    HW115716   2.029   3.677   5.798  0.4116  0.3708 -1.2837
 1419SOL    HW215717   1.932   3.584   5.862  0.0399 -1.3216 -0.6376
 1420SOL     OW15718   0.837   1.273   2.053 -0.4683  0.5134  0.0091
 1420SOL    HW115719   0.906   1.249   2.115 -0.9857  0.1706  0.4454
 1420SOL    HW215720   0.819   1.191   2.007  2.1046 -0.1266  0.1397
 1421SOL     OW15721   1.529   0.570   2.974 -0.4611  0.3254 -0.1202
 1421SOL    HW115722   1.509   0.663   2.966 -3.0705 -0.2569 -0.4901
 1421SOL    HW215723   1.597   0.573   3.041 -0.7993 -0.8579  0.2702
 1422SOL     OW15724   2.050   1.349  11.585 -0.4755  0.3869  0.6657
 1422SOL    HW115725   2.036   1.320  11.494  0.7901 -0.4862  0.7468
 1422SOL    HW215726   2.121   1.410  11.569 -2.5822  2.6479 -0.1167
 1423SOL     OW15727   0.388   4.560  16.387 -0.1233  0.4152 -0.1726
 1423SOL    HW115728   0.320   4.628  16.388  1.1749  1.6708  1.9835
 1423SOL    HW215729   0.452   4.598  16.328 -0.1886  2.1683  0.8919
 1424SOL     OW15730   0.483   3.693   1.395 -0.3979 -0.5384 -0.3919
 1424SOL    HW115731   0.548   3.714   1.462 -0.4275  2.5563 -1.3471
 1424SOL    HW215732   0.492   3.764   1.331 -1.8671 -0.2219 -0.2422
 1425SOL     OW15733   0.403   4.387   1.894  0.5836  0.0490  0.0862
 1425SOL    HW115734   0.326   4.427   1.854  2.7474  3.8299 -0.3201
 1425SOL    HW215735   0.476   4.448   1.883  1.9875 -1.4148  1.1310
 1426SOL     OW15736   1.384   0.435  10.646  0.4066 -0.1216  0.3198
 1426SOL    HW115737   1.300   0.440  10.601 -0.2599  1.3241  1.7282
 1426SOL    HW215738   1.431   0.508  10.604 -2.9382  1.1762 -1.1925
 1427SOL     OW15739   1.616   4.349   6.640  0.3302 -0.6043 -0.1290
 1427SOL    HW115740   1.652   4.387   6.560  0.9321  0.6051  0.7139
 1427SOL    HW215741   1.699   4.316   6.673 -0.0311  1.1772  2.5809
 1428SOL     OW15742   2.955   0.414   6.315 -0.7400 -0.3659  0.0925
 1428SOL    HW115743   2.977   0.453   6.400  1.9328 -1.4104 -0.0855
 1428SOL    HW215744   2.899   0.481   6.278  1.5902  1.3255 -0.4041
 1429SOL     OW15745   3.219   2.847   3.287 -0.5092  0.1387  0.0006
 1429SOL    HW115746   3.292   2.865   3.228 -0.3815 -0.7346 -0.1092
 1429SOL    HW215747   3.271   2.801   3.353 -1.8101 -2.2345 -0.6353
 1430SOL     OW15748   1.498   1.867   8.116 -0.2637 -0.5355 -0.5122
 1430SOL    HW115749   1.492   1.947   8.064 -0.9111  0.0370  0.4319
 1430SOL    HW215750   1.452   1.894   8.196 -0.6493 -3.2045  0.1615
 1431SOL     OW15751   1.016   1.267   4.627 -0.5765 -0.0173 -0.1273
 1431SOL    HW115752   1.024   1.202   4.697  2.5764 -1.7814 -2.1472
 1431SOL    HW215753   1.104   1.266   4.591  0.2319 -0.7851  1.8535
 1432SOL     OW15754   1.460   4.624   2.169 -0.4945 -0.8484 -0.2139
 1432SOL    HW115755   1.540   4.572   2.171  0.3230  0.4457  1.6347
 1432SOL    HW215756   1.392   4.560   2.191 -0.4600 -0.7338  0.2305
 1433SOL     OW15757   2.157   2.977   9.807  0.1575  0.1553  0.2489
 1433SOL    HW115758   2.086   2.928   9.767 -0.1362 -0.6742  1.7654
 1433SOL    HW215759   2.117   2.988   9.893  0.8823 -1.8212  0.8380
 1434SOL     OW15760   3.281   4.549   8.101  0.0732  0.1155  0.2343
 1434SOL    HW115761   3.356   4.490   8.107  0.6798  0.8627  0.0739
 1434SOL    HW215762   3.315   4.634   8.072  0.8782 -0.3862 -0.2728
 1435SOL     OW15763   2.404   0.096   2.684 -0.1719 -0.2513 -0.3342
 1435SOL    HW115764   2.403   0.192   2.687 -0.5369 -0.2814  0.5362
 1435SOL    HW215765   2.335   0.082   2.748  1.0767  1.0012  1.2966
 1436SOL     OW15766   1.166   2.888   5.782  0.2889 -0.4053 -0.3109
 1436SOL    HW115767   1.166   2.977   5.749  0.6823 -0.4949 -0.5532
 1436SOL    HW215768   1.194   2.908   5.871 -2.4291 -1.9640  0.9239
 1437SOL     OW15769   1.141   0.649   3.174  0.6137  0.3303 -0.5144
 1437SOL    HW115770   1.125   0.740   3.199 -1.9215 -0.3826  0.4044
 1437SOL    HW215771   1.237   0.647   3.183  0.7627  0.9178 -2.0165
 1438SOL     OW15772   2.737   3.193   9.061 -0.6341  0.1688 -0.1845
 1438SOL    HW115773   2.816   3.246   9.072 -0.6697 -0.5214  3.5684
 1438SOL    HW215774   2.698   3.208   9.148 -0.7579 -0.6247 -0.1024
 1439SOL     OW15775   0.645   0.076  13.346  0.3852  0.0820 -0.5193
 1439SOL    HW115776   0.684   0.148  13.296  2.8337  1.7689  3.8348
 1439SOL    HW215777   0.697   0.080  13.426 -1.2027  2.9556  0.3479
 1440SOL     OW15778   1.798   3.764   6.448  0.0404 -0.1918 -0.0666
 1440SOL    HW115779   1.729   3.719   6.496  0.0012 -0.0576  0.0022
 1440SOL    HW215780   1.749   3.823   6.391 -0.1690 -0.4457 -0.1468
 1441SOL     OW15781   1.854   0.265   9.649  0.9619  0.0446 -0.0310
 1441SOL    HW115782   1.840   0.180   9.690 -0.7872  0.7793  0.8909
 1441SOL    HW215783   1.772   0.313   9.661  0.8013 -0.0633 -0.6859
 1442SOL     OW15784   3.605   3.062   8.247  0.0084  0.3823 -0.0799
 1442SOL    HW115785   3.525   3.068   8.298  0.1835  4.5305 -0.3413
 1442SOL    HW215786   3.573   3.086   8.160  0.1888 -0.5453 -0.4050
 1443SOL     OW15787   4.092   0.936   8.839  0.2096  0.3623  0.1132
 1443SOL    HW115788   4.003   0.921   8.808  1.1560  1.2878 -3.0606
 1443SOL    HW215789   4.087   0.943   8.934 -1.1998 -0.4591  0.0997
 1444SOL     OW15790   2.676   1.978   7.768  0.5072 -0.0668 -0.2762
 1444SOL    HW115791   2.712   2.066   7.775 -0.5905  0.3605  0.0291
 1444SOL    HW215792   2.699   1.949   7.856  1.1236 -1.1835 -0.8111
 1445SOL     OW15793   0.245   3.470   8.713  0.0400  0.1001 -0.2755
 1445SOL    HW115794   0.197   3.520   8.779 -0.0511  1.2849 -1.2338
 1445SOL    HW215795   0.289   3.406   8.769  1.4630  0.3682 -1.0992
 1446SOL     OW15796   4.065   3.940   2.148 -0.2353  0.4870 -0.7587
 1446SOL    HW115797   4.038   3.979   2.064 -0.2679  1.1659 -0.4367
 1446SOL    HW215798   4.152   3.906   2.128 -0.0569  0.8364 -0.5722
 1447SOL     OW15799   0.620   4.107   4.665  0.1976  0.0587  0.2438
 1447SOL    HW115800   0.620   4.049   4.588  0.8543  0.4615 -0.0613
 1447SOL    HW215801   0.713   4.128   4.661  1.1118 -3.9723 -0.3367
 1448SOL     OW15802   1.023   1.812   2.023  0.1813 -0.6984  0.4363
 1448SOL    HW115803   0.975   1.830   1.942  1.1579 -0.9086 -0.1815
 1448SOL    HW215804   1.054   1.721   2.017 -2.7692 -1.6979  0.2548
 1449SOL     OW15805   1.431   1.804   5.564 -0.2032  0.4950 -0.1048
 1449SOL    HW115806   1.473   1.867   5.506 -1.9292  0.5544 -1.3015
 1449SOL    HW215807   1.355   1.849   5.600  2.1329  2.5780  2.1274
 1450SOL     OW15808   2.784   1.467   2.807  0.2464 -0.1726 -0.2209
 1450SOL    HW115809   2.751   1.379   2.826 -0.6185 -0.3964 -2.6528
 1450SOL    HW215810   2.854   1.439   2.747 -0.3065 -1.5549 -0.2115
 1451SOL     OW15811   3.715   4.152  17.370  0.4115  0.1362 -0.0736
 1451SOL    HW115812   3.698   4.178  17.461 -0.3933  0.6789 -0.3766
 1451SOL    HW215813   3.796   4.102  17.382 -0.0651 -1.7443 -4.6639
 1452SOL     OW15814   3.157   4.117  11.081  0.0327  0.1452 -0.1365
 1452SOL    HW115815   3.123   4.068  11.007 -1.7062 -1.6169  1.8328
 1452SOL    HW215816   3.234   4.065  11.107 -0.5123 -0.0638  1.0504
 1453SOL     OW15817   4.350   1.067   6.784  0.2592  0.5146  0.1479
 1453SOL    HW115818   4.279   1.042   6.725 -1.4378  1.8087  1.6322
 1453SOL    HW215819   4.295   1.083   6.861 -1.4634  0.2478 -1.0429
 1454SOL     OW15820   2.776   1.476   2.418  0.5874  0.2236 -0.0188
 1454SOL    HW115821   2.838   1.544   2.394  2.3473 -0.5041  2.4468
 1454SOL    HW215822   2.816   1.434   2.494  1.0921 -2.5692 -1.8306
 1455SOL     OW15823   3.868   3.113   1.351 -0.1714  0.1324  0.4149
 1455SOL    HW115824   3.948   3.130   1.301 -0.6909  0.5334 -0.2882
 1455SOL    HW215825   3.808   3.163   1.295  2.2041  2.1492 -0.3309
 1456SOL     OW15826   0.399   2.467  14.517 -0.5059 -0.0822 -0.4439
 1456SOL    HW115827   0.373   2.414  14.442  0.6741 -0.2753 -0.7184
 1456SOL    HW215828   0.474   2.415  14.545 -0.9023  0.3524  1.4242
 1457SOL     OW15829   2.681   3.088   2.014 -0.1706  0.0529 -0.6943
 1457SOL    HW115830   2.688   3.072   1.920 -1.8952  0.8169 -0.9460
 1457SOL    HW215831   2.626   3.167   2.012  1.7905  1.4529  0.2804
 1458SOL     OW15832   0.870   4.692  17.597  0.1022 -0.2365  0.5340
 1458SOL    HW115833   0.891   4.666  17.687 -1.2790 -0.4277  0.8037
 1458SOL    HW215834   0.778   4.665  17.601 -0.3376  1.2517  0.3270
 1459SOL     OW15835   3.699   0.452   7.072  0.0011  0.1970 -0.7199
 1459SOL    HW115836   3.697   0.400   6.992 -0.2805  0.8184 -1.1234
 1459SOL    HW215837   3.685   0.385   7.138  2.8257 -1.4659 -1.8538
 1460SOL     OW15838   0.760   3.420   7.786  0.0305  0.3382  0.3860
 1460SOL    HW115839   0.739   3.508   7.818 -1.2816 -0.2268  1.0459
 1460SOL    HW215840   0.747   3.360   7.859  0.3439 -0.1744  0.0184
 1461SOL     OW15841   2.855   1.721   8.693  0.0727 -0.4682  0.0597
 1461SOL    HW115842   2.912   1.644   8.694  2.1046  1.0294 -1.0137
 1461SOL    HW215843   2.911   1.791   8.726  2.0069 -2.1092  0.2316
 1462SOL     OW15844   3.954   1.122   7.274 -0.3283  0.2331  0.1291
 1462SOL    HW115845   3.971   1.032   7.302  0.8637 -0.3434 -2.4816
 1462SOL    HW215846   4.033   1.171   7.298  0.0670  0.6012 -1.9881
 1463SOL     OW15847   2.926   1.553   6.426 -0.4353 -0.4989  0.0090
 1463SOL    HW115848   2.851   1.608   6.447 -1.3754 -1.3578 -1.0950
 1463SOL    HW215849   2.933   1.499   6.505  2.0722 -0.7065 -0.3317
 1464SOL     OW15850   0.377   2.673   4.631 -0.1950 -0.1952  0.2790
 1464SOL    HW115851   0.453   2.648   4.684 -0.8439  1.4160  1.9677
 1464SOL    HW215852   0.398   2.629   4.549  1.2216  4.0228 -1.6468
 1465SOL     OW15853   2.385   1.139   5.158  0.7031  0.2839 -0.5060
 1465SOL    HW115854   2.467   1.184   5.177  0.1986  1.0015 -0.0106
 1465SOL    HW215855   2.333   1.210   5.121 -0.0216 -1.0168 -2.0167
 1466SOL     OW15856   1.771   3.434  11.432 -1.0872  0.2658 -0.3498
 1466SOL    HW115857   1.771   3.473  11.519 -0.3207  0.3679 -0.3946
 1466SOL    HW215858   1.750   3.344  11.458 -0.8114  0.0405 -0.9003
 1467SOL     OW15859   4.423   1.400   8.411  0.5337  0.3116  0.7498
 1467SOL    HW115860   4.515   1.426   8.405  0.6105 -0.7070 -2.5417
 1467SOL    HW215861   4.414   1.402   8.507 -2.2431  1.1157  0.4681
 1468SOL     OW15862   0.277   2.462   3.855 -0.8887  0.2979 -0.0559
 1468SOL    HW115863   0.209   2.436   3.794 -1.5649  0.9380  0.4296
 1468SOL    HW215864   0.356   2.459   3.800  0.2288  0.5772  1.5360
 1469SOL     OW15865   4.604   0.267   9.500  0.3749  0.0319  0.4036
 1469SOL    HW115866   4.668   0.196   9.489  0.1096 -0.3243  1.1683
 1469SOL    HW215867   4.591   0.291   9.408  0.8770 -1.1413  0.0125
 1470SOL     OW15868   3.681   2.220   2.689 -0.4561 -0.2828  0.1362
 1470SOL    HW115869   3.647   2.215   2.778  1.8066 -0.6053  0.9948
 1470SOL    HW215870   3.625   2.163   2.638 -0.0627 -0.7948  0.2777
 1471SOL     OW15871   4.295   3.319   5.183 -0.4524 -0.3624 -0.0426
 1471SOL    HW115872   4.353   3.344   5.255 -1.2878 -2.8197  1.5109
 1471SOL    HW215873   4.341   3.252   5.132  0.5562  0.5796 -0.3766
 1472SOL     OW15874   1.778   2.578   4.244  0.5448 -0.2744 -0.1370
 1472SOL    HW115875   1.835   2.571   4.321 -0.7372 -2.2652  0.6192
 1472SOL    HW215876   1.755   2.487   4.225  1.8947 -0.5942 -0.2187
 1473SOL     OW15877   0.883   1.590   3.495 -0.2453  0.5029 -0.1820
 1473SOL    HW115878   0.835   1.585   3.578  0.2491 -0.0622  0.0695
 1473SOL    HW215879   0.809   1.575   3.437  0.6690  2.1852 -1.7655
 1474SOL     OW15880   1.742   1.126   9.283 -0.2239 -0.0608  0.3477
 1474SOL    HW115881   1.762   1.083   9.200 -1.2177  0.1755 -0.0188
 1474SOL    HW215882   1.795   1.071   9.341 -1.6073  0.7569  2.3934
 1475SOL     OW15883   1.921   3.442   5.579  0.3179 -0.3193 -0.2309
 1475SOL    HW115884   1.870   3.488   5.513 -1.0596  1.8211  2.3388
 1475SOL    HW215885   1.923   3.503   5.652  1.2302 -0.8960  0.2327
 1476SOL     OW15886   0.312   1.940   0.114 -0.2535 -0.6145 -0.4263
 1476SOL    HW115887   0.319   1.876   0.185  2.5238  0.5790  0.3604
 1476SOL    HW215888   0.250   1.894   0.057 -3.3121  0.3197  2.1412
 1477SOL     OW15889   0.909   0.747   1.356  0.4421  0.0107  0.2425
 1477SOL    HW115890   0.977   0.688   1.320  0.1100 -1.9377  2.7887
 1477SOL    HW215891   0.960   0.828   1.352  0.6370 -0.0999  0.5337
 1478SOL     OW15892   2.353   4.316  12.578 -0.4143  0.4327 -0.7580
 1478SOL    HW115893   2.265   4.294  12.610  0.0003 -1.3624 -0.8624
 1478SOL    HW215894   2.336   4.360  12.494  3.2364 -2.0941 -2.7996
 1479SOL     OW15895   2.538   3.187   3.301  0.1309 -0.1503  0.2138
 1479SOL    HW115896   2.590   3.208   3.379 -0.4223  0.8826  0.3043
 1479SOL    HW215897   2.452   3.198   3.341 -0.3413  1.2761 -1.1956
 1480SOL     OW15898   1.695   1.760   5.397 -0.3737 -0.0013 -0.0005
 1480SOL    HW115899   1.620   1.816   5.377 -2.9841 -2.8725  1.7889
 1480SOL    HW215900   1.731   1.757   5.308 -1.2347  1.0405 -0.3879
 1481SOL     OW15901   1.861   4.477  12.346  0.0344 -0.3672  0.4520
 1481SOL    HW115902   1.908   4.398  12.318 -1.1157 -1.0735  0.5208
 1481SOL    HW215903   1.936   4.523  12.383  1.4566 -0.7729 -1.9381
 1482SOL     OW15904   0.326   1.309  16.675 -0.3792  0.0063  0.3289
 1482SOL    HW115905   0.375   1.302  16.593 -0.5833  1.0757  0.1203
 1482SOL    HW215906   0.372   1.387  16.706 -0.9173  1.5398 -2.6884
 1483SOL     OW15907   2.830   1.535   3.419 -0.4679  0.1546 -0.2605
 1483SOL    HW115908   2.893   1.581   3.475  0.1229  0.6085 -1.2916
 1483SOL    HW215909   2.801   1.599   3.354 -1.3090  1.2177  1.1384
 1484SOL     OW15910   3.415   1.784   4.543  0.2650  0.2391 -0.4668
 1484SOL    HW115911   3.439   1.693   4.563 -0.6283  0.3422  1.0540
 1484SOL    HW215912   3.506   1.814   4.554  0.1715 -0.2862  1.6527
 1485SOL     OW15913   0.661   3.612   5.326 -0.5807 -0.0582 -0.2641
 1485SOL    HW115914   0.578   3.638   5.286 -0.9819 -1.4645 -0.3239
 1485SOL    HW215915   0.665   3.658   5.410 -1.5978 -0.5454  0.0492
 1486SOL     OW15916   0.896   1.184  10.741 -0.0001  0.6661  0.6846
 1486SOL    HW115917   0.914   1.277  10.756  1.6621  0.6353 -1.1119
 1486SOL    HW215918   0.957   1.169  10.669 -0.9811  2.1392 -0.4571
 1487SOL     OW15919   2.128   4.718   0.946 -0.2310 -0.2924 -0.5623
 1487SOL    HW115920   2.188   4.646   0.968 -0.6595 -0.4006  0.2492
 1487SOL    HW215921   2.184   0.029   0.878  0.5845  1.8969  1.3094
 1488SOL     OW15922   3.651   3.203  11.851  0.1293 -0.9531  0.4072
 1488SOL    HW115923   3.744   3.221  11.839 -0.0795 -2.0682 -2.8025
 1488SOL    HW215924   3.656   3.198  11.946  1.5995 -0.2170  0.3646
 1489SOL     OW15925   0.194   3.923   5.465 -0.2565  0.0680  0.3857
 1489SOL    HW115926   0.204   3.922   5.370  0.4714 -0.8254  0.4662
 1489SOL    HW215927   0.257   3.992   5.486  0.7101 -1.7740  3.5542
 1490SOL     OW15928   3.471   3.038  17.173  0.1241 -0.1003  0.0594
 1490SOL    HW115929   3.522   3.047  17.093  2.0128 -3.5699  0.8990
 1490SOL    HW215930   3.508   3.097  17.239 -0.2638 -0.5600  0.6900
 1491SOL     OW15931   0.860   3.739   1.932  0.5834 -0.7523  0.2487
 1491SOL    HW115932   0.792   3.804   1.914 -1.0716 -3.1637 -2.2719
 1491SOL    HW215933   0.862   3.710   1.841  0.8937  0.3822 -0.0986
 1492SOL     OW15934   0.506   3.911   6.522 -0.2073  0.5817 -0.2792
 1492SOL    HW115935   0.570   3.972   6.486 -0.1047  1.2728  1.0714
 1492SOL    HW215936   0.501   3.953   6.608  3.3851 -0.1876  0.3007
 1493SOL     OW15937   0.963   3.811  10.771 -0.8802 -0.5606  0.0926
 1493SOL    HW115938   1.042   3.858  10.743  0.0001 -1.2661  1.3646
 1493SOL    HW215939   0.995   3.756  10.842 -3.1258 -1.3494  0.4728
 1494SOL     OW15940   3.430   2.305  14.545  0.1337 -0.7733 -0.2739
 1494SOL    HW115941   3.357   2.297  14.607 -0.3090  0.5094 -0.6487
 1494SOL    HW215942   3.496   2.256  14.594  1.4167  0.5310 -0.7037
 1495SOL     OW15943   0.199   1.204   3.168  0.0888  0.1584  0.5765
 1495SOL    HW115944   0.161   1.120   3.141  0.5960  0.5192 -1.2822
 1495SOL    HW215945   0.293   1.191   3.182  0.1569  2.7322  2.3892
 1496SOL     OW15946   2.315   0.637   9.032 -0.1055  0.0631  0.1230
 1496SOL    HW115947   2.273   0.703   9.087 -1.5650 -0.1181 -0.7796
 1496SOL    HW215948   2.244   0.581   9.002  0.2247  0.7416 -1.9318
 1497SOL     OW15949   3.233   2.841   1.989 -0.7243 -0.0849  0.2708
 1497SOL    HW115950   3.232   2.750   1.960 -1.1943  0.3109 -0.9642
 1497SOL    HW215951   3.150   2.886   1.971  0.3537  2.2580  1.1725
 1498SOL     OW15952   0.480   0.852  10.157 -0.3858 -0.1693 -0.2213
 1498SOL    HW115953   0.481   0.941  10.123 -0.1316 -0.2553 -0.4399
 1498SOL    HW215954   0.472   0.790  10.085  1.7356  0.9951 -1.4511
 1499SOL     OW15955   2.612   1.946   2.940  0.1609  0.2136 -0.4837
 1499SOL    HW115956   2.526   1.920   2.906  0.0200 -0.7828  0.6618
 1499SOL    HW215957   2.587   2.016   3.000 -2.5191 -0.6574 -0.5671
 1500SOL     OW15958   3.272   4.533   2.572  0.1148  0.6526 -0.1908
 1500SOL    HW115959   3.186   4.525   2.614  0.8025 -4.3671  0.2362
 1500SOL    HW215960   3.254   4.514   2.480 -0.4544  2.4548 -0.4544
 1501SOL     OW15961   2.827   1.800   1.723  0.1607 -0.5286  0.2667
 1501SOL    HW115962   2.918   1.830   1.714 -0.3755  0.4510 -1.8646
 1501SOL    HW215963   2.844   1.730   1.786 -2.6104 -0.3155  1.2240
 1502SOL     OW15964   2.971   0.185   6.570  0.3262  0.8235 -0.5427
 1502SOL    HW115965   2.916   0.246   6.619 -0.1715  1.9266 -2.4647
 1502SOL    HW215966   2.919   0.182   6.489 -0.5680 -0.0157  0.0640
 1503SOL     OW15967   3.632   3.625  15.188  0.1185  0.0333 -0.4031
 1503SOL    HW115968   3.656   3.534  15.200 -2.1159 -0.2001  2.2623
 1503SOL    HW215969   3.714   3.664  15.220 -1.1572 -0.3334  3.3190
 1504SOL     OW15970   0.175   4.476   6.205  0.0161  0.2688 -0.3297
 1504SOL    HW115971   0.255   4.499   6.158  0.2252 -1.3612 -0.7688
 1504SOL    HW215972   0.124   4.431   6.138 -0.5988  1.0429 -0.3889
 1505SOL     OW15973   4.659   1.678  10.733 -0.0353 -0.3839 -0.4097
 1505SOL    HW115974   4.709   1.758  10.748  2.3347 -1.4457 -2.4929
 1505SOL    HW215975   4.592   1.689  10.800 -0.0156  3.7587 -1.0716
 1506SOL     OW15976   1.475   4.173   6.922 -0.0324  0.2883  0.4009
 1506SOL    HW115977   1.433   4.192   6.838  0.0603 -2.2390 -0.2321
 1506SOL    HW215978   1.545   4.238   6.914  0.2630  0.0036  0.6811
 1507SOL     OW15979   2.268   1.078   2.456 -0.0655 -0.2598 -0.0691
 1507SOL    HW115980   2.233   0.999   2.416 -0.8133 -0.0095  0.0766
 1507SOL    HW215981   2.359   1.050   2.460 -0.4221 -1.1337  1.8274
 1508SOL     OW15982   4.472   3.508  10.521 -0.0983 -0.0139 -0.3734
 1508SOL    HW115983   4.513   3.456  10.452  1.3455 -0.3514  0.7484
 1508SOL    HW215984   4.541   3.561  10.561  1.5992 -2.5539  0.0772
 1509SOL     OW15985   2.023   2.103   4.480  0.3549  0.3954 -0.0015
 1509SOL    HW115986   2.119   2.097   4.487  0.2053 -0.7716  1.0369
 1509SOL    HW215987   2.016   2.094   4.385  0.5713 -1.4506  0.1628
 1510SOL     OW15988   0.451   1.733   5.469 -0.5935 -0.0263 -0.0532
 1510SOL    HW115989   0.451   1.651   5.519 -2.2635  1.3698  2.2050
 1510SOL    HW215990   0.380   1.721   5.406 -1.6377  0.4050  1.0449
 1511SOL     OW15991   4.362   2.775  13.326 -0.6340  0.0576  0.8981
 1511SOL    HW115992   4.358   2.696  13.271 -1.2276  0.6487  0.1008
 1511SOL    HW215993   4.434   2.826  13.288 -1.9232  1.3203  0.1798
 1512SOL     OW15994   3.385   2.787   0.414 -0.2243 -0.0042  0.8326
 1512SOL    HW115995   3.357   2.878   0.426  0.2313  0.1980  0.3622
 1512SOL    HW215996   3.466   2.781   0.466  0.8776  0.9383 -0.7548
 1513SOL     OW15997   0.295   1.792   7.405 -0.4628 -0.7114  0.0972
 1513SOL    HW115998   0.343   1.727   7.455  0.4239 -1.4905 -1.7701
 1513SOL    HW215999   0.206   1.783   7.440  0.0942  0.5946  1.8426
 1514SOL     OW16000   2.021   1.830  16.781  0.7723 -0.3678  0.2719
 1514SOL    HW116001   2.020   1.734  16.772  1.8977 -0.4698  1.2137
 1514SOL    HW216002   2.097   1.828  16.840 -0.1908  2.3315  1.5557
 1515SOL     OW16003   0.450   0.023  10.371  0.1299 -0.1479  0.6199
 1515SOL    HW116004   0.369   0.044  10.325  0.4907 -0.1920 -0.0446
 1515SOL    HW216005   0.481   4.680  10.313 -0.8861  0.2416 -0.3777
 1516SOL     OW16006   4.003   2.379   9.584 -0.4204  0.1578  0.1695
 1516SOL    HW116007   3.942   2.341   9.521 -0.7513  0.1928  0.4683
 1516SOL    HW216008   3.969   2.346   9.667 -1.1353  1.3586  0.3517
 1517SOL     OW16009   2.281   3.209   9.943  0.3004  0.2136 -0.4770
 1517SOL    HW116010   2.237   3.143   9.889  0.5084  0.7403 -1.2807
 1517SOL    HW216011   2.365   3.167   9.959  0.2374  1.1279  2.1968
 1518SOL     OW16012   2.028   0.516   5.798  0.4767 -0.2206  0.0712
 1518SOL    HW116013   1.954   0.556   5.752  0.2020 -2.0073 -0.9985
 1518SOL    HW216014   1.992   0.429   5.816  0.7397 -0.4029 -0.2988
 1519SOL     OW16015   3.242   0.922   5.871  0.0401 -0.0829  0.1796
 1519SOL    HW116016   3.261   0.980   5.945  2.5633 -1.5876  0.7081
 1519SOL    HW216017   3.150   0.900   5.885  0.2535 -1.3030 -0.3787
 1520SOL     OW16018   1.991   4.469   2.659  0.0715  0.2961 -0.4917
 1520SOL    HW116019   1.896   4.457   2.666  0.0378  0.2792 -0.9586
 1520SOL    HW216020   2.031   4.383   2.668  1.4235  0.8341 -1.3377
 1521SOL     OW16021   2.775   2.594   0.099  0.8690  0.1072 -0.0541
 1521SOL    HW116022   2.687   2.621   0.123  0.5227 -0.6032 -0.5260
 1521SOL    HW216023   2.828   2.641   0.163 -1.0480 -0.5060  1.9352
 1522SOL     OW16024   1.577   3.703   1.711 -0.2455  0.4439  0.0190
 1522SOL    HW116025   1.643   3.757   1.754  0.2050 -0.3093  0.2706
 1522SOL    HW216026   1.500   3.761   1.712  0.1874  1.0411 -1.3615
 1523SOL     OW16027   1.894   3.581  13.528 -0.1695 -0.3691  0.0172
 1523SOL    HW116028   1.990   3.587  13.523 -0.0201 -0.8895  2.0996
 1523SOL    HW216029   1.877   3.644  13.599 -1.1307  1.2436 -1.6501
 1524SOL     OW16030   4.658   1.463   2.330 -0.0373  0.4707 -0.2149
 1524SOL    HW116031   0.014   1.465   2.378  0.2619  0.0707 -0.7125
 1524SOL    HW216032   4.681   1.385   2.279 -1.3852  0.7812 -1.2985
 1525SOL     OW16033   2.868   2.989  17.622 -0.0833  0.4302 -0.1800
 1525SOL    HW116034   2.867   2.895  17.602 -0.8493  0.1557  1.1601
 1525SOL    HW216035   2.835   2.993   0.004  0.0493  0.4346 -0.1303
 1526SOL     OW16036   2.784   4.482  15.675 -0.0057  0.4417  0.4432
 1526SOL    HW116037   2.769   4.500  15.768  0.2801  0.2439  0.5294
 1526SOL    HW216038   2.880   4.476  15.678 -0.0066 -0.0326 -0.5828
 1527SOL     OW16039   4.570   2.092  16.647  0.0852  0.1320 -0.1431
 1527SOL    HW116040   4.513   2.083  16.724 -0.4719 -0.7196 -0.6477
 1527SOL    HW216041   4.594   2.184  16.648 -0.6496  0.3360 -1.6514
 1528SOL     OW16042   4.642   2.347   1.437  0.1124  0.1457 -0.6395
 1528SOL    HW116043   4.665   2.398   1.360  3.0675 -1.5701 -0.9355
 1528SOL    HW216044   4.693   2.391   1.505  0.0825  0.6058 -0.9137
 1529SOL     OW16045   0.674   0.617   5.826 -0.0084 -0.2288 -0.4862
 1529SOL    HW116046   0.736   0.668   5.878 -0.6764  0.5030 -0.4083
 1529SOL    HW216047   0.638   0.555   5.890  1.4722  0.6383  1.1818
 1530SOL     OW16048   1.767   1.079   0.004 -0.0851 -0.2095 -0.4893
 1530SOL    HW116049   1.702   1.054   0.070 -1.5199  3.5636 -0.4627
 1530SOL    HW216050   1.741   1.168  17.688 -0.6065  0.2248  1.7340
 1531SOL     OW16051   0.764   3.881   9.831 -0.5385  0.0060  0.1613
 1531SOL    HW116052   0.681   3.888   9.879 -1.6297  0.1298 -1.7219
 1531SOL    HW216053   0.827   3.855   9.898  0.3224  4.1874  1.0200
 1532SOL     OW16054   4.472   1.770   0.218 -0.4531  0.0447 -0.3653
 1532SOL    HW116055   4.391   1.822   0.221  0.0508  0.7910  0.1878
 1532SOL    HW216056   4.449   1.680   0.242 -0.0453  1.0035  3.5316
 1533SOL     OW16057   3.478   2.272  17.260  0.3968  0.0931 -0.1335
 1533SOL    HW116058   3.534   2.305  17.330 -0.4669  0.3439  0.4452
 1533SOL    HW216059   3.472   2.178  17.281  3.0373 -0.0995 -0.2296
 1534SOL     OW16060   4.414   4.449  14.171  0.0975 -0.3903 -0.0669
 1534SOL    HW116061   4.478   4.385  14.138  0.9971  0.4157  0.1161
 1534SOL    HW216062   4.435   4.448  14.264 -0.2971 -4.4939 -0.0170
 1535SOL     OW16063   2.755   0.450   8.562 -0.4987  0.4051  0.3111
 1535SOL    HW116064   2.835   0.432   8.512 -0.8072 -0.5899  0.1682
 1535SOL    HW216065   2.766   0.380   8.627 -1.6461 -0.6433 -0.6192
 1536SOL     OW16066   3.746   1.648   6.543 -0.3232 -0.1052  0.1023
 1536SOL    HW116067   3.724   1.573   6.597  0.7738 -0.8407 -0.4627
 1536SOL    HW216068   3.808   1.606   6.483 -0.4579  0.8411 -0.7060
 1537SOL     OW16069   1.080   0.325  16.816  0.0050  0.1320 -0.0443
 1537SOL    HW116070   1.139   0.382  16.866  0.9575 -1.6697  0.8669
 1537SOL    HW216071   1.066   0.258  16.882 -0.0032 -0.4195 -0.6098
 1538SOL     OW16072   1.648   4.011  13.060 -0.4371  0.4256  0.0771
 1538SOL    HW116073   1.684   4.099  13.077 -2.1182  1.0313  0.5030
 1538SOL    HW216074   1.725   3.954  13.054 -1.0094 -0.3190 -0.1112
 1539SOL     OW16075   4.230   4.015   1.289 -0.2170 -0.1251 -0.1561
 1539SOL    HW116076   4.307   4.040   1.340 -0.8590 -1.3746  1.4165
 1539SOL    HW216077   4.162   4.019   1.357 -1.2504 -0.0699 -1.2046
 1540SOL     OW16078   1.877   1.036   2.747  0.2762 -0.0737 -0.3632
 1540SOL    HW116079   1.951   1.031   2.687  0.3490 -2.8604 -0.0599
 1540SOL    HW216080   1.896   1.118   2.793 -0.0590 -0.5336  0.5929
 1541SOL     OW16081   2.004   3.041  10.032 -0.1976  0.3600 -0.0026
 1541SOL    HW116082   1.916   3.013  10.055  0.0357  0.1743  0.6421
 1541SOL    HW216083   2.003   3.136  10.041 -2.5077  0.0136  3.1439
 1542SOL     OW16084   4.232   0.708  15.871  0.2276 -0.1455  0.0601
 1542SOL    HW116085   4.186   0.790  15.857  0.2350 -0.6854 -3.1299
 1542SOL    HW216086   4.234   0.668  15.783 -0.7076 -1.4378  0.6197
 1543SOL     OW16087   1.093   3.759   9.018  0.6847  0.2521 -0.3980
 1543SOL    HW116088   1.132   3.751   8.931  1.8858  1.3348  0.0498
 1543SOL    HW216089   1.001   3.759   8.990  0.4789  0.8262  0.2788
 1544SOL     OW16090   0.867   3.747   2.769 -0.4931  0.4790  0.1616
 1544SOL    HW116091   0.783   3.705   2.751  0.6414 -1.4662 -0.5898
 1544SOL    HW216092   0.876   3.724   2.862  0.2789 -1.7147 -0.4344
 1545SOL     OW16093   3.425   3.915  11.926 -0.4928 -0.5236 -0.1171
 1545SOL    HW116094   3.374   3.878  11.853 -1.5039  0.5815  0.0295
 1545SOL    HW216095   3.376   3.875  11.998 -1.8145  0.8469 -0.2470
 1546SOL     OW16096   2.980   3.525   7.263 -0.1362 -0.6869 -0.1733
 1546SOL    HW116097   2.934   3.442   7.250  1.1464 -1.2250 -1.1946
 1546SOL    HW216098   2.901   3.579   7.263 -0.8851 -1.7621  2.3995
 1547SOL     OW16099   0.636   2.466   9.913 -0.0205  0.0407  0.1131
 1547SOL    HW116100   0.588   2.459   9.996  1.5789  1.2345  1.1382
 1547SOL    HW216101   0.710   2.409   9.933  1.1805  1.5279 -0.0512
 1548SOL     OW16102   0.058   0.472   9.520 -0.1566  0.3296 -0.6362
 1548SOL    HW116103   0.007   0.403   9.561  2.8274 -2.0213 -0.8625
 1548SOL    HW216104   0.006   0.494   9.443  0.0586 -0.8218 -1.1100
 1549SOL     OW16105   0.317   2.722   3.949 -0.0343 -0.0800 -0.0440
 1549SOL    HW116106   0.357   2.760   3.870 -0.2400 -1.2343 -0.7175
 1549SOL    HW216107   0.283   2.639   3.915  0.8254 -0.2365 -0.5275
 1550SOL     OW16108   2.409   0.598   2.922  0.5636  0.4966  0.2111
 1550SOL    HW116109   2.435   0.511   2.952  2.1079  0.7184 -0.4655
 1550SOL    HW216110   2.332   0.614   2.977  0.7764  0.2856  0.5731
 1551SOL     OW16111   1.463   1.901   4.600  0.5376 -0.0579  0.0066
 1551SOL    HW116112   1.434   1.819   4.559 -1.5750  0.3673  0.6152
 1551SOL    HW216113   1.380   1.923   4.643  1.1158  1.7195  0.1944
 1552SOL     OW16114   1.739   0.603   3.149  0.0217 -0.3793 -0.4204
 1552SOL    HW116115   1.716   0.691   3.177 -0.3309 -0.4449 -0.5117
 1552SOL    HW216116   1.799   0.578   3.220 -2.0690 -1.9970  0.7522
 1553SOL     OW16117   0.339   1.242  17.501  0.6740  0.2081  0.2122
 1553SOL    HW116118   0.245   1.230  17.486  0.7353  0.0123 -0.0129
 1553SOL    HW216119   0.355   1.255  17.594  0.7739  1.5260  0.0220
 1554SOL     OW16120   0.938   3.428   5.250  0.2192  0.0302 -0.9687
 1554SOL    HW116121   0.932   3.409   5.157 -0.6544 -1.1320 -0.6722
 1554SOL    HW216122   0.939   3.524   5.246  1.9352 -0.0120 -1.4753
 1555SOL     OW16123   3.137   1.240   0.462  0.4317 -0.1856 -0.0230
 1555SOL    HW116124   3.122   1.171   0.398  0.9211  0.0778 -0.4285
 1555SOL    HW216125   3.117   1.188   0.539 -0.3730 -2.6381 -1.9115
 1556SOL     OW16126   3.095   3.763  16.999  0.4194 -0.4510 -0.4691
 1556SOL    HW116127   3.021   3.760  16.938  0.7390  0.5660 -0.8963
 1556SOL    HW216128   3.117   3.854  16.981 -3.8772  0.6381 -0.0861
 1557SOL     OW16129   3.720   3.271   1.159 -0.3186 -0.3171  0.1175
 1557SOL    HW116130   3.784   3.319   1.107  1.5317 -0.9553  1.7972
 1557SOL    HW216131   3.654   3.265   1.090 -0.9785 -0.0297  0.7326
 1558SOL     OW16132   0.688   4.391   3.889  0.5133  0.2924 -0.6265
 1558SOL    HW116133   0.741   4.379   3.968 -3.4357 -3.5042  1.4418
 1558SOL    HW216134   0.682   4.487   3.890  1.0167  0.2894  1.1505
 1559SOL     OW16135   2.057   3.034   7.830  0.1092 -0.2754  0.0582
 1559SOL    HW116136   2.077   3.028   7.924 -1.5977  1.7766  0.5505
 1559SOL    HW216137   2.030   2.943   7.817 -1.2978  0.2842 -0.8650
 1560SOL     OW16138   0.761   1.708   4.052 -0.0279  0.2051 -0.0503
 1560SOL    HW116139   0.758   1.780   4.114 -0.7597 -0.3329  0.5434
 1560SOL    HW216140   0.827   1.652   4.091 -0.3050 -0.4358 -0.4940
 1561SOL     OW16141   1.796   2.611   5.064  0.0816 -0.5877 -0.2989
 1561SOL    HW116142   1.791   2.692   5.013  1.3391  0.6688  1.5828
 1561SOL    HW216143   1.854   2.559   5.008 -0.1953 -2.0740  0.8083
 1562SOL     OW16144   3.974   3.729   7.314 -0.8749 -0.4724 -0.0156
 1562SOL    HW116145   3.926   3.695   7.389  1.3993  1.3047  2.2402
 1562SOL    HW216146   3.968   3.653   7.256  2.0821 -0.7677  0.1042
 1563SOL     OW16147   3.686   4.662   8.194  0.1797  0.0441  0.1575
 1563SOL    HW116148   3.747   4.649   8.267  0.7743 -0.5991 -0.4567
 1563SOL    HW216149   3.748   4.714   8.144  0.3052 -1.7467 -1.5532
 1564SOL     OW16150   4.162   2.109   4.490  0.6327  0.5376  0.0975
 1564SOL    HW116151   4.122   2.173   4.550 -0.4440  0.2650 -0.3212
 1564SOL    HW216152   4.244   2.096   4.537  0.1998 -1.8674  0.1770
 1565SOL     OW16153   2.507   1.878   8.596  0.4937  0.1509 -0.3049
 1565SOL    HW116154   2.565   1.803   8.606 -1.9015 -1.6713  0.0305
 1565SOL    HW216155   2.471   1.885   8.684 -0.1909 -0.3972 -0.5401
 1566SOL     OW16156   1.479   0.919  10.951  0.0790  0.0694 -0.3544
 1566SOL    HW116157   1.388   0.945  10.943  0.4341  1.8068  1.2455
 1566SOL    HW216158   1.527   0.952  10.875 -0.6010 -1.3710 -1.4031
 1567SOL     OW16159   4.529   4.609   2.715  0.1173  0.1027  0.3478
 1567SOL    HW116160   4.624   4.615   2.723  0.2202 -0.2918 -0.6143
 1567SOL    HW216161   4.499   4.669   2.647 -1.6790  1.5471  2.4314
 1568SOL     OW16162   2.064   0.701  12.183 -0.9056  0.3015  0.8332
 1568SOL    HW116163   2.064   0.655  12.268  1.7514  0.0110  0.6743
 1568SOL    HW216164   2.010   0.777  12.204  0.9856  0.7471  4.0658
 1569SOL     OW16165   1.318   4.431   7.032 -0.7947 -0.5724  0.1232
 1569SOL    HW116166   1.258   4.468   7.097 -0.8588 -2.2700  1.0234
 1569SOL    HW216167   1.311   4.489   6.956 -2.2015  1.2730  1.6466
 1570SOL     OW16168   2.954   1.461   5.952  0.2297 -0.1691  0.3651
 1570SOL    HW116169   2.902   1.456   6.032  1.3518  2.8451  1.3136
 1570SOL    HW216170   3.002   1.379   5.950  0.2482 -0.1205 -0.9014
 1571SOL     OW16171   0.119   2.019   4.215  0.7163  0.5081 -0.0364
 1571SOL    HW116172   0.040   1.978   4.250  0.8896  1.1681  1.1164
 1571SOL    HW216173   0.088   2.108   4.196  0.1902  0.1053 -1.0426
 1572SOL     OW16174   3.816   2.637   1.429 -0.1262 -0.0882  0.0658
 1572SOL    HW116175   3.779   2.724   1.448 -0.1436 -0.1237  0.1947
 1572SOL    HW216176   3.905   2.657   1.456  0.6081 -1.9901 -0.9887
 1573SOL     OW16177   1.415   4.403  11.235  0.0615 -0.2795  0.1751
 1573SOL    HW116178   1.366   4.323  11.252  2.0396 -0.8288  3.3407
 1573SOL    HW216179   1.407   4.450  11.319 -0.9048 -1.8783  0.9728
 1574SOL     OW16180   3.540   2.252   1.147  0.0898  0.5416 -0.2086
 1574SOL    HW116181   3.622   2.220   1.185  0.9652  1.7694 -1.0651
 1574SOL    HW216182   3.556   2.346   1.136 -1.5900  1.0389  1.5345
 1575SOL     OW16183   2.016   3.979  17.468  0.4397 -0.2983 -0.1751
 1575SOL    HW116184   2.090   4.039  17.483  1.0187 -1.6077  2.1426
 1575SOL    HW216185   1.966   4.017  17.395  0.5445  0.6578  0.2514
 1576SOL     OW16186   0.947   3.906   3.922  0.1611  0.4706 -0.4129
 1576SOL    HW116187   1.022   3.941   3.969  1.0260 -2.3144  0.2819
 1576SOL    HW216188   0.989   3.858   3.851  3.8771 -1.2068  2.9632
 1577SOL     OW16189   4.185   3.967   0.158  0.3144  0.1927 -0.1943
 1577SOL    HW116190   4.173   3.972   0.063  2.5892 -1.9453 -0.6018
 1577SOL    HW216191   4.107   4.000   0.203 -0.2495  1.0093 -1.7555
 1578SOL     OW16192   2.567   4.196   6.960 -0.0339  0.0578  0.5334
 1578SOL    HW116193   2.603   4.136   7.025 -1.0170 -2.0482 -0.8626
 1578SOL    HW216194   2.500   4.144   6.915  0.1726 -1.7539  2.3132
 1579SOL     OW16195   0.155   1.996   5.278  0.7308  0.2596 -0.4182
 1579SOL    HW116196   0.163   1.928   5.211  0.6238 -2.5089  2.3789
 1579SOL    HW216197   0.095   1.955   5.341  1.2744  0.4138  0.1971
 1580SOL     OW16198   1.390   0.132   1.769 -0.6988 -0.0664  0.7607
 1580SOL    HW116199   1.376   0.046   1.809  0.6375 -0.9804 -0.7562
 1580SOL    HW216200   1.341   0.111   1.690 -0.8166  1.8618  0.3151
 1581SOL     OW16201   0.384   0.455  17.517 -0.6340  0.3041  0.5775
 1581SOL    HW116202   0.339   0.385  17.564 -0.7801  1.7258  2.5100
 1581SOL    HW216203   0.318   0.499  17.463 -0.6991 -1.6448 -0.9318
 1582SOL     OW16204   3.011   0.243   4.758  0.1277 -0.5670  0.3289
 1582SOL    HW116205   2.919   0.267   4.773 -0.2103 -1.2124 -0.6649
 1582SOL    HW216206   3.010   0.150   4.735  0.2802 -0.8494  1.4980
 1583SOL     OW16207   1.599   4.060   7.727  0.4321 -0.4981  0.2330
 1583SOL    HW116208   1.555   3.981   7.697 -1.8893  0.4584  1.1487
 1583SOL    HW216209   1.621   4.091   7.639 -1.2775  0.0509  0.0054
 1584SOL     OW16210   4.251   4.379   8.449 -0.1839  0.4727  0.0293
 1584SOL    HW116211   4.236   4.288   8.474 -0.6729  0.4457 -0.3525
 1584SOL    HW216212   4.208   4.421   8.525 -2.6499 -1.9237 -0.0233
 1585SOL     OW16213   3.871   1.203  11.468  0.0327  0.0553 -0.1574
 1585SOL    HW116214   3.908   1.206  11.380  0.3774  0.1753 -0.0077
 1585SOL    HW216215   3.863   1.297  11.484  0.6962 -0.1342  1.3212
 1586SOL     OW16216   0.202   2.436   9.330  0.4269 -0.6840 -0.4456
 1586SOL    HW116217   0.261   2.506   9.302  1.8824 -0.5689  2.8856
 1586SOL    HW216218   0.276   2.383   9.360 -0.8579 -2.3713 -0.2642
 1587SOL     OW16219   4.430   1.344   5.393 -0.5218  0.0812  0.7354
 1587SOL    HW116220   4.479   1.422   5.422  0.6449 -0.3738 -0.0279
 1587SOL    HW216221   4.385   1.388   5.321  0.9073 -1.4051 -1.0394
 1588SOL     OW16222   1.280   3.600   7.021 -0.1486  0.0460 -0.3129
 1588SOL    HW116223   1.258   3.513   6.986  2.4173 -1.0158  0.7596
 1588SOL    HW216224   1.193   3.639   7.022  0.2852  0.9820  0.4510
 1589SOL     OW16225   4.493   0.919  14.475  0.6876 -0.2811  0.3805
 1589SOL    HW116226   4.400   0.924  14.497  0.5583  2.6432 -0.7531
 1589SOL    HW216227   4.489   0.854  14.405  1.9490  0.6253 -0.5422
 1590SOL     OW16228   4.508   2.803   8.763 -0.2966  0.3632 -0.4403
 1590SOL    HW116229   4.590   2.834   8.724 -0.8869  0.3603 -1.7006
 1590SOL    HW216230   4.463   2.760   8.690  0.5225 -1.0194 -0.1352
 1591SOL     OW16231   1.313   3.644  17.420 -0.4204  0.0533  0.0005
 1591SOL    HW116232   1.254   3.586  17.372  1.1314 -1.9358  0.5054
 1591SOL    HW216233   1.360   3.683  17.346  1.7727 -1.0591  0.8167
 1592SOL     OW16234   4.571   1.905   1.067 -0.6753 -0.1492 -0.0668
 1592SOL    HW116235   4.559   1.965   0.994 -1.9087 -2.6164 -1.8633
 1592SOL    HW216236   4.496   1.931   1.121  1.0716  0.4126  2.1065
 1593SOL     OW16237   0.050   1.239  15.192 -0.1949  0.4193  0.1767
 1593SOL    HW116238   0.014   1.182  15.124  0.9130 -1.2380  0.9622
 1593SOL    HW216239   0.020   1.324  15.162 -2.4892 -0.2736  0.4875
 1594SOL     OW16240   2.422   4.393   1.110 -0.0152  0.4236 -0.4095
 1594SOL    HW116241   2.355   4.403   1.177 -0.8098 -0.6518 -1.0518
 1594SOL    HW216242   2.470   4.476   1.116  1.2997 -0.4441  1.1642
 1595SOL     OW16243   4.507   3.800  13.785  0.2630  0.2742  0.2832
 1595SOL    HW116244   4.520   3.720  13.835 -1.1386  1.2066  2.1570
 1595SOL    HW216245   4.493   3.764  13.697  1.2570  0.3704  0.0877
 1596SOL     OW16246   3.949   1.497   2.115  0.0793  0.3479  0.3632
 1596SOL    HW116247   3.855   1.512   2.125 -0.3069 -1.2430 -0.8771
 1596SOL    HW216248   3.976   1.582   2.081  0.4908  0.5965  1.2989
 1597SOL     OW16249   3.619   3.458  16.767  0.2292  0.3383 -0.0686
 1597SOL    HW116250   3.630   3.477  16.673 -1.5481 -0.5334 -0.4457
 1597SOL    HW216251   3.541   3.510  16.784  1.8937  2.1040  2.1606
 1598SOL     OW16252   1.330   4.223   0.514  0.7187  0.0332  0.4332
 1598SOL    HW116253   1.366   4.312   0.512 -2.1078  1.1556  1.0182
 1598SOL    HW216254   1.405   4.169   0.487  2.9306  1.7295  3.1844
 1599SOL     OW16255   1.816   0.253   7.087 -0.2743  0.0512  0.1439
 1599SOL    HW116256   1.766   0.193   7.031  0.5240 -0.4334 -0.0475
 1599SOL    HW216257   1.735   0.281   7.130 -0.7038 -0.7786 -0.1308
 1600SOL     OW16258   1.188   3.536   5.514  0.2707  0.7140 -0.8621
 1600SOL    HW116259   1.155   3.459   5.468  2.2698 -0.9862  0.5286
 1600SOL    HW216260   1.189   3.513   5.607 -1.3648  0.9292 -0.7858
 1601SOL     OW16261   3.231   1.608   2.640  0.5090 -0.4725 -0.0779
 1601SOL    HW116262   3.324   1.613   2.663  0.2805  0.6993  0.5864
 1601SOL    HW216263   3.229   1.544   2.569 -0.9992  1.4337 -1.7561
 1602SOL     OW16264   3.333   4.274   3.550  0.1682 -0.4459 -0.5870
 1602SOL    HW116265   3.395   4.201   3.562  1.3248  1.0517  2.4294
 1602SOL    HW216266   3.262   4.244   3.607 -0.0594 -1.3396 -1.3333
 1603SOL     OW16267   3.342   3.485   3.522 -0.7432 -0.0868 -0.1792
 1603SOL    HW116268   3.294   3.412   3.483 -0.4205 -0.5240  0.2383
 1603SOL    HW216269   3.400   3.432   3.577  0.6219  1.6251  0.0505
 1604SOL     OW16270   2.855   2.108   4.071 -0.1433  0.8613 -0.1096
 1604SOL    HW116271   2.784   2.102   4.007 -1.8521 -0.8605  1.9615
 1604SOL    HW216272   2.795   2.108   4.145  1.6935  1.3883  1.3933
 1605SOL     OW16273   4.573   2.965   9.527 -0.8476 -0.4069  0.4339
 1605SOL    HW116274   4.647   2.904   9.518 -1.1813 -1.0189  1.7429
 1605SOL    HW216275   4.493   2.913   9.527 -1.6428  0.8364  1.5081
 1606SOL     OW16276   1.938   2.088   5.335 -0.2308 -0.0030  0.0226
 1606SOL    HW116277   1.991   2.135   5.400 -0.5389  0.6806 -0.2204
 1606SOL    HW216278   2.002   2.057   5.272  1.7610  0.3108  1.8874
 1607SOL     OW16279   2.982   0.868   2.051 -0.0725 -0.2734  0.0590
 1607SOL    HW116280   2.935   0.802   2.102 -1.5399  0.3509 -0.5101
 1607SOL    HW216281   2.960   0.948   2.099  1.5342  0.1663  0.0754
 1608SOL     OW16282   1.613   0.035   9.891 -0.1625  0.4238  0.1426
 1608SOL    HW116283   1.700   0.033   9.851 -0.3080 -0.3288 -0.1305
 1608SOL    HW216284   1.606   0.120   9.935  2.5841  0.9544 -0.4216
 1609SOL     OW16285   4.266   3.440   6.794 -0.2827 -0.5252 -0.4246
 1609SOL    HW116286   4.191   3.495   6.816 -0.6525 -0.3933 -2.0269
 1609SOL    HW216287   4.259   3.421   6.700 -0.7869 -1.3022 -0.2246
 1610SOL     OW16288   3.666   0.091  16.634  0.4878 -0.2710  0.0986
 1610SOL    HW116289   3.595   0.101  16.698 -0.1727 -1.9116 -0.3808
 1610SOL    HW216290   3.735   0.066  16.694  1.0973 -0.9845 -0.8953
 1611SOL     OW16291   0.022   0.481   6.727  0.1172  0.0513 -0.1264
 1611SOL    HW116292   0.027   0.576   6.737 -2.9084  0.2680 -0.4924
 1611SOL    HW216293   0.116   0.466   6.738 -0.4103 -1.9224  1.7406
 1612SOL     OW16294   0.326   2.045  11.524 -0.0277  0.7937 -0.3350
 1612SOL    HW116295   0.372   2.099  11.589  0.0410  1.1478 -0.6762
 1612SOL    HW216296   0.288   2.116  11.471  1.6166  0.0240 -2.5334
 1613SOL     OW16297   1.452   1.312   9.857  0.2984 -0.1994  0.1663
 1613SOL    HW116298   1.503   1.330   9.936  2.9237 -1.7076 -1.1826
 1613SOL    HW216299   1.443   1.217   9.856  2.6504 -0.4387  1.7889
 1614SOL     OW16300   4.506   3.815   2.486  0.4330  0.2381 -0.1026
 1614SOL    HW116301   4.443   3.831   2.556  1.4612  1.1322  0.6026
 1614SOL    HW216302   4.518   3.720   2.488  0.1740  0.2566  2.1685
 1615SOL     OW16303   3.232   3.183  17.237  0.2401 -0.3344  0.1052
 1615SOL    HW116304   3.163   3.136  17.283 -0.1174  1.0807  1.0350
 1615SOL    HW216305   3.298   3.116  17.222 -0.7307 -1.0974 -0.7097
 1616SOL     OW16306   3.592   3.271   2.490  0.1071  0.3440 -0.3519
 1616SOL    HW116307   3.582   3.266   2.585  0.0534 -1.5151 -0.4662
 1616SOL    HW216308   3.687   3.287   2.495  0.0757  0.0527  1.0876
 1617SOL     OW16309   2.798   2.591   2.564 -0.1951 -1.3312 -0.5065
 1617SOL    HW116310   2.793   2.554   2.476 -3.4859 -3.5026  0.5914
 1617SOL    HW216311   2.720   2.548   2.601 -3.0916  4.0247 -0.3347
 1618SOL     OW16312   3.268   0.095  16.158  0.3751  0.0602  0.0790
 1618SOL    HW116313   3.272   0.184  16.192  0.5490 -0.4869  1.4921
 1618SOL    HW216314   3.329   0.099  16.084 -0.0326  1.5869 -0.1758
 1619SOL     OW16315   3.191   1.387  10.139 -0.0335  0.0017  0.1351
 1619SOL    HW116316   3.163   1.478  10.140 -1.3342 -0.3987  0.2722
 1619SOL    HW216317   3.159   1.357  10.053 -0.8973 -0.0008  0.4569
 1620SOL     OW16318   3.374   2.344  16.392 -0.1647  0.2042  0.0252
 1620SOL    HW116319   3.429   2.402  16.339 -2.3611  1.8028 -0.5317
 1620SOL    HW216320   3.411   2.266  16.349 -1.3431 -1.1756  1.5319
 1621SOL     OW16321   2.779   2.439   5.062 -0.4910  0.5105  0.6845
 1621SOL    HW116322   2.755   2.521   5.019  0.0553  0.8759  1.0727
 1621SOL    HW216323   2.838   2.404   4.995 -0.7366  1.4163 -0.0045
 1622SOL     OW16324   2.094   4.199   7.436  0.9044 -0.2986  0.2872
 1622SOL    HW116325   2.157   4.257   7.480 -0.3163  1.5710 -0.4006
 1622SOL    HW216326   2.121   4.215   7.345  0.2026  0.3821  0.1973
 1623SOL     OW16327   3.366   0.181   1.911 -0.0138  0.7232 -0.1206
 1623SOL    HW116328   3.420   0.108   1.881  1.4316  0.9793  1.8308
 1623SOL    HW216329   3.289   0.140   1.950  0.6906 -1.7444 -1.3363
 1624SOL     OW16330   4.338   1.617   7.583 -0.1805  0.3382  0.5128
 1624SOL    HW116331   4.246   1.638   7.568 -0.1966  0.1972  0.4162
 1624SOL    HW216332   4.366   1.684   7.645 -2.3422  1.7791 -0.0503
 1625SOL     OW16333   0.920   2.515  16.076  0.1415  0.3775  0.2918
 1625SOL    HW116334   0.996   2.459  16.059  0.9923  2.1870 -1.9056
 1625SOL    HW216335   0.958   2.592  16.034  1.0294 -0.6190 -0.7640
 1626SOL     OW16336   1.751   2.071   1.507 -0.5470  0.5835  0.1477
 1626SOL    HW116337   1.716   2.107   1.588  2.6770  0.5800  1.5152
 1626SOL    HW216338   1.724   2.138   1.444  2.6724  0.9881 -0.7884
 1627SOL     OW16339   2.961   0.127   5.141 -0.1264  0.3665 -0.8617
 1627SOL    HW116340   3.025   0.090   5.080  2.9103  0.8789  2.0036
 1627SOL    HW216341   2.918   0.051   5.180  1.5647  1.4070  2.9963
 1628SOL     OW16342   1.655   1.447   8.354  0.9929  0.3125  0.2719
 1628SOL    HW116343   1.615   1.477   8.272 -0.5943 -0.3434  0.8184
 1628SOL    HW216344   1.581   1.456   8.414  0.2239  1.5453 -0.8763
 1629SOL     OW16345   2.370   0.345  10.348  0.2291 -0.7598  0.2045
 1629SOL    HW116346   2.452   0.314  10.309 -0.8849 -2.2961 -0.9582
 1629SOL    HW216347   2.304   0.314  10.285  1.8875 -0.3486 -1.7335
 1630SOL     OW16348   4.114   2.126  14.074 -0.2037  0.0374  0.1176
 1630SOL    HW116349   4.144   2.145  14.163  0.3096  1.5505 -0.3842
 1630SOL    HW216350   4.027   2.089  14.088 -1.1097  1.8908 -0.6631
 1631SOL     OW16351   0.958   2.054  17.172 -0.1244 -0.4606  0.6400
 1631SOL    HW116352   1.052   2.045  17.188  0.5395  1.2875 -2.2017
 1631SOL    HW216353   0.936   1.999  17.247  0.2710 -1.0934  0.2857
 1632SOL     OW16354   2.787   3.661   8.388  0.6206  0.1499 -0.0080
 1632SOL    HW116355   2.800   3.749   8.351  0.8428 -0.0478 -0.4064
 1632SOL    HW216356   2.694   3.670   8.407  0.6694 -0.5562  0.5543
 1633SOL     OW16357   4.600   1.444   2.981 -0.1946  0.0410 -0.4334
 1633SOL    HW116358   4.589   1.521   2.926 -0.1643 -1.3337 -2.3661
 1633SOL    HW216359   4.508   1.424   2.997 -0.5664  1.0683 -1.2786
 1634SOL     OW16360   1.501   0.883   7.544 -0.5994  0.3202 -0.0111
 1634SOL    HW116361   1.562   0.846   7.608  1.3251  1.5670 -1.1454
 1634SOL    HW216362   1.418   0.881   7.592 -0.3655 -1.2405  0.3152
 1635SOL     OW16363   0.539   3.147   2.360 -0.0313  0.3673 -0.6134
 1635SOL    HW116364   0.557   3.214   2.295  0.2592  0.9658  0.0844
 1635SOL    HW216365   0.445   3.161   2.353 -0.2714 -0.8292  0.3142
 1636SOL     OW16366   3.082   3.360  17.508  0.2607 -0.0869 -0.0583
 1636SOL    HW116367   3.043   3.447  17.508 -0.3615 -0.3718  2.2667
 1636SOL    HW216368   3.006   3.308  17.535 -0.1224  0.5710  0.1303
 1637SOL     OW16369   2.117   0.101   2.150 -0.2435 -0.4556  0.2909
 1637SOL    HW116370   2.145   0.009   2.146  2.3140  0.3691 -1.1446
 1637SOL    HW216371   2.152   0.130   2.065 -1.9394  2.5338  0.6109
 1638SOL     OW16372   1.483   3.673  15.654  0.4477  0.0923 -0.3234
 1638SOL    HW116373   1.508   3.735  15.722  0.0377  0.0222 -0.1088
 1638SOL    HW216374   1.456   3.596  15.705  2.4302  0.0498  0.6741
 1639SOL     OW16375   3.373   2.128   5.849 -0.2227 -0.3670  0.2039
 1639SOL    HW116376   3.457   2.082   5.853  0.2165  0.4790  0.7398
 1639SOL    HW216377   3.380   2.203   5.907 -0.2860 -0.1311 -0.0915
 1640SOL     OW16378   3.699   0.959   2.012  0.3227  0.1516 -0.4336
 1640SOL    HW116379   3.702   1.020   2.086 -2.2806  0.5691 -0.6962
 1640SOL    HW216380   3.608   0.933   2.007 -0.6063  3.1763  0.5409
 1641SOL     OW16381   3.952   0.462  13.323  0.3432  0.7195 -0.9423
 1641SOL    HW116382   4.004   0.461  13.403 -1.2656 -1.4038  0.0844
 1641SOL    HW216383   3.912   0.548  13.332  0.5800  0.6168  1.1088
 1642SOL     OW16384   2.320   4.263   5.738  0.2799  0.1841  0.3212
 1642SOL    HW116385   2.316   4.167   5.741 -1.1115  0.2749  1.3098
 1642SOL    HW216386   2.305   4.286   5.647  0.5613 -0.1728  0.1816
 1643SOL     OW16387   4.636   4.339   2.995 -0.0472 -0.8228  0.0022
 1643SOL    HW116388   4.645   4.292   2.912 -0.0151  0.5021 -0.7419
 1643SOL    HW216389   4.563   4.398   2.976  0.6247 -0.3277 -1.0339
 1644SOL     OW16390   3.867   3.882  15.912 -0.4866  0.0743 -0.5365
 1644SOL    HW116391   3.859   3.891  16.007 -2.0884  0.8920 -0.7462
 1644SOL    HW216392   3.948   3.930  15.893  0.2500 -0.6687  0.7489
 1645SOL     OW16393   3.217   2.515   7.056  0.5799 -0.3500 -0.0614
 1645SOL    HW116394   3.227   2.580   6.986 -0.5902  0.0349  0.1280
 1645SOL    HW216395   3.305   2.479   7.065  0.7602  0.3411  0.9516
 1646SOL     OW16396   4.427   4.591   8.016  0.2931  0.3130  0.7402
 1646SOL    HW116397   4.379   4.531   7.960  1.6403  0.2458 -0.3370
 1646SOL    HW216398   4.447   4.535   8.091  1.3037 -2.2292 -1.4388
 1647SOL     OW16399   1.103   3.248   6.057 -0.2822  0.3193 -0.3883
 1647SOL    HW116400   1.066   3.324   6.102  2.9576  0.9994  1.0715
 1647SOL    HW216401   1.027   3.189   6.067  0.3377 -0.4866 -0.4507
 1648SOL     OW16402   0.017   2.396   2.933 -0.2077 -0.5934  0.5661
 1648SOL    HW116403   0.027   2.487   2.960 -2.5999  0.6215 -2.7012
 1648SOL    HW216404   0.102   2.381   2.891 -0.4622 -0.0861 -0.1250
 1649SOL     OW16405   0.734   1.434  13.412  0.1767  0.3504  0.1015
 1649SOL    HW116406   0.710   1.473  13.496  1.2183  0.3283  0.4044
 1649SOL    HW216407   0.798   1.499  13.386 -0.7005  1.3310  0.3973
 1650SOL     OW16408   0.637   0.751   4.876 -0.0966  0.3605 -0.4785
 1650SOL    HW116409   0.727   0.776   4.897 -0.1844  0.0946  0.2067
 1650SOL    HW216410   0.621   0.684   4.943  0.4626 -2.7116 -3.4045
 1651SOL     OW16411   4.253   2.815   9.294  0.1176 -0.2572  0.3904
 1651SOL    HW116412   4.206   2.777   9.220  0.3565 -0.9091  0.5743
 1651SOL    HW216413   4.313   2.868   9.241  1.9679 -4.0768 -1.3359
 1652SOL     OW16414   3.639   3.908   4.718 -0.6704 -0.7161 -0.4707
 1652SOL    HW116415   3.622   3.936   4.628 -0.8907  1.6743  0.2941
 1652SOL    HW216416   3.641   3.984   4.778 -2.4169 -0.5272 -0.6362
 1653SOL     OW16417   0.660   2.884   3.338  0.0338  0.4748  0.5791
 1653SOL    HW116418   0.746   2.857   3.372  1.3227  1.6556 -1.7616
 1653SOL    HW216419   0.669   2.974   3.307 -3.3670 -0.4410 -3.1313
 1654SOL     OW16420   4.720   4.669   4.332  0.7486  0.3262  0.4782
 1654SOL    HW116421   0.045   4.693   4.255  0.7083  0.3620  0.4625
 1654SOL    HW216422   4.656   0.013   4.329  0.1565 -0.0999  2.8156
 1655SOL     OW16423   0.212   1.119   2.507 -0.1638 -0.3335 -0.0376
 1655SOL    HW116424   0.278   1.153   2.447 -0.1473 -0.5425 -0.1369
 1655SOL    HW216425   0.129   1.153   2.472  0.1117  2.1785  1.6819
 1656SOL     OW16426   0.833   2.559   4.836  0.3934 -0.3602  0.0920
 1656SOL    HW116427   0.751   2.584   4.793  1.1099  4.0310  1.2350
 1656SOL    HW216428   0.880   2.642   4.833 -3.4991  1.8397  0.0567
 1657SOL     OW16429   4.687   4.518   8.190 -0.3521  0.4078  0.0451
 1657SOL    HW116430   4.711   4.550   8.277 -2.2051 -2.4308  1.6049
 1657SOL    HW216431   4.596   4.496   8.211 -0.1084 -0.5677  0.0734
 1658SOL     OW16432   2.718   0.115  12.987 -0.7136  0.4742  0.2981
 1658SOL    HW116433   2.702   0.122  12.893  2.3586 -1.9732 -0.3881
 1658SOL    HW216434   2.809   0.143  12.991  0.0579 -2.0756  0.2505
 1659SOL     OW16435   1.593   3.117  16.574  0.1309 -0.1980  0.3554
 1659SOL    HW116436   1.520   3.176  16.593  0.5510  0.8924 -1.4688
 1659SOL    HW216437   1.554   3.037  16.539  0.6075 -0.7281  1.0256
 1660SOL     OW16438   0.547   1.781   6.477  0.1964 -0.5955 -0.4959
 1660SOL    HW116439   0.629   1.810   6.516  0.8435  0.7173 -2.8557
 1660SOL    HW216440   0.523   1.866   6.440  0.3666 -0.9373 -1.3926
 1661SOL     OW16441   1.797   3.889  14.346 -0.1892 -0.2736  0.5435
 1661SOL    HW116442   1.782   3.922  14.257  1.7093 -0.1574  0.2614
 1661SOL    HW216443   1.726   3.936  14.390 -1.0269 -0.8591 -0.1677
 1662SOL     OW16444   3.512   1.285   4.226 -0.9179 -0.4853 -0.6086
 1662SOL    HW116445   3.559   1.224   4.283 -1.7214  1.2605  1.9309
 1662SOL    HW216446   3.587   1.293   4.168  1.0206 -3.4893  1.5394
 1663SOL     OW16447   4.363   4.173  15.333  0.0771  0.3098 -0.1061
 1663SOL    HW116448   4.445   4.218  15.311  1.1027  0.0167  3.0948
 1663SOL    HW216449   4.308   4.251  15.333 -0.2433  0.0845 -1.4658
 1664SOL     OW16450   3.722   3.096   3.163 -0.4452  0.2243  0.4761
 1664SOL    HW116451   3.791   3.160   3.180 -0.5316  0.8347 -1.5109
 1664SOL    HW216452   3.775   3.030   3.118  0.3563  1.1048  0.1163
 1665SOL     OW16453   1.695   2.697  15.440 -0.0523  0.1578 -0.1135
 1665SOL    HW116454   1.763   2.634  15.414  1.3759  1.8491 -0.4327
 1665SOL    HW216455   1.693   2.746  15.358  1.7538  1.4478  0.6087
 1666SOL     OW16456   2.200   3.497   7.689  0.4075  0.2013 -0.0777
 1666SOL    HW116457   2.256   3.565   7.725 -0.7573  1.6709 -1.0413
 1666SOL    HW216458   2.118   3.519   7.733  0.6907  2.4939 -0.6958
 1667SOL     OW16459   3.849   4.567   3.639  0.2809 -0.3153  0.3509
 1667SOL    HW116460   3.810   4.486   3.673 -4.1318  1.9306  0.6252
 1667SOL    HW216461   3.774   4.620   3.614  1.1540 -0.6608 -3.0509
 1668SOL     OW16462   0.314   3.839  17.241 -0.4750 -0.7622 -0.2994
 1668SOL    HW116463   0.251   3.898  17.201  2.7613  1.6703 -1.7434
 1668SOL    HW216464   0.396   3.884  17.222 -1.2737  1.0282  0.5070
 1669SOL     OW16465   3.862   1.860  13.127 -0.2150  0.6325 -0.0482
 1669SOL    HW116466   3.866   1.774  13.087 -0.7642  0.3795  0.4454
 1669SOL    HW216467   3.822   1.849  13.214  0.9956  1.0727  0.5659
 1670SOL     OW16468   1.747   2.385  10.229  0.2114  0.3512 -0.6850
 1670SOL    HW116469   1.697   2.304  10.225  1.2188 -0.4149  2.8734
 1670SOL    HW216470   1.693   2.436  10.290  0.9397 -1.0676  1.1203
 1671SOL     OW16471   3.303   1.375   1.437  0.2701 -0.8501  0.3197
 1671SOL    HW116472   3.226   1.319   1.430  0.1666 -0.4194 -1.8061
 1671SOL    HW216473   3.368   1.331   1.382 -0.2703 -0.3964 -0.6857
 1672SOL     OW16474   2.698   4.432   7.667 -0.3052 -0.1719  0.4618
 1672SOL    HW116475   2.761   4.380   7.716  0.8058  1.5116  0.8136
 1672SOL    HW216476   2.653   4.482   7.735  0.2326 -0.6010  1.1304
 1673SOL     OW16477   0.450   3.387   1.864  0.3000 -0.4480  0.3347
 1673SOL    HW116478   0.502   3.343   1.797  0.1486  1.1706 -0.8304
 1673SOL    HW216479   0.485   3.476   1.860 -0.4549 -0.0937  1.5308
 1674SOL     OW16480   3.758   0.301   4.081  0.0976  0.2109  0.2163
 1674SOL    HW116481   3.801   0.266   4.158 -1.0419  0.0999  0.8072
 1674SOL    HW216482   3.682   0.243   4.080  1.1585 -1.2023  2.7270
 1675SOL     OW16483   1.007   1.862   4.850 -0.3022  0.3179  0.4659
 1675SOL    HW116484   0.943   1.933   4.854  0.6319  0.9532  3.8257
 1675SOL    HW216485   1.048   1.868   4.936  1.3549 -0.2710 -0.2823
 1676SOL     OW16486   3.474   2.287   8.568  0.2236 -0.1019 -0.2745
 1676SOL    HW116487   3.450   2.199   8.596 -1.8219  0.8507  0.9112
 1676SOL    HW216488   3.507   2.259   8.482 -2.1430 -2.9365 -0.2569
 1677SOL     OW16489   1.315   2.160   4.354  0.3227  0.8501  0.6215
 1677SOL    HW116490   1.255   2.193   4.422 -0.9164 -2.4953  1.1565
 1677SOL    HW216491   1.397   2.209   4.356  0.6622  0.3404 -0.9380
 1678SOL     OW16492   0.669   4.259   2.071 -0.0446  0.3599 -0.5588
 1678SOL    HW116493   0.608   4.188   2.048  1.6867 -0.9997 -0.8970
 1678SOL    HW216494   0.714   4.281   1.989  1.5750 -2.7519 -0.4890
 1679SOL     OW16495   3.090   2.965   7.734 -0.1612  0.5429  0.0387
 1679SOL    HW116496   3.005   3.008   7.732 -1.2234 -1.6178 -1.4060
 1679SOL    HW216497   3.064   2.875   7.715  0.3534  0.2976  0.4666
 1680SOL     OW16498   4.333   1.677   8.693 -0.2621 -0.0297  0.4926
 1680SOL    HW116499   4.341   1.708   8.603 -1.3044  0.5363  0.6012
 1680SOL    HW216500   4.419   1.640   8.715  0.2862  0.8858 -0.1211
 1681SOL     OW16501   4.283   2.431  13.912  0.2779  0.3300 -0.8674
 1681SOL    HW116502   4.277   2.525  13.893 -0.9294  0.5485  0.5864
 1681SOL    HW216503   4.373   2.429  13.943 -0.2170 -0.0675  0.5401
 1682SOL     OW16504   2.676   0.771   4.729  0.2187 -0.0585  0.1165
 1682SOL    HW116505   2.710   0.750   4.816 -1.4072 -0.9784  0.5376
 1682SOL    HW216506   2.710   0.859   4.712 -1.3010 -0.0296 -2.7992
 1683SOL     OW16507   1.992   0.257  14.434 -0.1661  0.4333  0.6824
 1683SOL    HW116508   1.949   0.174  14.418 -0.5918  1.1022 -1.5702
 1683SOL    HW216509   2.061   0.256  14.368  1.2392 -3.9037  2.2326
 1684SOL     OW16510   3.752   4.132  17.646 -0.3617 -0.1337 -0.1229
 1684SOL    HW116511   3.795   4.049  17.625  0.3609 -0.5057  2.6981
 1684SOL    HW216512   3.810   4.153   0.012  0.1184 -0.1086 -0.5063
 1685SOL     OW16513   1.150   2.925   8.670  0.3312 -0.0735  0.2800
 1685SOL    HW116514   1.131   2.845   8.717  0.1368 -0.5557 -0.6170
 1685SOL    HW216515   1.206   2.889   8.601 -0.2669 -0.7886  0.1707
 1686SOL     OW16516   1.190   0.626   0.867 -0.5094 -0.7030  0.7275
 1686SOL    HW116517   1.251   0.608   0.795 -1.4827 -1.5876  0.1270
 1686SOL    HW216518   1.131   0.551   0.859  0.1470 -1.0658 -0.7298
 1687SOL     OW16519   3.200   2.161   7.770 -0.3195  0.3114 -0.3442
 1687SOL    HW116520   3.149   2.101   7.826  0.5420 -1.0998 -1.0616
 1687SOL    HW216521   3.247   2.097   7.717 -2.0912 -0.7176 -0.6643
 1688SOL     OW16522   0.785   2.340  16.918  0.3738  0.2742 -0.3345
 1688SOL    HW116523   0.839   2.419  16.922 -2.0071  1.8335  0.8201
 1688SOL    HW216524   0.712   2.378  16.967  0.6778 -0.7592  0.9100
 1689SOL     OW16525   2.820   2.125   4.921 -0.3530  0.3629  0.1084
 1689SOL    HW116526   2.870   2.083   4.991 -1.2168 -0.3559  0.2875
 1689SOL    HW216527   2.890   2.174   4.878  0.3206 -1.4116 -0.7962
 1690SOL     OW16528   2.636   4.601   3.475 -0.2545 -0.1055  0.2769
 1690SOL    HW116529   2.644   4.680   3.529 -1.1010 -0.5811  1.0997
 1690SOL    HW216530   2.554   4.565   3.508 -0.4034 -0.4109 -0.4200
 1691SOL     OW16531   1.122   3.720   7.567 -0.5067  0.1499 -0.0937
 1691SOL    HW116532   1.196   3.713   7.506  0.4021 -0.4998  1.0898
 1691SOL    HW216533   1.052   3.677   7.518  1.2403 -1.3424 -1.2492
 1692SOL     OW16534   1.647   2.863   5.150 -0.2277  0.2295 -0.2524
 1692SOL    HW116535   1.733   2.899   5.171  0.4481 -1.1122 -0.7300
 1692SOL    HW216536   1.631   2.784   5.201 -2.1942  1.3017  0.7832
 1693SOL     OW16537   1.390   2.590   2.529  0.8375 -0.2426 -0.5186
 1693SOL    HW116538   1.317   2.626   2.478  0.3537 -0.2552  0.1719
 1693SOL    HW216539   1.457   2.632   2.474  0.9757 -0.0639 -0.2127
 1694SOL     OW16540   1.316   1.952   7.679 -0.1726 -0.3759  0.3354
 1694SOL    HW116541   1.345   1.932   7.590 -0.6273  2.6429 -0.4645
 1694SOL    HW216542   1.221   1.941   7.668  0.0586 -1.0939 -0.9509
 1695SOL     OW16543   1.138   2.442   4.100  0.9371 -0.7956 -0.1647
 1695SOL    HW116544   1.205   2.375   4.087 -0.2515 -2.4089  2.0331
 1695SOL    HW216545   1.071   2.377   4.122  0.2539  0.5662  1.6825
 1696SOL     OW16546   3.432   3.183  12.176 -0.3336  0.2360 -0.2044
 1696SOL    HW116547   3.429   3.089  12.196  1.6681  0.1365 -0.3992
 1696SOL    HW216548   3.367   3.207  12.243 -0.4294  1.9085 -0.9087
 1697SOL     OW16549   1.226   3.914  13.122 -0.1829 -0.0123  0.4215
 1697SOL    HW116550   1.260   3.994  13.162 -0.2769  0.3579 -0.2349
 1697SOL    HW216551   1.304   3.875  13.080 -0.7439 -0.7190  0.0354
 1698SOL     OW16552   4.637   4.075   5.988  0.4041 -0.3020 -0.2921
 1698SOL    HW116553   4.549   4.040   5.976 -0.1995  1.3711 -0.6750
 1698SOL    HW216554   4.667   4.085   5.898 -0.7693  1.1400 -0.5065
 1699SOL     OW16555   2.607   1.625   8.715 -0.3286 -1.0360  0.1030
 1699SOL    HW116556   2.612   1.571   8.636  1.5438  0.9717 -1.1790
 1699SOL    HW216557   2.698   1.657   8.712 -1.1959  1.4867  0.3404
 1700SOL     OW16558   1.421   3.492   1.550 -0.3966 -0.1996 -0.1235
 1700SOL    HW116559   1.338   3.540   1.555 -0.7557 -0.6384 -1.9259
 1700SOL    HW216560   1.486   3.563   1.551 -0.4065 -0.1788 -1.8545
 1701SOL     OW16561   1.739   4.391  11.500 -0.0205 -0.0129 -0.0206
 1701SOL    HW116562   1.770   4.410  11.411 -2.5407  1.8860 -0.5053
 1701SOL    HW216563   1.817   4.365  11.550  0.4161 -0.9094 -1.1865
 1702SOL     OW16564   4.286   4.548  15.640  0.3744  0.0548 -0.2782
 1702SOL    HW116565   4.373   4.534  15.603  0.4585 -0.3033  0.0526
 1702SOL    HW216566   4.293   4.642  15.623  1.5375  0.1665  0.8673
 1703SOL     OW16567   3.397   1.386  10.785 -0.0896 -0.0275 -0.3195
 1703SOL    HW116568   3.327   1.447  10.806  0.3733 -0.9824  3.9975
 1703SOL    HW216569   3.444   1.445  10.726 -0.2037  0.0754 -0.3056
 1704SOL     OW16570   0.196   1.192   5.553  0.0716  0.2255 -0.5565
 1704SOL    HW116571   0.257   1.172   5.624 -0.6240 -0.6348 -0.2001
 1704SOL    HW216572   0.168   1.102   5.537 -1.2719  0.7909 -1.3957
 1705SOL     OW16573   1.365   1.719  11.785  0.5884  0.2989  0.0523
 1705SOL    HW116574   1.436   1.702  11.722  2.0894  0.6075  1.6785
 1705SOL    HW216575   1.367   1.813  11.803 -0.2875  0.5377 -1.0578
 1706SOL     OW16576   1.457   3.485   5.747  1.1030  0.3864  0.0910
 1706SOL    HW116577   1.487   3.552   5.685  0.3205  0.1160 -0.5774
 1706SOL    HW216578   1.416   3.546   5.808 -0.5417 -1.5027  0.8451
 1707SOL     OW16579   3.589   1.555  16.983  0.0806  0.0597 -0.4576
 1707SOL    HW116580   3.611   1.533  17.074  0.1184  0.2308 -0.4264
 1707SOL    HW216581   3.622   1.474  16.943 -0.4134  0.5984 -1.9379
 1708SOL     OW16582   3.978   2.766   6.772  0.2498 -0.2984  0.4401
 1708SOL    HW116583   4.061   2.812   6.760  0.3050 -1.0267 -1.8260
 1708SOL    HW216584   4.004   2.674   6.770 -0.7411 -0.5272 -1.5109
 1709SOL     OW16585   4.674   3.882   6.532 -0.3258 -0.0143  0.1120
 1709SOL    HW116586   4.612   3.883   6.605 -0.9876  0.1371 -0.4435
 1709SOL    HW216587   0.026   3.923   6.567  0.8025 -0.3159 -2.0534
 1710SOL     OW16588   4.726   4.258   9.760  0.2796  0.2613 -0.1855
 1710SOL    HW116589   0.038   4.209   9.833 -0.7781 -0.3672 -0.0421
 1710SOL    HW216590   4.635   4.269   9.789  0.8676  0.9078  1.4550
 1711SOL     OW16591   3.370   4.613   2.213 -0.0818  0.1542 -0.1973
 1711SOL    HW116592   3.422   4.656   2.280 -1.4486  0.6831  0.5387
 1711SOL    HW216593   3.302   4.572   2.268 -0.3505  1.5710  0.5322
 1712SOL     OW16594   3.219   3.311   4.533  0.3834 -0.0082  0.3770
 1712SOL    HW116595   3.225   3.275   4.445 -1.3169  2.9463 -0.9448
 1712SOL    HW216596   3.287   3.378   4.531 -1.6175  2.0226  0.3063
 1713SOL     OW16597   1.605   2.557  10.445 -0.0518  0.2772 -0.3293
 1713SOL    HW116598   1.635   2.527  10.531 -2.4422  0.1265  0.4729
 1713SOL    HW216599   1.513   2.547  10.471 -0.3843 -1.6365 -2.2316
 1714SOL     OW16600   4.319   1.973   3.682  0.2581  0.0530  0.0712
 1714SOL    HW116601   4.402   1.951   3.723  0.6672  0.9953 -0.2573
 1714SOL    HW216602   4.267   2.001   3.758 -1.1999  0.0140 -0.8971
 1715SOL     OW16603   2.148   1.483   1.820 -0.1875 -0.1138  0.5229
 1715SOL    HW116604   2.117   1.534   1.745  0.0082 -1.7906 -0.6894
 1715SOL    HW216605   2.063   1.467   1.861 -1.3059 -0.8209 -2.1131
 1716SOL     OW16606   1.805   2.551   2.023 -0.2323 -0.0147  0.3340
 1716SOL    HW116607   1.849   2.492   2.085 -0.4041  0.0196  0.4896
 1716SOL    HW216608   1.820   2.632   2.072 -1.7967  0.6117 -0.2275
 1717SOL     OW16609   2.677   1.206   2.866 -0.6199  0.4552  0.5714
 1717SOL    HW116610   2.695   1.114   2.843 -1.1789 -0.0127  1.9788
 1717SOL    HW216611   2.735   1.202   2.942 -0.2791 -1.9429  0.2005
 1718SOL     OW16612   2.328   0.766   5.511 -0.0530  0.2335  0.2867
 1718SOL    HW116613   2.388   0.692   5.518 -0.7371 -0.4916 -1.4135
 1718SOL    HW216614   2.366   0.808   5.434  1.4612  0.5085  1.1743
 1719SOL     OW16615   0.752   0.368  13.764  0.5274  0.3768 -0.2655
 1719SOL    HW116616   0.788   0.454  13.742 -2.0867  2.0255  1.7822
 1719SOL    HW216617   0.664   0.379  13.727  0.0335  1.5994  1.2332
 1720SOL     OW16618   3.799   2.909   0.683 -0.0861 -0.0677  0.4728
 1720SOL    HW116619   3.857   2.986   0.678 -2.0553  1.2672 -1.9535
 1720SOL    HW216620   3.818   2.873   0.596 -1.4858 -0.0709  0.1651
 1721SOL     OW16621   1.043   1.428   3.616  0.3418 -0.1168 -0.9257
 1721SOL    HW116622   1.002   1.480   3.548  0.3038  2.5810  1.1634
 1721SOL    HW216623   1.079   1.354   3.567 -1.1298 -1.5441  0.1646
 1722SOL     OW16624   2.498   2.937   2.154 -0.1085  0.6522  0.5504
 1722SOL    HW116625   2.565   2.981   2.103 -0.0211  0.0652  0.1589
 1722SOL    HW216626   2.541   2.943   2.239 -1.6476 -2.6454  1.5710
 1723SOL     OW16627   0.328   3.464  10.776 -0.1758 -0.1262 -0.0088
 1723SOL    HW116628   0.417   3.460  10.812 -1.1189 -0.2516  2.3171
 1723SOL    HW216629   0.273   3.437  10.850  0.3261 -0.2080  0.3351
 1724SOL     OW16630   0.211   3.242   9.452 -0.1825 -0.3581 -0.7098
 1724SOL    HW116631   0.121   3.254   9.481 -0.3596 -2.3210 -0.4147
 1724SOL    HW216632   0.240   3.333   9.455 -0.0393 -0.3613 -2.0508
 1725SOL     OW16633   4.153   0.441  13.150  0.0587 -0.4549 -0.0700
 1725SOL    HW116634   4.105   0.425  13.069 -0.9637 -0.9514  0.6339
 1725SOL    HW216635   4.086   0.450  13.218  0.6171  0.8821  0.3076
 1726SOL     OW16636   2.968   3.168   7.476  0.0347 -0.8173  0.0264
 1726SOL    HW116637   3.007   3.084   7.451 -1.0950 -0.7909 -1.7702
 1726SOL    HW216638   2.920   3.131   7.550  2.5393 -1.2944  1.4393
 1727SOL     OW16639   1.797   3.543  11.683  0.5730  0.6022 -0.6495
 1727SOL    HW116640   1.884   3.539  11.723  0.2311  0.9983  0.1314
 1727SOL    HW216641   1.742   3.559  11.759  1.1542  0.5558 -0.2152
 1728SOL     OW16642   1.207   0.165   3.450  0.1181  0.2552  0.3521
 1728SOL    HW116643   1.285   0.156   3.504 -0.0920 -1.9473  0.2546
 1728SOL    HW216644   1.182   0.080   3.415  1.2213 -0.3726  1.0974
 1729SOL     OW16645   4.663   1.327   3.226 -0.1695  0.0892 -0.4277
 1729SOL    HW116646   4.638   1.344   3.135  0.1408 -1.0651 -0.7229
 1729SOL    HW216647   0.028   1.301   3.227 -0.9409 -2.6160 -0.9913
 1730SOL     OW16648   0.449   2.972   4.923  0.1570 -0.1810  0.0718
 1730SOL    HW116649   0.511   2.921   4.975 -0.2773  0.6984  1.4487
 1730SOL    HW216650   0.372   2.915   4.929  0.8926 -1.0946  0.6813
 1731SOL     OW16651   1.911   4.465   7.637 -0.0989  0.0297 -0.2633
 1731SOL    HW116652   1.892   4.431   7.725  2.6663 -0.5246  0.1145
 1731SOL    HW216653   2.006   4.477   7.644 -0.3588  1.6097  0.6335
 1732SOL     OW16654   2.004   2.626   1.478  0.1705  0.2508 -0.2525
 1732SOL    HW116655   1.938   2.577   1.429  0.1995 -1.1059  1.0669
 1732SOL    HW216656   1.974   2.634   1.569 -1.6484  0.5385 -0.8627
 1733SOL     OW16657   1.658   3.156   3.970  0.0813 -0.0115 -0.0978
 1733SOL    HW116658   1.628   3.066   3.982 -1.9972  0.8725  1.3134
 1733SOL    HW216659   1.576   3.197   3.997  0.2662  0.1313  0.2469
 1734SOL     OW16660   1.391   3.289   1.054 -0.4490 -0.3302  0.8403
 1734SOL    HW116661   1.473   3.337   1.045  0.0490 -1.4868 -0.6989
 1734SOL    HW216662   1.391   3.271   1.148 -0.9006 -0.7970  0.7575
 1735SOL     OW16663   2.929   4.502   7.323  0.0360  0.1854  0.2112
 1735SOL    HW116664   2.909   4.438   7.254  0.5914  0.2565 -0.0153
 1735SOL    HW216665   2.856   4.563   7.312  2.3048  2.7869 -0.3927
 1736SOL     OW16666   2.988   4.545   1.706  0.4548 -0.3007  0.2790
 1736SOL    HW116667   2.955   4.597   1.633  0.8757  1.2000  1.1366
 1736SOL    HW216668   2.934   4.467   1.698  0.9970 -0.8045  1.5339
 1737SOL     OW16669   1.228   1.943   9.584 -0.4595 -0.0687  0.3331
 1737SOL    HW116670   1.190   2.024   9.618  0.0668 -0.3158  1.4898
 1737SOL    HW216671   1.214   1.949   9.489  1.5873 -2.6419 -0.1384
 1738SOL     OW16672   0.102   0.108   9.441  0.0096  0.3413 -0.4396
 1738SOL    HW116673   0.060   0.032   9.481  1.5063  0.4494  1.3544
 1738SOL    HW216674   0.184   0.074   9.406  0.6911  2.1985 -0.6683
 1739SOL     OW16675   2.127   1.823   4.606  0.1223  0.3097 -0.4966
 1739SOL    HW116676   2.162   1.865   4.528 -0.5059 -0.1403 -1.0239
 1739SOL    HW216677   2.101   1.899   4.658 -0.6002  1.3336 -2.3750
 1740SOL     OW16678   1.508   1.148  15.118 -0.1375  0.1603 -0.6772
 1740SOL    HW116679   1.462   1.066  15.102  0.8833 -0.6363  0.4557
 1740SOL    HW216680   1.510   1.181  15.028 -3.1425  0.1370 -0.7468
 1741SOL     OW16681   4.544   3.063   0.491 -0.3598  0.0225  0.7204
 1741SOL    HW116682   4.529   3.101   0.404 -0.6772  1.8574  1.5859
 1741SOL    HW216683   4.636   3.091   0.499 -0.2306 -1.2218  3.5516
 1742SOL     OW16684   0.230   4.058  10.448 -0.0455 -0.7520  0.2865
 1742SOL    HW116685   0.141   4.094  10.454 -0.3157 -1.5295  1.0008
 1742SOL    HW216686   0.254   4.043  10.540  0.9382 -0.3062  0.0986
 1743SOL     OW16687   0.253   0.165  14.722  0.3489 -0.1807 -0.4950
 1743SOL    HW116688   0.306   0.226  14.671 -1.5242 -0.2772 -2.5485
 1743SOL    HW216689   0.325   0.105  14.740  1.4882  1.5788  0.8263
 1744SOL     OW16690   4.430   2.164   0.403 -0.2733 -0.1045  0.7806
 1744SOL    HW116691   4.366   2.109   0.357 -1.0016 -0.1650  1.8792
 1744SOL    HW216692   4.480   2.103   0.457  1.4595  2.5517  2.1910
 1745SOL     OW16693   2.779   1.599   5.249  0.2305 -0.3690 -0.1767
 1745SOL    HW116694   2.826   1.552   5.180 -0.9469 -2.0313  0.1857
 1745SOL    HW216695   2.809   1.555   5.329 -1.7354 -1.2921  0.0419
 1746SOL     OW16696   2.587   0.761  13.259  0.1982 -0.3464  0.4400
 1746SOL    HW116697   2.541   0.845  13.259  0.7924 -0.0108 -0.2599
 1746SOL    HW216698   2.642   0.752  13.336 -2.1568 -0.2499  2.1218
 1747SOL     OW16699   0.130   2.916   4.615 -0.7673  0.1126  0.0507
 1747SOL    HW116700   0.187   2.866   4.673  0.1124  0.3372 -0.6323
 1747SOL    HW216701   0.192   2.946   4.548  1.3856 -0.3914  1.8256
 1748SOL     OW16702   2.156   0.642   4.086 -0.4345 -0.4312 -0.5216
 1748SOL    HW116703   2.135   0.565   4.033 -0.5498  0.0631 -1.1991
 1748SOL    HW216704   2.072   0.658   4.129  0.2753  2.7846 -0.2962
 1749SOL     OW16705   1.758   1.464  15.917  0.0461 -0.2325  0.2034
 1749SOL    HW116706   1.778   1.532  15.853 -1.3950  0.3514  0.4008
 1749SOL    HW216707   1.669   1.482  15.946  0.0702 -0.3210  0.3321
 1750SOL     OW16708   1.057   2.811  10.435  0.3487  0.1462  0.4305
 1750SOL    HW116709   1.022   2.895  10.404 -1.6980  0.1997  2.9513
 1750SOL    HW216710   1.110   2.795  10.357 -1.3567 -1.8440 -0.3043
 1751SOL     OW16711   4.577   1.578   1.469 -0.1152 -0.5870  0.0280
 1751SOL    HW116712   4.607   1.658   1.425  1.0029 -0.5645  0.8372
 1751SOL    HW216713   4.482   1.587   1.467 -0.1172 -0.4622  0.7888
 1752SOL     OW16714   4.305   2.813  13.619  0.0484  0.2177 -1.4030
 1752SOL    HW116715   4.396   2.822  13.648 -0.3484 -0.3744  0.0441
 1752SOL    HW216716   4.321   2.790  13.528  1.7801 -3.6320 -0.1632
 1753SOL     OW16717   4.097   3.332   8.044  0.2528 -0.5911  0.6465
 1753SOL    HW116718   4.027   3.270   8.025  1.3298 -1.0300 -1.7274
 1753SOL    HW216719   4.069   3.382   8.122  3.5485 -1.4939  2.3933
 1754SOL     OW16720   3.697   3.870   9.787 -0.0520  0.3606  0.0751
 1754SOL    HW116721   3.727   3.815   9.860  2.0893  1.0497 -0.2742
 1754SOL    HW216722   3.615   3.902   9.824  0.8220  1.3993  1.0997
 1755SOL     OW16723   3.844   0.354  16.806  0.4853  0.2526 -0.1279
 1755SOL    HW116724   3.858   0.298  16.729 -0.2013  0.3409 -0.3177
 1755SOL    HW216725   3.758   0.379  16.771  1.1473  0.2552 -1.7500
 1756SOL     OW16726   0.312   2.567   1.162 -0.7318  0.1522  0.1199
 1756SOL    HW116727   0.245   2.559   1.095 -0.2087 -2.9226 -0.0503
 1756SOL    HW216728   0.331   2.480   1.197  1.0999 -0.0815 -1.4060
 1757SOL     OW16729   1.277   2.564   2.775  0.1448  0.6038  0.3783
 1757SOL    HW116730   1.307   2.569   2.685  0.9635 -0.8082  0.5731
 1757SOL    HW216731   1.329   2.638   2.806 -1.1300  1.2142  1.0825
 1758SOL     OW16732   1.536   1.713   2.788  0.5898 -0.2857  0.0354
 1758SOL    HW116733   1.610   1.764   2.753  0.3828 -0.6083 -0.8656
 1758SOL    HW216734   1.479   1.721   2.711  1.3198  2.9873 -0.1534
 1759SOL     OW16735   2.452   0.348   8.078  0.2103  0.1093  0.1094
 1759SOL    HW116736   2.421   0.260   8.102  1.6119 -0.5369 -0.4558
 1759SOL    HW216737   2.493   0.373   8.160  2.2302  0.1622 -0.9130
 1760SOL     OW16738   2.217   2.952   0.525 -0.7592  0.4839  0.1541
 1760SOL    HW116739   2.258   3.028   0.484  1.2226 -0.4355  0.3862
 1760SOL    HW216740   2.255   2.961   0.612  1.8022 -1.9687 -0.6911
 1761SOL     OW16741   3.221   2.284   1.557  0.1775 -0.0419 -0.5858
 1761SOL    HW116742   3.155   2.295   1.489 -0.7016  1.9746  0.5963
 1761SOL    HW216743   3.277   2.219   1.514 -1.6120 -1.6069 -0.5549
 1762SOL     OW16744   0.699   0.731   4.617 -0.5127 -0.0013  0.5590
 1762SOL    HW116745   0.771   0.793   4.625 -0.3707 -0.0242 -0.6723
 1762SOL    HW216746   0.664   0.727   4.707 -2.1310  0.6683 -0.0400
 1763SOL     OW16747   0.338   0.690   6.355 -0.1876 -0.4313  0.6628
 1763SOL    HW116748   0.430   0.714   6.371 -0.1784  0.3260 -0.5403
 1763SOL    HW216749   0.291   0.700   6.438  0.2733  2.0703  0.6198
 1764SOL     OW16750   0.379   2.525  10.101 -0.6965 -0.0082  0.2547
 1764SOL    HW116751   0.350   2.439  10.070  1.6330 -1.8272  3.1797
 1764SOL    HW216752   0.463   2.489  10.130  0.1085 -0.3223 -2.4223
 1765SOL     OW16753   3.166   4.567   6.875 -0.0825  0.3043  0.3168
 1765SOL    HW116754   3.183   4.630   6.945  1.3523 -2.0844  2.0924
 1765SOL    HW216755   3.160   4.486   6.926 -1.6182  0.4385  0.3692
 1766SOL     OW16756   1.882   4.344   4.579  0.0065  0.8154 -0.8179
 1766SOL    HW116757   1.792   4.373   4.562 -0.4849 -0.3883 -0.2962
 1766SOL    HW216758   1.887   4.262   4.531 -0.7525 -0.4863  1.3172
 1767SOL     OW16759   2.924   1.620   1.906 -0.7275  0.2222  0.3608
 1767SOL    HW116760   2.901   1.527   1.915 -0.3604  0.1380  0.4467
 1767SOL    HW216761   3.003   1.609   1.853  0.0106  0.9212  1.3263
 1768SOL     OW16762   1.950   2.295   1.729 -0.4788 -0.0884  0.3271
 1768SOL    HW116763   1.900   2.284   1.810 -1.7584 -1.9224 -0.7079
 1768SOL    HW216764   1.995   2.211   1.719 -3.4709 -1.6579  0.1178
 1769SOL     OW16765   3.128   0.405   6.102 -0.0174 -0.0550 -0.1464
 1769SOL    HW116766   3.106   0.441   6.188  0.4221 -2.3906  0.9583
 1769SOL    HW216767   3.217   0.370   6.112  0.6990  1.9248  0.4754
 1770SOL     OW16768   1.005   2.422  10.425  0.5232  0.2873  0.3706
 1770SOL    HW116769   0.930   2.451  10.374  0.3730 -0.7343  0.0238
 1770SOL    HW216770   0.948   2.371  10.483  1.1701 -2.9419 -1.8759
 1771SOL     OW16771   3.203   3.473   5.773  0.1430 -0.2826 -0.0967
 1771SOL    HW116772   3.145   3.452   5.700  0.5631  2.2336 -1.1546
 1771SOL    HW216773   3.284   3.426   5.754 -0.9900 -2.2924  0.0266
 1772SOL     OW16774   3.451   3.495   3.849 -0.1117 -0.0584  0.3724
 1772SOL    HW116775   3.393   3.419   3.845 -1.2056  0.8110 -0.1711
 1772SOL    HW216776   3.514   3.450   3.793 -0.1505 -0.0671  0.3362
 1773SOL     OW16777   0.048   1.065   1.295 -0.5731  0.3472 -0.5689
 1773SOL    HW116778   0.037   1.085   1.202 -1.6656  3.5561  0.2397
 1773SOL    HW216779   4.688   1.030   1.319 -0.3737  1.6533  2.0887
 1774SOL     OW16780   2.708   2.414   4.136 -0.7189  0.5811 -0.4084
 1774SOL    HW116781   2.613   2.418   4.135 -0.6903  1.1164 -0.9145
 1774SOL    HW216782   2.738   2.399   4.046 -2.5315 -2.1520 -0.5437
 1775SOL     OW16783   1.995   0.145   3.209 -0.2712  0.3128 -0.3038
 1775SOL    HW116784   1.989   0.236   3.236  0.5313  0.1694  0.3378
 1775SOL    HW216785   2.069   0.118   3.263 -1.9731 -0.2159  1.8079
 1776SOL     OW16786   3.202   1.627   1.797  0.4984  0.8929  0.6999
 1776SOL    HW116787   3.136   1.587   1.740 -0.9935  2.0831  1.6049
 1776SOL    HW216788   3.266   1.555   1.796 -1.2642 -0.6183 -2.7114
 1777SOL     OW16789   2.705   0.535  13.755  0.1841 -0.2351  0.5658
 1777SOL    HW116790   2.721   0.559  13.847  0.2323 -1.3585  0.8453
 1777SOL    HW216791   2.670   0.447  13.750 -0.9525  0.2011  0.9652
 1778SOL     OW16792   2.632   3.475  14.169  0.3642  0.1372  0.0435
 1778SOL    HW116793   2.588   3.556  14.143  1.0772 -0.1325 -1.9893
 1778SOL    HW216794   2.704   3.478  14.106  0.3583  0.3457  0.0442
 1779SOL     OW16795   1.611   4.076   5.959  0.3077  0.3189  0.0508
 1779SOL    HW116796   1.602   4.136   6.033  0.9605  0.6833 -0.1618
 1779SOL    HW216797   1.646   3.993   5.992  0.0924  1.0578  2.1103
 1780SOL     OW16798   3.805   1.957   8.142 -0.8417 -0.0507  0.4063
 1780SOL    HW116799   3.852   2.035   8.113 -2.1343  0.7691  0.5056
 1780SOL    HW216800   3.808   1.902   8.064  2.6681  0.2853  0.3006
 1781SOL     OW16801   4.531   1.700  10.463  0.1365 -0.7547 -0.0717
 1781SOL    HW116802   4.569   1.652  10.536  1.8886  1.9255  0.7750
 1781SOL    HW216803   4.567   1.662  10.382 -0.1578 -0.4847 -0.3290
 1782SOL     OW16804   2.476   0.749   2.705 -0.2489 -0.0291  0.3918
 1782SOL    HW116805   2.567   0.720   2.706 -0.6622 -1.3463 -0.1315
 1782SOL    HW216806   2.447   0.700   2.782  2.3331  0.3057  1.5554
 1783SOL     OW16807   3.416   2.727   1.615 -0.2316  0.5708  0.3648
 1783SOL    HW116808   3.470   2.666   1.666  1.5985  0.4023 -1.7446
 1783SOL    HW216809   3.429   2.802   1.673  0.8490 -0.7840  1.9014
 1784SOL     OW16810   0.568   0.165  14.852  0.1675 -0.0652  0.4833
 1784SOL    HW116811   0.521   0.103  14.907 -0.3231  0.9888  1.2656
 1784SOL    HW216812   0.653   0.175  14.894  0.6689 -0.6367 -0.3826
 1785SOL     OW16813   0.522   2.664  13.260 -0.2940  0.1494 -0.2486
 1785SOL    HW116814   0.522   2.758  13.247  0.9405  0.1979  0.1037
 1785SOL    HW216815   0.571   2.664  13.342 -1.0919 -2.8985  0.2400
 1786SOL     OW16816   0.508   0.739  16.544 -0.2889  0.2541  0.5881
 1786SOL    HW116817   0.492   0.831  16.522 -0.2406  0.3608  0.9988
 1786SOL    HW216818   0.552   0.692  16.473  1.9480  1.1184  1.3863
 1787SOL     OW16819   1.192   4.146   5.210  0.0353  0.0976  0.1757
 1787SOL    HW116820   1.100   4.145   5.236 -0.5707 -1.8611 -2.1206
 1787SOL    HW216821   1.227   4.107   5.291 -2.3621 -0.7095  0.8037
 1788SOL     OW16822   1.247   3.318   2.369 -0.1216  0.3156 -0.8672
 1788SOL    HW116823   1.339   3.291   2.370 -0.3254 -0.3619 -0.4509
 1788SOL    HW216824   1.251   3.395   2.426 -2.9776  0.0935 -0.3795
 1789SOL     OW16825   4.325   3.830   6.385 -0.2328 -0.3449 -0.0256
 1789SOL    HW116826   4.230   3.843   6.378  0.0835  1.5089 -0.8255
 1789SOL    HW216827   4.334   3.746   6.431 -0.7736 -1.0339 -1.1464
 1790SOL     OW16828   1.445   3.253   6.224  0.3172  0.4919 -0.1520
 1790SOL    HW116829   1.520   3.288   6.273 -0.4292  0.3737  1.0696
 1790SOL    HW216830   1.475   3.283   6.138  0.4380  0.2649 -0.1896
 1791SOL     OW16831   4.387   4.151   6.692  0.1161 -0.2567 -0.0276
 1791SOL    HW116832   4.427   4.073   6.654  0.5839  0.8862 -1.8356
 1791SOL    HW216833   4.448   4.186   6.757  0.7060  0.9698 -1.2685
 1792SOL     OW16834   1.010   4.499   5.226 -0.0515  0.3175 -0.5940
 1792SOL    HW116835   0.966   4.529   5.306  2.8774 -1.7842  1.8083
 1792SOL    HW216836   1.062   4.439   5.280  1.1279  2.1054  0.2578
 1793SOL     OW16837   0.236   3.945  11.985  0.1705  0.6882  0.8668
 1793SOL    HW116838   0.218   4.021  12.040  1.2789  1.8112 -0.3229
 1793SOL    HW216839   0.291   3.978  11.914 -0.6478  1.5455  0.6296
 1794SOL     OW16840   4.249   1.269   7.652  0.0737  0.3150 -0.4114
 1794SOL    HW116841   4.274   1.330   7.721 -0.6980 -0.8981  0.9382
 1794SOL    HW216842   4.324   1.280   7.593 -0.7351 -0.5888 -1.6060
 1795SOL     OW16843   4.567   0.681   4.292  0.8673  0.4182  0.2903
 1795SOL    HW116844   4.629   0.622   4.248  0.1497  0.0766 -0.2751
 1795SOL    HW216845   4.502   0.682   4.222  3.6102  0.0063 -2.2469
 1796SOL     OW16846   3.717   1.012   1.609 -0.3995 -0.1046 -0.1146
 1796SOL    HW116847   3.779   0.978   1.674  0.5696  0.8007 -0.5604
 1796SOL    HW216848   3.683   0.943   1.552 -2.3050 -0.2675  1.2265
 1797SOL     OW16849   0.047   4.313  12.891  0.2950 -0.3052  0.2355
 1797SOL    HW116850   0.050   4.222  12.860 -1.6649 -0.4803  0.5850
 1797SOL    HW216851   4.685   4.332  12.860 -0.2247  0.1298  1.9663
 1798SOL     OW16852   0.008   2.861   3.678  0.2977 -0.1323 -0.8511
 1798SOL    HW116853   4.650   2.858   3.634 -1.0223 -0.0110  1.6893
 1798SOL    HW216854   0.000   2.930   3.743  2.0019 -0.3291 -0.4337
 1799SOL     OW16855   1.159   2.053  12.816  0.6481  0.3975  0.0839
 1799SOL    HW116856   1.227   2.000  12.859 -0.8994  0.4669  2.5786
 1799SOL    HW216857   1.120   1.988  12.758 -0.7576  2.0615 -0.8347
 1800SOL     OW16858   2.835   4.363   4.690 -0.0581  0.2551 -0.2784
 1800SOL    HW116859   2.859   4.444   4.644 -1.2333  0.2909 -0.8254
 1800SOL    HW216860   2.842   4.307   4.613 -0.9140  1.4607 -1.2336
 1801SOL     OW16861   4.188   1.588   9.458  0.0813  0.2032  0.5924
 1801SOL    HW116862   4.151   1.555   9.376 -1.6546 -0.6052  1.6939
 1801SOL    HW216863   4.150   1.676   9.463  0.7783  0.6190 -1.2764
 1802SOL     OW16864   0.678   2.880  12.639 -0.0526  0.3732  0.2876
 1802SOL    HW116865   0.696   2.890  12.732 -1.1248 -2.3074  0.7573
 1802SOL    HW216866   0.763   2.860  12.600  0.9916  1.3273  2.1241
 1803SOL     OW16867   0.111   3.634   5.501  0.3090  0.0766  0.4119
 1803SOL    HW116868   0.142   3.724   5.492  1.0003 -0.2427 -0.4640
 1803SOL    HW216869   0.099   3.630   5.596 -0.7971 -1.4244  0.2101
 1804SOL     OW16870   4.121   0.490   6.711  0.1966 -0.1088  0.1035
 1804SOL    HW116871   4.088   0.411   6.754  0.4658  1.2546  2.8311
 1804SOL    HW216872   4.121   0.545   6.789  0.6341 -0.9999  0.7371
 1805SOL     OW16873   4.287   2.023   0.003  0.3287  0.2096 -0.0456
 1805SOL    HW116874   4.380   2.041   0.013  0.6065  0.0982 -2.2819
 1805SOL    HW216875   4.294   1.931  17.684  0.4769  0.1472  0.2125
 1806SOL     OW16876   1.960   3.711   7.192 -0.5843  0.7369 -0.2117
 1806SOL    HW116877   1.970   3.679   7.282 -0.8303 -0.1104 -0.4802
 1806SOL    HW216878   1.904   3.787   7.208 -1.0737  0.4761 -0.6657
 1807SOL     OW16879   2.444   4.540   6.389  0.1692 -0.0824 -0.0379
 1807SOL    HW116880   2.373   4.598   6.415 -1.5019 -1.9797 -0.3250
 1807SOL    HW216881   2.502   4.598   6.340  0.4735 -0.0471  0.3608
 1808SOL     OW16882   4.580   3.140   6.653 -0.1104 -0.3647  0.1296
 1808SOL    HW116883   4.672   3.142   6.625 -0.3748  2.7662 -0.5248
 1808SOL    HW216884   4.593   3.144   6.748 -0.9781  0.0735  0.2266
 1809SOL     OW16885   2.171   0.150   6.007  0.2530  0.1929 -0.0139
 1809SOL    HW116886   2.127   0.073   6.042 -0.8710 -0.1909 -2.2961
 1809SOL    HW216887   2.115   0.170   5.932 -1.5123  1.6832  1.7115
 1810SOL     OW16888   2.146   0.022   7.021  0.5934  0.1083  0.5307
 1810SOL    HW116889   2.132   4.725   7.113  0.4471 -0.0097  0.4789
 1810SOL    HW216890   2.226   4.701   7.001  0.4601  0.4148 -0.7139
 1811SOL     OW16891   0.059   1.860  12.231 -0.0447 -0.0155  0.5826
 1811SOL    HW116892   4.704   1.842  12.278  0.1052  0.9792  1.2318
 1811SOL    HW216893   0.112   1.785  12.261 -0.1363 -0.7615 -1.1778
 1812SOL     OW16894   0.433   2.138   5.843 -0.4917 -0.0339 -0.0229
 1812SOL    HW116895   0.403   2.060   5.795  0.9003 -1.4634  1.4105
 1812SOL    HW216896   0.500   2.172   5.784  0.8080 -2.0501  0.2739
 1813SOL     OW16897   1.517   1.191  10.351 -0.1127  0.3358 -0.0840
 1813SOL    HW116898   1.545   1.218  10.438  0.2036  0.1413 -0.1271
 1813SOL    HW216899   1.450   1.127  10.378 -0.5256  1.8574  2.4699
 1814SOL     OW16900   4.497   2.296   6.161  0.1076 -0.5518 -0.3121
 1814SOL    HW116901   4.589   2.289   6.187  0.6499 -0.7015 -2.3097
 1814SOL    HW216902   4.454   2.232   6.218  1.0169 -0.2935  0.6737
 1815SOL     OW16903   0.798   2.426   5.099  0.5756  0.6194  0.1135
 1815SOL    HW116904   0.807   2.479   5.020 -0.0660 -0.8723 -0.9516
 1815SOL    HW216905   0.748   2.352   5.065 -0.1571  1.1840 -0.0386
 1816SOL     OW16906   1.507   0.928   8.182  0.0130  0.2728 -0.3234
 1816SOL    HW116907   1.559   0.852   8.209 -1.5769 -0.4531  0.7247
 1816SOL    HW216908   1.569   0.992   8.216 -0.2064  0.3458 -0.0572
 1817SOL     OW16909   2.635   0.774   5.039 -0.2809  0.5444  0.2152
 1817SOL    HW116910   2.540   0.781   5.031 -0.2039  0.2779 -0.9441
 1817SOL    HW216911   2.657   0.860   5.075 -1.3774 -0.0567  2.3238
 1818SOL     OW16912   3.027   1.937  11.970  0.8695  0.1275 -0.5637
 1818SOL    HW116913   3.024   1.853  11.924 -0.4038  0.2824 -0.7569
 1818SOL    HW216914   3.075   1.910  12.049 -0.4328  0.7847  0.4562
 1819SOL     OW16915   4.455   0.272   5.927 -0.3550  0.5697 -0.4445
 1819SOL    HW116916   4.453   0.180   5.954  0.4294 -0.6964 -4.6700
 1819SOL    HW216917   4.464   0.314   6.013 -1.2578  1.1112 -0.6221
 1820SOL     OW16918   2.655   3.587   8.105 -0.0535  0.2795  0.3798
 1820SOL    HW116919   2.569   3.546   8.100 -0.5660  1.4502 -0.3984
 1820SOL    HW216920   2.660   3.617   8.196  1.9536 -0.7976  0.6449
 1821SOL     OW16921   2.275   2.831   8.858 -0.4021  0.1012 -0.4947
 1821SOL    HW116922   2.182   2.847   8.843 -0.2554  0.7212 -0.7366
 1821SOL    HW216923   2.309   2.820   8.770 -0.0023 -0.4586 -0.2659
 1822SOL     OW16924   2.477   1.504   3.719  0.2980 -0.0390 -0.4748
 1822SOL    HW116925   2.509   1.501   3.629 -0.5496  0.7460 -0.8059
 1822SOL    HW216926   2.386   1.531   3.705  0.0089 -1.0784 -0.6352
 1823SOL     OW16927   0.047   4.323   3.822 -0.2226  0.1657 -0.0175
 1823SOL    HW116928   0.133   4.338   3.782 -0.6159  0.2040 -0.8537
 1823SOL    HW216929   0.042   4.232   3.850  0.9476 -0.1051 -0.6569
 1824SOL     OW16930   4.006   2.287  15.041  0.5058  0.0913 -0.2177
 1824SOL    HW116931   3.950   2.346  14.990  0.7725  2.0149  1.7174
 1824SOL    HW216932   3.950   2.212  15.059  0.9057  0.0293  0.7452
 1825SOL     OW16933   3.151   0.644   2.973  0.2228 -0.6307 -0.0284
 1825SOL    HW116934   3.067   0.689   2.982  1.7443  1.9582  1.2324
 1825SOL    HW216935   3.125   0.552   2.967  2.1432 -1.1486 -0.2081
 1826SOL     OW16936   3.936   1.038   2.957  0.1781 -0.5983 -0.1940
 1826SOL    HW116937   3.852   1.022   3.000 -0.4654 -0.6404 -1.4568
 1826SOL    HW216938   3.905   1.091   2.883  1.9144 -2.7879 -2.4997
 1827SOL     OW16939   2.289   4.404   6.228 -0.3409 -0.2842 -0.2838
 1827SOL    HW116940   2.341   4.344   6.174  1.1372  2.8650 -2.3851
 1827SOL    HW216941   2.350   4.429   6.297  0.5106 -2.8496 -0.1008
 1828SOL     OW16942   1.388   2.582   5.589  0.4694 -1.0363  0.5579
 1828SOL    HW116943   1.384   2.515   5.657 -3.2757 -0.4726  0.9331
 1828SOL    HW216944   1.480   2.581   5.562  0.2103 -0.3131 -0.3855
 1829SOL     OW16945   4.591   3.012  14.989  0.2623  0.2638  0.2277
 1829SOL    HW116946   4.633   3.012  14.903 -1.8097 -2.0941 -0.7731
 1829SOL    HW216947   4.645   3.073  15.040 -1.3145  1.8314  0.0198
 1830SOL     OW16948   2.686   3.028  11.725 -0.6163 -0.4307  0.5337
 1830SOL    HW116949   2.766   3.068  11.760  0.2470 -0.6743 -1.1654
 1830SOL    HW216950   2.657   3.093  11.662  2.3435  0.2925 -0.1160
 1831SOL     OW16951   0.163   1.290  10.226  0.2637  0.0428  0.2943
 1831SOL    HW116952   0.112   1.369  10.244 -2.0054 -1.6576  1.2779
 1831SOL    HW216953   0.102   1.221  10.252 -0.3974  0.8959  1.0401
 1832SOL     OW16954   4.208   3.317   1.574 -0.1454 -0.5079 -0.0286
 1832SOL    HW116955   4.251   3.374   1.638 -0.4628 -2.8070  2.2603
 1832SOL    HW216956   4.224   3.361   1.491 -0.4892 -2.9931 -1.4126
 1833SOL     OW16957   3.503   0.399   6.784 -0.4191 -0.3730  0.2311
 1833SOL    HW116958   3.541   0.417   6.698  1.0699  0.1075  0.9685
 1833SOL    HW216959   3.574   0.366   6.840 -0.5286 -2.6742 -1.0272
 1834SOL     OW16960   1.168   2.690   5.461 -0.2665 -0.3509 -0.0774
 1834SOL    HW116961   1.107   2.617   5.454 -0.2541 -0.3783  0.0976
 1834SOL    HW216962   1.238   2.639   5.501  1.8746  1.5342 -1.3938
 1835SOL     OW16963   3.207   1.970   6.843  0.0119  0.1070  0.3264
 1835SOL    HW116964   3.239   2.022   6.769  0.6898 -1.1030 -0.2418
 1835SOL    HW216965   3.187   1.893   6.788  0.2747 -0.8005  1.4972
 1836SOL     OW16966   3.878   1.182   9.843 -0.7465  0.1153  0.6531
 1836SOL    HW116967   3.875   1.097   9.798  0.8792 -0.9716  2.6042
 1836SOL    HW216968   3.807   1.169   9.906 -1.7995  0.0687 -0.5430
 1837SOL     OW16969   0.064   0.512   8.246 -0.3060  0.2096  0.1874
 1837SOL    HW116970   0.004   0.463   8.190  0.9894  1.4571 -2.3052
 1837SOL    HW216971   0.022   0.598   8.250 -2.1879 -0.7142  0.2587
 1838SOL     OW16972   1.859   4.213   2.135  0.7129  0.5214 -0.2859
 1838SOL    HW116973   1.937   4.268   2.135  0.1130  1.3655 -0.9762
 1838SOL    HW216974   1.895   4.129   2.105  1.4403  0.7578 -0.0869
 1839SOL     OW16975   1.853   1.909   3.959 -0.1236 -0.5286  1.0781
 1839SOL    HW116976   1.773   1.955   3.984 -0.2354  0.1357 -0.5207
 1839SOL    HW216977   1.821   1.819   3.967  1.2345 -1.3059 -2.2336
 1840SOL     OW16978   3.261   1.552  11.641  0.1807  0.6456 -0.4417
 1840SOL    HW116979   3.263   1.634  11.591  0.2611  0.2937 -1.0247
 1840SOL    HW216980   3.322   1.568  11.713 -1.0529  0.9129  0.5464
 1841SOL     OW16981   3.677   3.003   6.085 -0.0034  0.5012  0.5353
 1841SOL    HW116982   3.659   3.000   6.179 -0.6920 -0.1179  0.3811
 1841SOL    HW216983   3.771   3.017   6.092  0.1158 -0.8786  1.5188
 1842SOL     OW16984   1.047   1.192   6.774 -0.1373  0.8575 -0.3007
 1842SOL    HW116985   1.089   1.272   6.743 -0.1480  0.7913 -0.4876
 1842SOL    HW216986   0.958   1.214   6.749 -0.3799 -0.3776 -0.5179
 1843SOL     OW16987   4.651   2.459  15.268  0.0986  0.2044  0.0743
 1843SOL    HW116988   4.592   2.388  15.242  1.2380 -0.0281 -1.8934
 1843SOL    HW216989   0.003   2.412  15.296  0.5818  1.2250  0.4450
 1844SOL     OW16990   2.985   1.694  15.316  0.2978 -0.3077 -0.1928
 1844SOL    HW116991   2.926   1.768  15.303  0.5072  0.0306  0.7971
 1844SOL    HW216992   3.064   1.716  15.267  0.8151  2.8886  2.0874
 1845SOL     OW16993   1.391   1.703   2.261 -0.2259 -0.0026  0.1481
 1845SOL    HW116994   1.331   1.649   2.313 -2.2049  1.1504 -0.9586
 1845SOL    HW216995   1.370   1.672   2.173 -1.4465  0.7905  0.1654
 1846SOL     OW16996   1.435   3.080  13.115  0.2340 -0.0218  0.5026
 1846SOL    HW116997   1.423   3.175  13.112  0.8634  0.0252 -0.8481
 1846SOL    HW216998   1.494   3.094  13.189  0.2677 -1.6687  0.7756
 1847SOL     OW16999   2.013   1.733   4.906  0.7814  0.0697  0.0275
 1847SOL    HW117000   2.083   1.796   4.888  1.0502 -0.2123  0.0686
 1847SOL    HW217001   1.948   1.781   4.958 -0.7331 -0.4893 -1.3537
 1848SOL     OW17002   1.198   1.529   2.426 -0.8487  0.3225 -0.4820
 1848SOL    HW117003   1.146   1.600   2.464  0.9483  1.1561  0.3858
 1848SOL    HW217004   1.175   1.450   2.475 -0.0486 -0.1768 -0.9251
 1849SOL     OW17005   2.887   2.680  12.559 -0.5639 -0.0803 -0.3664
 1849SOL    HW117006   2.903   2.739  12.633  0.4714 -1.4878  0.5398
 1849SOL    HW217007   2.794   2.657  12.565 -0.2715 -1.1702  0.1543
 1850SOL     OW17008   2.314   1.639   2.449  0.1249  0.0227 -0.2543
 1850SOL    HW117009   2.324   1.581   2.525 -2.7544  1.4764  1.2490
 1850SOL    HW217010   2.300   1.575   2.380 -0.3688 -0.7696  0.5745
 1851SOL     OW17011   2.870   1.287   3.113 -0.3946 -0.1082  0.2936
 1851SOL    HW117012   2.909   1.373   3.126  0.0276 -0.3414  0.5487
 1851SOL    HW217013   2.915   1.252   3.036 -1.9984 -0.5558 -0.4387
 1852SOL     OW17014   4.168   2.988  14.649  0.0710 -0.3838 -0.5895
 1852SOL    HW117015   4.189   2.895  14.644 -1.1617 -0.5769 -2.2130
 1852SOL    HW217016   4.106   2.986  14.722  0.1653  0.0055 -0.4984
 1853SOL     OW17017   4.570   1.769   2.217 -0.2888  0.0482  0.2586
 1853SOL    HW117018   4.534   1.742   2.133  0.0743 -0.6124  0.3127
 1853SOL    HW217019   4.620   1.692   2.246  0.9812  0.9686  0.5140
 1854SOL     OW17020   1.643   2.246   7.792 -0.1601  0.1017  0.2809
 1854SOL    HW117021   1.727   2.243   7.747 -0.2306  2.1565 -0.0159
 1854SOL    HW217022   1.634   2.153   7.813  3.5072 -0.4673 -0.7412
 1855SOL     OW17023   1.685   4.463   2.113 -0.2370  0.3003  0.1974
 1855SOL    HW117024   1.730   4.388   2.075  0.7100  0.8294  0.2812
 1855SOL    HW217025   1.727   4.536   2.067 -1.8832  0.4349 -1.0844
 1856SOL     OW17026   0.628   3.307  11.287 -0.4802  0.1428 -0.4617
 1856SOL    HW117027   0.554   3.332  11.232 -0.3786  1.6128  0.0684
 1856SOL    HW217028   0.607   3.355  11.368 -0.5392  0.9172 -0.9424
 1857SOL     OW17029   3.307   1.115   2.070  0.1594 -0.0482 -0.2011
 1857SOL    HW117030   3.377   1.178   2.056  0.2470  0.1564  1.2564
 1857SOL    HW217031   3.291   1.082   1.981  2.6812 -0.7234 -0.3910
 1858SOL     OW17032   3.225   0.362  12.119 -0.2785  0.2118 -0.3954
 1858SOL    HW117033   3.292   0.370  12.052 -0.4408 -0.8072 -0.6866
 1858SOL    HW217034   3.223   0.454  12.145 -1.0072 -0.0497  0.4669
 1859SOL     OW17035   1.758   2.967  12.096  0.2589 -0.4302  0.1720
 1859SOL    HW117036   1.701   3.019  12.154  0.4067  1.8982 -1.8012
 1859SOL    HW217037   1.824   3.035  12.097 -0.0956 -0.0822 -0.1069
 1860SOL     OW17038   3.645   0.904   9.419 -0.2187 -0.0537  0.0410
 1860SOL    HW117039   3.580   0.899   9.489  1.3158  1.5143  1.5727
 1860SOL    HW217040   3.621   0.839   9.352 -1.2452 -0.4443  0.7873
 1861SOL     OW17041   1.867   2.177  16.064 -0.6329  0.2945 -0.4754
 1861SOL    HW117042   1.827   2.227  16.135  0.8952 -0.2611  0.7667
 1861SOL    HW217043   1.925   2.246  16.033 -0.6793 -0.1588 -1.5743
 1862SOL     OW17044   3.481   2.585  12.155  0.2867  0.1844 -0.2122
 1862SOL    HW117045   3.414   2.612  12.093  0.2200  2.2442  0.7587
 1862SOL    HW217046   3.561   2.611  12.108 -0.7410  0.1391 -1.9638
 1863SOL     OW17047   2.447   1.232   0.188 -0.1066 -0.5755  0.1950
 1863SOL    HW117048   2.397   1.248   0.268 -0.4552 -0.5817 -0.0187
 1863SOL    HW217049   2.532   1.274   0.198  0.4687 -1.5206 -0.6073
 1864SOL     OW17050   2.421   3.281  10.371 -0.4736  0.0283 -0.7726
 1864SOL    HW117051   2.397   3.366  10.407 -1.9723 -0.6722 -0.1447
 1864SOL    HW217052   2.340   3.248  10.333 -0.2079 -2.0811  0.5284
 1865SOL     OW17053   3.732   4.679  12.764  0.0205 -0.4724  0.3184
 1865SOL    HW117054   3.789   4.713  12.833  0.4564  0.3436 -0.4381
 1865SOL    HW217055   3.709   4.592  12.796 -1.4671 -0.3076 -0.3161
 1866SOL     OW17056   3.310   1.118   1.199  0.3491 -0.8244  0.0926
 1866SOL    HW117057   3.300   1.107   1.294 -1.6753  0.9402  0.0704
 1866SOL    HW217058   3.399   1.084   1.188 -0.2222 -1.9281 -1.1685
 1867SOL     OW17059   2.329   2.383   5.992  0.1773 -1.0316 -0.1354
 1867SOL    HW117060   2.242   2.368   6.031  0.9398  1.4342  2.4850
 1867SOL    HW217061   2.375   2.411   6.071 -1.7733 -1.5049  1.1954
 1868SOL     OW17062   4.426   1.876   5.144  0.6416  0.1297  0.0229
 1868SOL    HW117063   4.454   1.967   5.135  2.1674 -0.2954  0.3433
 1868SOL    HW217064   4.376   1.857   5.065  1.7070 -0.2905 -0.5531
 1869SOL     OW17065   3.880   3.676  15.329 -0.8257  0.6928 -0.2347
 1869SOL    HW117066   3.840   3.592  15.351 -0.7080  0.2366 -1.7425
 1869SOL    HW217067   3.949   3.651  15.266 -0.7267 -1.7634  0.8353
 1870SOL     OW17068   4.100   3.056   9.352 -0.0283 -0.5381 -0.1265
 1870SOL    HW117069   4.105   2.961   9.341 -0.4759 -0.7378  1.4236
 1870SOL    HW217070   4.026   3.064   9.292 -3.0764 -0.1918  3.6195
 1871SOL     OW17071   4.436   2.899   3.856 -0.0226 -0.2431 -0.1694
 1871SOL    HW117072   4.468   2.989   3.857 -0.0479 -0.1854 -2.5542
 1871SOL    HW217073   4.397   2.886   3.942  2.3170 -0.6832  0.8216
 1872SOL     OW17074   1.821   1.021   7.756 -0.3806  0.4580  0.0249
 1872SOL    HW117075   1.798   1.084   7.687 -2.0591 -1.2217 -0.9315
 1872SOL    HW217076   1.887   1.060   7.815  1.2238  0.3072 -1.6584
 1873SOL     OW17077   4.507   3.500   8.632  0.2764 -0.7137  0.4643
 1873SOL    HW117078   4.469   3.427   8.682  2.2054 -1.9850  0.0723
 1873SOL    HW217079   4.598   3.471   8.625  0.4041 -0.6117  1.6858
 1874SOL     OW17080   1.523   0.484   7.595 -0.0417 -0.0580 -0.1084
 1874SOL    HW117081   1.605   0.501   7.641 -0.6203 -0.3338  1.0376
 1874SOL    HW217082   1.545   0.476   7.502  0.7611  0.2598  0.0550
 1875SOL     OW17083   2.247   0.777   7.867 -0.3906  0.1692 -0.2959
 1875SOL    HW117084   2.193   0.815   7.936  0.2805  0.5917  0.0020
 1875SOL    HW217085   2.324   0.747   7.915 -0.0582  0.3792 -0.6889
 1876SOL     OW17086   3.853   4.651   2.535  0.0367 -0.4031 -0.3086
 1876SOL    HW117087   3.829   4.668   2.444 -3.3641 -2.6605  0.1672
 1876SOL    HW217088   3.807   4.725   2.574  1.9495  0.5524  0.1476
 1877SOL     OW17089   1.053   1.853   7.588 -0.4335 -0.1542  0.5305
 1877SOL    HW117090   1.085   1.763   7.588  3.8383  1.3782 -0.7249
 1877SOL    HW217091   0.966   1.842   7.628 -0.0515  0.4739  1.5199
 1878SOL     OW17092   4.545   3.278  11.912 -0.1121 -0.1311  1.2570
 1878SOL    HW117093   4.613   3.318  11.858  0.2149 -0.4107  1.4646
 1878SOL    HW217094   4.527   3.199  11.861  0.8358  2.4888 -3.1180
 1879SOL     OW17095   4.156   3.679   6.006 -0.0753  0.0785 -0.2688
 1879SOL    HW117096   4.136   3.761   6.052  1.0347 -1.3706  2.8321
 1879SOL    HW217097   4.181   3.623   6.080  0.4913  1.6157  0.7216
 1880SOL     OW17098   1.117   2.655   4.262  0.0635  0.2250  0.3588
 1880SOL    HW117099   1.033   2.673   4.220  0.2510 -0.0017 -0.1149
 1880SOL    HW217100   1.141   2.580   4.208 -2.0448  0.2059 -0.5764
 1881SOL     OW17101   2.788   3.340   7.924 -0.1861  0.3735  0.4125
 1881SOL    HW117102   2.719   3.405   7.913 -0.0354  0.4407 -0.1376
 1881SOL    HW217103   2.745   3.283   7.988 -0.2778 -0.0186  0.0082
 1882SOL     OW17104   1.881   0.572  10.314  0.0740 -0.1118  0.1247
 1882SOL    HW117105   1.788   0.548  10.318 -0.4623  2.1487  1.7446
 1882SOL    HW217106   1.904   0.566  10.407 -0.6424 -0.8143  0.2606
 1883SOL     OW17107   1.904   4.038  17.190 -0.6032 -0.2182 -0.2704
 1883SOL    HW117108   1.853   4.088  17.127 -1.2450  0.0411  0.4471
 1883SOL    HW217109   1.843   3.965  17.177 -0.9831 -0.1946  1.4129
 1884SOL     OW17110   1.898   4.484  10.716 -0.1904  1.0694  0.1829
 1884SOL    HW117111   1.868   4.572  10.741 -1.3870  1.2148 -1.8183
 1884SOL    HW217112   1.820   4.435  10.743 -0.5538  0.4476 -2.0220
 1885SOL     OW17113   4.623   3.474   6.452  0.0356 -0.2804  0.0903
 1885SOL    HW117114   4.654   3.384   6.461  1.1941  0.1438  0.3254
 1885SOL    HW217115   4.699   3.527   6.429 -0.6280 -0.0924 -1.6879
 1886SOL     OW17116   2.879   0.373   3.872 -0.1601 -0.5729 -0.0207
 1886SOL    HW117117   2.870   0.362   3.967  0.5185 -0.1805  0.0873
 1886SOL    HW217118   2.796   0.408   3.840 -0.2057  0.6181  1.3984
 1887SOL     OW17119   2.290   2.381   4.507 -0.1630 -0.0888  0.2973
 1887SOL    HW117120   2.261   2.323   4.578 -1.7455  0.1829 -0.1345
 1887SOL    HW217121   2.383   2.380   4.530  0.3405 -0.0668 -1.7674
 1888SOL     OW17122   0.945   3.990   7.064  0.0081 -0.3576  0.1924
 1888SOL    HW117123   0.984   4.077   7.060 -1.4635  0.1342 -3.2235
 1888SOL    HW217124   0.869   4.007   7.119  0.8707  1.1194  0.9141
 1889SOL     OW17125   0.675   3.060  12.888  0.0514 -0.3694 -0.0579
 1889SOL    HW117126   0.580   3.069  12.900  0.2202  1.7897 -0.2211
 1889SOL    HW217127   0.688   3.126  12.819  2.9679 -1.2613 -0.3569
 1890SOL     OW17128   1.744   2.685   0.336 -0.0171 -0.2590 -0.1777
 1890SOL    HW117129   1.651   2.671   0.351  0.7025 -2.4038  2.2690
 1890SOL    HW217130   1.779   2.601   0.305  3.5465  1.6996 -1.4475
 1891SOL     OW17131   3.330   3.669   4.643 -0.6989  0.1058  0.0792
 1891SOL    HW117132   3.391   3.608   4.600 -1.4321 -1.3188  1.0411
 1891SOL    HW217133   3.331   3.634   4.732  0.3395  1.5344  0.6270
 1892SOL     OW17134   4.418   3.587   3.504 -0.2662  0.1497  0.2734
 1892SOL    HW117135   4.361   3.654   3.542 -2.5520 -0.9378 -1.2654
 1892SOL    HW217136   4.474   3.646   3.452  0.7269 -0.2608  0.8896
 1893SOL     OW17137   0.106   2.454   3.492 -0.1022 -0.5169  0.6665
 1893SOL    HW117138   0.133   2.376   3.541  1.2225 -0.3056  0.2685
 1893SOL    HW217139   0.100   2.515   3.565 -0.3103 -0.8675  0.9442
 1894SOL     OW17140   2.850   1.846   8.263  0.3611  0.9921  0.0028
 1894SOL    HW117141   2.845   1.867   8.170 -1.7261 -0.9020 -0.3267
 1894SOL    HW217142   2.762   1.873   8.290  0.6220  1.6001  0.2467
 1895SOL     OW17143   3.028   0.388   1.899  0.5282 -0.1581 -0.4643
 1895SOL    HW117144   3.056   0.475   1.869 -1.0645  0.5644  0.1771
 1895SOL    HW217145   2.939   0.418   1.914  0.6493 -0.6040  1.0482
 1896SOL     OW17146   1.244   4.689   5.393 -0.1414  0.0775  0.3266
 1896SOL    HW117147   1.334   4.720   5.405 -0.8880  1.8188  1.3977
 1896SOL    HW217148   1.252   4.593   5.394  1.2395  0.1857  0.5149
 1897SOL     OW17149   1.898   3.241  10.411 -0.8419  0.4213 -0.0184
 1897SOL    HW117150   1.879   3.248  10.504 -0.5684  1.1104 -0.0199
 1897SOL    HW217151   1.866   3.151  10.398 -1.9847  0.5014  2.2359
 1898SOL     OW17152   1.998   2.820   4.246 -0.0961  0.5340  0.2367
 1898SOL    HW117153   2.055   2.743   4.247  0.9939  1.3685  0.8712
 1898SOL    HW217154   1.937   2.802   4.318 -0.6001  0.2560 -0.2602
 1899SOL     OW17155   3.868   2.738   2.499 -0.0402  0.3222 -0.1697
 1899SOL    HW117156   3.838   2.652   2.530 -0.3286  1.1515  1.7753
 1899SOL    HW217157   3.963   2.731   2.507 -0.0162  0.0437 -0.6642
 1900SOL     OW17158   0.595   3.823  14.769 -0.4045  0.9275 -0.2588
 1900SOL    HW117159   0.556   3.892  14.824  0.8796  2.0746 -0.7695
 1900SOL    HW217160   0.576   3.854  14.681  2.0154  1.1200 -0.7124
 1901SOL     OW17161   2.119   0.761   1.274  0.0681  0.2563 -0.3063
 1901SOL    HW117162   2.027   0.786   1.277  0.2521  1.1608 -2.1153
 1901SOL    HW217163   2.117   0.688   1.213 -2.1397 -0.4963  0.6773
 1902SOL     OW17164   1.973   1.138   3.725  0.0935 -0.4125 -0.1371
 1902SOL    HW117165   1.995   1.084   3.648  2.3027  1.6115 -0.9065
 1902SOL    HW217166   2.043   1.118   3.787  0.6489 -0.5720 -0.8150
 1903SOL     OW17167   2.251   2.572   3.111 -0.2173  0.2945 -0.6651
 1903SOL    HW117168   2.207   2.652   3.082 -0.3552  0.0749 -1.0469
 1903SOL    HW217169   2.317   2.616   3.166 -0.4179 -1.0934  0.6921
 1904SOL     OW17170   0.561   4.147  10.558  0.4079 -0.2678 -0.2515
 1904SOL    HW117171   0.618   4.097  10.616  0.8254  1.1314  0.5567
 1904SOL    HW217172   0.597   4.235  10.572  0.2424 -0.2118 -0.1664
 1905SOL     OW17173   0.694   3.066   3.962  0.6991  0.6583  0.0937
 1905SOL    HW117174   0.660   3.117   4.036 -0.0353  1.9496 -1.1464
 1905SOL    HW217175   0.684   2.978   3.998  2.6377  0.7846  0.9542
 1906SOL     OW17176   3.000   2.711  14.547 -0.6876  0.5075  0.1667
 1906SOL    HW117177   3.050   2.674  14.620 -1.2549 -0.5799  0.0081
 1906SOL    HW217178   3.067   2.699  14.480  1.1436 -0.4547  2.1703
 1907SOL     OW17179   1.443   3.913   6.964 -0.4014 -1.0770 -0.2875
 1907SOL    HW117180   1.536   3.894   6.950 -1.1243 -2.1171 -3.8554
 1907SOL    HW217181   1.443   4.008   6.951  0.6347 -1.0617 -0.2093
 1908SOL     OW17182   1.906   4.428   3.977 -0.2932  0.4125  0.4093
 1908SOL    HW117183   1.950   4.384   4.050  0.2473 -1.4697 -1.0344
 1908SOL    HW217184   1.908   4.367   3.903 -0.5828  0.2836  0.5067
 1909SOL     OW17185   1.941   0.973   2.448  0.6541 -0.1626 -0.6331
 1909SOL    HW117186   1.891   0.904   2.406  1.6609 -0.7747 -0.8078
 1909SOL    HW217187   1.943   1.037   2.377 -1.0842  0.6621  0.0528
 1910SOL     OW17188   0.655   2.235   7.468 -0.6779 -0.3436 -0.9161
 1910SOL    HW117189   0.700   2.200   7.391 -1.2605  0.3859 -1.5861
 1910SOL    HW217190   0.634   2.320   7.430  1.6052  1.2306  1.3609
 1911SOL     OW17191   2.877   3.310   5.341  0.7335 -0.1485  0.4026
 1911SOL    HW117192   2.790   3.270   5.347  1.3693 -1.3957  1.4261
 1911SOL    HW217193   2.862   3.404   5.353  0.0617 -0.1112 -0.7982
 1912SOL     OW17194   2.844   1.692   9.304 -0.0787 -0.3418  0.1236
 1912SOL    HW117195   2.858   1.651   9.218  1.5396  0.0878  0.1880
 1912SOL    HW217196   2.768   1.644   9.337 -0.6036  1.2203  1.2073
 1913SOL     OW17197   0.647   3.756   0.780  0.1558  0.5748 -0.2701
 1913SOL    HW117198   0.596   3.721   0.853 -0.0060  0.7368 -0.3085
 1913SOL    HW217199   0.600   3.836   0.758  2.6084  1.7404 -1.2961
 1914SOL     OW17200   1.018   0.391   2.719  0.1289 -0.0066 -0.0198
 1914SOL    HW117201   1.052   0.309   2.684  0.8618  0.2545  0.0696
 1914SOL    HW217202   0.955   0.421   2.653 -1.2374  0.6145  1.5539
 1915SOL     OW17203   1.543   3.616  12.521  0.5437  0.4426  0.4756
 1915SOL    HW117204   1.536   3.522  12.535  0.3503  0.4813  0.6407
 1915SOL    HW217205   1.634   3.632  12.547  1.3728 -1.1634 -1.4627
 1916SOL     OW17206   4.168   4.281   4.957  0.0146  0.8235 -0.0860
 1916SOL    HW117207   4.180   4.305   5.049 -2.5331 -1.5136  0.8470
 1916SOL    HW217208   4.149   4.187   4.964 -3.7024  1.5779 -0.1062
 1917SOL     OW17209   2.922   1.202   4.148  0.0686 -0.3366 -0.2901
 1917SOL    HW117210   2.891   1.197   4.239  0.4571 -0.0897 -0.1415
 1917SOL    HW217211   2.956   1.292   4.155  1.7268 -1.0982  1.4285
 1918SOL     OW17212   2.367   2.530   1.512 -0.0806 -0.2917  0.0898
 1918SOL    HW117213   2.442   2.523   1.572  3.2395  0.2554 -4.0541
 1918SOL    HW217214   2.313   2.456   1.538  1.6025 -1.6812 -0.4295
 1919SOL     OW17215   4.654   3.438   5.680  0.6480  0.0320  0.7504
 1919SOL    HW117216   4.696   3.485   5.751 -1.6943  2.3375  0.6188
 1919SOL    HW217217   4.593   3.507   5.654 -0.5006 -1.1786  0.1940
 1920SOL     OW17218   3.975   4.392   5.322  0.1729 -0.5795 -0.3117
 1920SOL    HW117219   3.905   4.400   5.257 -0.8049  1.1863  0.9373
 1920SOL    HW217220   4.056   4.418   5.279  0.7677 -1.8068  0.0792
 1921SOL     OW17221   4.616   4.235   6.868  0.4483  0.0008  0.4718
 1921SOL    HW117222   4.677   4.280   6.926  0.1463  0.5964  0.3330
 1921SOL    HW217223   4.613   4.306   6.804  4.1678  0.4000  0.7412
 1922SOL     OW17224   1.662   0.703   8.277  0.1443 -0.1193 -0.2944
 1922SOL    HW117225   1.710   0.709   8.360  3.0820  0.7317 -2.0569
 1922SOL    HW217226   1.592   0.646   8.308  0.8044 -0.2507  0.9827
 1923SOL     OW17227   3.929   0.687   8.520  0.0640  0.0030 -0.1722
 1923SOL    HW117228   3.947   0.594   8.517 -1.7469 -0.4435  2.2001
 1923SOL    HW217229   3.886   0.691   8.435 -0.0003 -1.9789 -0.2313
 1924SOL     OW17230   3.430   4.242   5.605 -0.4097 -0.1753  0.2292
 1924SOL    HW117231   3.432   4.159   5.559 -1.1037  0.8762 -1.6953
 1924SOL    HW217232   3.521   4.270   5.614  0.0970 -1.8315  0.2893
 1925SOL     OW17233   2.049   2.248   7.396  0.6998  0.0896  0.0032
 1925SOL    HW117234   2.144   2.238   7.402  0.5808 -2.2540 -2.1239
 1925SOL    HW217235   2.031   2.325   7.451  0.1752  0.7924 -1.1529
 1926SOL     OW17236   3.460   0.221  11.658  0.2679 -0.4539 -0.7031
 1926SOL    HW117237   3.530   0.286  11.649  1.0766 -1.1163  0.8598
 1926SOL    HW217238   3.393   0.283  11.629  1.6525  0.9480 -0.9549
 1927SOL     OW17239   0.303   1.832  15.552  0.0362  0.5689  0.0085
 1927SOL    HW117240   0.313   1.854  15.459 -0.3659 -0.8904 -0.3918
 1927SOL    HW217241   0.301   1.910  15.607 -3.4697  1.7481 -1.7136
 1928SOL     OW17242   1.447   3.725   8.349 -0.7594 -0.0936  0.0520
 1928SOL    HW117243   1.448   3.813   8.387 -0.5028  0.7675 -1.9668
 1928SOL    HW217244   1.382   3.676   8.401  0.0475  0.3094  1.4271
 1929SOL     OW17245   4.227   0.434   7.991 -0.8329  0.0404 -0.0639
 1929SOL    HW117246   4.280   0.509   8.019 -0.5436 -0.7475  1.5018
 1929SOL    HW217247   4.250   0.415   7.900 -0.0252  0.5330  0.0375
 1930SOL     OW17248   2.272   3.673   8.571  0.1424  0.3774 -0.3149
 1930SOL    HW117249   2.203   3.688   8.636 -0.8560 -1.1063 -1.0390
 1930SOL    HW217250   2.278   3.580   8.590  1.4896  0.7001  0.8031
 1931SOL     OW17251   1.271   2.101  11.613 -0.2566  0.1136 -0.0424
 1931SOL    HW117252   1.218   2.180  11.602 -0.9740 -0.3884 -0.1781
 1931SOL    HW217253   1.211   2.032  11.588 -0.0389 -0.1037  0.0324
 1932SOL     OW17254   4.088   2.047   5.724  0.3887 -0.3535 -0.1285
 1932SOL    HW117255   4.011   2.027   5.777  1.1183  2.1532  1.9218
 1932SOL    HW217256   4.045   2.053   5.639  1.6665 -0.3315 -0.7725
 1933SOL     OW17257   0.692   1.798   1.330 -0.4694 -0.3829  0.0697
 1933SOL    HW117258   0.712   1.791   1.237  0.3728  0.8022  0.1627
 1933SOL    HW217259   0.626   1.868   1.329  0.3894  0.4373  0.4643
 1934SOL     OW17260   0.863   1.633   1.499  0.0243 -0.1166  0.3044
 1934SOL    HW117261   0.815   1.704   1.457  0.4508  0.1404  0.2544
 1934SOL    HW217262   0.834   1.554   1.453 -0.3377  0.9677 -1.3233
 1935SOL     OW17263   1.373   2.999   0.881 -0.1020 -0.5312 -0.2807
 1935SOL    HW117264   1.456   3.008   0.928 -0.2486  0.0474 -0.1233
 1935SOL    HW217265   1.379   3.050   0.800  2.8411 -1.6934 -0.7791
 1936SOL     OW17266   1.289   3.837   2.646 -0.6715 -0.2693 -0.2419
 1936SOL    HW117267   1.194   3.839   2.650 -0.6394  0.8929 -0.0191
 1936SOL    HW217268   1.307   3.930   2.656 -0.7462 -0.5582  2.7581
 1937SOL     OW17269   1.033   0.682   2.271 -0.6977 -0.2671  0.1932
 1937SOL    HW117270   1.083   0.620   2.219  2.8251  1.3725  1.6299
 1937SOL    HW217271   0.979   0.722   2.202 -0.2306 -0.6389 -0.3774
 1938SOL     OW17272   1.897   1.606   8.397  0.4483  0.1169  0.1595
 1938SOL    HW117273   1.868   1.697   8.403 -0.6665 -0.1920 -0.5897
 1938SOL    HW217274   1.814   1.563   8.376  0.2834  0.1143  0.8000
 1939SOL     OW17275   0.566   2.818   4.092  0.2969 -0.2984  0.3428
 1939SOL    HW117276   0.475   2.812   4.063  0.6962  0.4241 -1.0449
 1939SOL    HW217277   0.603   2.733   4.070 -2.3782 -1.8539  1.9082
 1940SOL     OW17278   3.662   1.089   3.460  0.5531  0.2377 -0.2934
 1940SOL    HW117279   3.673   1.146   3.384 -0.7461 -0.7352 -1.2053
 1940SOL    HW217280   3.599   1.031   3.417  4.0517 -2.2744 -2.0537
 1941SOL     OW17281   4.243   2.224  12.343  1.0959 -0.1174  0.0010
 1941SOL    HW117282   4.257   2.131  12.358 -2.1018 -0.4944  0.6962
 1941SOL    HW217283   4.213   2.253  12.429  1.7327  2.0377 -0.5152
 1942SOL     OW17284   1.323   2.261   7.327 -0.6669 -0.3648 -0.0678
 1942SOL    HW117285   1.385   2.265   7.400 -1.0093  0.3541  0.1880
 1942SOL    HW217286   1.260   2.192   7.349 -0.2320  0.0253  2.3811
 1943SOL     OW17287   4.064   0.020   8.407 -0.6668 -0.0524 -0.6247
 1943SOL    HW117288   4.007   0.084   8.367  0.9119  1.2541 -0.7858
 1943SOL    HW217289   4.040   0.041   8.498  1.1458  0.1886 -0.1972
 1944SOL     OW17290   0.220   4.431   5.824  0.0592  0.3319  0.9077
 1944SOL    HW117291   0.291   4.427   5.760 -0.8779  1.3561 -0.2078
 1944SOL    HW217292   0.264   4.434   5.909  3.0525 -2.1102 -0.5919
 1945SOL     OW17293   3.161   3.668   7.117 -0.2207  0.6827  0.6744
 1945SOL    HW117294   3.248   3.635   7.136 -0.3506 -1.0101 -1.6504
 1945SOL    HW217295   3.096   3.629   7.175  0.1864  0.2049  0.8007
 1946SOL     OW17296   1.131   2.881   2.572  0.0911 -0.2590 -0.1849
 1946SOL    HW117297   1.176   2.914   2.494  0.5755 -0.5818 -0.0394
 1946SOL    HW217298   1.094   2.796   2.546 -0.7459 -0.6455  2.2951
 1947SOL     OW17299   1.738   4.019  15.024  0.4068 -0.1626  0.0863
 1947SOL    HW117300   1.800   3.980  15.085  1.2551 -0.7431 -1.1500
 1947SOL    HW217301   1.780   3.995  14.941 -1.3798 -2.2965 -0.1857
 1948SOL     OW17302   3.147   2.836   2.498  0.1696 -0.6885 -0.7907
 1948SOL    HW117303   3.132   2.757   2.549 -1.5189  1.2161  1.6310
 1948SOL    HW217304   3.231   2.866   2.532 -0.7659 -0.7694  1.5475
 1949SOL     OW17305   2.097   4.518   5.255 -0.3305 -0.0102  0.2814
 1949SOL    HW117306   2.036   4.481   5.319 -0.3211 -0.0625  0.2604
 1949SOL    HW217307   2.115   4.438   5.206  0.3758  0.7966 -0.7772
 1950SOL     OW17308   3.317   2.591   1.902 -0.4623 -0.1093 -0.2735
 1950SOL    HW117309   3.317   2.630   1.814 -0.6512 -2.0856 -1.1512
 1950SOL    HW217310   3.317   2.496   1.889 -1.4667 -0.7805  4.8036
 1951SOL     OW17311   3.218   3.759   6.037 -0.2883 -0.3045  0.8499
 1951SOL    HW117312   3.233   3.806   5.955 -2.5702  0.9187  1.1561
 1951SOL    HW217313   3.289   3.789   6.094  0.6427  1.0313 -0.9845
 1952SOL     OW17314   4.637   2.957   7.294 -0.4053  0.0896 -0.2954
 1952SOL    HW117315   4.657   3.051   7.288  0.0845 -0.2036 -2.9056
 1952SOL    HW217316   4.545   2.953   7.319 -1.3611 -2.9236 -4.3292
 1953SOL     OW17317   4.205   0.849  10.124 -0.3904 -0.4620  0.0780
 1953SOL    HW117318   4.187   0.880  10.213 -0.4891  0.5175 -0.2879
 1953SOL    HW217319   4.146   0.774  10.123 -0.6247 -0.2695 -0.5473
 1954SOL     OW17320   2.822   3.772   7.118  0.2148 -0.3661  0.3709
 1954SOL    HW117321   2.781   3.687   7.133 -0.9837  0.1906  0.3318
 1954SOL    HW217322   2.855   3.770   7.029  2.0690 -0.8614  1.0702
 1955SOL     OW17323   3.623   1.358   1.723 -0.6973 -0.1456  0.0803
 1955SOL    HW117324   3.625   1.453   1.720  0.7681 -0.1989 -0.8082
 1955SOL    HW217325   3.710   1.336   1.755 -0.8239 -0.0896  0.4559
 1956SOL     OW17326   1.704   2.934  14.269 -0.6093  0.6151 -0.0972
 1956SOL    HW117327   1.681   2.987  14.193 -0.8406 -0.9060 -1.0996
 1956SOL    HW217328   1.792   2.966  14.284  0.3243 -2.1921  0.4765
 1957SOL     OW17329   4.145   0.086   4.035  0.8175 -0.7742 -0.1966
 1957SOL    HW117330   4.224   0.085   3.981  1.2241  0.1632  0.3807
 1957SOL    HW217331   4.083   0.081   3.961  0.5297 -2.0217  0.1358
 1958SOL     OW17332   3.017   0.208  10.095  0.1462 -0.5269 -0.1102
 1958SOL    HW117333   3.077   0.281  10.116 -1.1890  0.8766 -1.1725
 1958SOL    HW217334   2.946   0.221  10.158  1.1579 -0.6930  1.0567
 1959SOL     OW17335   1.950   0.746   7.742  0.3740  0.3823  0.5947
 1959SOL    HW117336   2.037   0.772   7.773 -0.6901  3.8886  0.5843
 1959SOL    HW217337   1.916   0.834   7.730 -0.4432  0.1182  0.9954
 1960SOL     OW17338   0.287   0.167   3.220 -0.6105 -0.3403  0.3167
 1960SOL    HW117339   0.317   0.224   3.150 -1.2134  0.3200  0.6029
 1960SOL    HW217340   0.370   0.166   3.268  0.6145  1.9118 -1.7799
 1961SOL     OW17341   1.993   4.269   5.422 -0.0871 -0.4236  0.1687
 1961SOL    HW117342   2.086   4.271   5.447  0.4603  0.4311 -1.8528
 1961SOL    HW217343   1.966   4.234   5.507  1.6982 -0.7852  0.5951
 1962SOL     OW17344   3.686   1.075   2.754  0.1206 -0.8352  0.1397
 1962SOL    HW117345   3.695   0.981   2.768 -0.1248 -0.7193  1.0669
 1962SOL    HW217346   3.616   1.083   2.689  1.6822  2.8969 -1.0765
 1963SOL     OW17347   0.234   0.635   2.889  0.4702  0.4475  0.5294
 1963SOL    HW117348   0.154   0.653   2.839  1.3662 -0.6011 -1.2601
 1963SOL    HW217349   0.214   0.679   2.972 -0.0566  1.5939 -0.1926
 1964SOL     OW17350   2.320   2.228   7.420  0.0555 -0.1473  0.4601
 1964SOL    HW117351   2.400   2.192   7.457  0.4073 -1.2966 -1.4300
 1964SOL    HW217352   2.353   2.292   7.357 -0.0909 -0.1942  0.3341
 1965SOL     OW17353   4.168   1.898   7.151 -0.3033 -0.7431  0.0686
 1965SOL    HW117354   4.091   1.901   7.094 -0.3394  0.0267  0.1611
 1965SOL    HW217355   4.237   1.923   7.089 -0.2017 -2.5009 -0.5221
 1966SOL     OW17356   2.768   0.036   5.655 -0.1102 -0.0223  0.7964
 1966SOL    HW117357   2.725   4.716   5.727 -1.4509  3.0926  1.9954
 1966SOL    HW217358   2.835   4.700   5.627 -0.4002  0.3122 -0.6510
 1967SOL     OW17359   0.607   2.261   5.010  0.1445 -0.3853 -0.1650
 1967SOL    HW117360   0.587   2.170   5.032 -1.5304 -0.0652 -0.3437
 1967SOL    HW217361   0.522   2.292   4.980  1.1052  0.4099 -2.0824
 1968SOL     OW17362   0.111   3.590   5.084 -0.3580  0.4765 -0.1044
 1968SOL    HW117363   0.091   3.677   5.049  0.2499  0.9050  0.5984
 1968SOL    HW217364   0.036   3.562   5.136  0.0217 -0.7437 -0.2009
 1969SOL     OW17365   1.282   0.329   5.209 -0.0874  0.0934 -0.1273
 1969SOL    HW117366   1.243   0.348   5.124 -0.7020 -0.9000 -0.0736
 1969SOL    HW217367   1.215   0.361   5.269 -0.5016 -0.4015 -0.3221
 1970SOL     OW17368   2.219   3.779   7.150 -0.5574 -0.1591 -0.4116
 1970SOL    HW117369   2.225   3.818   7.237 -0.4201  1.3881 -1.1264
 1970SOL    HW217370   2.126   3.757   7.149 -0.7920  0.8556 -1.1528
 1971SOL     OW17371   0.640   0.431   7.179 -0.1825  0.6136 -0.0636
 1971SOL    HW117372   0.715   0.434   7.238 -0.2238 -1.6210  0.1199
 1971SOL    HW217373   0.569   0.463   7.235 -0.2350 -0.3553  0.4331
 1972SOL     OW17374   0.192   3.438   6.593 -0.3455  0.1962  0.1537
 1972SOL    HW117375   0.144   3.519   6.607 -2.0543 -0.9600  0.9983
 1972SOL    HW217376   0.272   3.463   6.639 -0.7742  1.3628  0.2623
 1973SOL     OW17377   1.611   3.637   6.608 -0.7826  0.2331  0.7183
 1973SOL    HW117378   1.520   3.606   6.603 -0.0113 -1.7077 -1.0994
 1973SOL    HW217379   1.650   3.561   6.651  3.0140  1.1034 -1.1748
 1974SOL     OW17380   1.962   1.973   4.196  0.5379 -0.0365 -0.6638
 1974SOL    HW117381   1.891   1.924   4.238  2.4134 -1.4780  0.8219
 1974SOL    HW217382   1.943   1.956   4.104 -0.5555  1.4172 -0.7062
 1975SOL     OW17383   3.574   4.376   7.830 -0.1238  0.1785  0.0015
 1975SOL    HW117384   3.538   4.464   7.818  1.3571  0.9525  1.0479
 1975SOL    HW217385   3.666   4.403   7.830 -0.0396 -0.0748  1.6051
 1976SOL     OW17386   3.384   4.551   4.024 -0.0191 -0.4387 -1.1340
 1976SOL    HW117387   3.332   4.624   4.055 -0.2197 -0.8686 -0.4657
 1976SOL    HW217388   3.340   4.482   4.074 -0.2575  1.0233  0.6800
 1977SOL     OW17389   0.994   4.168   7.847 -0.0854 -0.0651  0.0335
 1977SOL    HW117390   1.020   4.082   7.815  2.8446  0.7519  0.2681
 1977SOL    HW217391   1.002   4.162   7.942 -0.1144  0.2670  0.0582
 1978SOL     OW17392   3.833   1.807  11.361  0.3726 -0.1689 -0.0884
 1978SOL    HW117393   3.748   1.765  11.375  0.3064  0.0036  0.0144
 1978SOL    HW217394   3.876   1.781  11.443 -3.8059  2.1832  2.8452
 1979SOL     OW17395   1.267   3.679  13.994 -0.3209 -0.4801 -0.1764
 1979SOL    HW117396   1.358   3.708  13.986 -0.1802 -0.9977 -0.4368
 1979SOL    HW217397   1.256   3.669  14.088 -0.3398  1.6268  0.0507
 1980SOL     OW17398   4.726   2.342  16.635 -0.1721 -0.0961 -0.3964
 1980SOL    HW117399   0.074   2.402  16.641 -0.6019  0.3635  0.3073
 1980SOL    HW217400   0.031   2.269  16.690  0.3272 -0.4920 -1.1972
 1981SOL     OW17401   3.619   4.344   6.794  0.4382  0.0070 -0.1309
 1981SOL    HW117402   3.713   4.342   6.775  0.9306  1.9223  2.1374
 1981SOL    HW217403   3.611   4.424   6.846  3.2627  0.7108 -0.7733
 1982SOL     OW17404   3.690   4.374   3.754  0.1130 -0.7745  0.2088
 1982SOL    HW117405   3.732   4.353   3.837  2.2092 -2.1265 -1.1797
 1982SOL    HW217406   3.644   4.294   3.729 -2.1401  0.2689  1.0391
 1983SOL     OW17407   1.896   0.792  12.819 -0.2383 -0.2317  0.6956
 1983SOL    HW117408   1.904   0.842  12.901  3.1097 -2.2538  1.6197
 1983SOL    HW217409   1.981   0.815  12.780 -1.4694 -0.4753 -2.1189
 1984SOL     OW17410   0.836   1.898   2.694 -0.0652 -0.0612  0.0773
 1984SOL    HW117411   0.752   1.891   2.739  0.3167 -0.2728  0.7710
 1984SOL    HW217412   0.808   1.891   2.603 -0.1432 -2.2279  0.2557
 1985SOL     OW17413   3.931   4.118   3.720  0.3642 -0.6643 -0.4463
 1985SOL    HW117414   3.877   4.143   3.795  1.1285  1.0032 -0.4384
 1985SOL    HW217415   4.007   4.166   3.753  0.7416 -0.9481 -0.9060
 1986SOL     OW17416   2.586   2.442   2.276  0.4231  0.1188  0.3008
 1986SOL    HW117417   2.658   2.381   2.294 -2.0176 -2.6913  0.5924
 1986SOL    HW217418   2.549   2.444   2.365 -1.7713  1.2221 -0.6373
 1987SOL     OW17419   4.485   3.151  13.529  0.7137  0.6500  0.0050
 1987SOL    HW117420   4.561   3.140  13.473  0.8601  0.1482  0.3098
 1987SOL    HW217421   4.528   3.177  13.610  1.2372  0.9392 -0.3626
 1988SOL     OW17422   0.857   2.852  11.337 -0.1891 -0.0136  0.2481
 1988SOL    HW117423   0.826   2.926  11.285  0.5411  0.9372  1.1722
 1988SOL    HW217424   0.946   2.886  11.348 -0.5212  1.5149 -1.7562
 1989SOL     OW17425   1.496   0.133   5.480 -0.4743  0.2432  0.3811
 1989SOL    HW117426   1.546   0.119   5.399  0.2016  0.8126  0.7009
 1989SOL    HW217427   1.524   0.222   5.502 -1.8601  0.3513  1.6547
 1990SOL     OW17428   0.207   3.373  15.648 -0.1156  0.4455  0.2099
 1990SOL    HW117429   0.272   3.418  15.702 -0.9197  0.0762  1.4966
 1990SOL    HW217430   0.218   3.416  15.563 -0.1651  0.5073  0.2349
 1991SOL     OW17431   2.697   2.709  10.419 -0.0693  0.5474 -0.1756
 1991SOL    HW117432   2.654   2.680  10.500 -1.5139  2.0489 -0.4312
 1991SOL    HW217433   2.788   2.691  10.443 -0.0701 -0.2799 -0.7877
 1992SOL     OW17434   2.052   1.674   2.689  0.1891 -0.4250 -0.3227
 1992SOL    HW117435   2.093   1.753   2.653 -1.6781 -0.2494 -2.0877
 1992SOL    HW217436   2.092   1.600   2.644  2.1948  1.2620 -1.2986
 1993SOL     OW17437   1.332   3.142   9.719  0.5006 -0.3225  0.0849
 1993SOL    HW117438   1.373   3.055   9.713 -1.6485 -1.2949 -0.4797
 1993SOL    HW217439   1.338   3.149   9.815 -2.4966  1.4179  0.1021
 1994SOL     OW17440   0.222   2.768  13.306 -0.1906  0.2787  0.0747
 1994SOL    HW117441   0.225   2.762  13.401 -2.8456 -0.1768  0.1206
 1994SOL    HW217442   0.315   2.754  13.285 -1.2080 -1.7790 -3.1258
 1995SOL     OW17443   3.234   1.048   1.813  0.0032  0.3264  0.0005
 1995SOL    HW117444   3.191   0.985   1.755  0.0614  0.0166  0.2919
 1995SOL    HW217445   3.309   1.056   1.754 -0.1025 -0.9748 -0.2971
 1996SOL     OW17446   3.458   0.290   8.946 -0.1791 -0.0668 -0.4811
 1996SOL    HW117447   3.458   0.385   8.954  1.0143 -0.0791 -0.3432
 1996SOL    HW217448   3.429   0.268   9.034 -0.9523 -1.4558 -1.0786
 1997SOL     OW17449   2.616   1.159   4.806 -0.0671 -0.0431  0.1908
 1997SOL    HW117450   2.522   1.146   4.803  0.0902 -1.2161  0.2232
 1997SOL    HW217451   2.626   1.244   4.849 -2.0506 -1.3726  3.2539
 1998SOL     OW17452   3.020   2.284  10.815 -0.1914  0.1710 -0.8249
 1998SOL    HW117453   3.079   2.303  10.888 -2.3410  0.8056  0.7606
 1998SOL    HW217454   2.988   2.195  10.831 -2.4087  1.1935  0.3340
 1999SOL     OW17455   0.847   0.124   8.698  0.7450  0.3014  0.0818
 1999SOL    HW117456   0.816   0.111   8.609  1.5476 -0.4404 -0.0855
 1999SOL    HW217457   0.921   0.182   8.681 -0.8128  1.9137 -1.1409
 2000SOL     OW17458   0.851   3.624   7.006 -0.5405 -0.3344  0.0487
 2000SOL    HW117459   0.773   3.665   7.044 -0.1597 -0.8252  1.3568
 2000SOL    HW217460   0.860   3.542   7.056  1.7480 -0.9209 -1.3308
 2001SOL     OW17461   1.553   4.680   7.126 -0.0599  0.1798  0.7693
 2001SOL    HW117462   1.465   4.698   7.157 -0.4760  1.0877 -0.9893
 2001SOL    HW217463   1.595   4.659   7.209  0.7778 -2.9387 -0.4204
 2002SOL     OW17464   1.866   3.804   2.737 -0.4272 -0.0969  0.5853
 2002SOL    HW117465   1.913   3.737   2.687  2.3094  1.7678  0.6845
 2002SOL    HW217466   1.787   3.802   2.682 -0.6998 -3.4502  1.0990
 2003SOL     OW17467   0.194   2.471   4.757 -0.0903  0.0300  0.5852
 2003SOL    HW117468   0.240   2.543   4.713 -1.0941  0.8530  0.8778
 2003SOL    HW217469   0.148   2.520   4.825 -1.4530  1.5466 -1.4433
 2004SOL     OW17470   2.325   3.430  11.906 -0.1109  0.2734  0.6240
 2004SOL    HW117471   2.295   3.357  11.852  1.0631 -1.7742  2.7333
 2004SOL    HW217472   2.276   3.410  11.986 -0.0830 -2.9556 -0.1587
 2005SOL     OW17473   2.664   2.399  16.749  0.2182 -0.1481 -0.4525
 2005SOL    HW117474   2.688   2.413  16.841 -0.4790  0.5849 -0.3911
 2005SOL    HW217475   2.658   2.492  16.727 -0.2406  0.0547  0.5182
 2006SOL     OW17476   2.689   2.263   7.761  0.1011 -0.0120  0.0056
 2006SOL    HW117477   2.757   2.330   7.766 -1.6742  1.8175 -0.3267
 2006SOL    HW217478   2.610   2.317   7.766 -0.1742 -0.3616 -0.4762
 2007SOL     OW17479   3.083   4.049   5.248  0.1354  0.0794 -0.6926
 2007SOL    HW117480   3.018   3.993   5.290  0.2289  0.6847  0.2683
 2007SOL    HW217481   3.058   4.135   5.283 -3.1462 -0.8113 -0.8911
 2008SOL     OW17482   0.866   3.757   6.481 -0.0186  0.3663 -0.4999
 2008SOL    HW117483   0.853   3.747   6.576 -0.5037  0.3640 -0.5663
 2008SOL    HW217484   0.859   3.667   6.452 -0.0121  0.2208 -0.0568
 2009SOL     OW17485   4.167   4.142   3.226 -0.4794 -0.0325  0.5423
 2009SOL    HW117486   4.085   4.120   3.272 -1.3585  0.2470 -0.8972
 2009SOL    HW217487   4.176   4.236   3.244  2.8920 -0.2620 -0.1306
 2010SOL     OW17488   1.490   0.539  16.699 -0.4982  0.5635  0.6252
 2010SOL    HW117489   1.571   0.575  16.735  0.9608 -2.1410  0.0056
 2010SOL    HW217490   1.458   0.616  16.652  0.9020  0.2640 -0.8098
 2011SOL     OW17491   3.353   1.306   0.017 -0.3634 -0.4962 -0.3401
 2011SOL    HW117492   3.309   1.221   0.022  0.5393 -0.9209  0.3784
 2011SOL    HW217493   3.414   1.309   0.090  0.4857  0.2055 -1.0742
 2012SOL     OW17494   2.853   1.086   2.156 -0.3621 -0.2453 -0.0125
 2012SOL    HW117495   2.762   1.056   2.161 -0.7423  0.7280 -0.9448
 2012SOL    HW217496   2.832   1.178   2.136  0.1924  0.0813  0.9297
 2013SOL     OW17497   0.579   4.219   3.677  0.1901  0.2478  0.4046
 2013SOL    HW117498   0.626   4.142   3.711  0.0013 -0.4767 -0.9648
 2013SOL    HW217499   0.608   4.292   3.731 -1.7420 -0.0508  1.8334
 2014SOL     OW17500   3.494   0.396   2.417 -0.7588  0.5703 -0.0401
 2014SOL    HW117501   3.535   0.399   2.504 -0.4911 -2.9654 -0.0580
 2014SOL    HW217502   3.467   0.304   2.414 -1.5057  0.7518  1.0004
 2015SOL     OW17503   0.940   2.363   1.005 -0.0034  0.1408 -0.1202
 2015SOL    HW117504   1.023   2.396   0.971  0.4690 -0.1612  0.7271
 2015SOL    HW217505   0.892   2.349   0.923 -0.3493  0.3202  0.0490
 2016SOL     OW17506   4.502   1.310   6.740  0.5159 -0.2791 -0.0761
 2016SOL    HW117507   4.447   1.237   6.768  1.7501 -1.7596 -1.4700
 2016SOL    HW217508   4.503   1.358   6.823  0.1368 -0.7030  0.1791
 2017SOL     OW17509   0.024   0.153   3.206 -0.5772  0.3525  0.7231
 2017SOL    HW117510   4.726   0.060   3.201  1.0852  0.0547 -1.6899
 2017SOL    HW217511   0.112   0.152   3.242 -1.3827  0.5754  2.7527
 2018SOL     OW17512   3.405   0.796   5.685 -0.7768  0.7756  0.3755
 2018SOL    HW117513   3.358   0.827   5.762 -1.4547 -0.5789  0.4965
 2018SOL    HW217514   3.369   0.709   5.674  0.7178  0.1363  0.5010
 2019SOL     OW17515   3.150   2.185   2.839  0.3329  0.2504 -0.5517
 2019SOL    HW117516   3.103   2.149   2.915 -0.2860  2.3176  0.0743
 2019SOL    HW217517   3.099   2.161   2.762  1.1732 -1.0474 -0.6966
 2020SOL     OW17518   2.104   2.200  14.699  0.3322  0.1406  0.3166
 2020SOL    HW117519   2.081   2.291  14.678 -0.1126  0.0970  0.5992
 2020SOL    HW217520   2.033   2.148  14.661  0.7813 -1.1691  1.2935
 2021SOL     OW17521   2.730   0.876   0.541 -0.8814 -0.4333 -0.5208
 2021SOL    HW117522   2.646   0.830   0.547 -1.2572  0.0543 -2.0121
 2021SOL    HW217523   2.772   0.802   0.498  0.9924  0.8263 -0.8768
 2022SOL     OW17524   4.654   3.367   8.169 -0.1255 -0.0870 -0.6154
 2022SOL    HW117525   4.620   3.282   8.142  0.5383 -0.0791 -1.4551
 2022SOL    HW217526   4.678   3.406   8.085 -0.5793 -1.9138 -1.5891
 2023SOL     OW17527   3.746   0.467   6.321 -0.4018  0.5638  0.7512
 2023SOL    HW117528   3.736   0.518   6.240  1.0204 -2.1054 -1.0888
 2023SOL    HW217529   3.835   0.434   6.313 -0.8236 -0.2517 -0.5404
 2024SOL     OW17530   1.997   1.948  10.202 -0.0739  0.4366 -0.1288
 2024SOL    HW117531   1.953   1.989  10.276 -1.4891  0.4403 -0.9760
 2024SOL    HW217532   1.922   1.917  10.152 -0.2441  1.4560 -0.5088
 2025SOL     OW17533   2.743   0.007   9.071  0.4056  0.3546  0.2410
 2025SOL    HW117534   2.678   0.054   9.124 -1.7307 -3.0423  0.5930
 2025SOL    HW217535   2.752   4.653   9.122 -0.0777  0.2008  0.0787
 2026SOL     OW17536   2.846   2.710   7.803 -0.0118 -0.2456 -0.6054
 2026SOL    HW117537   2.751   2.718   7.801 -0.1184 -0.4674  2.7225
 2026SOL    HW217538   2.878   2.784   7.855  1.5032 -1.4673  0.2254
 2027SOL     OW17539   2.646   1.497   4.099 -0.2772  0.1084 -0.0055
 2027SOL    HW117540   2.718   1.465   4.045 -1.6561  0.0421 -1.7939
 2027SOL    HW217541   2.693   1.531   4.176  0.9054  0.5357 -0.9149
 2028SOL     OW17542   1.513   1.787  16.117  0.4825 -0.5534  0.3791
 2028SOL    HW117543   1.581   1.852  16.102 -1.1565  0.2887 -3.3994
 2028SOL    HW217544   1.443   1.820  16.060  0.3670  1.5440  1.7068
 2029SOL     OW17545   1.006   2.050  10.481  0.1362  0.0066 -0.2147
 2029SOL    HW117546   0.941   2.119  10.493  2.1304  1.7370  0.5147
 2029SOL    HW217547   1.047   2.059  10.567  2.1062 -1.5043 -1.0073
 2030SOL     OW17548   1.886   4.131   3.305  0.1628 -0.2416  0.4197
 2030SOL    HW117549   1.927   4.186   3.237 -0.8765  0.1856  0.1493
 2030SOL    HW217550   1.903   4.046   3.265 -3.2302 -0.7818  0.1567
 2031SOL     OW17551   4.541   3.434   4.777  0.5546 -0.6522  0.6704
 2031SOL    HW117552   4.525   3.395   4.862  1.5401 -0.3790  0.9857
 2031SOL    HW217553   4.491   3.376   4.720  0.8751 -0.4797  0.2140
 2032SOL     OW17554   4.539   3.443   6.888  0.3461 -0.7828 -0.3382
 2032SOL    HW117555   4.562   3.536   6.879  1.3849 -0.9761  0.3541
 2032SOL    HW217556   4.457   3.426   6.841 -0.0044 -1.4202  0.5187
 2033SOL     OW17557   4.082   1.896   2.336 -0.4198  0.1156  0.4116
 2033SOL    HW117558   4.176   1.902   2.314 -1.2732  3.7712 -2.1642
 2033SOL    HW217559   4.088   1.825   2.400 -0.1929 -0.2968 -0.0537
 2034SOL     OW17560   2.229   3.855  11.617  0.2474  0.6355 -0.2165
 2034SOL    HW117561   2.294   3.820  11.555 -0.6106 -2.3450  0.5712
 2034SOL    HW217562   2.154   3.810  11.580 -1.2313  0.3734  3.0706
 2035SOL     OW17563   1.905   0.938   5.443  0.0218 -0.1332 -0.1294
 2035SOL    HW117564   1.958   0.954   5.520  1.9937 -0.6598 -1.3632
 2035SOL    HW217565   1.936   0.848   5.432 -0.8278 -0.4699  0.1634
 2036SOL     OW17566   1.235   1.021  10.848  0.2541 -0.5830 -0.1514
 2036SOL    HW117567   1.288   1.008  10.769 -2.0775 -1.6070 -1.5322
 2036SOL    HW217568   1.153   0.978  10.825  0.3331 -0.8358  0.0289
 2037SOL     OW17569   4.122   3.251   5.570  0.5245  0.1798  0.7121
 2037SOL    HW117570   4.074   3.262   5.488 -1.1268  0.0452  1.6662
 2037SOL    HW217571   4.193   3.191   5.546  1.7795  1.8941  0.1255
 2038SOL     OW17572   3.037   4.492   8.888  0.3060 -0.2117  0.4736
 2038SOL    HW117573   3.118   4.445   8.909  1.7012  1.6880 -0.6288
 2038SOL    HW217574   2.993   4.464   8.968 -0.3683 -2.2811 -0.6229
 2039SOL     OW17575   2.748   0.066   0.096 -0.0930  0.2381  0.1253
 2039SOL    HW117576   2.705   0.016   0.166 -1.0302 -0.3809 -0.8809
 2039SOL    HW217577   2.838   0.071   0.126 -0.7612  0.4550  2.0703
 2040SOL     OW17578   4.384   3.953   4.085  0.2118 -0.2933  0.1315
 2040SOL    HW117579   4.424   3.870   4.114  1.4849  0.2762  0.0205
 2040SOL    HW217580   4.333   3.972   4.163  0.6324 -0.6979  0.5070
 2041SOL     OW17581   2.808   2.671  11.559 -0.4367  0.0660 -0.0711
 2041SOL    HW117582   2.880   2.616  11.591  0.1166  1.6989  1.4638
 2041SOL    HW217583   2.786   2.711  11.643  2.8749 -2.5371  1.9990
 2042SOL     OW17584   1.257   1.159   1.163 -0.1163  0.3210  0.2591
 2042SOL    HW117585   1.208   1.189   1.087  1.1018  0.3705 -0.5112
 2042SOL    HW217586   1.316   1.098   1.118 -1.1484 -0.7910  0.4152
 2043SOL     OW17587   2.766   2.730   1.552 -0.4813 -0.1298  0.5426
 2043SOL    HW117588   2.824   2.799   1.518 -0.2114 -0.3619  0.5336
 2043SOL    HW217589   2.732   2.705   1.467  0.4611  0.1921  0.0691
 2044SOL     OW17590   0.507   0.121   4.179  0.3285 -0.2727 -0.4249
 2044SOL    HW117591   0.426   0.072   4.165 -1.2795  1.7495  1.7948
 2044SOL    HW217592   0.497   0.173   4.259  1.9173 -0.9009  0.1658
 2045SOL     OW17593   1.440   2.020   0.890 -0.4260  0.9685 -0.5033
 2045SOL    HW117594   1.523   1.976   0.872 -0.7585  0.5552 -1.0099
 2045SOL    HW217595   1.404   1.940   0.929 -0.3343  1.2721  0.2076
 2046SOL     OW17596   4.690   3.900   7.216 -0.6170 -0.2118  0.1360
 2046SOL    HW117597   4.672   3.916   7.123 -0.1598 -1.4900 -0.1757
 2046SOL    HW217598   4.599   3.903   7.244 -1.6040  0.9416 -3.1449
 2047SOL     OW17599   2.250   2.966   1.723  0.5467 -0.5456 -0.1099
 2047SOL    HW117600   2.300   2.889   1.698 -1.2390 -1.7819  0.1083
 2047SOL    HW217601   2.194   2.957   1.646  2.8526 -3.1022 -1.4999
 2048SOL     OW17602   3.331   3.842   7.318  0.1619  0.1698  0.1166
 2048SOL    HW117603   3.424   3.824   7.303 -0.4093 -0.5489 -2.4189
 2048SOL    HW217604   3.297   3.804   7.237  2.5503 -0.2031 -0.7295
 2049SOL     OW17605   4.545   2.748   4.897  0.3512 -0.3685  0.4729
 2049SOL    HW117606   4.555   2.827   4.949 -1.4755 -0.6324  1.2436
 2049SOL    HW217607   4.567   2.789   4.813 -1.6851 -1.0448 -0.3909
 2050SOL     OW17608   2.808   1.519  15.174  0.4061  0.1860 -0.2372
 2050SOL    HW117609   2.769   1.589  15.121 -0.3298 -0.3566 -0.4181
 2050SOL    HW217610   2.856   1.573  15.237  0.9321  0.8691 -1.2180
 2051SOL     OW17611   3.967   2.308  13.066 -0.0019  0.3645 -0.7500
 2051SOL    HW117612   3.899   2.367  13.035  0.1407 -0.1955 -2.1053
 2051SOL    HW217613   4.034   2.374  13.085  1.0275 -0.8333 -0.1774
 2052SOL     OW17614   0.352   3.331   3.529  0.2509 -0.0804 -0.0300
 2052SOL    HW117615   0.394   3.399   3.476 -0.1552  1.7131  1.9580
 2052SOL    HW217616   0.330   3.275   3.454 -0.4947  1.0064 -0.6288
 2053SOL     OW17617   1.609   0.631   4.428  0.1107  0.0065  0.6390
 2053SOL    HW117618   1.566   0.604   4.509 -0.6862 -1.3414 -0.2163
 2053SOL    HW217619   1.605   0.726   4.432 -1.1529 -0.0095 -0.1734
 2054SOL     OW17620   2.362   0.693  12.308 -0.0309  0.5431  0.5031
 2054SOL    HW117621   2.270   0.672  12.324  0.4457 -1.5824  0.5005
 2054SOL    HW217622   2.399   0.635  12.374  2.9689  3.0610  1.0048
 2055SOL     OW17623   1.863   4.199   5.173 -0.1568  0.2388 -0.5502
 2055SOL    HW117624   1.847   4.107   5.195  0.6535  0.5260  1.1495
 2055SOL    HW217625   1.900   4.234   5.253  1.2166 -2.4512 -0.0194
 2056SOL     OW17626   3.869   1.834   8.833  0.1825  0.0682  0.0634
 2056SOL    HW117627   3.921   1.895   8.885  0.0601  0.1470  0.0948
 2056SOL    HW217628   3.792   1.811   8.885  1.5269 -1.5808  1.3308
 2057SOL     OW17629   0.515   1.350   4.194  0.3754 -0.0360 -0.5092
 2057SOL    HW117630   0.558   1.294   4.129  0.6367  0.8318 -1.0823
 2057SOL    HW217631   0.589   1.395   4.235 -2.1025  2.6256  1.0572
 2058SOL     OW17632   2.988   4.394   9.164 -0.1115 -0.1891 -0.8324
 2058SOL    HW117633   3.004   4.305   9.132 -2.4734 -0.3060 -1.6707
 2058SOL    HW217634   2.916   4.379   9.226  0.1126 -2.3375 -1.0766
 2059SOL     OW17635   3.602   2.296   1.818 -0.2348 -0.0383  0.4511
 2059SOL    HW117636   3.675   2.357   1.829 -0.8527  1.0526 -1.3766
 2059SOL    HW217637   3.522   2.347   1.831 -0.8012 -0.5316 -1.0659
 2060SOL     OW17638   0.439   1.497   5.607 -0.1882 -0.0866 -0.2974
 2060SOL    HW117639   0.359   1.445   5.608  0.1171 -0.5017  3.6083
 2060SOL    HW217640   0.469   1.487   5.697  0.1787  2.4257 -0.1212
 2061SOL     OW17641   3.396   0.490   7.583 -0.0485 -0.1852 -0.0155
 2061SOL    HW117642   3.480   0.463   7.620  0.9206  1.7775 -0.7959
 2061SOL    HW217643   3.408   0.474   7.489  2.3456 -0.1005  0.2849
 2062SOL     OW17644   3.651   2.038  11.579  0.3894  0.3596  0.4400
 2062SOL    HW117645   3.736   2.022  11.620  0.4459 -2.3263 -0.7369
 2062SOL    HW217646   3.671   2.062  11.489 -5.0682  2.0562 -0.3247
 2063SOL     OW17647   1.621   2.081   8.659  0.7030  0.3115 -0.0546
 2063SOL    HW117648   1.715   2.068   8.673  0.7013 -1.0432 -1.3190
 2063SOL    HW217649   1.625   2.126   8.575 -2.3205  2.1865  0.8187
 2064SOL     OW17650   2.970   4.007   6.666  0.0873 -0.0997  0.0970
 2064SOL    HW117651   2.921   4.086   6.689 -0.2117  0.2942 -1.8849
 2064SOL    HW217652   2.912   3.940   6.631 -1.5898  0.0332  2.6607
 2065SOL     OW17653   4.502   2.310   1.097 -0.1502 -0.0772  0.3399
 2065SOL    HW117654   4.467   2.281   1.182 -0.2022  3.1319  1.4035
 2065SOL    HW217655   4.447   2.256   1.039  0.9043  0.0639 -0.7713
 2066SOL     OW17656   4.506   2.792   1.380 -0.5741  0.9789  0.6460
 2066SOL    HW117657   4.553   2.762   1.458 -0.4811  0.5804  0.4362
 2066SOL    HW217658   4.571   2.764   1.316 -1.9262  0.1572 -0.3669
 2067SOL     OW17659   2.419   0.549   4.906 -0.4443  0.1647 -0.3444
 2067SOL    HW117660   2.348   0.503   4.949 -1.0466  1.5248  0.1037
 2067SOL    HW217661   2.418   0.637   4.943 -0.9262 -0.5867  1.4268
 2068SOL     OW17662   1.145   2.421   8.209 -0.0160  0.1064 -0.1765
 2068SOL    HW117663   1.194   2.467   8.141  0.2345 -0.3727 -0.3218
 2068SOL    HW217664   1.176   2.331   8.201  0.2086  0.1447  0.2492
 2069SOL     OW17665   3.827   0.102   7.140  0.0526  0.1364 -0.1028
 2069SOL    HW117666   3.914   0.076   7.110 -0.1456  0.5479 -1.0483
 2069SOL    HW217667   3.802   0.017   7.177  1.8523 -0.1731  0.3734
 2070SOL     OW17668   3.637   2.377   6.318 -0.3909  0.1530 -0.1046
 2070SOL    HW117669   3.638   2.325   6.238  0.1195 -0.1757  0.1072
 2070SOL    HW217670   3.729   2.401   6.332 -0.2674  0.5546 -1.6606
 2071SOL     OW17671   1.869   2.099  14.489 -0.1802  0.0873  0.1294
 2071SOL    HW117672   1.882   2.014  14.447 -3.6609  0.5941 -1.9417
 2071SOL    HW217673   1.829   2.159  14.425  0.3109 -0.4800 -0.7074
 2072SOL     OW17674   0.628   2.463  14.747  0.3971 -0.1813 -0.2911
 2072SOL    HW117675   0.702   2.464  14.686 -0.1415 -4.4011 -1.0066
 2072SOL    HW217676   0.682   2.477  14.825  0.4714  1.2697 -0.6004
 2073SOL     OW17677   4.059   1.962   9.003 -0.5739  0.4358 -0.4711
 2073SOL    HW117678   4.144   1.930   8.972 -0.6371 -1.6888  1.5523
 2073SOL    HW217679   4.076   2.054   9.019 -0.0291  0.1979  0.3116
 2074SOL     OW17680   1.127   2.845  11.624 -0.1017 -0.6356  0.1152
 2074SOL    HW117681   1.197   2.823  11.685 -0.7128 -2.3692  0.2046
 2074SOL    HW217682   1.055   2.852  11.687  0.1430  3.2175 -0.0374
 2075SOL     OW17683   0.383   3.451  16.825  0.0036  0.2938  0.0960
 2075SOL    HW117684   0.319   3.425  16.759  1.4096  0.2591 -1.2592
 2075SOL    HW217685   0.342   3.520  16.876 -0.7040  0.9711 -1.3950
 2076SOL     OW17686   0.304   0.251   6.074  0.1711  0.1387 -0.6691
 2076SOL    HW117687   0.220   0.221   6.041  0.4151  0.0003 -1.1669
 2076SOL    HW217688   0.324   0.177   6.131  0.1704  0.4446 -0.2663
 2077SOL     OW17689   2.397   3.591   7.137  0.2387  0.4594  0.2857
 2077SOL    HW117690   2.407   3.596   7.042 -1.5946 -3.1783 -0.1100
 2077SOL    HW217691   2.336   3.662   7.156 -1.1745 -0.0051 -2.5164
 2078SOL     OW17692   1.401   3.332   8.334 -0.1940  0.4721  0.0501
 2078SOL    HW117693   1.494   3.346   8.317  0.0996  0.8619  1.9786
 2078SOL    HW217694   1.358   3.384   8.266 -1.3878 -1.0588 -0.3737
 2079SOL     OW17695   0.661   0.829   7.186  0.2585  0.0702 -0.2979
 2079SOL    HW117696   0.652   0.898   7.252 -1.2279 -0.7122  0.3293
 2079SOL    HW217697   0.733   0.775   7.219  2.0944  1.5319 -1.9230
 2080SOL     OW17698   2.883   3.993  11.082 -0.2747  0.0656 -0.4593
 2080SOL    HW117699   2.863   4.085  11.065  0.6745  0.7510  2.0777
 2080SOL    HW217700   2.936   3.969  11.006  0.5824 -0.0095  0.1570
 2081SOL     OW17701   3.491   3.635   6.861 -0.4404  0.2116 -0.1344
 2081SOL    HW117702   3.448   3.659   6.779 -0.7524 -0.3455 -0.1330
 2081SOL    HW217703   3.471   3.543   6.876 -0.1181  0.1503 -0.0804
 2082SOL     OW17704   3.114   2.340   2.117 -0.0216  0.6574 -0.1147
 2082SOL    HW117705   3.096   2.260   2.068  0.3634  1.5652 -1.7342
 2082SOL    HW217706   3.072   2.399   2.054  1.2489  1.8500  0.1387
 2083SOL     OW17707   2.824   3.324   7.189 -0.2246  0.0255 -0.3639
 2083SOL    HW117708   2.820   3.243   7.239  0.9495 -0.0526 -0.4018
 2083SOL    HW217709   2.858   3.294   7.105 -1.0210  0.7377 -0.9475
 2084SOL     OW17710   3.932   3.363   3.497  0.4443 -0.1771  0.3704
 2084SOL    HW117711   4.020   3.396   3.480  0.3805 -0.4267 -0.4203
 2084SOL    HW217712   3.886   3.431   3.546 -0.5879 -0.4818 -0.1769
 2085SOL     OW17713   0.272   3.879  10.023 -0.4397  0.2973 -0.0358
 2085SOL    HW117714   0.296   3.901  10.113  3.2501 -1.5592 -0.5950
 2085SOL    HW217715   0.249   3.964   9.987 -1.6641  0.7757  1.8937
 2086SOL     OW17716   0.537   3.930   5.383  0.2823 -0.0796  0.2707
 2086SOL    HW117717   0.507   3.942   5.293  0.2560  2.3338  0.6034
 2086SOL    HW217718   0.633   3.933   5.385  0.2660  0.4112  0.4671
 2087SOL     OW17719   3.897   4.012  16.182  0.2040 -0.1006 -0.5887
 2087SOL    HW117720   3.862   4.082  16.237 -0.5652  0.3722 -1.6857
 2087SOL    HW217721   3.957   3.978  16.248  0.5777  1.6633 -0.0192
 2088SOL     OW17722   1.733   0.856   6.782  0.6789 -0.5952 -0.1143
 2088SOL    HW117723   1.790   0.923   6.745  1.1587 -0.6036  0.6164
 2088SOL    HW217724   1.735   0.886   6.872 -2.3533  1.4347 -0.7308
 2089SOL     OW17725   1.739   1.384  11.318  0.1447 -0.3042 -0.5052
 2089SOL    HW117726   1.688   1.433  11.253 -0.6322  0.0694  0.3799
 2089SOL    HW217727   1.685   1.402  11.395  0.7320  1.3702 -0.4931
 2090SOL     OW17728   1.463   0.320  11.404  0.2537  0.3073  0.5760
 2090SOL    HW117729   1.450   0.369  11.323  0.7244  0.9125  0.8657
 2090SOL    HW217730   1.558   0.323  11.412  0.3585  2.0547 -1.3616
 2091SOL     OW17731   0.615   1.170   3.370 -0.2882 -0.2761  0.4906
 2091SOL    HW117732   0.647   1.184   3.281  4.6116 -1.9226  1.9972
 2091SOL    HW217733   0.693   1.180   3.424 -1.3927  0.3040  1.9961
 2092SOL     OW17734   0.111   3.151   3.352  0.1402 -0.0890  0.5512
 2092SOL    HW117735   0.067   3.173   3.434 -0.5733 -2.1685  0.7393
 2092SOL    HW217736   0.042   3.103   3.308  1.8405 -0.4194 -1.7495
 2093SOL     OW17737   3.277   3.152   5.499 -0.0043 -0.1235  0.0459
 2093SOL    HW117738   3.356   3.108   5.532  0.4568  1.1140  0.6174
 2093SOL    HW217739   3.208   3.095   5.532 -0.6624 -0.1359 -1.3590
 2094SOL     OW17740   0.237   0.227  11.322  0.2669  0.0606  0.3359
 2094SOL    HW117741   0.150   0.216  11.360  0.2183 -1.7552 -0.2757
 2094SOL    HW217742   0.262   0.135  11.311  2.3236  0.6286  0.3242
 2095SOL     OW17743   0.072   2.038   9.608  0.0784 -0.4633 -0.3529
 2095SOL    HW117744   0.141   2.076   9.662 -2.0528  1.0001  1.3571
 2095SOL    HW217745   0.049   2.104   9.542 -0.5924 -1.1532 -0.8057
 2096SOL     OW17746   2.410   1.242   1.620 -0.3646 -0.0311  0.3337
 2096SOL    HW117747   2.504   1.229   1.616 -0.3295 -0.1433  1.4961
 2096SOL    HW217748   2.381   1.247   1.529 -1.8088 -0.1206  0.7903
 2097SOL     OW17749   2.652   4.152   7.830 -0.0491 -0.0530 -0.1608
 2097SOL    HW117750   2.602   4.226   7.795 -3.1389 -2.3458 -0.6003
 2097SOL    HW217751   2.704   4.200   7.895 -0.2787  1.0140 -0.7593
 2098SOL     OW17752   3.873   2.726  11.643 -0.1413  0.1057 -0.5612
 2098SOL    HW117753   3.863   2.803  11.586  0.6582  1.0900  0.6164
 2098SOL    HW217754   3.967   2.709  11.642 -0.3104 -0.8376 -0.3586
 2099SOL     OW17755   0.970   1.445   2.983  0.3636  0.5409  0.6954
 2099SOL    HW117756   0.975   1.384   2.909  1.6970  1.7020 -0.1586
 2099SOL    HW217757   0.889   1.491   2.962  0.4174 -0.0463 -0.8048
 2100SOL     OW17758   2.195   3.292   6.069  0.3155  0.2452 -0.0014
 2100SOL    HW117759   2.235   3.206   6.079  2.6329  0.9998 -2.6825
 2100SOL    HW217760   2.255   3.338   6.129 -0.6156 -2.9146  3.3222
 2101SOL     OW17761   0.884   0.562  10.973 -0.2622 -0.0842  0.3866
 2101SOL    HW117762   0.834   0.495  10.926  1.2135  0.3744 -1.7954
 2101SOL    HW217763   0.966   0.551  10.926 -1.6531 -1.1002 -1.7910
 2102SOL     OW17764   1.385   1.191   2.514 -0.1044 -0.0410  0.0421
 2102SOL    HW117765   1.386   1.212   2.421  2.5494 -1.8494 -0.3154
 2102SOL    HW217766   1.306   1.239   2.539 -0.0860 -0.0772  0.1732
 2103SOL     OW17767   0.189   2.204   6.364 -0.9585  0.3433  0.1892
 2103SOL    HW117768   0.155   2.124   6.324  0.0137  1.7389 -3.3884
 2103SOL    HW217769   0.141   2.200   6.447 -0.5377 -1.1957  0.3457
 2104SOL     OW17770   2.310   2.909   7.475 -0.5945 -0.0163 -0.4986
 2104SOL    HW117771   2.324   2.965   7.398  1.6485 -0.7137 -0.5944
 2104SOL    HW217772   2.394   2.865   7.463 -0.4218  0.2459 -0.2553
 2105SOL     OW17773   4.638   1.062   6.004 -0.2430 -0.1758  0.2287
 2105SOL    HW117774   4.543   1.072   6.008 -0.5249 -2.2504 -1.2382
 2105SOL    HW217775   4.659   1.001   6.075  3.1782  3.3229  2.1878
 2106SOL     OW17776   3.982   1.630  14.152 -0.3758  0.0505 -0.2065
 2106SOL    HW117777   4.041   1.555  14.139  0.5301  0.4549  1.5886
 2106SOL    HW217778   4.024   1.701  14.104  0.4567  0.6013  1.3661
 2107SOL     OW17779   2.971   0.792  15.103 -0.1271 -0.6585  0.2692
 2107SOL    HW117780   2.932   0.780  15.190  0.5872  0.7635  0.7701
 2107SOL    HW217781   2.982   0.887  15.104 -1.4644 -0.4967 -0.6834
 2108SOL     OW17782   3.643   0.767   7.390 -0.3665  0.5531 -0.0492
 2108SOL    HW117783   3.708   0.832   7.416 -2.0961  1.5004  1.8745
 2108SOL    HW217784   3.685   0.684   7.413 -1.3818  0.4010  1.2440
 2109SOL     OW17785   1.317   0.629   3.944  0.2909  0.1464 -0.1199
 2109SOL    HW117786   1.368   0.686   4.001  0.1938 -0.6826  0.7837
 2109SOL    HW217787   1.240   0.685   3.938 -0.1244 -0.4663 -0.6054
 2110SOL     OW17788   4.152   2.701  11.848  0.1545 -0.4208 -0.3398
 2110SOL    HW117789   4.083   2.634  11.855 -1.9143  1.9903  2.2425
 2110SOL    HW217790   4.189   2.694  11.936 -1.1882 -0.3610  0.2284
 2111SOL     OW17791   1.310   1.076   6.792 -0.1321 -0.3300 -0.5344
 2111SOL    HW117792   1.233   1.131   6.781 -0.1148 -0.4206 -1.1030
 2111SOL    HW217793   1.298   1.042   6.881 -0.8492  2.3023  0.3668
 2112SOL     OW17794   4.331   0.425   6.534 -0.1229 -0.0441 -1.0544
 2112SOL    HW117795   4.277   0.402   6.458 -1.8767  1.9969 -0.4191
 2112SOL    HW217796   4.262   0.459   6.591  1.7564 -0.7723  1.6444
 2113SOL     OW17797   0.231   0.790   3.128  0.1592 -0.1695  0.1586
 2113SOL    HW117798   0.175   0.866   3.114  0.4995  0.4149  2.0678
 2113SOL    HW217799   0.305   0.833   3.170 -0.5006 -0.3074  1.4437
 2114SOL     OW17800   0.837   1.665   0.117  0.1991 -0.4419  0.2368
 2114SOL    HW117801   0.888   1.745   0.132  1.3164 -0.8952 -1.0826
 2114SOL    HW217802   0.754   1.690   0.156  0.8268  1.2306  0.4989
 2115SOL     OW17803   1.036   2.857  16.906  0.3325  0.0337 -1.0204
 2115SOL    HW117804   0.949   2.895  16.892  0.3087 -0.0647 -1.1340
 2115SOL    HW217805   1.089   2.907  16.968  0.2892 -0.4621 -0.5831
 2116SOL     OW17806   4.124   1.622   3.341 -0.0721 -0.2646 -0.0694
 2116SOL    HW117807   4.136   1.697   3.283  0.5376 -0.5362 -0.2930
 2116SOL    HW217808   4.120   1.668   3.425  1.3002  0.3599 -0.3462
 2117SOL     OW17809   0.977   1.514  10.678 -0.4579 -0.6026  0.5218
 2117SOL    HW117810   1.062   1.472  10.677  1.1611  2.6237  1.5065
 2117SOL    HW217811   1.001   1.598  10.718  0.1232  0.6716 -2.4122
 2118SOL     OW17812   2.185   2.023   0.022  0.0056 -0.1797 -0.7026
 2118SOL    HW117813   2.138   2.042   0.104 -0.6226  1.2798 -1.3982
 2118SOL    HW217814   2.277   2.016   0.044 -0.0924  0.0767 -0.2099
 2119SOL     OW17815   3.395   0.195   2.634  0.6543 -0.3776  0.5734
 2119SOL    HW117816   3.365   0.280   2.666  1.8914  1.1876 -2.4076
 2119SOL    HW217817   3.373   0.141   2.710  1.6466 -0.4259  0.8202
 2120SOL     OW17818   3.051   4.720   3.855 -0.1981  0.2091  0.0735
 2120SOL    HW117819   3.109   4.672   3.795 -2.2403 -0.8469 -1.0523
 2120SOL    HW217820   3.018   0.064   3.799 -0.5677  0.7864  1.0274
 2121SOL     OW17821   4.536   1.150   3.868  0.3178  0.2440  0.2174
 2121SOL    HW117822   4.617   1.191   3.838 -0.0206  0.6494 -0.1362
 2121SOL    HW217823   4.515   1.218   3.932  2.6433  0.4290  0.8071
 2122SOL     OW17824   3.881   3.969   8.266 -0.0705  0.3959  0.2922
 2122SOL    HW117825   3.955   3.909   8.275 -1.1593 -1.2296 -1.6077
 2122SOL    HW217826   3.848   3.952   8.355 -1.2061  0.3740 -0.1284
 2123SOL     OW17827   4.683   3.290  10.064 -0.0788  0.0807 -0.0206
 2123SOL    HW117828   4.596   3.285  10.103 -0.7602  0.4190 -1.4912
 2123SOL    HW217829   0.007   3.337  10.130  0.7566  0.5659 -1.0001
 2124SOL     OW17830   0.667   4.551   1.429 -0.5738 -0.3790  0.3512
 2124SOL    HW117831   0.627   4.531   1.344  0.4688  0.5156 -0.3461
 2124SOL    HW217832   0.671   4.644   1.406 -1.7910 -0.4922 -0.3553
 2125SOL     OW17833   1.014   0.348   6.786 -0.2927  0.0951 -0.5032
 2125SOL    HW117834   1.026   0.319   6.696 -0.5224  0.4638 -0.6510
 2125SOL    HW217835   1.063   0.430   6.794 -1.6292  0.9346 -1.0860
 2126SOL     OW17836   3.555   3.420   2.926  0.1424  0.3762 -0.8786
 2126SOL    HW117837   3.603   3.424   3.008 -1.2891  0.3606 -0.0378
 2126SOL    HW217838   3.576   3.507   2.892 -0.9023  0.4324 -1.3816
 2127SOL     OW17839   3.115   0.071   9.648  0.0338 -0.0935 -0.1380
 2127SOL    HW117840   3.053   0.038   9.712  0.1306 -2.3285 -1.2238
 2127SOL    HW217841   3.080   0.158   9.629 -1.3098  0.0556  3.1077
 2128SOL     OW17842   3.651   0.687  10.814  0.6301  0.1064  0.0177
 2128SOL    HW117843   3.561   0.707  10.837  0.5531  3.7681 -3.4142
 2128SOL    HW217844   3.658   0.727  10.727 -0.2716 -1.5885 -0.8296
 2129SOL     OW17845   3.592   2.885  14.170  0.2356 -0.0020  0.0920
 2129SOL    HW117846   3.675   2.931  14.187 -0.4240  1.6405 -1.2120
 2129SOL    HW217847   3.532   2.958  14.158 -0.3032 -0.2407  1.3155
 2130SOL     OW17848   3.924   4.210   7.456  0.1778 -0.4158 -0.7224
 2130SOL    HW117849   3.844   4.256   7.482  0.4412 -0.4034  0.0543
 2130SOL    HW217850   3.939   4.248   7.369  0.0185  1.9426  0.2869
 2131SOL     OW17851   0.293   4.507   2.982 -0.1238 -0.6861 -0.1712
 2131SOL    HW117852   0.255   4.594   2.997 -1.0916 -0.8305 -1.7731
 2131SOL    HW217853   0.234   4.448   3.028 -1.5262  0.9985  0.2142
 2132SOL     OW17854   4.097   0.343  17.144  0.0646  0.4138  0.6976
 2132SOL    HW117855   4.086   0.329  17.238 -1.1499  1.2706  0.6790
 2132SOL    HW217856   4.031   0.284  17.109 -0.2325 -0.8750  3.4430
 2133SOL     OW17857   0.400   4.478   3.457  0.3114  0.1207 -0.0967
 2133SOL    HW117858   0.351   4.443   3.382  2.9382  1.0711 -2.2427
 2133SOL    HW217859   0.483   4.500   3.416  1.2807  2.7691  3.4036
 2134SOL     OW17860   3.653   0.421   3.370 -0.9863 -0.1838  0.0505
 2134SOL    HW117861   3.663   0.499   3.317  0.2983 -0.5009 -0.1691
 2134SOL    HW217862   3.625   0.366   3.297 -0.8254 -0.1701 -0.0202
 2135SOL     OW17863   2.841   1.947   7.989  0.2348  0.5788 -0.3386
 2135SOL    HW117864   2.909   1.961   7.923  0.1180 -1.1331 -0.8317
 2135SOL    HW217865   2.847   2.020   8.051 -2.8016 -1.6559  2.6045
 2136SOL     OW17866   3.980   4.546   3.189  0.0126 -0.4172  0.4711
 2136SOL    HW117867   3.934   4.464   3.170 -1.0891  0.9908 -3.0322
 2136SOL    HW217868   4.050   4.512   3.244  1.6715  2.4967  0.1411
 2137SOL     OW17869   0.248   2.478   0.602 -0.3757 -0.5325  0.4372
 2137SOL    HW117870   0.321   2.515   0.552 -2.5464  1.8893 -1.0146
 2137SOL    HW217871   0.283   2.391   0.618  1.7888  0.8495  3.1020
 2138SOL     OW17872   4.295   4.409   7.830 -0.1655 -0.4302  0.8688
 2138SOL    HW117873   4.206   4.445   7.829 -0.2213 -0.6439 -0.9849
 2138SOL    HW217874   4.322   4.389   7.741 -0.2793 -2.6957  1.3616
 2139SOL     OW17875   0.802   2.768   3.902  0.3052 -0.6872 -0.4115
 2139SOL    HW117876   0.737   2.805   3.841  0.4598 -0.7349 -0.6055
 2139SOL    HW217877   0.838   2.698   3.848 -1.5560 -0.9685 -1.2934
 2140SOL     OW17878   0.022   4.461   5.506 -0.2929  0.4632  0.0912
 2140SOL    HW117879   4.711   4.374   5.491  1.3385 -0.2182 -0.0274
 2140SOL    HW217880   0.095   4.433   5.561 -1.3548  0.3218  1.4140
 2141SOL     OW17881   3.081   3.062  13.843 -0.4607  0.3055  0.1243
 2141SOL    HW117882   3.076   3.157  13.854  0.0231  0.2643  0.6910
 2141SOL    HW217883   3.161   3.040  13.890 -0.8726 -2.5985 -0.5242
 2142SOL     OW17884   4.218   0.924   1.675  0.1091  0.0679  0.0449
 2142SOL    HW117885   4.257   0.838   1.660 -0.9281 -0.7451  1.9398
 2142SOL    HW217886   4.236   0.940   1.768  0.4099  1.4544 -0.2455
 2143SOL     OW17887   0.991   4.519  15.815 -0.0211 -0.8107  0.8199
 2143SOL    HW117888   1.069   4.486  15.772  0.0887 -0.4444  0.7401
 2143SOL    HW217889   0.931   4.445  15.823  0.2269 -0.9094  1.7550
 2144SOL     OW17890   4.125   0.409   7.403  0.5560  1.0428 -0.0353
 2144SOL    HW117891   4.125   0.477   7.471  1.4806  0.8181  0.1936
 2144SOL    HW217892   4.190   0.351   7.444  0.0297 -0.5401 -1.4623
 2145SOL     OW17893   2.761   1.744   6.532 -0.4878 -0.1662 -0.0626
 2145SOL    HW117894   2.678   1.788   6.551 -1.6002 -2.2708 -0.0150
 2145SOL    HW217895   2.789   1.721   6.621 -0.0961 -0.4940 -0.2697
 2146SOL     OW17896   4.332   1.207   9.884  0.6240  0.0229 -0.0821
 2146SOL    HW117897   4.270   1.275   9.910 -0.1492 -1.3049  1.5129
 2146SOL    HW217898   4.273   1.135   9.863 -0.9317  0.8155  1.5573
 2147SOL     OW17899   3.144   2.724  13.585  0.4895  0.3106  0.3707
 2147SOL    HW117900   3.068   2.677  13.618  0.6835  0.1566  0.6014
 2147SOL    HW217901   3.119   2.816  13.577  0.8672  0.2187 -1.9411
 2148SOL     OW17902   3.697   1.768   6.125  0.2475  0.1580  0.4558
 2148SOL    HW117903   3.650   1.743   6.205 -1.8909 -0.0095 -0.8520
 2148SOL    HW217904   3.618   1.786   6.074 -0.7555  0.2065  2.0139
 2149SOL     OW17905   0.863   0.296  12.981 -0.5396  0.1767  0.4563
 2149SOL    HW117906   0.956   0.318  12.981 -0.7617  1.1321  1.4819
 2149SOL    HW217907   0.831   0.319  12.893 -0.0618 -0.2120  0.1868
 2150SOL     OW17908   0.898   4.514   5.513  0.2373 -0.3411  0.1414
 2150SOL    HW117909   0.826   4.474   5.562  0.5017 -0.3177  0.5513
 2150SOL    HW217910   0.970   4.458   5.543 -1.6549 -2.1679  1.2959
 2151SOL     OW17911   4.131   0.679  11.117 -0.0760  0.2632  0.0073
 2151SOL    HW117912   4.085   0.754  11.155  1.8338  1.8199 -0.7659
 2151SOL    HW217913   4.085   0.596  11.131  2.8939 -1.4863 -0.7467
 2152SOL     OW17914   0.943   4.125   5.315 -0.0024  0.1980  0.7392
 2152SOL    HW117915   0.924   4.040   5.355 -2.5995  0.1865 -0.4588
 2152SOL    HW217916   0.885   4.122   5.238 -0.4584 -0.0646  1.0939
 2153SOL     OW17917   3.634   0.417   3.644  0.2099  0.4218  0.4959
 2153SOL    HW117918   3.722   0.441   3.671 -0.3412  1.1807  1.5933
 2153SOL    HW217919   3.637   0.411   3.549 -1.5199 -0.2697  0.4835
 2154SOL     OW17920   2.464   3.954   2.555  0.5429 -0.0122 -0.0452
 2154SOL    HW117921   2.488   3.862   2.548 -1.4756 -0.5680  0.5566
 2154SOL    HW217922   2.509   3.989   2.478 -0.1128  0.8718 -0.0295
 2155SOL     OW17923   0.895   1.428   4.345 -0.3637  0.1981  0.1647
 2155SOL    HW117924   0.853   1.367   4.405 -1.2712 -0.8870 -1.6106
 2155SOL    HW217925   0.878   1.381   4.264  1.6918  0.5199 -0.4510
 2156SOL     OW17926   4.662   3.873  10.572 -0.1874 -0.3811 -0.1786
 2156SOL    HW117927   4.690   3.958  10.607  0.5342 -0.5743 -0.2823
 2156SOL    HW217928   0.010   3.844  10.519  1.6160  0.6049  1.7777
 2157SOL     OW17929   4.464   1.245   7.492 -0.4730 -0.3602  0.1514
 2157SOL    HW117930   4.556   1.229   7.509 -0.2082 -2.9076 -3.6663
 2157SOL    HW217931   4.453   1.162   7.445  1.7290  0.0333 -1.0733
 2158SOL     OW17932   3.151   2.380  13.464  0.1223  0.4108 -0.1890
 2158SOL    HW117933   3.096   2.382  13.386 -0.5306  0.5753  0.2689
 2158SOL    HW217934   3.086   2.404  13.531 -0.3119 -3.1466  0.6909
 2159SOL     OW17935   0.776   3.508   4.239 -0.8674 -0.9181  0.0256
 2159SOL    HW117936   0.762   3.581   4.179 -0.1005  0.7093  1.7935
 2159SOL    HW217937   0.698   3.500   4.293 -2.0005 -0.9650 -1.6360
 2160SOL     OW17938   1.269   2.601   2.108 -0.3722 -0.0892  0.4881
 2160SOL    HW117939   1.290   2.632   2.196  2.3627  0.4771 -0.3823
 2160SOL    HW217940   1.174   2.614   2.099 -0.0999  1.6380  0.0660
 2161SOL     OW17941   2.016   1.699   3.835 -0.4172  0.9373 -0.0701
 2161SOL    HW117942   1.923   1.700   3.857 -0.3687 -0.9838  0.2104
 2161SOL    HW217943   2.043   1.789   3.856  0.4083  0.7178 -0.2041
 2162SOL     OW17944   0.726   0.977   2.315 -0.0820 -0.1178 -0.7972
 2162SOL    HW117945   0.803   1.032   2.305  0.0222  0.1674  1.7633
 2162SOL    HW217946   0.754   0.925   2.239  0.3226 -1.9955  0.6327
 2163SOL     OW17947   4.115   3.564   7.710  0.0574 -1.0326  0.1884
 2163SOL    HW117948   4.064   3.586   7.787  0.8597  0.0374  0.4187
 2163SOL    HW217949   4.199   3.609   7.708  0.6557 -2.1082  2.3302
 2164SOL     OW17950   1.812   3.426   3.846  0.3625 -0.3036 -0.5171
 2164SOL    HW117951   1.717   3.424   3.840  0.3798  0.7943 -1.0747
 2164SOL    HW217952   1.838   3.334   3.854 -0.5544 -0.8637 -4.0607
 2165SOL     OW17953   2.419   1.674   0.705  0.7949  1.0985 -0.1126
 2165SOL    HW117954   2.416   1.598   0.646 -1.4421  0.1957  1.1772
 2165SOL    HW217955   2.417   1.626   0.788 -0.7327  2.2690  0.5188
 2166SOL     OW17956   3.435   2.080  16.914 -0.2178  0.0753 -0.1162
 2166SOL    HW117957   3.494   2.011  16.946 -0.3815  0.2019  0.4499
 2166SOL    HW217958   3.479   2.154  16.955  0.1098  0.0016 -0.3331
 2167SOL     OW17959   3.097   3.584   3.635  0.0148 -0.4026  0.1470
 2167SOL    HW117960   3.181   3.569   3.591 -1.1432 -3.8264 -0.8639
 2167SOL    HW217961   3.122   3.589   3.728  0.2975  1.4959 -0.0205
 2168SOL     OW17962   2.118   2.183  15.015 -0.2419  0.6085 -0.1688
 2168SOL    HW117963   2.200   2.203  15.059 -0.0767 -1.7775  0.6371
 2168SOL    HW217964   2.140   2.186  14.922 -0.0188  0.1281 -0.1324
 2169SOL     OW17965   0.332   4.701  11.274  0.0694 -0.1168 -0.5068
 2169SOL    HW117966   0.418   4.674  11.241 -0.4474 -1.1187 -1.0055
 2169SOL    HW217967   0.353   4.698  11.367 -0.7062  1.4169 -0.2777
 2170SOL     OW17968   2.891   2.425  16.017  0.0115  0.0945 -0.9983
 2170SOL    HW117969   2.981   2.423  15.983  0.1779 -0.7963 -0.5193
 2170SOL    HW217970   2.910   2.469  16.100 -1.0574 -0.2978 -0.5529
 2171SOL     OW17971   0.904   1.878  17.374 -0.1327  0.3923 -0.5933
 2171SOL    HW117972   0.960   1.806  17.343 -0.6929 -0.2496 -0.1192
 2171SOL    HW217973   0.822   1.834  17.395  1.0313 -1.5364 -0.0809
 2172SOL     OW17974   1.674   0.296  10.501  0.0943 -0.0501 -0.7326
 2172SOL    HW117975   1.708   0.257  10.581 -1.6193  0.1797  0.1161
 2172SOL    HW217976   1.604   0.240  10.468 -2.5565  2.2412  0.9443
 2173SOL     OW17977   1.949   4.031   5.904 -0.0593  0.1551  0.1624
 2173SOL    HW117978   2.013   4.082   5.954 -0.0041 -0.2267  0.4777
 2173SOL    HW217979   1.920   4.096   5.839  0.0393 -0.3655 -0.4046
 2174SOL     OW17980   3.776   4.711  12.325  0.5164 -0.5916 -0.4080
 2174SOL    HW117981   3.749   0.040  12.398 -0.8314 -0.6338 -0.8635
 2174SOL    HW217982   3.780   0.050  12.256 -0.5179  1.1614  1.2090
 2175SOL     OW17983   4.570   2.768   6.702  0.2885  0.2509  0.0315
 2175SOL    HW117984   4.617   2.804   6.777  0.5618 -3.4219  1.5860
 2175SOL    HW217985   4.597   2.829   6.633  2.1411 -1.4056 -0.7102
 2176SOL     OW17986   0.746   2.476  12.753  0.3345 -0.3605 -0.2265
 2176SOL    HW117987   0.692   2.409  12.796  0.0917 -0.1009 -0.1273
 2176SOL    HW217988   0.716   2.448  12.666  1.1879 -1.1101 -0.2793
 2177SOL     OW17989   1.255   1.080   7.087  0.0767  0.0578 -0.2444
 2177SOL    HW117990   1.300   1.165   7.094 -0.4130  0.3679 -0.9328
 2177SOL    HW217991   1.253   1.061   7.181 -0.4458  1.3239  0.0094
 2178SOL     OW17992   0.330   3.991   8.101 -0.1705 -0.1227  0.4714
 2178SOL    HW117993   0.321   3.904   8.063 -0.1530 -0.8853  2.1926
 2178SOL    HW217994   0.323   3.972   8.195  0.2608 -1.0398  0.3276
 2179SOL     OW17995   2.587   3.007   0.932  0.7866  0.0725 -0.4873
 2179SOL    HW117996   2.673   3.003   0.888 -0.0076 -0.5901 -1.9695
 2179SOL    HW217997   2.531   2.945   0.885 -1.4261 -0.7958  3.2977
 2180SOL     OW17998   3.147   2.155   3.566 -0.5374 -0.3023 -0.2653
 2180SOL    HW117999   3.230   2.191   3.535  0.4838 -0.8660  1.8660
 2180SOL    HW218000   3.153   2.157   3.661 -1.0639  1.1907 -0.2457
 2181SOL     OW18001   0.494   3.776   2.087 -0.0952 -0.2428 -0.0372
 2181SOL    HW118002   0.566   3.798   2.027 -2.8082  0.7594 -2.9591
 2181SOL    HW218003   0.538   3.762   2.170 -3.3640 -1.9865  1.3860
 2182SOL     OW18004   3.657   1.623   8.393 -0.0557 -0.0241 -0.3153
 2182SOL    HW118005   3.713   1.576   8.455  1.1080  1.9648  0.1442
 2182SOL    HW218006   3.573   1.579   8.401  0.1383 -0.2132  0.6859
 2183SOL     OW18007   3.959   4.359   1.783  0.2857 -0.4480 -0.0133
 2183SOL    HW118008   3.954   4.444   1.739 -1.2424  0.1347  1.2559
 2183SOL    HW218009   4.009   4.314   1.715  0.4394 -0.9772  0.4493
 2184SOL     OW18010   3.869   3.124   0.499 -0.2701 -0.1995 -0.3444
 2184SOL    HW118011   3.928   3.189   0.461  1.3839 -1.4230  0.1680
 2184SOL    HW218012   3.871   3.055   0.432 -0.6540  0.9896 -1.5926
 2185SOL     OW18013   1.540   2.123   8.914 -0.4492 -0.0485  0.1225
 2185SOL    HW118014   1.530   2.089   8.825  0.7451 -0.8782  0.3079
 2185SOL    HW218015   1.627   2.161   8.919 -0.2034 -0.5230 -0.6524
 2186SOL     OW18016   2.021   3.921   6.558  0.6731  0.3136 -0.1814
 2186SOL    HW118017   2.012   3.979   6.482 -0.3024 -1.3391 -1.3211
 2186SOL    HW218018   1.954   3.855   6.539 -0.1747  0.9442  0.6254
 2187SOL     OW18019   3.506   1.258   3.845 -0.0141  0.0045 -0.1172
 2187SOL    HW118020   3.494   1.166   3.820 -1.9272 -0.2743  1.8845
 2187SOL    HW218021   3.571   1.240   3.913  0.8449 -1.3996 -1.3002
 2188SOL     OW18022   1.387   4.531  10.811  0.5618 -0.3120  0.1450
 2188SOL    HW118023   1.424   4.554  10.896 -0.6958  0.3083  0.5292
 2188SOL    HW218024   1.306   4.484  10.832  1.5777 -0.9591  2.6266
 2189SOL     OW18025   2.992   1.215   1.065  0.0200 -0.8903 -0.0160
 2189SOL    HW118026   2.902   1.224   1.034 -0.2658 -2.0956  0.4912
 2189SOL    HW218027   2.978   1.233   1.158  0.8586  2.4832 -0.5415
 2190SOL     OW18028   3.073   1.811   4.396  0.3343 -0.0629  0.1720
 2190SOL    HW118029   3.097   1.804   4.303 -1.1166  0.5603 -0.2560
 2190SOL    HW218030   3.119   1.890   4.423  1.2893 -0.1210 -1.2738
 2191SOL     OW18031   4.146   0.527  13.521 -0.5393 -0.0432 -0.7880
 2191SOL    HW118032   4.181   0.490  13.602  0.8014  2.8159 -0.0360
 2191SOL    HW218033   4.112   0.606  13.564  2.0967  1.2882 -1.1631
 2192SOL     OW18034   2.235   1.921   4.890  0.4561  0.1417 -0.2943
 2192SOL    HW118035   2.199   1.994   4.839 -0.2360  0.9108  1.3079
 2192SOL    HW218036   2.294   1.877   4.829 -0.1515  2.7676 -2.8028
 2193SOL     OW18037   3.551   3.078   1.623 -0.7119 -0.1095 -0.3550
 2193SOL    HW118038   3.487   3.034   1.678  0.0075 -0.1727  0.4299
 2193SOL    HW218039   3.509   3.145   1.568 -2.1837 -0.1680  0.7042
 2194SOL     OW18040   3.672   3.765  16.116  0.3711 -0.2012  0.0390
 2194SOL    HW118041   3.653   3.856  16.138 -0.3649 -0.1193 -0.8955
 2194SOL    HW218042   3.663   3.768  16.020  0.2424  1.0607  0.0792
 2195SOL     OW18043   0.348   3.410   7.916 -0.3197 -0.6390  0.5781
 2195SOL    HW118044   0.365   3.318   7.935 -0.8872 -1.0426 -0.8797
 2195SOL    HW218045   0.334   3.449   8.002  1.0343  0.4910  0.2916
 2196SOL     OW18046   0.331   3.156   0.551  0.0615  0.0625 -0.4772
 2196SOL    HW118047   0.367   3.227   0.497 -0.0704  1.3045  1.0689
 2196SOL    HW218048   0.357   3.185   0.638 -1.4744 -1.2578  0.4211
 2197SOL     OW18049   4.179   1.953  14.434  0.2629 -0.0009  0.2624
 2197SOL    HW118050   4.125   1.942  14.512 -1.2717  0.4242 -0.7365
 2197SOL    HW218051   4.199   2.046  14.429  2.1334 -0.4357 -0.0912
 2198SOL     OW18052   4.631   4.201   5.537  0.1281 -0.1184 -0.4268
 2198SOL    HW118053   4.592   4.262   5.600  0.6979 -0.5018  0.3031
 2198SOL    HW218054   4.692   4.159   5.598 -0.9366  0.3574  0.9592
 2199SOL     OW18055   1.952   0.243   5.815  0.0210  0.0960 -0.4392
 2199SOL    HW118056   1.897   0.226   5.891 -1.4014 -2.6027 -2.0806
 2199SOL    HW218057   1.918   0.178   5.753 -0.2913  0.1723 -0.3461
 2200SOL     OW18058   0.751   1.951   0.617  0.3039  0.2746 -0.3618
 2200SOL    HW118059   0.710   2.037   0.604  1.0227  0.4592 -1.4078
 2200SOL    HW218060   0.835   1.967   0.660  0.5913  1.6636 -1.4568
 2201SOL     OW18061   0.759   1.832   7.257  0.5078 -0.4456  0.1553
 2201SOL    HW118062   0.790   1.834   7.167 -0.0217  2.1104  0.0446
 2201SOL    HW218063   0.719   1.919   7.265  0.2712 -0.4108 -1.3465
 2202SOL     OW18064   0.591   0.279   7.999  0.1160  0.2569 -0.1575
 2202SOL    HW118065   0.636   0.356   7.965 -0.2290 -0.3451 -1.9712
 2202SOL    HW218066   0.561   0.306   8.086  0.1079 -0.0627 -0.0609
 2203SOL     OW18067   4.459   3.985   7.782 -0.7315 -0.1750  0.0643
 2203SOL    HW118068   4.446   4.049   7.852 -1.4942 -2.5286  2.0679
 2203SOL    HW218069   4.415   4.021   7.705  0.5081 -0.0158 -0.5848
 2204SOL     OW18070   0.744   2.095  17.482 -0.3459  0.1081 -0.2766
 2204SOL    HW118071   0.758   2.043  17.403  1.6417  0.8428 -0.4135
 2204SOL    HW218072   0.673   2.150  17.447  0.4972  2.2765  1.4205
 2205SOL     OW18073   2.588   0.358  12.195 -0.3616 -0.1657  0.5015
 2205SOL    HW118074   2.664   0.308  12.165 -1.8790 -1.0422 -1.8896
 2205SOL    HW218075   2.591   0.437  12.140 -3.8883 -0.0041  0.5608
 2206SOL     OW18076   3.876   0.599   8.216  0.4647  0.2157 -0.0461
 2206SOL    HW118077   3.931   0.521   8.227  0.1208  0.3889  2.8720
 2206SOL    HW218078   3.900   0.622   8.127  1.6173  0.7154  0.4035
 2207SOL     OW18079   3.894   2.492   3.375 -0.3694 -0.0691  0.5396
 2207SOL    HW118080   3.895   2.432   3.450  0.8578 -1.0068 -0.2203
 2207SOL    HW218081   3.970   2.455   3.330 -0.3695  0.7427 -0.1197
 2208SOL     OW18082   0.087   4.362   1.725  0.0615  0.2406  0.3645
 2208SOL    HW118083   0.178   4.344   1.699  0.3054  0.2733  1.1824
 2208SOL    HW218084   0.090   4.458   1.720 -0.6120  0.2786  0.7780
 2209SOL     OW18085   3.576   4.228  15.283  0.4968 -0.0177  0.1294
 2209SOL    HW118086   3.664   4.264  15.278  0.4605 -0.0175 -0.4315
 2209SOL    HW218087   3.595   4.143  15.323  1.0502 -1.0963 -2.4654
 2210SOL     OW18088   0.225   0.452   4.433  0.0908 -0.5094 -0.3438
 2210SOL    HW118089   0.218   0.370   4.482 -0.6090 -0.2334  0.0131
 2210SOL    HW218090   0.312   0.430   4.399 -0.4521 -1.6951 -0.9720
 2211SOL     OW18091   4.005   2.326   2.512 -0.3897 -0.3787  0.0637
 2211SOL    HW118092   4.025   2.239   2.546 -1.1085 -0.7565 -0.4769
 2211SOL    HW218093   4.064   2.344   2.438 -1.0617 -2.0736 -0.8766
 2212SOL     OW18094   4.681   1.169   9.809 -0.4136  0.1048 -0.2934
 2212SOL    HW118095   4.645   1.111   9.742 -0.5420 -2.4188  1.9842
 2212SOL    HW218096   4.700   1.251   9.762 -0.3896 -0.9961 -2.2276
 2213SOL     OW18097   3.852   1.274  17.429  0.2383  0.0421 -0.2683
 2213SOL    HW118098   3.946   1.279  17.414  0.1196 -0.2691 -1.0874
 2213SOL    HW218099   3.857   1.256  17.523 -1.5721 -0.2462 -0.2183
 2214SOL     OW18100   2.530   0.478   1.233  0.4370  0.1375 -0.2145
 2214SOL    HW118101   2.508   0.468   1.326 -0.0489 -0.7089 -0.4153
 2214SOL    HW218102   2.605   0.537   1.235 -0.1752  0.9017  0.3020
 2215SOL     OW18103   2.386   2.669   4.945  1.2546  0.0681 -0.1020
 2215SOL    HW118104   2.398   2.600   5.010 -0.4501  0.8606  1.0446
 2215SOL    HW218105   2.307   2.713   4.977  1.6901  0.5125  0.3626
 2216SOL     OW18106   1.547   2.043  14.322 -0.5896  0.4286 -0.0927
 2216SOL    HW118107   1.542   2.057  14.416 -0.2356  2.4081 -0.3737
 2216SOL    HW218108   1.464   1.998  14.304  1.3390 -2.7489 -1.0586
 2217SOL     OW18109   0.791   0.036   5.463 -0.1916 -0.5406 -0.3998
 2217SOL    HW118110   0.826   4.676   5.481  1.1592 -0.6509 -3.4422
 2217SOL    HW218111   0.739   0.013   5.385 -0.3203  0.7654 -0.7026
 2218SOL     OW18112   4.567   3.351   3.406 -0.3445 -0.2984 -0.3546
 2218SOL    HW118113   4.491   3.384   3.453 -0.1127  0.1194 -0.2741
 2218SOL    HW218114   4.536   3.332   3.318 -1.1100 -1.6022  0.1882
 2219SOL     OW18115   1.249   1.036  17.000 -0.0422  0.0140 -0.4444
 2219SOL    HW118116   1.251   1.013  17.093  0.7894  3.9202  0.5304
 2219SOL    HW218117   1.172   1.092  16.996  0.3374  0.4510 -1.6359
 2220SOL     OW18118   3.001   0.057   0.174  0.1295  0.2172  0.5669
 2220SOL    HW118119   3.078   0.114   0.170  0.0083  0.4866  2.1010
 2220SOL    HW218120   2.971   0.045   0.264  0.1430  1.5570  0.7506
 2221SOL     OW18121   2.423   0.048   7.343  0.5367  0.3371  0.4508
 2221SOL    HW118122   2.491   0.066   7.408  0.3910 -0.2981  0.7773
 2221SOL    HW218123   2.478   0.058   7.265 -1.9251  1.4277 -1.1204
 2222SOL     OW18124   1.404   1.328   6.523 -0.0726 -0.6949 -0.3566
 2222SOL    HW118125   1.452   1.283   6.593  0.6231 -0.1691 -0.5015
 2222SOL    HW218126   1.345   1.385   6.571 -0.0836 -2.3742  1.6484
 2223SOL     OW18127   2.521   0.204   8.434  0.3749 -0.4653 -0.0715
 2223SOL    HW118128   2.539   0.298   8.423 -1.7700 -0.1361 -0.8457
 2223SOL    HW218129   2.504   0.167   8.347 -0.2167 -2.2713  0.8222
 2224SOL     OW18130   2.287   0.201   0.864  0.4924 -0.3010  0.2096
 2224SOL    HW118131   2.293   0.214   0.958 -0.7453 -2.7711  0.6149
 2224SOL    HW218132   2.326   0.283   0.834 -0.4607  0.7118  1.8161
 2225SOL     OW18133   0.097   3.781   8.797 -0.0355 -0.2794 -0.3251
 2225SOL    HW118134   0.050   3.735   8.866  2.1915  0.0630  1.4192
 2225SOL    HW218135   0.069   3.873   8.799 -1.2678 -0.6548 -0.3384
 2226SOL     OW18136   1.282   1.721   3.395 -0.4638 -0.1149  0.0834
 2226SOL    HW118137   1.274   1.766   3.480  0.6011  2.0356 -0.9505
 2226SOL    HW218138   1.194   1.745   3.366  0.0842  2.9593  0.9493
 2227SOL     OW18139   3.905   4.540  12.584 -0.3365 -0.0185 -0.3526
 2227SOL    HW118140   3.881   4.586  12.504 -1.2607  0.3542  0.1380
 2227SOL    HW218141   3.856   4.588  12.651 -1.9791 -2.1253 -0.0182
 2228SOL     OW18142   1.400   2.256   6.766  0.4205 -0.0282  0.0255
 2228SOL    HW118143   1.368   2.345   6.763 -2.3528 -0.9878  1.2437
 2228SOL    HW218144   1.436   2.257   6.855 -0.4503 -0.0670  0.3724
 2229SOL     OW18145   0.700   1.210   5.854  0.3771  0.0579 -0.0545
 2229SOL    HW118146   0.611   1.244   5.863  0.0041 -0.9333  0.0019
 2229SOL    HW218147   0.709   1.177   5.765  0.7221  0.1880 -0.0676
 2230SOL     OW18148   2.199   2.093   2.229 -0.6310  0.1471 -0.2791
 2230SOL    HW118149   2.236   2.157   2.167  1.5483 -0.1013  0.7929
 2230SOL    HW218150   2.258   2.109   2.302 -0.0396 -0.2825 -0.6615
 2231SOL     OW18151   0.400   3.008  12.295  0.7418 -0.6368  0.7525
 2231SOL    HW118152   0.305   2.996  12.301  0.5853  1.0067  1.7220
 2231SOL    HW218153   0.428   2.925  12.333 -0.6198 -2.2213 -1.7126
 2232SOL     OW18154   3.557   0.908  17.624  0.2449 -0.2857  0.3081
 2232SOL    HW118155   3.559   0.865  17.539 -2.5239  1.2683 -0.5532
 2232SOL    HW218156   3.597   0.994  17.614  0.2887 -0.1922  1.3033
 2233SOL     OW18157   3.216   1.752   4.737  0.0872  0.2702 -0.2927
 2233SOL    HW118158   3.272   1.823   4.768  1.7826 -1.7276  1.2520
 2233SOL    HW218159   3.243   1.749   4.645 -0.5134 -1.2441 -0.4093
 2234SOL     OW18160   0.013   0.729   4.748  0.4692 -0.5635  0.0701
 2234SOL    HW118161   0.025   0.641   4.714  0.3114 -0.3773 -0.4626
 2234SOL    HW218162   4.703   0.772   4.671 -0.0198 -1.2363 -0.0757
 2235SOL     OW18163   3.706   4.472   8.770 -0.0198 -0.1359  0.4835
 2235SOL    HW118164   3.793   4.505   8.790  0.0442 -0.9787  1.5714
 2235SOL    HW218165   3.710   4.384   8.809  2.9402 -1.2868 -2.4517
 2236SOL     OW18166   3.703   3.881   9.432 -0.3640 -0.8417  0.0692
 2236SOL    HW118167   3.779   3.838   9.393 -0.2385 -1.8815  1.4357
 2236SOL    HW218168   3.640   3.808   9.441 -0.2835 -0.9533 -0.2893
 2237SOL     OW18169   2.958   3.433   2.310 -0.0495 -0.1244  0.2064
 2237SOL    HW118170   2.979   3.350   2.351 -0.2721 -1.3596 -2.2035
 2237SOL    HW218171   2.889   3.477   2.360  1.8609  2.6567  0.4562
 2238SOL     OW18172   2.569   4.038   7.391 -0.1502  0.2356 -0.1522
 2238SOL    HW118173   2.641   4.097   7.371  0.1931  0.1727  0.9036
 2238SOL    HW218174   2.567   3.986   7.311  0.1886  1.3211 -0.8577
 2239SOL     OW18175   1.387   4.141   3.305 -0.4956 -0.5943  0.3733
 2239SOL    HW118176   1.441   4.220   3.308  3.6988 -3.4464  0.7362
 2239SOL    HW218177   1.454   4.080   3.335  0.9595  0.1211 -1.4111
 2240SOL     OW18178   0.658   4.609   2.788 -0.0667  0.4126  0.1963
 2240SOL    HW118179   0.597   4.542   2.757 -0.4377  0.9344 -0.2062
 2240SOL    HW218180   0.743   4.592   2.746  0.0079  0.8880  0.1536
 2241SOL     OW18181   0.073   3.204   5.223  0.0830  0.3009  0.5052
 2241SOL    HW118182   0.147   3.262   5.208  1.6467 -1.5712  0.8826
 2241SOL    HW218183   0.025   3.217   5.141 -0.9145  2.3010  1.4259
 2242SOL     OW18184   0.549   0.381   3.589 -0.1171 -0.1259  0.2853
 2242SOL    HW118185   0.565   0.443   3.519  0.2447  0.5452  0.9632
 2242SOL    HW218186   0.631   0.414   3.626 -0.1987 -0.3690  0.6909
 2243SOL     OW18187   4.357   0.639   8.131  0.0093  0.0665 -0.3561
 2243SOL    HW118188   4.328   0.730   8.122  0.5546  0.1063 -1.6141
 2243SOL    HW218189   4.333   0.627   8.223  1.1065 -0.4371 -0.1352
 2244SOL     OW18190   0.951   4.396   5.843  0.1214  0.0006 -0.3050
 2244SOL    HW118191   0.860   4.409   5.870  0.7253  4.5853 -0.5291
 2244SOL    HW218192   0.981   4.481   5.875 -2.9607 -1.4660  6.5114
 2245SOL     OW18193   2.541   1.432  12.620  0.2677 -0.0209  0.0485
 2245SOL    HW118194   2.485   1.355  12.609  1.7343 -1.3849  1.9126
 2245SOL    HW218195   2.627   1.395  12.640  0.5317 -0.8044 -2.5301
 2246SOL     OW18196   1.881   1.551   1.537  1.0806  0.7611 -0.0456
 2246SOL    HW118197   1.940   1.601   1.593  1.0404  0.5210  0.2090
 2246SOL    HW218198   1.805   1.602   1.566 -0.4602 -0.4608 -1.9607
 2247SOL     OW18199   3.336   0.115  14.556 -0.2382  0.3407  0.1398
 2247SOL    HW118200   3.298   0.053  14.494 -2.6915 -1.2098  3.2239
 2247SOL    HW218201   3.429   0.097  14.543 -0.0216  1.5708 -0.0425
 2248SOL     OW18202   1.784   4.552  12.707  0.5753 -0.0067 -0.1641
 2248SOL    HW118203   1.841   4.550  12.631 -0.4638 -0.2409 -0.9362
 2248SOL    HW218204   1.781   4.457  12.719 -0.7011  0.3440  2.3647
 2249SOL     OW18205   1.149   2.798   4.542 -0.5623 -0.1756 -0.0443
 2249SOL    HW118206   1.228   2.744   4.549 -0.3458  0.1217 -0.2276
 2249SOL    HW218207   1.102   2.739   4.484  0.6347 -1.7093  0.5508
 2250SOL     OW18208   3.070   3.929   1.063 -0.0338 -0.0158  0.6393
 2250SOL    HW118209   2.999   3.889   1.113 -1.7502  2.3159  0.0080
 2250SOL    HW218210   3.104   3.847   1.028 -1.7311 -1.6795  2.8736
 2251SOL     OW18211   0.272   3.262  16.028  0.0626 -0.3655  0.0419
 2251SOL    HW118212   0.310   3.258  15.940  1.3761  1.5281  0.5070
 2251SOL    HW218213   0.285   3.356  16.043 -3.7238 -0.0960  1.5416
 2252SOL     OW18214   2.141   1.581   8.279 -0.0364 -0.8985 -0.0741
 2252SOL    HW118215   2.174   1.492   8.288 -0.5316 -1.0587  0.1146
 2252SOL    HW218216   2.049   1.569   8.302 -0.0643  1.4455  1.0888
 2253SOL     OW18217   1.854   2.460   3.290 -0.3783 -0.2229  0.1828
 2253SOL    HW118218   1.848   2.549   3.325 -0.9194  0.1505 -0.8549
 2253SOL    HW218219   1.764   2.427   3.297 -0.2547 -0.2196  1.6824
 2254SOL     OW18220   2.313   2.103   6.540 -0.0502 -0.8431 -0.0200
 2254SOL    HW118221   2.336   2.103   6.633  2.7862 -3.4240 -0.7520
 2254SOL    HW218222   2.218   2.089   6.544 -0.5244  2.1060 -0.5422
 2255SOL     OW18223   2.825   3.875  14.071  0.0395  0.0204 -0.0143
 2255SOL    HW118224   2.763   3.915  14.010 -0.2627 -3.0548 -1.7155
 2255SOL    HW218225   2.899   3.931  14.049  0.6354 -0.6830  0.1770
 2256SOL     OW18226   4.448   4.303   1.246 -0.3056 -0.2374 -0.3550
 2256SOL    HW118227   4.474   4.359   1.173  0.9888 -0.0439  0.2652
 2256SOL    HW218228   4.466   4.214   1.217 -0.9622 -0.1965 -0.9086
 2257SOL     OW18229   0.938   2.852  12.661  0.1767  0.2009 -0.3712
 2257SOL    HW118230   1.022   2.869  12.703  0.0385  0.1578 -0.0787
 2257SOL    HW218231   0.903   2.787  12.721 -0.8541 -0.4359 -1.6507
 2258SOL     OW18232   3.990   2.328   4.676 -0.5109 -0.0958  0.0854
 2258SOL    HW118233   3.978   2.392   4.746  0.0073 -0.4351  0.4817
 2258SOL    HW218234   3.951   2.379   4.604 -0.7939  0.8370  0.8946
 2259SOL     OW18235   4.619   2.667   2.849 -0.4265  0.1817  0.0034
 2259SOL    HW118236   4.644   2.759   2.838 -0.4117  0.1293 -0.4203
 2259SOL    HW218237   4.657   2.651   2.935  1.1875  1.9794 -0.3845
 2260SOL     OW18238   4.072   3.795   4.386  0.0312  0.5791  0.2152
 2260SOL    HW118239   3.987   3.751   4.380  1.0075 -1.1054 -1.6523
 2260SOL    HW218240   4.044   3.867   4.441 -0.3022  0.0505  0.7434
 2261SOL     OW18241   0.365   3.697   6.465 -0.4009 -0.3349 -0.3337
 2261SOL    HW118242   0.418   3.773   6.491 -0.0779 -0.3629 -0.9024
 2261SOL    HW218243   0.415   3.626   6.506 -0.8282 -0.0125  0.7600
 2262SOL     OW18244   4.490   0.915  15.309 -0.2203 -0.4211 -0.2721
 2262SOL    HW118245   4.402   0.944  15.331 -0.0658  0.0057 -0.2169
 2262SOL    HW218246   4.468   0.867  15.229  2.4095  0.8102 -1.7503
 2263SOL     OW18247   2.938   4.580  16.328  0.3596  0.2528  0.1405
 2263SOL    HW118248   3.014   4.558  16.275  1.3822  0.0893  1.6703
 2263SOL    HW218249   2.967   4.594  16.418  2.2083 -0.0598 -0.3988
 2264SOL     OW18250   4.431   2.806   4.514  0.0405 -0.3500  0.1629
 2264SOL    HW118251   4.377   2.733   4.482  0.5717  0.0757 -1.6884
 2264SOL    HW218252   4.366   2.875   4.529 -3.1607 -3.9325  2.9216
 2265SOL     OW18253   2.916   4.135   6.253 -0.1541 -0.3988 -0.5088
 2265SOL    HW118254   2.961   4.219   6.259  0.1360 -0.7150  1.6694
 2265SOL    HW218255   2.924   4.127   6.158 -2.0535  0.2417 -0.7122
 2266SOL     OW18256   4.098   4.533   8.646  0.6575 -0.0528  0.4625
 2266SOL    HW118257   4.070   4.622   8.625  1.7999  0.7667  2.3712
 2266SOL    HW218258   4.070   4.519   8.736  1.6480 -0.0875  0.7722
 2267SOL     OW18259   3.321   2.130  14.383 -0.7077  0.3552  0.1997
 2267SOL    HW118260   3.259   2.161  14.317  2.0324 -0.8790 -2.9599
 2267SOL    HW218261   3.360   2.211  14.414  0.3653 -0.1089  0.0629
 2268SOL     OW18262   3.992   0.429   8.528  0.0737 -0.2530 -0.2379
 2268SOL    HW118263   4.063   0.378   8.488 -0.0158  0.0682 -0.8041
 2268SOL    HW218264   4.005   0.410   8.621  1.5828  0.6082 -0.2666
 2269SOL     OW18265   0.933   3.519   8.209  0.2725 -0.1073  0.1251
 2269SOL    HW118266   1.015   3.569   8.205  0.1097  0.1731  0.3333
 2269SOL    HW218267   0.870   3.579   8.249  0.2117  0.1622 -0.3722
 2270SOL     OW18268   0.168   0.997   0.591 -0.0122  0.5984 -0.0686
 2270SOL    HW118269   0.185   1.067   0.654  0.7804  0.2102  0.1415
 2270SOL    HW218270   0.198   0.924   0.646 -2.2055 -0.7796 -0.7019
 2271SOL     OW18271   2.527   4.648   4.512  0.3935 -0.1692 -0.1884
 2271SOL    HW118272   2.622   4.657   4.499 -0.0447  1.8573 -2.0091
 2271SOL    HW218273   2.508   0.007   4.474 -2.5313 -0.8900 -0.2786
 2272SOL     OW18274   2.718   4.663   7.289  0.6100  0.0131 -0.4959
 2272SOL    HW118275   2.671   4.690   7.210 -2.7322 -0.9913  1.1425
 2272SOL    HW218276   2.660   4.679   7.363 -1.3436 -1.4351 -1.7265
 2273SOL     OW18277   0.810   3.414   2.495  0.5299  1.1048  0.1269
 2273SOL    HW118278   0.874   3.474   2.535  1.7404  0.7347 -1.2773
 2273SOL    HW218279   0.854   3.393   2.413  0.9391  1.7405  0.1803
 2274SOL     OW18280   0.235   3.629  11.213 -0.4321 -0.1538  0.0774
 2274SOL    HW118281   0.149   3.597  11.184 -0.5280  0.5891 -0.4627
 2274SOL    HW218282   0.226   3.601  11.304  0.1702  1.3925  0.6242
 2275SOL     OW18283   3.206   3.001   4.569 -0.2824 -0.0429 -0.5140
 2275SOL    HW118284   3.266   3.001   4.494  0.6001  1.3840  0.1959
 2275SOL    HW218285   3.134   3.059   4.543  2.1073  2.9909 -0.4065
 2276SOL     OW18286   4.600   0.871   3.266  0.5729 -0.2305 -0.2864
 2276SOL    HW118287   4.509   0.893   3.244  1.3260  1.4505 -1.6907
 2276SOL    HW218288   4.590   0.775   3.272 -0.6325 -0.0501  0.7137
 2277SOL     OW18289   4.472   1.473   9.370  0.3417  0.4302  0.0598
 2277SOL    HW118290   4.394   1.524   9.392 -0.1484 -0.7987  1.1408
 2277SOL    HW218291   4.469   1.393   9.422  2.7654  0.7780  0.7327
 2278SOL     OW18292   1.815   1.685   9.451  0.2368 -0.2273  0.1240
 2278SOL    HW118293   1.800   1.711   9.361  0.6817  0.9620  0.4000
 2278SOL    HW218294   1.749   1.617   9.459  0.5228 -0.7675 -2.0607
 2279SOL     OW18295   2.740   2.045  12.157 -0.0999  0.1142 -0.0955
 2279SOL    HW118296   2.709   1.955  12.168 -0.7244  0.5667  1.7422
 2279SOL    HW218297   2.710   2.084  12.238  0.6568  0.9561 -0.2186
 2280SOL     OW18298   4.713   2.206   9.430  0.0946 -0.3802  0.5050
 2280SOL    HW118299   4.633   2.258   9.442  0.3695  0.0021  0.6912
 2280SOL    HW218300   0.044   2.266   9.382 -0.1838 -0.6438 -0.1660
 2281SOL     OW18301   0.495   3.467   9.758  0.6272  0.0056 -0.0711
 2281SOL    HW118302   0.451   3.457   9.674  0.9340 -0.6951 -0.1517
 2281SOL    HW218303   0.432   3.424   9.817 -0.9372 -0.1330 -1.8477
 2282SOL     OW18304   0.713   2.087   7.149 -0.1747  0.2274  0.3963
 2282SOL    HW118305   0.787   2.093   7.088 -2.2899  1.8863 -2.0043
 2282SOL    HW218306   0.644   2.145   7.118  0.6062  0.1159 -1.5826
 2283SOL     OW18307   3.844   2.910   3.005 -0.4990  0.4877 -0.2205
 2283SOL    HW118308   3.933   2.947   3.004 -0.3922  0.2106 -1.0730
 2283SOL    HW218309   3.872   2.833   2.956 -0.5832 -1.1269  2.2985
 2284SOL     OW18310   4.415   2.723   1.717 -0.4258  0.2074  0.2425
 2284SOL    HW118311   4.391   2.652   1.778 -0.0016  0.4024  0.6328
 2284SOL    HW218312   4.506   2.704   1.696 -0.6906 -0.6880 -0.1249
 2285SOL     OW18313   2.561   1.866   5.575  0.2068 -0.5704 -0.3822
 2285SOL    HW118314   2.624   1.830   5.513 -0.1300  2.9958 -2.7664
 2285SOL    HW218315   2.620   1.922   5.626 -0.2938  2.4609 -3.1932
 2286SOL     OW18316   2.771   1.514  16.886 -0.2655  0.0550 -0.2016
 2286SOL    HW118317   2.850   1.526  16.940  0.5937  0.3181 -1.5008
 2286SOL    HW218318   2.702   1.506  16.952 -1.7300 -0.2806 -1.7767
 2287SOL     OW18319   2.033   0.768   6.333  0.3083  0.2854 -0.0626
 2287SOL    HW118320   1.947   0.785   6.372 -0.0957 -0.6887 -0.5108
 2287SOL    HW218321   2.096   0.821   6.381  2.6889 -0.2434 -2.6099
 2288SOL     OW18322   2.379   0.452   6.455  0.7088 -0.2788  0.1014
 2288SOL    HW118323   2.374   0.417   6.544 -0.6707  1.4819  0.7130
 2288SOL    HW218324   2.348   0.376   6.405 -1.8197  0.6369  0.2330
 2289SOL     OW18325   0.704   2.774   7.250  0.2444  0.0115 -0.8176
 2289SOL    HW118326   0.666   2.711   7.189 -0.0515 -2.0363  1.4648
 2289SOL    HW218327   0.627   2.783   7.307  0.1340 -1.8394 -0.6666
 2290SOL     OW18328   0.730   1.963   4.139  0.1004 -0.2675  0.2691
 2290SOL    HW118329   0.763   2.049   4.113  1.7833 -1.2625 -0.9059
 2290SOL    HW218330   0.639   1.968   4.113  0.3770  2.4016 -0.1488
 2291SOL     OW18331   3.009   1.188   5.186 -0.3613 -0.6281 -0.4904
 2291SOL    HW118332   2.961   1.270   5.190  0.4984 -0.2146  1.3656
 2291SOL    HW218333   2.961   1.146   5.114  2.4771 -2.4871 -1.3006
 2292SOL     OW18334   2.764   1.471   1.506  0.0806  0.8278  0.3129
 2292SOL    HW118335   2.770   1.557   1.464  3.1574  0.7738  0.6342
 2292SOL    HW218336   2.669   1.457   1.499  0.2790  0.4873 -1.5933
 2293SOL     OW18337   1.578   3.703   5.211 -0.2029  0.2185 -0.8913
 2293SOL    HW118338   1.631   3.758   5.155  0.0612  1.0062  0.1240
 2293SOL    HW218339   1.490   3.716   5.175 -0.4115 -0.1972 -0.5440
 2294SOL     OW18340   1.237   0.556   5.878 -0.0463 -0.0824 -0.2119
 2294SOL    HW118341   1.244   0.634   5.934 -0.7805 -0.0061 -0.2274
 2294SOL    HW218342   1.159   0.579   5.828 -1.6064 -0.3597  2.0826
 2295SOL     OW18343   1.662   2.493  15.663  0.4106 -0.6399 -0.3775
 2295SOL    HW118344   1.585   2.446  15.632  0.0691  0.5517 -1.3466
 2295SOL    HW218345   1.649   2.582  15.629  1.1781 -0.8798 -1.3072
 2296SOL     OW18346   0.001   4.507   6.831 -0.6681  0.3214  0.2300
 2296SOL    HW118347   4.649   4.561   6.818 -0.8899 -0.5864 -2.2612
 2296SOL    HW218348   0.055   4.563   6.886 -1.8393  0.2895  1.4173
 2297SOL     OW18349   0.972   0.230   1.229 -0.1350 -0.8497  0.0716
 2297SOL    HW118350   0.943   0.314   1.264 -0.1507 -0.3831 -1.0522
 2297SOL    HW218351   0.996   0.257   1.140 -0.1112 -1.8712 -0.2342
 2298SOL     OW18352   3.691   4.322  16.301 -0.2442 -0.4352 -0.2502
 2298SOL    HW118353   3.763   4.322  16.364 -1.1327  0.8490  0.7741
 2298SOL    HW218354   3.710   4.407  16.260  0.5606  0.5535  2.1758
 2299SOL     OW18355   1.494   1.467   6.924 -0.1834  0.1283  0.1731
 2299SOL    HW118356   1.431   1.440   6.858  0.7210  2.2728 -1.5563
 2299SOL    HW218357   1.506   1.562   6.911 -0.1175 -0.1919 -1.9604
 2300SOL     OW18358   1.089   0.403   9.116 -0.2902  0.2176  0.2531
 2300SOL    HW118359   1.051   0.465   9.053  0.4181 -0.8077 -1.1846
 2300SOL    HW218360   1.181   0.419   9.095  0.6762 -1.3692  3.2212
 2301SOL     OW18361   0.339   0.490   3.828 -0.4174 -0.4496  0.0875
 2301SOL    HW118362   0.372   0.428   3.763 -0.5223  0.9713 -1.3082
 2301SOL    HW218363   0.420   0.500   3.879 -0.0634  1.2821 -0.8268
 2302SOL     OW18364   0.803   2.407   2.129  0.2126  0.4076 -0.3010
 2302SOL    HW118365   0.755   2.423   2.047  1.8653 -0.3582 -1.4061
 2302SOL    HW218366   0.802   2.312   2.140 -1.3259  0.6062  1.2918
 2303SOL     OW18367   1.706   2.766   2.631 -0.3221 -0.0390 -0.0720
 2303SOL    HW118368   1.657   2.835   2.676 -1.7107 -2.3779  1.9882
 2303SOL    HW218369   1.683   2.685   2.676 -4.1224 -0.3095 -2.5103
 2304SOL     OW18370   1.179   4.683   7.903  0.4606  0.1519 -0.2064
 2304SOL    HW118371   1.093   4.669   7.863 -0.0193  1.5443  0.3228
 2304SOL    HW218372   1.176   0.051   7.916 -1.1011  0.0782 -0.0649
 2305SOL     OW18373   3.435   2.689   7.174 -0.3622 -0.0027 -0.1315
 2305SOL    HW118374   3.410   2.629   7.245  2.4361 -0.3050  0.6019
 2305SOL    HW218375   3.500   2.637   7.127  0.2061  1.1729 -0.6311
 2306SOL     OW18376   2.929   2.024  10.835  0.2165  0.7283 -0.0393
 2306SOL    HW118377   2.940   1.937  10.797  0.5091  0.6024  0.3295
 2306SOL    HW218378   2.885   1.994  10.914  1.8819 -0.1277  0.5775
 2307SOL     OW18379   1.292   0.259   4.730 -0.0446 -0.2577 -0.0913
 2307SOL    HW118380   1.364   0.202   4.703 -1.6942 -1.8710 -1.0843
 2307SOL    HW218381   1.229   0.246   4.658  0.4191 -0.1965 -0.5053
 2308SOL     OW18382   2.611   1.121   2.392 -0.1326 -0.1748  0.2274
 2308SOL    HW118383   2.582   1.110   2.483 -3.5058 -1.4187 -1.0093
 2308SOL    HW218384   2.701   1.148   2.411  0.0202 -1.1158  0.8435
 2309SOL     OW18385   0.212   3.696  10.668 -0.4924  0.1773  0.0388
 2309SOL    HW118386   0.245   3.631  10.729  0.4406 -0.2790 -0.9639
 2309SOL    HW218387   0.259   3.773  10.698  2.0142 -0.2062 -2.9343
 2310SOL     OW18388   0.789   2.771   2.433  0.0285 -0.2278  0.1936
 2310SOL    HW118389   0.817   2.862   2.429  1.6237 -0.7942 -1.4054
 2310SOL    HW218390   0.734   2.761   2.355 -0.9415  0.3852  0.7915
 2311SOL     OW18391   2.197   1.837   1.519  0.2621 -0.2643  0.2566
 2311SOL    HW118392   2.144   1.889   1.459 -0.3055  2.8225  3.4889
 2311SOL    HW218393   2.283   1.872   1.492 -0.2684 -1.5648 -3.2075
 2312SOL     OW18394   4.301   2.537  11.650  0.1019 -0.2364  0.4031
 2312SOL    HW118395   4.233   2.522  11.584 -0.4938  1.6496  0.5869
 2312SOL    HW218396   4.265   2.610  11.699 -0.9120 -1.6528  1.7658
 2313SOL     OW18397   0.467   0.130  13.100  0.2397 -0.1485 -0.7337
 2313SOL    HW118398   0.525   0.058  13.076 -1.0259 -2.2163  2.4397
 2313SOL    HW218399   0.523   0.184  13.157  2.4216 -0.1164 -2.9291
 2314SOL     OW18400   3.327   0.639   6.009 -0.7248 -0.6756  0.2438
 2314SOL    HW118401   3.258   0.686   6.056  0.3617  0.7679  0.4115
 2314SOL    HW218402   3.397   0.662   6.070 -0.1749  1.7544 -1.3014
 2315SOL     OW18403   0.702   3.797   7.667 -0.6825 -0.2687 -0.3609
 2315SOL    HW118404   0.612   3.824   7.651 -0.8354  0.8006  2.1808
 2315SOL    HW218405   0.735   3.854   7.737 -0.1919 -0.0976 -0.7327
 2316SOL     OW18406   2.696   4.507  16.314  0.8101 -0.2760 -0.3445
 2316SOL    HW118407   2.778   4.555  16.308  0.0246  0.8234 -2.1375
 2316SOL    HW218408   2.707   4.442  16.384  0.2834  0.3444  0.3028
 2317SOL     OW18409   0.527   3.911   6.175 -0.3622  0.4409  0.0052
 2317SOL    HW118410   0.616   3.877   6.171 -0.1378  0.7316  2.6899
 2317SOL    HW218411   0.504   3.891   6.266  2.5055  0.2623  0.7015
 2318SOL     OW18412   3.025   0.051   8.428 -0.9829 -0.2754  0.1171
 2318SOL    HW118413   3.007   4.698   8.378 -1.8332 -1.5100  2.3845
 2318SOL    HW218414   3.108   0.029   8.471 -1.0669 -1.5221 -0.3491
 2319SOL     OW18415   1.953   0.054   8.461 -0.0166 -0.1351 -0.2866
 2319SOL    HW118416   1.997   0.058   8.546 -1.8374 -1.6625  0.7185
 2319SOL    HW218417   2.012   0.110   8.411  2.3973 -0.4291  2.2444
 2320SOL     OW18418   3.759   1.486   4.042  0.5836 -0.1382  0.2719
 2320SOL    HW118419   3.764   1.424   3.969 -1.5911  0.3573 -0.2920
 2320SOL    HW218420   3.667   1.510   4.035 -0.0740 -3.1310 -1.3008
 2321SOL     OW18421   4.102   1.414   5.643 -0.1373 -0.0172 -0.3417
 2321SOL    HW118422   4.077   1.476   5.575  2.1374  1.8236  0.5179
 2321SOL    HW218423   4.137   1.473   5.709  1.9223 -1.6286  0.0086
 2322SOL     OW18424   4.047   3.882   3.968  0.7185  0.4232  0.1609
 2322SOL    HW118425   4.014   3.941   4.035 -1.0443 -0.3132 -0.0458
 2322SOL    HW218426   4.034   3.798   4.013 -2.5817  1.1231  0.5196
 2323SOL     OW18427   1.709   3.175  10.891  0.2420 -0.1932  0.7990
 2323SOL    HW118428   1.786   3.167  10.949 -0.2796  1.4394  1.7451
 2323SOL    HW218429   1.636   3.135  10.938 -1.5357  1.7593 -0.3324
 2324SOL     OW18430   1.312   2.895   7.713  0.2233  0.4118 -0.0702
 2324SOL    HW118431   1.337   2.863   7.626 -0.3705  0.7278 -0.3546
 2324SOL    HW218432   1.361   2.840   7.775  1.2111  0.8574 -0.4474
 2325SOL     OW18433   1.575   0.837   5.618 -0.1698  0.3954  0.0105
 2325SOL    HW118434   1.652   0.826   5.674  1.2785  2.4956 -1.4933
 2325SOL    HW218435   1.554   0.747   5.596  1.3464  0.0787 -0.1748
 2326SOL     OW18436   1.488   2.293   2.660 -0.2908 -0.0781 -0.4745
 2326SOL    HW118437   1.451   2.272   2.746  1.5436 -1.2362  0.0325
 2326SOL    HW218438   1.499   2.210   2.613  1.0054 -0.5769  0.6985
 2327SOL     OW18439   3.709   1.421   5.453  0.1060  0.4688  0.5972
 2327SOL    HW118440   3.667   1.338   5.428 -1.3720  1.5599 -0.5136
 2327SOL    HW218441   3.625   1.467   5.461 -0.5877 -0.3305 -2.3611
 2328SOL     OW18442   1.291   4.459   4.650  0.1482  0.8259 -0.1969
 2328SOL    HW118443   1.232   4.520   4.606 -0.6839 -0.2552 -0.5880
 2328SOL    HW218444   1.311   4.518   4.722 -1.7670 -0.3782  1.3054
 2329SOL     OW18445   2.757   1.949   2.398  0.6372  0.1557  0.3053
 2329SOL    HW118446   2.793   2.019   2.453  0.2758 -1.1513  2.2000
 2329SOL    HW218447   2.676   1.992   2.368  0.4414 -0.1420  0.4091
 2330SOL     OW18448   3.973   3.501   8.707 -0.0290 -0.5107  0.1406
 2330SOL    HW118449   4.029   3.547   8.644 -1.4947  0.7864 -0.2154
 2330SOL    HW218450   3.944   3.428   8.653  2.4772  0.1710 -2.1381
 2331SOL     OW18451   4.660   4.284  12.568  0.3703 -0.2320  0.0344
 2331SOL    HW118452   4.612   4.335  12.634 -1.0430  0.1900 -1.3374
 2331SOL    HW218453   0.009   4.252  12.617  0.4291  2.1162  1.4880
 2332SOL     OW18454   1.436   2.159  17.102 -0.5097  0.4401 -0.1786
 2332SOL    HW118455   1.458   2.238  17.150  0.3216 -1.0977  1.9602
 2332SOL    HW218456   1.469   2.183  17.016  1.8786  2.2976  1.2809
 2333SOL     OW18457   3.549   0.335  10.978 -0.3698  0.5082  0.0800
 2333SOL    HW118458   3.537   0.376  10.893  0.6704  0.7914  0.0746
 2333SOL    HW218459   3.640   0.306  10.973 -0.8971 -0.9729 -0.8431
 2334SOL     OW18460   2.089   3.107   1.930 -0.4030  0.7369  0.5620
 2334SOL    HW118461   2.152   3.079   1.997 -0.8433 -1.6419 -0.0126
 2334SOL    HW218462   2.134   3.048   1.868  1.2875  1.6812  0.9044
 2335SOL     OW18463   1.067   0.897   4.394 -0.2441 -0.4639  0.2045
 2335SOL    HW118464   1.111   0.977   4.365 -2.1288  1.0146  1.4301
 2335SOL    HW218465   1.082   0.843   4.316  1.4144 -0.0785  0.2612
 2336SOL     OW18466   0.973   3.430  10.021 -0.7827 -0.2365  0.0635
 2336SOL    HW118467   0.922   3.506   9.995 -2.1719 -0.7756  1.1893
 2336SOL    HW218468   0.895   3.387  10.056 -0.1725 -1.5722 -0.2228
 2337SOL     OW18469   0.515   4.191   6.175 -0.3114  0.1524  0.5338
 2337SOL    HW118470   0.500   4.097   6.178 -0.5402  0.2310  2.1146
 2337SOL    HW218471   0.487   4.220   6.262  0.0963 -0.7719  0.9682
 2338SOL     OW18472   0.052   2.592   0.712  0.0358 -0.3334 -0.0118
 2338SOL    HW118473   0.133   2.578   0.663 -0.1263 -3.0410  0.5076
 2338SOL    HW218474   0.018   2.678   0.685  0.3061 -0.1022  0.3858
 2339SOL     OW18475   1.965   4.200   9.783  0.3338  0.0864  0.1679
 2339SOL    HW118476   1.936   4.128   9.727 -0.0879 -0.2960  0.8827
 2339SOL    HW218477   2.053   4.196   9.744  0.0395 -2.4049 -0.2599
 2340SOL     OW18478   2.935   3.841   0.385  0.2818 -0.2354  0.3835
 2340SOL    HW118479   2.971   3.911   0.441  1.7628  1.4857 -2.7093
 2340SOL    HW218480   2.896   3.783   0.450  0.1881 -2.7571 -1.9259
 2341SOL     OW18481   0.836   0.745   5.628  0.2832 -0.1726 -0.0797
 2341SOL    HW118482   0.819   0.830   5.588  0.3880 -1.6330 -3.2093
 2341SOL    HW218483   0.768   0.734   5.694  0.4901  1.5492  0.4084
 2342SOL     OW18484   0.319   3.544   4.912  0.5867  0.0074 -0.0249
 2342SOL    HW118485   0.242   3.545   4.969 -0.1403  2.4522 -1.0314
 2342SOL    HW218486   0.330   3.449   4.912  2.4392  0.2406  2.2160
 2343SOL     OW18487   3.445   3.559  11.240  0.0673  0.4873 -0.4271
 2343SOL    HW118488   3.451   3.499  11.165 -1.7734 -0.6254  0.3302
 2343SOL    HW218489   3.351   3.578  11.234  0.7763  3.4931 -2.3673
 2344SOL     OW18490   2.900   0.613   4.571  0.2448 -0.0581  0.0325
 2344SOL    HW118491   2.894   0.704   4.542  2.3051 -0.4211 -1.4723
 2344SOL    HW218492   2.866   0.622   4.660 -0.3780  1.1987 -0.3322
 2345SOL     OW18493   4.024   2.743   9.635  0.2165 -0.2471 -0.0586
 2345SOL    HW118494   4.110   2.771   9.604  0.3512 -1.0549 -0.4059
 2345SOL    HW218495   3.985   2.705   9.556 -2.3168  0.5359  0.7878
 2346SOL     OW18496   4.084   2.512   6.747  0.0776 -0.1233  0.0356
 2346SOL    HW118497   4.043   2.426   6.748  2.3718 -1.2330 -0.8299
 2346SOL    HW218498   4.126   2.513   6.661 -0.2845  0.2783 -0.1372
 2347SOL     OW18499   2.785   2.673   1.182  0.1857 -0.4909 -0.2897
 2347SOL    HW118500   2.809   2.600   1.125  2.1968 -0.0295 -0.0138
 2347SOL    HW218501   2.870   2.714   1.199 -0.8054  2.2119 -1.7375
 2348SOL     OW18502   0.891   4.431   1.531 -0.4536  0.1315  0.0993
 2348SOL    HW118503   0.919   4.428   1.439 -0.1522 -0.5721  0.2118
 2348SOL    HW218504   0.801   4.461   1.519 -1.1693 -2.5249 -1.1426
 2349SOL     OW18505   3.433   3.946   6.153  0.0781  0.5855  0.0035
 2349SOL    HW118506   3.496   3.992   6.098  0.1852  1.1155  0.5721
 2349SOL    HW218507   3.389   4.018   6.198  1.0170  1.5847 -0.6874
 2350SOL     OW18508   2.925   4.413   6.261  0.4647  0.2251 -0.3723
 2350SOL    HW118509   2.933   4.422   6.356 -2.5623 -1.5590  0.0774
 2350SOL    HW218510   2.911   4.502   6.229 -0.4724  0.7595  1.5316
 2351SOL     OW18511   0.721   1.435   1.333 -0.3091 -0.2937  0.0012
 2351SOL    HW118512   0.665   1.381   1.278  2.4093 -3.3807  0.3081
 2351SOL    HW218513   0.766   1.476   1.259 -0.9924  1.9010  0.7749
 2352SOL     OW18514   0.784   2.758   4.568 -0.4865  0.2303 -0.3585
 2352SOL    HW118515   0.782   2.854   4.576 -1.6721  0.1403  0.4930
 2352SOL    HW218516   0.709   2.738   4.624 -1.9319  0.0956 -2.3771
 2353SOL     OW18517   1.475   1.329   1.633 -0.0370 -0.2014 -0.1997
 2353SOL    HW118518   1.470   1.420   1.605  0.3618 -0.1335 -0.0488
 2353SOL    HW218519   1.435   1.287   1.557 -0.6633 -2.0742  1.1658
 2354SOL     OW18520   1.287   1.621   3.114  0.1237  0.8589 -0.3070
 2354SOL    HW118521   1.379   1.638   3.094  0.1023  0.6694 -0.5757
 2354SOL    HW218522   1.259   1.710   3.137 -3.1635 -0.1612 -0.3475
 2355SOL     OW18523   3.477   3.789   8.135 -0.4336  0.3807  0.7109
 2355SOL    HW118524   3.491   3.872   8.179 -1.8621  0.7432  0.4757
 2355SOL    HW218525   3.488   3.810   8.042 -0.8464 -1.7074  0.1794
 2356SOL     OW18526   1.418   2.812  16.108  0.3583 -0.1551  0.4503
 2356SOL    HW118527   1.458   2.739  16.061  0.4407 -1.6361  2.8232
 2356SOL    HW218528   1.332   2.775  16.129 -0.0639  0.5192 -0.0856
 2357SOL     OW18529   0.286   4.224   4.133 -0.2040 -0.1220  0.1388
 2357SOL    HW118530   0.238   4.176   4.066  1.4376 -0.4581 -0.8037
 2357SOL    HW218531   0.344   4.273   4.074 -1.9283 -0.0785 -1.5021
 2358SOL     OW18532   2.815   1.870  15.249  0.0557 -0.6790 -0.2765
 2358SOL    HW118533   2.807   1.848  15.156 -0.3627 -1.0578 -0.1528
 2358SOL    HW218534   2.730   1.846  15.286 -0.3608  0.9530 -0.2124
 2359SOL     OW18535   2.696   1.785   1.437 -0.3792  0.1124 -0.3190
 2359SOL    HW118536   2.612   1.830   1.428 -0.1345  0.8099  0.8299
 2359SOL    HW218537   2.722   1.822   1.521 -3.4862 -0.7590  1.0346
 2360SOL     OW18538   1.472   3.816   4.969 -0.3477  0.6060  0.0651
 2360SOL    HW118539   1.391   3.787   4.927  1.0482 -1.2788 -1.3285
 2360SOL    HW218540   1.453   3.909   4.985 -1.1957  0.7175 -1.6797
 2361SOL     OW18541   1.725   3.405  12.110 -0.1957  0.4058 -0.0946
 2361SOL    HW118542   1.684   3.463  12.174  0.3686  0.5111  0.1730
 2361SOL    HW218543   1.792   3.466  12.079  0.1270  0.0595 -0.0743
 2362SOL     OW18544   1.232   2.428   4.473  0.0986  0.2762  0.3700
 2362SOL    HW118545   1.323   2.453   4.456  0.2921 -0.7225 -0.0474
 2362SOL    HW218546   1.231   2.432   4.569 -0.4158 -0.6517  0.3940
 2363SOL     OW18547   2.470   2.398   6.990  0.0241  0.0108  0.5392
 2363SOL    HW118548   2.511   2.353   6.916  2.1437  1.8228  0.5800
 2363SOL    HW218549   2.488   2.485   6.955  0.5831 -0.3841 -0.1489
 2364SOL     OW18550   1.128   3.155   3.237  0.2837  0.6234  0.5775
 2364SOL    HW118551   1.139   3.081   3.178  0.3325 -1.3801  3.0775
 2364SOL    HW218552   1.120   3.237   3.189 -1.7606  0.7178  1.0657
 2365SOL     OW18553   4.580   0.270  13.970 -0.4142 -0.3271 -0.4532
 2365SOL    HW118554   4.654   0.280  13.910  2.1413 -0.7932  2.6092
 2365SOL    HW218555   4.528   0.347  13.947  1.1427  0.9567  0.3117
 2366SOL     OW18556   1.818   4.504  11.273  0.2221  0.4666  0.1303
 2366SOL    HW118557   1.906   4.523  11.240 -0.0147  2.0998  0.4074
 2366SOL    HW218558   1.774   4.482  11.191  0.9922 -3.7669  0.8856
 2367SOL     OW18559   3.578   2.374   4.722 -0.4870  0.3362  0.0947
 2367SOL    HW118560   3.622   2.349   4.640 -0.0672  3.2199 -0.5592
 2367SOL    HW218561   3.636   2.449   4.734  0.4921 -0.1101 -1.7509
 2368SOL     OW18562   0.476   0.595   5.613 -0.0278  0.2882 -0.3254
 2368SOL    HW118563   0.522   0.584   5.696 -1.3782 -2.0733  0.1094
 2368SOL    HW218564   0.386   0.573   5.637 -0.3620 -0.2380 -2.0977
 2369SOL     OW18565   0.639   1.435   9.735 -0.4112 -0.0361 -0.3281
 2369SOL    HW118566   0.615   1.527   9.747  1.7160  0.6964 -1.7428
 2369SOL    HW218567   0.689   1.446   9.655  1.5287 -0.1955  0.8746
 2370SOL     OW18568   2.990   0.800   5.392 -0.3476  0.2390  0.6474
 2370SOL    HW118569   2.967   0.729   5.332 -2.2116  0.4012  1.1754
 2370SOL    HW218570   2.963   0.764   5.476 -1.1958 -0.4825  0.0685
 2371SOL     OW18571   3.831   0.894   5.197 -0.1383 -0.4723  0.1923
 2371SOL    HW118572   3.867   0.955   5.261  0.5815 -0.2239 -0.4498
 2371SOL    HW218573   3.743   0.883   5.235  0.2503 -3.2116  0.2633
 2372SOL     OW18574   2.492   1.398   5.713 -0.3375 -0.1827  0.1233
 2372SOL    HW118575   2.478   1.369   5.623  2.3432 -1.2421  0.0364
 2372SOL    HW218576   2.499   1.493   5.700  0.5814 -0.5125 -1.9193
 2373SOL     OW18577   1.383   3.278   4.076 -0.5366 -0.1810 -0.1790
 2373SOL    HW118578   1.354   3.187   4.068  1.4872 -0.7965 -0.3988
 2373SOL    HW218579   1.334   3.298   4.156 -2.4272  2.2773 -1.9518
 2374SOL     OW18580   1.916   2.689   2.815 -0.4786  0.6011  0.2183
 2374SOL    HW118581   1.879   2.683   2.902  0.6720 -1.9940  0.5128
 2374SOL    HW218582   1.845   2.727   2.763  0.8245 -0.4515 -2.3549
 2375SOL     OW18583   0.388   4.562  14.047 -0.1884 -1.0415  0.2212
 2375SOL    HW118584   0.474   4.560  14.005  0.7477 -0.4898  2.1128
 2375SOL    HW218585   0.407   4.569  14.140 -1.8654  1.1834  0.3946
 2376SOL     OW18586   0.462   0.508   7.385  0.3562  0.1901  0.1313
 2376SOL    HW118587   0.378   0.544   7.416 -0.6819 -1.5959 -0.5945
 2376SOL    HW218588   0.508   0.542   7.461 -1.1828  2.1469  0.2080
 2377SOL     OW18589   4.246   1.378   3.321  0.1090 -0.2033  0.2730
 2377SOL    HW118590   4.163   1.333   3.338  0.0907  0.5011  2.0511
 2377SOL    HW218591   4.213   1.468   3.327 -0.8567 -0.6111  1.2029
 2378SOL     OW18592   2.225   3.418   4.800  0.3286 -0.0198 -0.3555
 2378SOL    HW118593   2.177   3.453   4.875  0.4934 -2.1894  0.7481
 2378SOL    HW218594   2.206   3.325   4.810  0.3502  0.0327  0.1755
 2379SOL     OW18595   0.145   2.831   3.442 -0.8637  0.1302 -0.4407
 2379SOL    HW118596   0.106   2.818   3.528 -0.7776  1.0299 -0.2629
 2379SOL    HW218597   0.237   2.845   3.462 -1.0689  0.0876  0.5311
 2380SOL     OW18598   1.717   2.087   6.661  0.0135 -0.0118  0.2364
 2380SOL    HW118599   1.711   2.120   6.571  0.0769  1.5983  0.8178
 2380SOL    HW218600   1.762   2.162   6.698  0.6343 -0.0261 -0.5015
 2381SOL     OW18601   2.740   4.354   5.250 -0.2512  0.4082 -0.3868
 2381SOL    HW118602   2.772   4.270   5.218  1.6082  1.3111 -0.9299
 2381SOL    HW218603   2.658   4.368   5.203 -0.8728  2.0932  1.2160
 2382SOL     OW18604   2.076   1.810   2.272 -0.2054  0.3379 -0.7234
 2382SOL    HW118605   2.159   1.854   2.255 -0.0094  0.4324  0.5067
 2382SOL    HW218606   2.103   1.718   2.272  0.8184  0.6609  1.0952
 2383SOL     OW18607   4.159   0.020   5.502  0.1625  0.1277 -0.2866
 2383SOL    HW118608   4.098   0.080   5.460 -0.1758 -0.1830 -0.2403
 2383SOL    HW218609   4.239   0.071   5.488  0.6396 -0.7712 -0.9064
 2384SOL     OW18610   1.509   2.764   3.543 -0.0626 -0.3986 -0.1818
 2384SOL    HW118611   1.594   2.741   3.579 -0.8968  2.5594  3.6900
 2384SOL    HW218612   1.485   2.825   3.613 -1.3738  1.5407 -2.3022
 2385SOL     OW18613   2.992   0.764  16.012  0.2617  0.0831 -0.1196
 2385SOL    HW118614   3.041   0.752  16.094  1.0231 -0.2326 -0.6214
 2385SOL    HW218615   2.995   0.859  16.015 -0.4371  0.0701  1.1191
 2386SOL     OW18616   3.949   1.435   1.064  0.3038  0.4200  0.1283
 2386SOL    HW118617   3.962   1.436   0.969  1.5147 -0.5420  0.2738
 2386SOL    HW218618   3.957   1.342   1.087  0.5459  0.3362 -0.3000
 2387SOL     OW18619   0.490   0.360   6.972 -0.2709 -0.3282  0.2037
 2387SOL    HW118620   0.530   0.403   7.048  2.6224 -3.7370  0.6021
 2387SOL    HW218621   0.402   0.394   6.991  0.6482  1.0329  2.0207
 2388SOL     OW18622   1.030   4.095   8.115  0.5874 -0.2078 -0.0428
 2388SOL    HW118623   0.958   4.041   8.148  0.3842  0.0853 -0.0031
 2388SOL    HW218624   1.105   4.065   8.167  0.0576  0.1369  0.9229
 2389SOL     OW18625   3.844   2.685   5.953 -0.3853  0.8219 -0.3652
 2389SOL    HW118626   3.900   2.620   5.995 -1.1519  0.5061  0.1860
 2389SOL    HW218627   3.885   2.770   5.964 -2.6119  2.0918 -1.9309
 2390SOL     OW18628   4.620   0.737   7.998 -0.2900 -0.0848 -0.0058
 2390SOL    HW118629   4.559   0.663   8.005  1.1968 -1.1707  1.4870
 2390SOL    HW218630   4.628   0.776   8.085 -2.6214  4.8427 -2.0032
 2391SOL     OW18631   3.355   2.932   6.233  0.5370  0.2170  0.2589
 2391SOL    HW118632   3.353   3.016   6.279 -0.9982  1.9626 -2.9408
 2391SOL    HW218633   3.336   2.963   6.144 -3.0906 -1.3677  0.4721
 2392SOL     OW18634   0.882   3.505   8.850  0.2686  0.5823  0.0636
 2392SOL    HW118635   0.927   3.423   8.832  2.4949  1.6155  0.8030
 2392SOL    HW218636   0.860   3.499   8.943 -0.5283 -0.0906 -0.1712
 2393SOL     OW18637   3.933   0.811   5.513 -0.0151  0.4805 -0.0278
 2393SOL    HW118638   3.842   0.781   5.511 -0.2389  0.9635  3.1038
 2393SOL    HW218639   3.971   0.766   5.589  0.3005 -1.6380 -1.4436
 2394SOL     OW18640   1.446   0.577   5.685  0.3114 -0.0387 -0.2694
 2394SOL    HW118641   1.415   0.587   5.775 -1.0487 -1.5233 -0.5775
 2394SOL    HW218642   1.358   0.576   5.648  0.5121  0.2157 -0.7468
 2395SOL     OW18643   0.149   1.640   5.429 -0.0252  0.1458  0.2324
 2395SOL    HW118644   0.128   1.562   5.378  0.5558  2.7194 -3.9006
 2395SOL    HW218645   0.214   1.689   5.379 -1.5517 -0.1162 -1.9942
 2396SOL     OW18646   0.123   3.798  10.398  0.0082  0.6704 -0.3310
 2396SOL    HW118647   0.194   3.861  10.387  1.7923 -1.1378  0.8728
 2396SOL    HW218648   0.159   3.744  10.469  1.8885  2.4499  0.0676
 2397SOL     OW18649   3.054   1.854  10.187  0.3596  0.6116  0.2290
 2397SOL    HW118650   3.043   1.928  10.246 -1.2461  0.1189  0.5360
 2397SOL    HW218651   3.090   1.904  10.114 -1.2887  0.0812 -0.9550
 2398SOL     OW18652   3.624   3.362   4.135 -0.1852  0.3126  0.1899
 2398SOL    HW118653   3.615   3.406   4.219  1.7776 -2.1662  1.7072
 2398SOL    HW218654   3.543   3.384   4.088 -0.2400 -0.8824 -0.2782
 2399SOL     OW18655   1.907   2.306   6.071 -0.0213  0.0746 -0.1584
 2399SOL    HW118656   1.823   2.339   6.039  0.2906 -1.4706 -2.5954
 2399SOL    HW218657   1.919   2.371   6.141 -3.2015  0.1482  0.2993
 2400SOL     OW18658   1.368   0.657   5.314  0.1786 -0.1870  0.2677
 2400SOL    HW118659   1.425   0.580   5.316 -0.3701 -0.5822  0.9831
 2400SOL    HW218660   1.355   0.687   5.404 -1.1891  0.6510 -0.2098
 2401SOL     OW18661   1.514   0.520   7.329 -0.0128  0.2283  0.3017
 2401SOL    HW118662   1.559   0.475   7.258  0.3387  0.6291  0.2718
 2401SOL    HW218663   1.429   0.539   7.290  0.4155 -1.6378 -1.5589
 2402SOL     OW18664   2.850   0.150   0.414  0.4585  0.0968 -0.7639
 2402SOL    HW118665   2.832   0.058   0.433 -0.4379  0.8312  1.9273
 2402SOL    HW218666   2.795   0.187   0.482  1.0813 -1.8280  0.8021
 2403SOL     OW18667   2.229   3.730   6.518  0.2283 -0.3856  0.3384
 2403SOL    HW118668   2.158   3.666   6.517 -0.7288  0.6850 -1.5297
 2403SOL    HW218669   2.193   3.800   6.574  0.4441  1.5793 -2.0071
 2404SOL     OW18670   0.210   4.050  12.991 -0.6398 -0.2796  0.3854
 2404SOL    HW118671   0.135   4.053  12.931  1.7811 -0.9300 -2.6191
 2404SOL    HW218672   0.221   4.141  13.018 -0.2833 -0.4666  0.8773
 2405SOL     OW18673   0.105   3.482   6.177  0.0107 -0.1224 -0.3134
 2405SOL    HW118674   0.055   3.408   6.141  0.8502 -0.1671 -1.3913
 2405SOL    HW218675   0.192   3.442   6.177 -0.5855 -1.3845  3.0849
 2406SOL     OW18676   2.913   3.256   6.150 -0.1993 -0.7939 -0.5473
 2406SOL    HW118677   2.864   3.221   6.076  1.1142 -0.3295 -1.6270
 2406SOL    HW218678   2.961   3.327   6.108  0.2810 -1.1427 -0.5882
 2407SOL     OW18679   2.132   2.615   8.665  0.0578  0.3305 -0.2806
 2407SOL    HW118680   2.099   2.637   8.577  1.4578  0.8676 -0.6586
 2407SOL    HW218681   2.197   2.684   8.675  1.6874 -1.0625 -1.2865
 2408SOL     OW18682   2.751   1.263   6.473  0.5102  0.1232  0.0206
 2408SOL    HW118683   2.795   1.199   6.529  1.4166 -0.4986 -1.3941
 2408SOL    HW218684   2.782   1.231   6.388  0.3744 -0.0318  0.0286
 2409SOL     OW18685   4.125   3.639   7.983  0.0430  0.2575 -0.1245
 2409SOL    HW118686   4.065   3.566   7.995  0.0935  0.1370 -0.6171
 2409SOL    HW218687   4.196   3.618   8.044 -1.2318  0.7893  1.5489
 2410SOL     OW18688   0.121   4.421  11.987  0.0057 -0.2434 -0.0369
 2410SOL    HW118689   0.197   4.369  11.964 -0.3700 -0.9906  0.4199
 2410SOL    HW218690   0.057   4.350  11.995  0.1780 -0.4010 -0.0575
 2411SOL     OW18691   0.238   1.298   4.969 -0.6842 -0.2409 -0.1640
 2411SOL    HW118692   0.268   1.217   5.010  1.8939  2.6941  3.7092
 2411SOL    HW218693   0.170   1.337   5.024  2.1354  3.6337  0.5698
 2412SOL     OW18694   2.502   2.626  16.752  0.6018 -0.6677  0.2597
 2412SOL    HW118695   2.420   2.611  16.704  1.5484  0.8559 -1.8308
 2412SOL    HW218696   2.478   2.602  16.842  2.1707  0.1232  0.8821
 2413SOL     OW18697   3.954   4.226  13.531 -0.3846 -0.7115 -1.2194
 2413SOL    HW118698   3.959   4.134  13.504  0.3981 -0.6806 -1.1708
 2413SOL    HW218699   3.948   4.270  13.447  0.3988  1.0376 -0.3697
 2414SOL     OW18700   4.531   1.894  14.904  0.2533  0.4836 -0.1532
 2414SOL    HW118701   4.548   1.843  14.983 -0.6771  0.9389  0.3373
 2414SOL    HW218702   4.609   1.948  14.888  0.2871  0.4022 -0.2659
 2415SOL     OW18703   2.854   1.683   3.927 -0.7594 -0.3016 -0.4571
 2415SOL    HW118704   2.842   1.601   3.881  0.4572  0.0773 -1.4431
 2415SOL    HW218705   2.936   1.663   3.972 -2.4490 -2.0975  1.8331
 2416SOL     OW18706   0.031   0.028   7.274  0.0596  0.1279 -0.2550
 2416SOL    HW118707   4.672   4.711   7.278 -0.7466  1.7436  0.2539
 2416SOL    HW218708   0.081   4.706   7.340 -0.1249 -1.1367 -1.0347
 2417SOL     OW18709   2.132   3.167   4.822  0.8631 -0.0332  0.0591
 2417SOL    HW118710   2.130   3.081   4.780 -0.4795 -1.4750  3.1265
 2417SOL    HW218711   2.054   3.162   4.877  0.8426  0.3043  0.0646
 2418SOL     OW18712   3.168   3.602   2.941 -0.0330  0.2003 -0.0216
 2418SOL    HW118713   3.115   3.530   2.977 -0.3323  0.5051  0.1416
 2418SOL    HW218714   3.257   3.565   2.947 -0.6890 -1.5241 -0.6764
 2419SOL     OW18715   4.473   3.516  14.663 -0.5087 -0.5346  0.2727
 2419SOL    HW118716   4.480   3.466  14.744 -0.3617  3.2097  2.5533
 2419SOL    HW218717   4.400   3.574  14.685 -0.2363  0.2972 -1.0158
 2420SOL     OW18718   3.272   3.936  10.170  0.0990  0.2983  0.1044
 2420SOL    HW118719   3.274   3.890  10.086  1.7828  4.5933 -2.2066
 2420SOL    HW218720   3.316   4.019  10.152 -1.6019  0.4761 -3.2430
 2421SOL     OW18721   2.527   1.321   3.913  0.2133 -0.6890  0.2169
 2421SOL    HW118722   2.517   1.383   3.841 -1.2911 -0.8633  0.2651
 2421SOL    HW218723   2.575   1.376   3.975  2.4370 -2.3318 -0.0725
 2422SOL     OW18724   3.951   2.229   3.169  0.2849  0.1380  0.4695
 2422SOL    HW118725   3.941   2.213   3.263 -1.0815  0.1520  0.3322
 2422SOL    HW218726   4.000   2.311   3.168  0.6319 -0.0669  2.0800
 2423SOL     OW18727   3.749   3.507   0.560  0.7529 -0.1824 -0.2162
 2423SOL    HW118728   3.789   3.589   0.591 -2.3259  1.3083 -0.2585
 2423SOL    HW218729   3.781   3.513   0.470  0.4718  1.6180 -0.2110
 2424SOL     OW18730   1.611   4.406   7.062 -0.4066 -0.3402 -0.2433
 2424SOL    HW118731   1.678   4.475   7.066 -0.5581 -0.1575 -0.8838
 2424SOL    HW218732   1.530   4.457   7.057  0.2607  0.7198 -0.4323
 2425SOL     OW18733   1.839   1.740   1.303 -0.2364 -0.3592 -0.4852
 2425SOL    HW118734   1.828   1.820   1.354 -1.0153  0.3726 -1.7852
 2425SOL    HW218735   1.862   1.671   1.365 -0.0644 -0.4122 -0.6084
 2426SOL     OW18736   0.035   0.398   1.774  0.1997  0.0949  0.2523
 2426SOL    HW118737   0.001   0.309   1.787 -1.4181  0.6916  0.1134
 2426SOL    HW218738   0.053   0.430   1.862 -0.2316  1.7277 -0.2577
 2427SOL     OW18739   4.510   4.644   5.529  0.5866  0.4069  0.0467
 2427SOL    HW118740   4.458   4.624   5.452  2.5444 -0.1059 -1.1462
 2427SOL    HW218741   4.590   4.594   5.509  0.4381 -0.0687  0.6341
 2428SOL     OW18742   4.352   1.461  17.300  0.0313 -0.1465  0.9376
 2428SOL    HW118743   4.426   1.493  17.351  1.0196 -0.9756  0.0411
 2428SOL    HW218744   4.396   1.401  17.239 -0.2678 -0.1762  0.7490
 2429SOL     OW18745   3.055   2.619   0.636 -0.1013  0.9082  0.1506
 2429SOL    HW118746   2.971   2.592   0.600 -0.0209 -0.9223  1.3776
 2429SOL    HW218747   3.064   2.711   0.611  1.3266  1.3500  2.2840
 2430SOL     OW18748   0.744   4.215   5.463  0.5923 -0.0087 -0.6936
 2430SOL    HW118749   0.757   4.134   5.513 -0.2867  1.3746  1.7683
 2430SOL    HW218750   0.827   4.214   5.415  1.2274  0.4957  0.3967
 2431SOL     OW18751   4.240   4.374   7.356 -0.0946  0.5307 -0.1622
 2431SOL    HW118752   4.281   4.450   7.315  2.0173 -1.3004 -1.5138
 2431SOL    HW218753   4.307   4.351   7.420 -0.7341  1.2355  0.7589
 2432SOL     OW18754   0.058   1.495  12.397  0.9870 -0.2528  0.4149
 2432SOL    HW118755   0.124   1.503  12.328 -0.9326  1.6517 -1.1757
 2432SOL    HW218756   4.713   1.442  12.363  0.7191  0.3117  0.1013
 2433SOL     OW18757   3.474   3.863  16.531 -0.1257 -0.3091  0.2174
 2433SOL    HW118758   3.394   3.815  16.509  0.1669 -0.6580 -0.0892
 2433SOL    HW218759   3.511   3.803  16.595 -0.8655  1.3086  2.1371
 2434SOL     OW18760   1.876   3.691  16.547 -0.6529 -0.1327 -0.0411
 2434SOL    HW118761   1.801   3.742  16.577 -0.7641  0.5475 -1.4760
 2434SOL    HW218762   1.915   3.750  16.483 -2.0758  1.7527  0.8438
 2435SOL     OW18763   3.825   3.731  17.198  0.2522  0.5104  0.3277
 2435SOL    HW118764   3.855   3.821  17.217 -1.3462  1.6001 -2.3776
 2435SOL    HW218765   3.827   3.693  17.286  2.5736  0.9189  0.4631
 2436SOL     OW18766   2.125   3.596  10.671 -0.1743  0.9875  0.7599
 2436SOL    HW118767   2.078   3.636  10.744  0.6014  2.8499  0.2259
 2436SOL    HW218768   2.070   3.633  10.602  1.3770  1.7078 -0.0901
 2437SOL     OW18769   1.262   2.365  11.313 -0.4769 -0.1630  0.2945
 2437SOL    HW118770   1.227   2.453  11.327 -1.1427 -0.1935 -1.1647
 2437SOL    HW218771   1.191   2.309  11.346 -0.6253  0.5729  1.2222
 2438SOL     OW18772   1.792   4.221   4.195 -0.7177  0.4063 -0.0693
 2438SOL    HW118773   1.775   4.165   4.270 -0.8661 -0.8567 -1.0392
 2438SOL    HW218774   1.778   4.161   4.122  1.3266 -1.6666  1.2542
 2439SOL     OW18775   0.361   1.866   2.079  0.1530  0.5756 -0.1911
 2439SOL    HW118776   0.452   1.865   2.050  0.4094  2.4085  0.5501
 2439SOL    HW218777   0.316   1.881   1.996 -0.5635 -3.1226 -0.4771
 2440SOL     OW18778   2.130   4.515  15.917 -0.0995 -0.0029  0.2560
 2440SOL    HW118779   2.116   4.550  16.005 -1.1675 -1.2174  0.5657
 2440SOL    HW218780   2.071   4.566  15.862  0.4693 -0.5951 -0.8992
 2441SOL     OW18781   1.898   3.504  14.695  0.4442  0.0457  0.3287
 2441SOL    HW118782   1.823   3.557  14.723  2.1711  2.6102  0.1086
 2441SOL    HW218783   1.847   3.441  14.645 -1.1816 -0.3539  2.4732
 2442SOL     OW18784   2.096   1.976   5.939  0.3289 -0.3183 -0.2323
 2442SOL    HW118785   2.161   2.021   5.886  0.5087  0.1687  0.3918
 2442SOL    HW218786   2.137   1.991   6.025  2.2954 -0.3983 -1.1568
 2443SOL     OW18787   4.203   2.356   1.037  0.7833 -0.1305 -0.4083
 2443SOL    HW118788   4.264   2.290   1.004 -0.9148 -0.7579 -2.2834
 2443SOL    HW218789   4.118   2.313   1.040  0.2260  1.0230  0.0681
 2444SOL     OW18790   1.512   3.972  11.587  0.4656  0.5397 -0.4388
 2444SOL    HW118791   1.419   3.959  11.602  0.2143  1.0329 -1.5538
 2444SOL    HW218792   1.527   4.062  11.617  0.3687  0.7101 -0.9049
 2445SOL     OW18793   3.598   0.275   1.676 -0.4345  0.5363  0.4139
 2445SOL    HW118794   3.628   0.204   1.732  1.5142  0.8071 -0.2805
 2445SOL    HW218795   3.545   0.230   1.610 -1.4694 -1.0626  2.3675
 2446SOL     OW18796   0.727   0.551   8.520 -0.3492 -0.0968  0.1807
 2446SOL    HW118797   0.697   0.605   8.447 -1.2151 -2.6408 -1.3614
 2446SOL    HW218798   0.774   0.473   8.490  0.7934  0.4765  0.4880
 2447SOL     OW18799   4.067   3.114   0.742  0.0204 -0.4945  0.0473
 2447SOL    HW118800   4.125   3.116   0.666  0.4788 -1.2122  0.3806
 2447SOL    HW218801   3.988   3.160   0.714 -0.7982 -1.9273  0.0175
 2448SOL     OW18802   3.303   4.153  10.451 -0.2518 -0.1776  0.6508
 2448SOL    HW118803   3.283   4.147  10.358  1.5702 -0.7660  0.2986
 2448SOL    HW218804   3.332   4.245  10.448 -0.7938 -0.0366 -0.1347
 2449SOL     OW18805   3.263   2.124   7.075 -0.5712  0.3773 -0.7059
 2449SOL    HW118806   3.180   2.105   7.119 -1.3743  0.9310 -1.9649
 2449SOL    HW218807   3.240   2.081   6.993 -0.8732  0.2881 -0.5748
 2450SOL     OW18808   4.203   1.362  15.231 -0.2868 -0.0277 -0.3033
 2450SOL    HW118809   4.220   1.437  15.173  0.4131 -1.2921 -1.7222
 2450SOL    HW218810   4.109   1.350  15.217 -0.1049  0.0772 -1.6400
 2451SOL     OW18811   1.766   1.272  14.969  0.0066  0.1648  0.5714
 2451SOL    HW118812   1.738   1.320  14.890  2.4107 -0.2278 -0.5259
 2451SOL    HW218813   1.781   1.186  14.930  0.2458  0.8382 -0.8397
 2452SOL     OW18814   0.961   4.309  13.758 -0.1806 -0.1824 -0.0195
 2452SOL    HW118815   1.014   4.274  13.686 -1.7751  0.4176 -1.4665
 2452SOL    HW218816   0.888   4.248  13.770  0.2369 -0.7436 -0.3138
 2453SOL     OW18817   2.630   3.917   3.107 -0.2031  0.4107 -0.1902
 2453SOL    HW118818   2.722   3.913   3.081 -0.4272 -0.8904 -0.8019
 2453SOL    HW218819   2.618   4.008   3.132 -1.0466  0.4850 -0.8322
 2454SOL     OW18820   1.508   1.244   9.500  0.5004 -0.2323 -0.4139
 2454SOL    HW118821   1.541   1.273   9.416  0.1894  1.2208 -0.0350
 2454SOL    HW218822   1.484   1.154   9.474  0.7934 -0.4056 -0.0797
 2455SOL     OW18823   1.180   1.001   1.757  0.6683  0.1489  0.6155
 2455SOL    HW118824   1.180   1.074   1.819  0.5402  0.3275  0.4032
 2455SOL    HW218825   1.203   1.044   1.674  1.5065 -2.4454 -0.4869
 2456SOL     OW18826   3.391   2.924   4.939 -0.1245 -0.2081  0.0171
 2456SOL    HW118827   3.394   2.873   4.859 -0.2838  1.3397 -0.9819
 2456SOL    HW218828   3.349   3.003   4.904  0.4109  0.6267  1.2359
 2457SOL     OW18829   2.484   1.740   3.883  0.4564  0.6256  0.3520
 2457SOL    HW118830   2.391   1.736   3.904  0.6560 -0.0532  1.1215
 2457SOL    HW218831   2.496   1.657   3.837 -0.7408  0.4316  0.3905
 2458SOL     OW18832   2.334   3.964   9.848 -0.0460 -0.2568  0.3268
 2458SOL    HW118833   2.376   3.956   9.934  1.7674  0.5475 -0.4849
 2458SOL    HW218834   2.413   3.945   9.799 -1.3592 -0.5645 -1.6890
 2459SOL     OW18835   2.933   4.262   8.633 -0.4392  0.5800 -0.5571
 2459SOL    HW118836   3.020   4.222   8.622 -0.5452  0.2941 -0.3460
 2459SOL    HW218837   2.880   4.190   8.666  1.4606 -0.2959  0.6035
 2460SOL     OW18838   2.160   1.395   6.488  0.1200 -0.3387 -0.0319
 2460SOL    HW118839   2.207   1.474   6.460 -1.2511  0.5447  0.1999
 2460SOL    HW218840   2.180   1.336   6.415 -1.0206 -0.6976 -0.0556
 2461SOL     OW18841   1.983   0.532   7.229 -0.4904  0.2262 -0.8199
 2461SOL    HW118842   1.961   0.502   7.317 -0.4571  0.5417 -0.7038
 2461SOL    HW218843   2.035   0.460   7.193  0.8919  0.4247  0.7796
 2462SOL     OW18844   3.878   0.194   8.291 -0.3231 -0.7445  0.5383
 2462SOL    HW118845   3.943   0.264   8.291 -1.7485  0.5702  3.1543
 2462SOL    HW218846   3.885   0.174   8.198 -0.5241  1.4814  0.0665
 2463SOL     OW18847   0.384   4.448   6.038 -0.4593  0.3227  0.0800
 2463SOL    HW118848   0.465   4.481   6.077 -1.2936  0.4533  1.6970
 2463SOL    HW218849   0.388   4.357   6.068 -0.0083  0.2610 -0.1738
 2464SOL     OW18850   3.997   1.161   5.201  0.8688 -0.2021 -0.5320
 2464SOL    HW118851   3.969   1.202   5.119 -1.3486 -1.9868 -0.6897
 2464SOL    HW218852   3.958   1.221   5.265  0.4996  1.6844 -2.5352
 2465SOL     OW18853   1.044   2.896   3.843 -0.5800  0.3459  0.2709
 2465SOL    HW118854   0.959   2.855   3.859 -0.5481 -0.3308 -1.3079
 2465SOL    HW218855   1.096   2.828   3.886 -0.6713  0.1348  0.0502
 2466SOL     OW18856   1.029   3.979   2.168  0.3586 -0.0768 -0.4792
 2466SOL    HW118857   1.078   3.918   2.113 -0.1042 -0.1231 -0.8412
 2466SOL    HW218858   1.058   3.952   2.255 -0.3966  0.6682  0.0028
 2467SOL     OW18859   2.109   0.488   8.325  0.7823  0.1350 -0.1070
 2467SOL    HW118860   2.090   0.495   8.232  2.3579 -1.0969 -0.5109
 2467SOL    HW218861   2.024   0.462   8.359  0.5858  2.6544  1.3762
 2468SOL     OW18862   4.690   4.580   0.388 -0.3171  0.3163  0.7307
 2468SOL    HW118863   0.004   4.495   0.369 -1.4130  0.1396 -0.8546
 2468SOL    HW218864   0.014   4.634   0.328  2.3768 -1.4946  1.3857
 2469SOL     OW18865   2.320   2.634   9.022  0.5177  0.0537  0.2766
 2469SOL    HW118866   2.316   2.715   8.971 -2.3252  0.0998  0.6108
 2469SOL    HW218867   2.276   2.651   9.105  1.7371  2.8738  0.3334
 2470SOL     OW18868   0.236   1.235   5.971 -0.3573  0.1717 -0.1591
 2470SOL    HW118869   0.259   1.168   6.035 -0.4834  1.2224  0.9672
 2470SOL    HW218870   0.199   1.178   5.903 -2.6793  1.8498 -0.2916
 2471SOL     OW18871   4.408   0.439  10.014  0.1623  0.2102  0.2740
 2471SOL    HW118872   4.475   0.493  10.054  1.5604 -2.0423  0.9793
 2471SOL    HW218873   4.398   0.484   9.931 -0.0942  0.1469  0.2696
 2472SOL     OW18874   4.163   3.870   3.197  0.9996 -0.3062  0.4279
 2472SOL    HW118875   4.185   3.962   3.212  0.7709 -0.4557  1.7035
 2472SOL    HW218876   4.125   3.877   3.109  1.0911 -0.2825  0.3901
 2473SOL     OW18877   1.060   4.295   5.020 -0.5128  0.5517 -0.2478
 2473SOL    HW118878   1.121   4.250   5.078 -0.0373  0.7065 -0.6284
 2473SOL    HW218879   1.001   4.343   5.077  0.9831  1.7174  0.3194
 2474SOL     OW18880   1.251   1.517  12.003 -0.4625 -0.0019 -0.1874
 2474SOL    HW118881   1.240   1.436  11.954  0.9245  0.5460 -1.4008
 2474SOL    HW218882   1.321   1.549  11.946 -0.4089 -0.8556 -0.6147
 2475SOL     OW18883   3.568   4.554   4.658  0.1615 -0.5545  0.4228
 2475SOL    HW118884   3.614   4.598   4.587 -0.3093  0.5853  0.8194
 2475SOL    HW218885   3.635   4.499   4.700  0.8311 -0.2458 -0.2353
 2476SOL     OW18886   2.597   3.081   9.416 -0.6453 -0.4708 -0.2903
 2476SOL    HW118887   2.567   3.035   9.337 -0.2442 -0.8269 -0.2375
 2476SOL    HW218888   2.692   3.073   9.402 -0.5680 -0.8613  0.4519
 2477SOL     OW18889   0.166   2.441  13.892  0.3593 -0.1128 -0.2649
 2477SOL    HW118890   0.130   2.442  13.982 -0.7000  3.0769 -0.7229
 2477SOL    HW218891   0.107   2.507  13.856 -0.3601 -0.7216 -0.2069
 2478SOL     OW18892   1.324   1.970   4.169 -0.2221 -0.0489 -0.9904
 2478SOL    HW118893   1.231   1.953   4.155  0.1093 -2.5222 -0.2173
 2478SOL    HW218894   1.321   2.042   4.232  2.6311 -1.1965  0.4442
 2479SOL     OW18895   1.793   2.805   7.570  0.0441  1.2739 -0.0749
 2479SOL    HW118896   1.843   2.844   7.499 -1.2763  2.0557 -0.5737
 2479SOL    HW218897   1.710   2.850   7.555  0.3252  1.8102 -0.0154
 2480SOL     OW18898   2.353   3.922  12.326 -0.2523 -0.3790  0.0360
 2480SOL    HW118899   2.329   3.982  12.255 -0.1891 -1.6958 -1.0802
 2480SOL    HW218900   2.430   3.971  12.355 -0.1945 -2.5216  3.5713
 2481SOL     OW18901   1.024   2.287   5.679 -0.2189  0.3286 -0.3940
 2481SOL    HW118902   1.012   2.208   5.626 -0.2062  0.9625 -1.3432
 2481SOL    HW218903   1.030   2.252   5.767 -0.6235  1.3723  0.0553
 2482SOL     OW18904   2.591   2.969   2.415  0.2479  0.4585 -0.4192
 2482SOL    HW118905   2.673   2.946   2.460 -0.6718 -1.0243  0.4908
 2482SOL    HW218906   2.540   2.889   2.416  0.2578  0.4516 -0.4479
 2483SOL     OW18907   4.658   0.876   8.931  0.1957 -0.0392 -0.6402
 2483SOL    HW118908   4.666   0.870   9.026 -1.6470  1.1404 -0.4018
 2483SOL    HW218909   0.014   0.924   8.932  0.6520 -0.8657  1.0970
 2484SOL     OW18910   3.162   2.131   2.520  0.2864 -0.2570  0.5380
 2484SOL    HW118911   3.154   2.048   2.473  0.8039 -1.8581  3.2086
 2484SOL    HW218912   3.082   2.177   2.496  1.0167  1.3863  1.2497
 2485SOL     OW18913   3.949   3.362   1.041 -0.3025  0.2034  0.2046
 2485SOL    HW118914   3.995   3.302   1.100  1.3866  1.0968 -0.1991
 2485SOL    HW218915   4.023   3.386   0.986  1.0716 -1.2659  1.3989
 2486SOL     OW18916   1.918   2.237   2.884 -0.5254 -0.2407 -0.1058
 2486SOL    HW118917   1.826   2.250   2.909 -0.3611  0.3959  0.1714
 2486SOL    HW218918   1.954   2.298   2.948 -2.7621 -0.8527  1.7133
 2487SOL     OW18919   2.587   3.751   5.669  0.2385  0.0900 -0.0483
 2487SOL    HW118920   2.678   3.775   5.651  0.5588  0.5454  2.1289
 2487SOL    HW218921   2.539   3.782   5.592 -1.8145 -1.8799  0.4719
 2488SOL     OW18922   3.684   3.072   6.364  0.0908 -0.3875  0.5068
 2488SOL    HW118923   3.742   3.004   6.397  0.3064 -0.1524  0.6120
 2488SOL    HW218924   3.661   3.097   6.453 -3.1591 -1.0541 -0.1417
 2489SOL     OW18925   2.373   2.774  10.604  0.8599  0.0172 -0.4470
 2489SOL    HW118926   2.423   2.839  10.654 -1.1357  0.4314  1.0109
 2489SOL    HW218927   2.357   2.821  10.522  0.2395 -0.4313 -0.5817
 2490SOL     OW18928   2.747   0.963  16.613 -0.3676  0.5072  0.6390
 2490SOL    HW118929   2.820   1.014  16.647 -0.8031  1.5991 -0.0708
 2490SOL    HW218930   2.694   0.962  16.693  1.0150 -0.1419  1.5589
 2491SOL     OW18931   2.834   1.884   3.075 -0.3608 -0.0936 -0.3106
 2491SOL    HW118932   2.863   1.975   3.066  0.8282 -0.5318 -0.8780
 2491SOL    HW218933   2.750   1.892   3.029 -0.0862  1.1785 -0.5839
 2492SOL     OW18934   1.175   2.426   1.863  0.2138 -0.0620 -0.1418
 2492SOL    HW118935   1.215   2.512   1.873  2.5661 -1.3543  1.4151
 2492SOL    HW218936   1.156   2.435   1.770  1.6799 -0.0192 -0.4288
 2493SOL     OW18937   2.875   2.412   6.424  0.2526  0.4643 -0.2412
 2493SOL    HW118938   2.926   2.371   6.494 -0.9788  0.1279  0.4697
 2493SOL    HW218939   2.802   2.352   6.407  1.4670 -0.7356 -1.1843
 2494SOL     OW18940   0.650   1.084   3.109  0.4559  0.8301  0.0909
 2494SOL    HW118941   0.602   1.098   3.027  0.9945 -1.1493 -0.5811
 2494SOL    HW218942   0.739   1.112   3.087  0.5937 -1.2359 -2.1193
 2495SOL     OW18943   2.688   1.691  10.618 -0.1489 -0.5037 -0.3668
 2495SOL    HW118944   2.717   1.600  10.621  1.3700  0.0660  1.9957
 2495SOL    HW218945   2.771   1.737  10.604 -1.8652  2.5833 -0.4052
 2496SOL     OW18946   4.347   2.739   2.317  0.1902  0.0061 -0.2042
 2496SOL    HW118947   4.277   2.734   2.252 -0.4317 -1.4543  0.5810
 2496SOL    HW218948   4.298   2.724   2.398  0.3618  2.2984  0.3346
 2497SOL     OW18949   2.614   2.684  15.725 -0.2543 -0.6670 -0.1135
 2497SOL    HW118950   2.563   2.760  15.698  0.9328  0.5748  1.1660
 2497SOL    HW218951   2.563   2.612  15.687  0.3099 -1.5003  0.7288
 2498SOL     OW18952   2.508   2.284   0.418  0.4412  0.1612  0.1478
 2498SOL    HW118953   2.420   2.321   0.408  0.4782  0.5294  1.1679
 2498SOL    HW218954   2.558   2.349   0.368 -0.0639  0.6569  0.2808
 2499SOL     OW18955   3.409   2.230   4.421  0.8413  0.2750  0.9804
 2499SOL    HW118956   3.364   2.181   4.351  0.8170 -0.9664  1.8558
 2499SOL    HW218957   3.474   2.165   4.448  0.0585 -1.4040 -1.1891
 2500SOL     OW18958   4.462   0.467  12.692  0.4829 -0.4158 -0.3335
 2500SOL    HW118959   4.414   0.546  12.666 -0.0073 -0.2127  1.1603
 2500SOL    HW218960   4.398   0.427  12.751 -1.4407  4.0726  0.6090
 2501SOL     OW18961   3.715   3.931   0.391  0.0674 -0.2223  0.2882
 2501SOL    HW118962   3.714   3.842   0.356  2.2503 -0.7383  1.5315
 2501SOL    HW218963   3.791   3.968   0.344  1.3667 -1.1033  1.7000
 2502SOL     OW18964   4.359   1.139  15.233 -0.5190 -0.5780  0.2426
 2502SOL    HW118965   4.419   1.130  15.160 -3.1925  0.3116 -2.0633
 2502SOL    HW218966   4.305   1.216  15.215  0.6094  0.4214  1.1518
 2503SOL     OW18967   3.896   1.896   7.066  0.0026  0.0131  0.4141
 2503SOL    HW118968   3.801   1.894   7.067 -0.0237  1.3698  1.0100
 2503SOL    HW218969   3.912   1.829   7.132  0.6635  0.1671  0.4086
 2504SOL     OW18970   4.257   3.266   4.529  0.0488  0.7538  0.5717
 2504SOL    HW118971   4.323   3.222   4.476 -2.0547  0.2131 -1.6042
 2504SOL    HW218972   4.271   3.355   4.499 -2.4770 -0.3456 -3.9120
 2505SOL     OW18973   3.107   2.959   3.783 -0.5078 -0.5782 -0.4533
 2505SOL    HW118974   3.049   2.903   3.833 -0.5729 -1.2044 -1.2385
 2505SOL    HW218975   3.110   2.916   3.697  0.6055  1.5219 -1.4932
 2506SOL     OW18976   0.780   1.952   5.132  0.6716 -0.0226  0.3433
 2506SOL    HW118977   0.791   1.860   5.109  1.7743 -0.3829  2.2938
 2506SOL    HW218978   0.857   1.955   5.188 -0.6334  1.8728  2.0330
 2507SOL     OW18979   1.301   0.289  17.122 -0.1533  0.5844  0.2095
 2507SOL    HW118980   1.316   0.372  17.076 -0.1546  1.6251  2.0793
 2507SOL    HW218981   1.209   0.274  17.100 -0.2432 -0.8029  1.5524
 2508SOL     OW18982   4.193   3.613   5.412 -0.0642 -0.2560 -0.0274
 2508SOL    HW118983   4.148   3.641   5.492 -0.1244 -0.9193  0.1650
 2508SOL    HW218984   4.268   3.562   5.442  0.4085 -0.4759 -1.5864
 2509SOL     OW18985   3.755   1.764   9.276 -0.0497 -0.3107  0.2627
 2509SOL    HW118986   3.754   1.761   9.180 -0.5145 -1.4224  0.2989
 2509SOL    HW218987   3.812   1.691   9.298  1.5344  0.7136 -0.4222
 2510SOL     OW18988   4.450   3.114   4.387 -0.1973  0.3602 -0.1274
 2510SOL    HW118989   4.544   3.128   4.395 -0.0426  1.2832 -3.7272
 2510SOL    HW218990   4.461   3.022   4.361  2.5440  0.6748 -0.0747
 2511SOL     OW18991   2.138   3.396   7.460  0.0689 -0.1853  0.2054
 2511SOL    HW118992   2.166   3.307   7.481  0.3249 -0.1608 -0.0287
 2511SOL    HW218993   2.123   3.435   7.546  2.0625  1.5095 -0.2113
 2512SOL     OW18994   1.481   2.169   5.924  0.3947  1.0575 -0.0483
 2512SOL    HW118995   1.535   2.245   5.905 -0.4063  0.7242 -3.7305
 2512SOL    HW218996   1.459   2.143   5.834  0.0127 -0.8880  0.5904
 2513SOL     OW18997   3.495   4.016   0.515 -0.0195  0.2239  0.1103
 2513SOL    HW118998   3.520   4.089   0.572  0.1754 -0.0938  0.4355
 2513SOL    HW218999   3.575   3.989   0.470  0.8460 -0.1195  1.8256
 2514SOL     OW19000   3.827   1.682   4.523 -0.0882 -0.3734 -0.0965
 2514SOL    HW119001   3.841   1.640   4.438 -2.2418  0.3276 -0.8040
 2514SOL    HW219002   3.884   1.757   4.503 -0.0748 -0.1000  0.9731
 2515SOL     OW19003   4.298   0.767  16.132  0.4252  0.8766 -0.4145
 2515SOL    HW119004   4.271   0.743  16.043  0.6429 -1.1433  0.0613
 2515SOL    HW219005   4.222   0.741  16.185  2.3596  0.4004  2.1078
 2516SOL     OW19006   1.560   2.440   4.582 -0.0281 -0.1849 -0.0470
 2516SOL    HW119007   1.568   2.443   4.678 -0.1081  2.5019 -0.1203
 2516SOL    HW219008   1.579   2.531   4.561 -0.1448 -0.0409  0.4567
 2517SOL     OW19009   1.629   1.252  16.151  0.3468  0.1908  0.7571
 2517SOL    HW119010   1.634   1.157  16.138  3.5798  0.1980  1.9734
 2517SOL    HW219011   1.711   1.278  16.110  0.8898 -3.0358 -0.2060
 2518SOL     OW19012   1.220   3.057  15.005 -0.2306  0.1555 -0.3711
 2518SOL    HW119013   1.133   3.019  15.010 -0.2832  0.3977  0.4704
 2518SOL    HW219014   1.218   3.108  14.923 -0.5026  1.3466  0.3717
 2519SOL     OW19015   4.143   4.621   1.779  0.3486 -0.1611 -0.4060
 2519SOL    HW119016   4.097   4.685   1.724 -1.5532 -0.6076  0.6473
 2519SOL    HW219017   4.149   4.670   1.861 -2.4996  1.1233 -0.9691
 2520SOL     OW19018   2.050   4.537  10.934  0.2463 -0.3185  0.0080
 2520SOL    HW119019   2.069   4.532  10.840  1.2569 -1.1304  0.2582
 2520SOL    HW219020   1.971   4.486  10.917 -0.3390  0.3025  0.8528
 2521SOL     OW19021   2.034   0.465   9.597  0.3909 -0.4341 -0.4501
 2521SOL    HW119022   2.121   0.425   9.599  0.2668 -0.7119 -0.6049
 2521SOL    HW219023   1.981   0.389   9.574 -1.6091  0.7024  0.3864
 2522SOL     OW19024   0.870   2.419   3.903 -0.4314 -0.0070 -0.8692
 2522SOL    HW119025   0.951   2.425   3.852  1.3700  0.0846  2.0214
 2522SOL    HW219026   0.815   2.410   3.825 -0.4027  1.1570 -1.0279
 2523SOL     OW19027   3.097   3.486   5.136  0.5196  0.1694  0.6530
 2523SOL    HW119028   3.005   3.481   5.113 -0.0785 -0.4208  3.1962
 2523SOL    HW219029   3.124   3.562   5.084 -1.6113 -1.0732 -2.2105
 2524SOL     OW19030   2.093   0.345   5.488  1.3182 -0.5389 -0.0593
 2524SOL    HW119031   2.027   0.413   5.499  0.4379 -1.4755  0.4288
 2524SOL    HW219032   2.110   0.329   5.395 -0.9290 -0.1718 -0.5268
 2525SOL     OW19033   3.387   1.425  16.602 -0.1447  0.6811  0.2350
 2525SOL    HW119034   3.385   1.337  16.637 -0.9584 -0.1179 -1.8052
 2525SOL    HW219035   3.433   1.410  16.519  0.0096 -2.0836  0.8448
 2526SOL     OW19036   2.945   1.741   2.364 -0.1490  0.2958  0.6072
 2526SOL    HW119037   2.877   1.781   2.419 -0.9417 -0.8293  0.4468
 2526SOL    HW219038   3.014   1.764   2.426  0.2995  0.6270 -0.0157
 2527SOL     OW19039   1.984   0.888   8.055  0.6955  0.7852 -0.5446
 2527SOL    HW119040   2.012   0.948   7.986 -0.3763 -0.4099 -2.0374
 2527SOL    HW219041   1.949   0.958   8.110 -0.2699 -2.8964  3.5552
 2528SOL     OW19042   0.255   3.463  10.431 -0.1790  1.1056 -0.1682
 2528SOL    HW119043   0.335   3.444  10.479 -0.1273  0.2807 -0.5779
 2528SOL    HW219044   0.187   3.442  10.496 -1.0850  0.0957 -1.4398
 2529SOL     OW19045   2.979   3.982   3.759  0.6339 -0.3073 -0.9065
 2529SOL    HW119046   2.902   4.012   3.712  0.1087 -0.6307 -0.2609
 2529SOL    HW219047   3.004   3.915   3.695 -0.1547 -0.3074 -1.2154
 2530SOL     OW19048   4.506   2.632   1.032  0.2907  0.2476  0.1871
 2530SOL    HW119049   4.497   2.543   0.999  2.0789  0.3394 -0.5233
 2530SOL    HW219050   4.419   2.668   1.049  0.9524  1.9634 -0.0486
 2531SOL     OW19051   4.403   3.854   7.290  0.3149  0.1021  0.5057
 2531SOL    HW119052   4.340   3.833   7.221  0.6257  0.7474  0.0245
 2531SOL    HW219053   4.357   3.822   7.368  0.2647 -1.5965 -0.2233
 2532SOL     OW19054   2.313   3.221   5.058 -0.1648  0.4377  0.2618
 2532SOL    HW119055   2.248   3.196   4.993  0.5082 -1.0862  0.1826
 2532SOL    HW219056   2.351   3.299   5.018  0.9938 -0.5882 -0.6589
 2533SOL     OW19057   4.551   3.823   3.346 -0.9778 -0.3167 -0.3647
 2533SOL    HW119058   4.608   3.764   3.297 -0.5851 -1.6708  1.7258
 2533SOL    HW219059   4.514   3.880   3.279 -2.6267  0.2442  1.0499
 2534SOL     OW19060   2.061   3.479  12.621 -0.2257  0.4704 -0.4002
 2534SOL    HW119061   2.024   3.567  12.622 -1.0299  0.0928  3.3830
 2534SOL    HW219062   1.994   3.428  12.667 -0.2556  1.1316  0.2909
 2535SOL     OW19063   3.928   1.581   4.741 -0.2720  0.0238 -0.3278
 2535SOL    HW119064   3.851   1.528   4.761 -0.2023  0.4155  1.0028
 2535SOL    HW219065   3.908   1.633   4.663 -2.0265  0.9424  0.7463
 2536SOL     OW19066   4.525   0.698   8.740  0.6732  0.0347  0.3526
 2536SOL    HW119067   4.526   0.762   8.811 -0.2193 -1.0884  1.3890
 2536SOL    HW219068   4.618   0.677   8.744  0.6372 -0.2082 -0.1404
 2537SOL     OW19069   3.860   3.733   9.265  0.0305 -0.0847  0.0418
 2537SOL    HW119070   3.790   3.692   9.214 -2.0532  2.0644  1.2030
 2537SOL    HW219071   3.923   3.660   9.264  0.1719  0.0663 -1.5496
 2538SOL     OW19072   1.824   1.741   4.312  0.1080  0.4479  0.2645
 2538SOL    HW119073   1.733   1.722   4.289 -0.1866  1.2055  0.7793
 2538SOL    HW219074   1.812   1.775   4.401  0.5491  1.6974 -0.1506
 2539SOL     OW19075   4.290   2.511   7.659 -0.4179  0.6421  0.2572
 2539SOL    HW119076   4.282   2.597   7.700  3.0185 -0.3617  3.0816
 2539SOL    HW219077   4.327   2.529   7.573 -1.8539 -4.6907 -1.4776
 2540SOL     OW19078   2.045   3.433  11.393 -0.0229 -0.4389 -0.0781
 2540SOL    HW119079   1.960   3.459  11.428 -0.4089 -0.1259 -1.2637
 2540SOL    HW219080   2.052   3.351  11.442  1.8991  0.3181  0.8963
 2541SOL     OW19081   1.808   0.593  11.311 -0.2748 -0.1639  0.1959
 2541SOL    HW119082   1.724   0.623  11.348 -0.4313 -0.3624  0.0027
 2541SOL    HW219083   1.821   0.517  11.368 -1.0370 -0.1928  0.3419
 2542SOL     OW19084   0.343   0.779   2.620  0.5399 -0.3837  0.0462
 2542SOL    HW119085   0.385   0.827   2.549  1.8072  0.1633  1.1769
 2542SOL    HW219086   0.259   0.823   2.635  1.0513 -0.0255  1.8207
 2543SOL     OW19087   2.397   4.292   3.275  0.1082 -0.1358  0.3149
 2543SOL    HW119088   2.447   4.358   3.226 -0.2320  0.4277  0.7334
 2543SOL    HW219089   2.341   4.271   3.201 -0.6664  1.3159  0.5010
 2544SOL     OW19090   0.286   3.487   8.179 -0.1061 -0.0937  0.0037
 2544SOL    HW119091   0.286   3.400   8.218  0.8461 -0.4865 -0.8602
 2544SOL    HW219092   0.191   3.500   8.173  0.1916  1.3337 -1.7251
 2545SOL     OW19093   2.379   2.994   7.800 -0.5581  0.0144 -0.2444
 2545SOL    HW119094   2.390   2.999   7.895 -0.2072 -0.8033 -0.2405
 2545SOL    HW219095   2.391   3.084   7.771 -0.3716 -0.2248 -0.9251
 2546SOL     OW19096   1.064   4.130   2.466 -0.3141  0.5870 -0.3515
 2546SOL    HW119097   1.102   4.206   2.510  0.1883  0.2152 -0.1540
 2546SOL    HW219098   1.052   4.065   2.535 -3.1273  1.6206  0.1519
 2547SOL     OW19099   3.259   1.082  16.418  0.5450 -0.3866 -0.2941
 2547SOL    HW119100   3.242   1.168  16.380  1.5095  0.0401  0.2440
 2547SOL    HW219101   3.180   1.038  16.386  0.0887 -0.2425  0.6187
 2548SOL     OW19102   4.705   0.985  11.256 -0.0218 -0.2884 -0.2951
 2548SOL    HW119103   0.027   0.903  11.265  1.7084  1.0493  2.5516
 2548SOL    HW219104   0.036   1.053  11.292  0.4378 -0.6231 -0.4063
 2549SOL     OW19105   0.435   2.625   0.825  0.0907  0.3420  0.4002
 2549SOL    HW119106   0.361   2.571   0.796  1.6747  0.1297 -3.2110
 2549SOL    HW219107   0.390   2.708   0.843 -1.3238 -0.5595  0.9926
 2550SOL     OW19108   1.758   3.745   2.192 -0.4619 -0.3096 -0.0291
 2550SOL    HW119109   1.772   3.796   2.272  1.8461 -0.0736 -0.5820
 2550SOL    HW219110   1.756   3.814   2.125 -3.3601  0.5330  0.9164
 2551SOL     OW19111   4.594   4.512   3.738 -0.0347 -1.1003  0.7729
 2551SOL    HW119112   4.517   4.459   3.756 -1.0348 -0.3142 -1.1725
 2551SOL    HW219113   4.668   4.456   3.762  0.9393 -0.8573 -1.7109
 2552SOL     OW19114   2.006   0.235   7.308 -0.5936  0.1434 -0.6770
 2552SOL    HW119115   1.961   0.240   7.224  0.6556  1.5336 -1.2565
 2552SOL    HW219116   2.096   0.244   7.278 -0.6693  2.6142 -0.1560
 2553SOL     OW19117   1.153   2.678   3.923 -0.1295 -0.5982  0.1872
 2553SOL    HW119118   1.119   2.626   3.996 -1.9183  2.0623  1.2759
 2553SOL    HW219119   1.236   2.635   3.904  0.0101 -1.1939  2.1332
 2554SOL     OW19120   1.287   1.666   2.020 -0.3419 -0.2542 -0.3443
 2554SOL    HW119121   1.244   1.609   1.956  0.2355 -1.3385  0.2306
 2554SOL    HW219122   1.372   1.675   1.978 -0.7492  1.7668 -0.7161
 2555SOL     OW19123   4.164   1.784  13.970 -0.1749  0.0573  0.0772
 2555SOL    HW119124   4.214   1.713  13.929 -0.4293 -0.1625  0.1520
 2555SOL    HW219125   4.081   1.784  13.923 -0.6901  1.9469  0.9889
 2556SOL     OW19126   3.042   3.705  16.494 -0.4895  0.1218 -0.2753
 2556SOL    HW119127   3.129   3.732  16.464 -0.3922  0.4395  0.3023
 2556SOL    HW219128   3.018   3.652  16.417  2.3820  1.7414 -2.2830
 2557SOL     OW19129   3.755   0.508   1.686 -0.2370 -0.0838  0.9025
 2557SOL    HW119130   3.748   0.570   1.613  0.4913 -1.2495 -0.1578
 2557SOL    HW219131   3.698   0.436   1.656 -0.2739  0.3365 -0.0427
 2558SOL     OW19132   1.522   3.371   2.653 -0.3717 -0.0203 -0.7267
 2558SOL    HW119133   1.501   3.311   2.581 -1.2831 -1.1129  0.4703
 2558SOL    HW219134   1.519   3.316   2.731  0.6656 -2.7090 -2.5610
 2559SOL     OW19135   0.247   2.307   2.806 -0.3651  0.1587  0.4737
 2559SOL    HW119136   0.290   2.237   2.757 -0.1094  1.5737 -1.3321
 2559SOL    HW219137   0.265   2.378   2.744 -1.2656 -0.2155 -0.2198
 2560SOL     OW19138   1.918   1.782   0.384  0.5982  0.7007  0.2299
 2560SOL    HW119139   1.851   1.718   0.409  2.0542  0.4235  3.4914
 2560SOL    HW219140   1.974   1.786   0.462 -2.0026 -0.3665  2.1731
 2561SOL     OW19141   4.496   1.569  12.173 -0.3129 -0.2950 -0.0681
 2561SOL    HW119142   4.442   1.559  12.251 -0.5772  0.7119 -0.1197
 2561SOL    HW219143   4.433   1.609  12.113  2.9848  1.8177 -2.1287
 2562SOL     OW19144   3.053   3.840   3.551  0.1694 -0.1982  0.1753
 2562SOL    HW119145   3.073   3.750   3.575  1.1976  0.5448  2.1640
 2562SOL    HW219146   3.101   3.855   3.470 -0.9082  1.6810 -0.1096
 2563SOL     OW19147   1.035   3.872   4.218 -0.0999 -0.3125  0.5498
 2563SOL    HW119148   1.077   3.958   4.222 -1.3772  0.2720  1.2279
 2563SOL    HW219149   1.116   3.822   4.201  0.5561  1.2903 -1.0853
 2564SOL     OW19150   0.247   3.468  17.128 -0.0399 -0.3271  0.0172
 2564SOL    HW119151   0.230   3.374  17.117  1.1249 -0.4907 -0.4686
 2564SOL    HW219152   0.341   3.478  17.115  0.1027  1.2752  2.3532
 2565SOL     OW19153   3.086   1.756   6.737  0.1014 -0.2480  0.0809
 2565SOL    HW119154   2.992   1.754   6.750  0.2133 -0.7725  0.7870
 2565SOL    HW219155   3.121   1.680   6.782 -1.4718 -0.7293  0.4822
 2566SOL     OW19156   0.375   4.631   6.821 -0.4022  0.2913 -0.0815
 2566SOL    HW119157   0.370   4.676   6.905 -0.4174 -0.0066  0.0808
 2566SOL    HW219158   0.292   4.582   6.820  0.8649 -1.8832  0.0482
 2567SOL     OW19159   1.190   1.449  10.944  0.0081 -0.3380  0.4041
 2567SOL    HW119160   1.215   1.520  11.003 -1.7057  2.2714 -1.9913
 2567SOL    HW219161   1.242   1.458  10.864 -0.4805 -1.3599 -0.0245
 2568SOL     OW19162   1.404   2.336   3.540  0.6015  0.3898 -0.0953
 2568SOL    HW119163   1.325   2.338   3.594 -0.7147 -1.2764 -1.9665
 2568SOL    HW219164   1.384   2.254   3.495  0.1036  0.6546 -0.3644
 2569SOL     OW19165   3.338   1.632  12.281 -0.8175  0.1493  0.0829
 2569SOL    HW119166   3.377   1.696  12.340  1.0430 -1.5795  0.7329
 2569SOL    HW219167   3.393   1.557  12.304 -0.4092  0.9259  1.6076
 2570SOL     OW19168   4.296   0.430  10.953  0.2477 -1.0655  0.0687
 2570SOL    HW119169   4.261   0.427  11.042 -0.1441 -0.5915 -0.0718
 2570SOL    HW219170   4.364   0.496  10.966  0.3816 -1.1449 -0.2126
 2571SOL     OW19171   0.012   3.589  11.032  0.2884  0.4525  0.4904
 2571SOL    HW119172   4.695   3.645  11.096 -0.6967  0.4304 -0.1602
 2571SOL    HW219173   4.690   3.615  10.954 -0.1882 -2.3224 -0.1313
 2572SOL     OW19174   4.657   3.234   9.486 -0.3605 -0.5382  0.3952
 2572SOL    HW119175   4.612   3.299   9.540 -0.4481 -2.3270  2.5034
 2572SOL    HW219176   4.620   3.149   9.510  0.1497 -0.4675  1.4374
 2573SOL     OW19177   2.259   4.677   4.694 -0.3758 -0.0765  0.3126
 2573SOL    HW119178   2.340   4.719   4.725 -0.6744 -0.9642  2.3177
 2573SOL    HW219179   2.296   4.632   4.618 -0.8566 -0.1448  0.1236
 2574SOL     OW19180   2.680   0.401   7.638 -0.3635  0.1290 -0.0984
 2574SOL    HW119181   2.658   0.330   7.698 -0.1932 -0.8397 -1.1824
 2574SOL    HW219182   2.775   0.407   7.640 -0.5030  2.0374  0.5728
 2575SOL     OW19183   2.792   1.540   0.902 -0.0194 -0.0432  0.3805
 2575SOL    HW119184   2.747   1.602   0.845  0.4367  0.0163  0.0870
 2575SOL    HW219185   2.852   1.593   0.955  0.1199  0.1622  0.0171
 2576SOL     OW19186   1.581   1.373  17.388  0.4328 -0.1295 -0.7173
 2576SOL    HW119187   1.600   1.408  17.301  0.5222  0.8875 -0.2945
 2576SOL    HW219188   1.489   1.348  17.384  0.3771 -0.1305  0.4700
 2577SOL     OW19189   0.423   1.854   7.162  0.1481 -0.0325  0.3866
 2577SOL    HW119190   0.414   1.947   7.183  1.9751  0.8312 -2.6544
 2577SOL    HW219191   0.400   1.815   7.246  0.1828 -0.9690 -0.0375
 2578SOL     OW19192   2.555   1.606   6.323 -0.2119 -0.5703  0.0603
 2578SOL    HW119193   2.588   1.545   6.256 -0.1639  0.1191 -0.5397
 2578SOL    HW219194   2.552   1.688   6.275  0.6433  0.7271  2.2499
 2579SOL     OW19195   4.133   3.975   7.466 -0.1575 -0.2235 -0.9628
 2579SOL    HW119196   4.175   4.020   7.539  0.5846  0.0693 -1.5679
 2579SOL    HW219197   4.081   4.042   7.421 -1.1997 -0.1236  0.3943
 2580SOL     OW19198   1.714   2.606   1.788 -0.5232 -0.0427 -0.3084
 2580SOL    HW119199   1.717   2.568   1.876 -0.8025  0.1474 -0.2140
 2580SOL    HW219200   1.690   2.697   1.810 -1.4817 -0.6653  1.2276
 2581SOL     OW19201   1.144   1.510   2.763  0.0450  0.4754 -0.0645
 2581SOL    HW119202   1.086   1.539   2.833 -1.0591 -0.0757 -0.7446
 2581SOL    HW219203   1.142   1.576   2.694  0.1284  0.7359  0.1817
 2582SOL     OW19204   2.381   4.605   6.720 -0.2429 -0.1009  0.0856
 2582SOL    HW119205   2.454   4.644   6.673 -0.0201 -0.5489  0.0571
 2582SOL    HW219206   2.415   4.597   6.809 -0.3169 -0.1588  0.1093
 2583SOL     OW19207   0.120   2.036   4.684  0.6633 -0.3269  0.3731
 2583SOL    HW119208   0.168   2.018   4.765 -0.6042 -1.2783  0.9151
 2583SOL    HW219209   0.166   2.116   4.657  2.4679 -1.6381 -0.4148
 2584SOL     OW19210   1.527   3.348   5.487 -0.3914  0.4678  0.4692
 2584SOL    HW119211   1.493   3.388   5.568 -1.2343  1.4095 -0.3359
 2584SOL    HW219212   1.448   3.328   5.437 -1.1539 -0.2699  1.9840
 2585SOL     OW19213   0.661   4.417   4.536  0.0573 -0.8522 -0.1399
 2585SOL    HW119214   0.617   4.455   4.459  2.0770  1.1469 -0.3052
 2585SOL    HW219215   0.730   4.482   4.544 -0.4833 -0.3530  0.4380
 2586SOL     OW19216   0.866   0.490   7.016 -0.4731  0.4516 -0.3016
 2586SOL    HW119217   0.865   0.568   6.961  0.9797  0.8499  0.2308
 2586SOL    HW219218   0.777   0.454   7.016 -0.0265 -0.6471 -0.2385
 2587SOL     OW19219   0.909   4.026   6.513  0.6621 -0.1053 -0.0842
 2587SOL    HW119220   0.876   3.937   6.528  1.2697  0.0749  2.2884
 2587SOL    HW219221   0.906   4.058   6.603 -1.0071 -0.7886  0.0939
 2588SOL     OW19222   0.922   3.391  16.908  0.0086  0.0559  0.2955
 2588SOL    HW119223   0.925   3.300  16.936  0.4425  0.7545  2.5129
 2588SOL    HW219224   0.830   3.401  16.882  0.0260  0.5561  0.4276
 2589SOL     OW19225   2.196   1.442  10.585 -0.1843  0.9658  0.1293
 2589SOL    HW119226   2.127   1.490  10.630 -0.5377  1.0754 -0.5208
 2589SOL    HW219227   2.241   1.413  10.663 -1.3929  3.2168  1.6816
 2590SOL     OW19228   1.378   0.619  14.258 -0.1772  0.3727 -0.2220
 2590SOL    HW119229   1.454   0.675  14.275  1.2260 -1.6293  0.1557
 2590SOL    HW219230   1.411   0.564  14.187  1.1914  1.1237 -0.1653
 2591SOL     OW19231   4.138   0.444   8.768  0.3364 -0.2888 -0.1544
 2591SOL    HW119232   4.132   0.499   8.847 -0.3780  0.9489 -1.0689
 2591SOL    HW219233   4.211   0.383   8.776  0.5458 -0.4182 -3.0732
 2592SOL     OW19234   2.229   2.720   9.288 -0.1790  0.6233  0.2004
 2592SOL    HW119235   2.203   2.808   9.260  0.1697 -0.3332 -3.2231
 2592SOL    HW219236   2.236   2.740   9.381 -1.0854  1.0257  0.1835
 2593SOL     OW19237   3.500   0.922   3.321  0.2467  0.4006  0.1333
 2593SOL    HW119238   3.473   0.842   3.367 -0.7586  1.6229  1.6309
 2593SOL    HW219239   3.416   0.959   3.295  0.4872  1.3490  0.7342
 2594SOL     OW19240   3.187   0.762   6.268  0.0694  0.2023  0.1274
 2594SOL    HW119241   3.169   0.777   6.361 -2.6366  0.0643 -0.3954
 2594SOL    HW219242   3.277   0.730   6.280 -0.6975 -1.2177  2.0816
 2595SOL     OW19243   3.087   3.434  11.387  0.3031 -0.4576  0.3998
 2595SOL    HW119244   3.038   3.399  11.461 -0.4117  2.6246  1.4077
 2595SOL    HW219245   3.141   3.507  11.418  1.0737  0.0887 -2.2556
 2596SOL     OW19246   2.428   0.238   1.766 -0.7293  0.2769  0.4857
 2596SOL    HW119247   2.475   0.206   1.689 -0.0820 -0.5831  1.2485
 2596SOL    HW219248   2.466   0.181   1.833 -0.7607 -0.0085  0.2566
 2597SOL     OW19249   0.152   2.541   6.961  0.2655  0.3529 -0.0809
 2597SOL    HW119250   0.095   2.594   7.018  0.3056 -0.2960  0.5575
 2597SOL    HW219251   0.214   2.605   6.926 -2.0900  0.4690 -4.0356
 2598SOL     OW19252   4.638   1.823   4.041  0.5259  0.2292 -0.5212
 2598SOL    HW119253   4.663   1.734   4.066 -0.7074  0.7655  2.6894
 2598SOL    HW219254   4.603   1.869   4.118 -1.4640 -0.0149 -1.2761
 2599SOL     OW19255   1.419   4.097   6.251  0.3867  0.0494 -0.3246
 2599SOL    HW119256   1.345   4.082   6.193  0.1481  1.3052 -0.3424
 2599SOL    HW219257   1.425   4.192   6.263 -0.5316  0.2454 -1.3886
 2600SOL     OW19258   3.797   4.572  14.282  0.3882  0.4171  0.1845
 2600SOL    HW119259   3.811   4.612  14.196 -1.2583  2.4698  0.8738
 2600SOL    HW219260   3.880   4.524  14.289 -1.6737 -2.7816  2.7818
 2601SOL     OW19261   4.717   2.229   0.915 -0.5607  0.1682  0.0445
 2601SOL    HW119262   4.655   2.171   0.872 -1.9454  1.2440  0.5923
 2601SOL    HW219263   4.661   2.264   0.984  0.6617  0.5059  0.8780
 2602SOL     OW19264   1.557   1.548   4.645 -0.2346 -0.6969  0.4985
 2602SOL    HW119265   1.633   1.601   4.669  0.3940  0.5626 -4.1312
 2602SOL    HW219266   1.556   1.496   4.725  2.0633  0.8809  1.5607
 2603SOL     OW19267   0.376   0.850   3.968  0.3102 -0.2015  0.4790
 2603SOL    HW119268   0.385   0.793   3.892 -0.2829 -0.7983  0.8487
 2603SOL    HW219269   0.324   0.921   3.932 -1.4156 -0.5226  2.2782
 2604SOL     OW19270   0.936   1.885   3.639  0.6716 -0.4286 -0.3102
 2604SOL    HW119271   0.902   1.819   3.698 -1.6425  2.2796  1.3937
 2604SOL    HW219272   1.028   1.897   3.665  0.9804  0.7443 -1.8780
 2605SOL     OW19273   0.889   3.769  16.835 -0.4076 -0.1490  0.2525
 2605SOL    HW119274   0.827   3.697  16.822  0.0043 -0.1135 -1.8100
 2605SOL    HW219275   0.924   3.766  16.746  1.3691  0.8120  0.9117
 2606SOL     OW19276   4.137   1.314  16.450  0.3199  0.3805  0.6785
 2606SOL    HW119277   4.058   1.358  16.418  0.0523  0.9255  2.0921
 2606SOL    HW219278   4.098   1.228  16.434  1.1549  0.5757 -2.4521
 2607SOL     OW19279   3.504   0.303   6.290  0.2766  0.1267 -0.1937
 2607SOL    HW119280   3.564   0.376   6.303  1.7675 -0.8838 -1.3926
 2607SOL    HW219281   3.449   0.335   6.219 -1.7562 -1.3246  0.7133
 2608SOL     OW19282   3.524   3.117   6.634  0.1620  0.1003  0.1557
 2608SOL    HW119283   3.447   3.087   6.586  1.3803 -0.9977 -1.1346
 2608SOL    HW219284   3.522   3.041   6.692 -0.1336 -0.3987 -0.5104
 2609SOL     OW19285   3.810   2.515   4.529  0.2634 -0.4498  0.2178
 2609SOL    HW119286   3.734   2.484   4.480  2.2898 -0.6211 -2.7914
 2609SOL    HW219287   3.789   2.607   4.540  1.5741 -0.4494  2.9225
 2610SOL     OW19288   4.262   1.629  17.117 -0.3021 -0.1411 -0.4923
 2610SOL    HW119289   4.210   1.692  17.167 -0.0485 -0.6775  0.4657
 2610SOL    HW219290   4.272   1.563  17.186 -0.7438 -0.3741 -0.6499
 2611SOL     OW19291   0.033   3.651   2.941 -0.0705 -0.2423  0.0742
 2611SOL    HW119292   4.680   3.682   2.898  0.9555  1.2506 -0.7775
 2611SOL    HW219293   0.052   3.569   2.897 -1.1589  1.3787 -3.4045
 2612SOL     OW19294   0.022   3.669  17.071  0.1044  0.7085  0.2372
 2612SOL    HW119295   0.092   3.680  17.007  0.4445  0.8676  0.6385
 2612SOL    HW219296   0.065   3.599  17.121  1.2997  2.9575  2.3667
 2613SOL     OW19297   0.729   4.203   8.371 -0.4171 -0.6830 -0.2041
 2613SOL    HW119298   0.694   4.120   8.405  1.2051 -1.4909 -0.5095
 2613SOL    HW219299   0.651   4.244   8.333 -0.2411 -1.4077 -1.3460
 2614SOL     OW19300   0.128   2.512   4.325  0.1433  0.0679  0.3978
 2614SOL    HW119301   0.109   2.546   4.412 -0.0108  4.1540 -1.2366
 2614SOL    HW219302   0.131   2.593   4.274  3.1639 -0.7703 -0.7334
 2615SOL     OW19303   2.277   1.500   3.007  0.3987  0.4097  0.2592
 2615SOL    HW119304   2.336   1.487   3.081  0.9062  3.8248  0.4505
 2615SOL    HW219305   2.298   1.420   2.958 -1.0346 -0.3007  0.8090
 2616SOL     OW19306   2.679   2.428   1.359  0.4808  0.2190  0.7120
 2616SOL    HW119307   2.751   2.451   1.417  1.5849  1.0780 -1.0119
 2616SOL    HW219308   2.659   2.512   1.316 -2.9114 -0.4184  1.0416
 2617SOL     OW19309   3.421   4.417  16.224 -0.2165 -0.0213  0.5239
 2617SOL    HW119310   3.474   4.349  16.266  0.5587 -0.7477 -1.6399
 2617SOL    HW219311   3.445   4.497  16.270 -1.4847  0.0432  1.1063
 2618SOL     OW19312   0.650   2.477   8.719  0.0916  0.2431  1.2857
 2618SOL    HW119313   0.739   2.470   8.756  0.4981  0.0625  0.2647
 2618SOL    HW219314   0.607   2.523   8.791 -1.2972  2.0849 -0.7473
 2619SOL     OW19315   4.562   4.720   4.609 -0.1976 -0.6708  0.7608
 2619SOL    HW119316   4.604   4.634   4.619  1.5478  0.2203  1.0720
 2619SOL    HW219317   4.635   0.048   4.581 -0.1669 -1.0342  0.1202
 2620SOL     OW19318   2.701   2.723   4.259  0.0905  0.1349 -0.2117
 2620SOL    HW119319   2.696   2.751   4.167  0.7254 -0.5632 -0.4541
 2620SOL    HW219320   2.642   2.648   4.255 -0.1809  0.3235  0.3962
 2621SOL     OW19321   1.906   1.436   1.987 -0.6101  0.1783  0.3426
 2621SOL    HW119322   1.871   1.388   1.912 -0.0459  2.3068 -1.2864
 2621SOL    HW219323   1.827   1.462   2.032 -1.0691  1.5783 -1.2780
 2622SOL     OW19324   1.234   3.391   1.318 -0.5917 -0.3214  0.3665
 2622SOL    HW119325   1.323   3.356   1.305 -0.7301 -0.5199 -0.0446
 2622SOL    HW219326   1.250   3.415   1.409  2.0805  0.1885 -0.2254
 2623SOL     OW19327   4.674   3.325   2.408  0.1572  0.0662  0.5442
 2623SOL    HW119328   4.681   3.274   2.326 -2.1155 -0.7820  0.8739
 2623SOL    HW219329   0.023   3.380   2.387 -0.1403  0.6508  1.0331
 2624SOL     OW19330   2.874   1.218   4.415  0.1890 -0.2424 -0.0494
 2624SOL    HW119331   2.967   1.237   4.427 -0.2337  2.1667 -0.6514
 2624SOL    HW219332   2.835   1.300   4.445  0.9459  0.4115 -0.8602
 2625SOL     OW19333   2.010   0.719  13.242 -0.0441 -0.3093 -0.4690
 2625SOL    HW119334   2.084   0.684  13.291 -0.0864 -2.3147 -1.8312
 2625SOL    HW219335   1.974   0.756  13.323 -0.6662 -0.0374 -0.8675
 2626SOL     OW19336   3.278   2.072  17.391  0.5527 -1.0504  0.4870
 2626SOL    HW119337   3.210   2.112  17.445 -1.8397 -2.8418 -1.2088
 2626SOL    HW219338   3.347   2.094  17.453  2.3720 -1.3102 -1.4230
 2627SOL     OW19339   1.452   3.005   3.115 -0.0544 -0.0656 -0.8273
 2627SOL    HW119340   1.494   2.935   3.165  0.1867  0.4894 -0.2584
 2627SOL    HW219341   1.360   2.980   3.120  0.7760 -2.8314  0.4132
 2628SOL     OW19342   4.389   2.875   3.213 -0.2994 -0.0219  0.3773
 2628SOL    HW119343   4.400   2.967   3.235  0.0129  0.1156 -0.3777
 2628SOL    HW219344   4.410   2.826   3.293 -1.3612 -3.6583 -1.5872
 2629SOL     OW19345   1.030   4.155  16.726  0.4489  0.1299  0.4286
 2629SOL    HW119346   1.110   4.207  16.717  0.5469 -0.5148 -2.3639
 2629SOL    HW219347   0.998   4.148  16.636 -2.0470 -1.4488  1.4369
 2630SOL     OW19348   2.382   0.271   6.946  0.3810  0.6120 -0.3240
 2630SOL    HW119349   2.407   0.230   6.864  2.2995 -1.3662  1.2593
 2630SOL    HW219350   2.300   0.314   6.921  0.0516 -0.4281 -1.0479
 2631SOL     OW19351   1.803   2.832   5.823  0.1632  0.2546 -0.0598
 2631SOL    HW119352   1.896   2.808   5.823  0.8560  2.9684 -0.4736
 2631SOL    HW219353   1.800   2.924   5.798 -0.4836  0.6035  1.2777
 2632SOL     OW19354   1.826   2.063  10.389 -0.2565  0.4331  0.2150
 2632SOL    HW119355   1.821   2.131  10.456 -0.4347 -0.8901  1.5408
 2632SOL    HW219356   1.755   2.090  10.332  0.7063  0.3737 -1.0126
 2633SOL     OW19357   1.430   4.101   4.185  0.2885  0.6645  0.0071
 2633SOL    HW119358   1.488   4.130   4.256  1.0598  2.1249 -1.2300
 2633SOL    HW219359   1.348   4.111   4.235  1.8135  0.2981  2.5644
 2634SOL     OW19360   2.965   4.521   0.723  0.3318 -0.4254 -0.0006
 2634SOL    HW119361   2.955   4.476   0.640 -1.5198  1.1510 -0.6224
 2634SOL    HW219362   3.061   4.523   0.723  0.3463 -0.6994  2.7789
 2635SOL     OW19363   3.289   3.398  11.641 -0.1207  0.1618  0.4800
 2635SOL    HW119364   3.342   3.462  11.593 -3.6323 -0.1857 -3.8852
 2635SOL    HW219365   3.350   3.351  11.697 -1.9157  1.5066  3.5845
 2636SOL     OW19366   2.866   0.080   2.590 -0.5876  0.0923  0.4575
 2636SOL    HW119367   2.870   0.063   2.684 -0.4994 -1.6408  0.1559
 2636SOL    HW219368   2.900   0.169   2.583 -0.4805  0.0713  0.7021
 2637SOL     OW19369   1.756   0.834   6.449  0.0695 -0.4768  0.1843
 2637SOL    HW119370   1.753   0.924   6.480 -0.5111 -0.6106  0.5065
 2637SOL    HW219371   1.676   0.833   6.397 -0.4075  0.6508  0.8914
 2638SOL     OW19372   0.560   4.578   1.779 -0.1163 -0.3725  0.4333
 2638SOL    HW119373   0.525   4.649   1.725  2.1829 -0.1064 -0.7212
 2638SOL    HW219374   0.613   4.627   1.844 -0.2427  0.4541 -0.0831
 2639SOL     OW19375   1.192   0.509   9.447  0.0324  0.4174  0.3207
 2639SOL    HW119376   1.117   0.535   9.501  0.0605 -0.2719  0.6838
 2639SOL    HW219377   1.158   0.439   9.392  0.0637 -0.1522  1.0286
 2640SOL     OW19378   2.831   0.726  11.800 -0.2618 -0.1397 -0.1172
 2640SOL    HW119379   2.877   0.673  11.865 -0.6829 -0.8143 -0.3660
 2640SOL    HW219380   2.840   0.675  11.719 -0.3238  0.5433 -0.5551
 2641SOL     OW19381   0.864   3.896   4.438 -0.7702  0.5444  0.8367
 2641SOL    HW119382   0.877   3.809   4.477 -1.0847 -0.8071 -2.0553
 2641SOL    HW219383   0.892   3.876   4.349  0.8935  2.8469  0.8437
 2642SOL     OW19384   3.038   0.969   7.775  0.1373 -0.4337  0.2073
 2642SOL    HW119385   2.954   0.929   7.798 -0.7562  0.5916 -1.3035
 2642SOL    HW219386   3.065   0.909   7.706 -0.8052  0.4810 -0.9429
 2643SOL     OW19387   1.837   2.990  12.834 -0.2722 -0.2476  0.0611
 2643SOL    HW119388   1.831   3.005  12.928 -1.6634  0.4702 -0.1387
 2643SOL    HW219389   1.745   2.999  12.808  0.3832 -0.0101 -2.1736
 2644SOL     OW19390   3.134   3.692  15.793 -0.1509  0.1081 -0.3778
 2644SOL    HW119391   3.112   3.680  15.701  0.1326 -1.4333 -0.2394
 2644SOL    HW219392   3.068   3.641  15.839  0.2570  1.6373  1.9119
 2645SOL     OW19393   0.357   2.930   8.470 -0.4412 -0.4533 -0.3744
 2645SOL    HW119394   0.299   2.869   8.514 -0.5760 -1.1213 -1.4663
 2645SOL    HW219395   0.306   2.949   8.391 -0.4683 -0.7969 -0.4409
 2646SOL     OW19396   0.133   1.561   8.503 -0.4047 -0.1819 -0.2110
 2646SOL    HW119397   0.223   1.557   8.534 -0.7717 -0.1931  0.8539
 2646SOL    HW219398   0.115   1.652   8.525 -0.9683 -0.9495  2.6043
 2647SOL     OW19399   3.869   1.359   8.213  0.3057 -0.7932 -0.4329
 2647SOL    HW119400   3.895   1.272   8.180  2.1895 -0.0645 -0.8755
 2647SOL    HW219401   3.817   1.336   8.290  0.1541  0.4060 -0.1795
 2648SOL     OW19402   4.064   4.534   2.904 -0.2624 -0.3958  0.7101
 2648SOL    HW119403   4.132   4.574   2.959  1.2150 -2.8319  0.6602
 2648SOL    HW219404   3.994   4.539   2.969  0.3340 -1.3874  1.4290
 2649SOL     OW19405   2.869   2.451   7.805  0.0735 -0.3178 -0.0985
 2649SOL    HW119406   2.837   2.449   7.895 -0.6324  0.6325 -0.3234
 2649SOL    HW219407   2.870   2.547   7.798  0.5891 -0.2587  0.8152
 2650SOL     OW19408   4.164   3.874   7.158  0.7025  0.1559 -0.4852
 2650SOL    HW119409   4.164   3.969   7.163 -1.4580  0.0797  1.1522
 2650SOL    HW219410   4.108   3.843   7.229 -2.3597  3.5458 -1.4600
 2651SOL     OW19411   1.878   4.373   7.887  0.4444 -0.4934 -0.4338
 2651SOL    HW119412   1.811   4.375   7.954  0.9814 -0.6251  0.1029
 2651SOL    HW219413   1.953   4.357   7.943 -0.3926 -0.6321  0.6418
 2652SOL     OW19414   3.573   3.101   4.673  0.7802  0.8052 -0.4446
 2652SOL    HW119415   3.608   3.014   4.692 -0.3985  0.4833  0.2141
 2652SOL    HW219416   3.651   3.153   4.696  0.6802  0.2309  1.2095
 2653SOL     OW19417   0.843   1.050   6.418  0.3539 -0.3745  0.6526
 2653SOL    HW119418   0.911   0.997   6.376 -0.4487 -0.7273 -0.2301
 2653SOL    HW219419   0.809   0.986   6.481  1.3277  0.4064  1.9669
 2654SOL     OW19420   4.480   3.306   2.143  0.5286  0.1388 -0.4750
 2654SOL    HW119421   4.413   3.276   2.082 -0.4681 -1.7641  1.5616
 2654SOL    HW219422   4.469   3.400   2.135 -1.4367 -0.2663 -2.5235
 2655SOL     OW19423   3.744   1.114  11.171  0.4429 -0.2204  0.7304
 2655SOL    HW119424   3.682   1.179  11.141 -0.4641 -2.5694 -2.4526
 2655SOL    HW219425   3.820   1.168  11.194  0.0345  1.0787 -1.0602
 2656SOL     OW19426   4.281   0.667  14.632 -0.4024  0.1556 -0.2048
 2656SOL    HW119427   4.256   0.759  14.643 -1.6501 -0.2223  0.0921
 2656SOL    HW219428   4.245   0.651  14.544 -1.6587 -0.6213  0.4427
 2657SOL     OW19429   3.886   1.956   8.599  0.0858  0.3450 -0.7782
 2657SOL    HW119430   3.860   1.907   8.678  4.1867  1.0689  1.0224
 2657SOL    HW219431   3.828   1.907   8.541 -1.3889 -0.7791  1.6479
 2658SOL     OW19432   1.502   2.187   6.192 -0.0650 -0.2114  0.1116
 2658SOL    HW119433   1.481   2.163   6.102  2.1867 -0.4095 -0.3483
 2658SOL    HW219434   1.413   2.188   6.229 -0.5305 -0.1429 -1.0327
 2659SOL     OW19435   2.657   3.265   4.801 -0.4026 -0.0487  0.2688
 2659SOL    HW119436   2.618   3.321   4.869  0.5601  2.7967 -1.5173
 2659SOL    HW219437   2.589   3.211   4.760 -0.5787  0.8610 -0.6351
 2660SOL     OW19438   4.272   0.644   5.591  0.2001  0.6852  0.3588
 2660SOL    HW119439   4.344   0.639   5.527 -0.4196  4.8725 -0.6913
 2660SOL    HW219440   4.245   0.736   5.589 -1.8934  0.0664  1.2652
 2661SOL     OW19441   4.174   3.023  17.133 -0.1386  0.4126 -0.1811
 2661SOL    HW119442   4.182   3.118  17.121 -0.2253  0.1402 -2.3868
 2661SOL    HW219443   4.243   2.998  17.072  0.1431  2.0487 -0.5317
 2662SOL     OW19444   0.667   1.673  11.393  0.0350  0.0927  0.0151
 2662SOL    HW119445   0.590   1.728  11.380  0.6275  1.0962  0.7220
 2662SOL    HW219446   0.724   1.743  11.426 -0.2465 -0.2528  1.2373
 2663SOL     OW19447   2.013   2.859   8.850 -0.0908  0.4160 -0.0694
 2663SOL    HW119448   1.954   2.881   8.922 -0.3702 -1.9654  0.4071
 2663SOL    HW219449   1.971   2.784   8.808  2.3887 -0.1232 -1.5827
 2664SOL     OW19450   2.676   4.360  16.552  0.1557  0.4264 -0.4161
 2664SOL    HW119451   2.676   4.288  16.615 -0.4643  0.1611 -0.7300
 2664SOL    HW219452   2.701   4.434  16.608 -2.5078  0.6470  0.4852
 2665SOL     OW19453   3.957   4.588   8.872 -0.1280  0.2408 -1.0238
 2665SOL    HW119454   4.008   4.569   8.951  0.9364  1.1901 -1.4801
 2665SOL    HW219455   3.914   4.667   8.905 -0.7522 -0.1017 -1.0217
 2666SOL     OW19456   1.315   3.940   7.207 -0.3557  0.4011 -0.1333
 2666SOL    HW119457   1.279   4.029   7.211 -0.4510  0.3343  0.4522
 2666SOL    HW219458   1.351   3.929   7.119  1.7027 -2.1278  1.0327
 2667SOL     OW19459   4.609   2.327   2.550  0.2495 -1.0697  0.5528
 2667SOL    HW119460   4.541   2.333   2.483  0.7923 -0.9547  0.0141
 2667SOL    HW219461   4.661   2.407   2.540  0.2203 -0.5139  4.7334
 2668SOL     OW19462   2.433   1.873   7.646 -0.6132 -0.0688 -0.4933
 2668SOL    HW119463   2.376   1.926   7.702 -1.0851 -0.8629 -0.2300
 2668SOL    HW219464   2.518   1.897   7.683 -0.1025 -0.1297 -1.6162
 2669SOL     OW19465   3.435   4.709   0.625 -0.1619  0.0463 -0.2922
 2669SOL    HW119466   3.513   4.662   0.594 -0.8898 -0.7151 -0.9492
 2669SOL    HW219467   3.468   0.072   0.620 -0.7414  0.3165  0.9220
 2670SOL     OW19468   2.182   2.723   2.762 -0.4027 -1.0632  0.5120
 2670SOL    HW119469   2.201   2.799   2.818 -1.5015 -0.5321  0.1678
 2670SOL    HW219470   2.088   2.713   2.780 -0.6903  1.3486  0.3443
 2671SOL     OW19471   2.485   2.494   7.771 -0.4593 -0.4218  0.2543
 2671SOL    HW119472   2.506   2.587   7.777 -0.8190 -0.3027 -0.3551
 2671SOL    HW219473   2.459   2.497   7.679  2.9854  0.2818 -0.6934
 2672SOL     OW19474   3.073   4.204   3.945 -0.5913  0.0619 -0.3947
 2672SOL    HW119475   3.027   4.123   3.969  2.5261 -1.3377  0.8044
 2672SOL    HW219476   3.052   4.190   3.852  0.2045  0.3147 -0.6080
 2673SOL     OW19477   2.293   0.496   5.737  0.1197  0.2334  0.2411
 2673SOL    HW119478   2.311   0.521   5.647 -0.7204 -0.6969 -0.1897
 2673SOL    HW219479   2.198   0.500   5.729  0.1120  4.5477  2.4394
 2674SOL     OW19480   3.725   0.442  10.329  0.2774 -0.0419  0.6544
 2674SOL    HW119481   3.651   0.381  10.337  0.5044 -0.3708  0.2777
 2674SOL    HW219482   3.674   0.522  10.316  0.5834  0.2437  1.1998
 2675SOL     OW19483   1.235   2.899  13.026  0.8966 -0.2971  0.3920
 2675SOL    HW119484   1.311   2.949  13.057 -0.4371  1.4472  0.8175
 2675SOL    HW219485   1.271   2.811  13.033  1.3169 -0.2484 -1.3046
 2676SOL     OW19486   4.148   3.242   7.704  0.3981 -0.1177  0.1636
 2676SOL    HW119487   4.149   3.337   7.715 -1.5573  0.0589 -1.3011
 2676SOL    HW219488   4.223   3.230   7.646 -0.6759  0.2582 -1.2842
 2677SOL     OW19489   1.890   2.282   5.676 -0.0447  0.4744 -0.0451
 2677SOL    HW119490   1.951   2.247   5.612 -2.2410  2.1349 -3.0223
 2677SOL    HW219491   1.880   2.204   5.730  0.0174 -1.6320 -3.1212
 2678SOL     OW19492   0.409   2.947   3.139 -0.1075  0.1675  0.7270
 2678SOL    HW119493   0.435   2.890   3.211 -0.4656 -0.3431  0.4518
 2678SOL    HW219494   0.487   2.945   3.084 -0.8323 -0.4648 -0.2833
 2679SOL     OW19495   3.283   1.361   6.876 -0.4318 -0.2418 -0.3753
 2679SOL    HW119496   3.299   1.272   6.906 -0.0742  0.1684  0.6398
 2679SOL    HW219497   3.366   1.402   6.902 -0.4684 -0.2994 -0.1757
 2680SOL     OW19498   3.624   0.040   6.302 -0.2628  0.9106 -0.0372
 2680SOL    HW119499   3.579   0.124   6.288 -1.2795  0.2871 -0.5117
 2680SOL    HW219500   3.668   0.066   6.383  1.0893 -1.3110 -0.0695
 2681SOL     OW19501   1.553   2.134   3.773 -0.0765  0.1127 -0.3075
 2681SOL    HW119502   1.512   2.220   3.774 -0.5881 -0.1176 -1.1316
 2681SOL    HW219503   1.614   2.161   3.705 -0.3689 -0.5035 -0.8127
 2682SOL     OW19504   4.316   1.913   5.406  0.1831 -0.8069 -0.5933
 2682SOL    HW119505   4.317   2.007   5.389 -0.7856 -0.6702  0.1140
 2682SOL    HW219506   4.357   1.878   5.327 -1.6868 -3.2535 -0.4759
 2683SOL     OW19507   1.827   1.398   4.081  0.4696  0.4046 -0.3419
 2683SOL    HW119508   1.849   1.326   4.139  0.8908 -0.3284 -1.4113
 2683SOL    HW219509   1.790   1.352   4.005 -0.3049 -1.3289  1.0906
 2684SOL     OW19510   0.168   4.035   4.943 -0.3905  0.3728 -0.4632
 2684SOL    HW119511   0.242   4.027   4.884  0.7572 -0.6560  1.1239
 2684SOL    HW219512   0.113   4.102   4.903 -0.8675  0.1690 -0.1548
 2685SOL     OW19513   1.532   3.244  11.979  0.7549 -0.8996  0.2583
 2685SOL    HW119514   1.600   3.302  12.015 -0.9445  0.3839  1.3576
 2685SOL    HW219515   1.499   3.191  12.052 -2.1634  0.4539 -0.1003
 2686SOL     OW19516   4.561   2.896   5.358  0.5052  0.0097  0.7570
 2686SOL    HW119517   4.597   2.965   5.414 -0.2746  2.2314 -1.4604
 2686SOL    HW219518   4.584   2.818   5.408  2.3934 -0.3721 -0.7145
 2687SOL     OW19519   0.153   2.410   6.078  0.1329  0.3439  0.3874
 2687SOL    HW119520   0.194   2.353   6.142  1.2823  1.9187  1.0571
 2687SOL    HW219521   0.198   2.491   6.099 -0.2147  0.9101 -1.0170
 2688SOL     OW19522   1.463   0.640   4.983  0.5534 -0.1070 -0.5575
 2688SOL    HW119523   1.382   0.629   4.933  0.4952 -0.3998 -0.4011
 2688SOL    HW219524   1.418   0.623   5.066  1.4676  6.1929  1.2761
 2689SOL     OW19525   4.156   2.979   2.958  0.2545 -0.1611  0.6666
 2689SOL    HW119526   4.230   2.952   2.904  0.3224 -1.3120  1.3434
 2689SOL    HW219527   4.177   2.961   3.049  1.4495  0.1693  0.4468
 2690SOL     OW19528   0.856   0.611  13.714 -0.2599  0.1629  0.2787
 2690SOL    HW119529   0.820   0.675  13.652  3.0380 -0.1938 -1.9520
 2690SOL    HW219530   0.949   0.610  13.695 -0.5992  0.5707 -1.3850
 2691SOL     OW19531   1.817   3.956   5.284 -0.8587  0.1742  0.2606
 2691SOL    HW119532   1.802   3.900   5.360 -2.1205  0.4029  0.1772
 2691SOL    HW219533   1.901   3.922   5.252  0.3547 -0.0806  3.7365
 2692SOL     OW19534   3.690   3.525   7.246 -0.6850  0.4480  0.1602
 2692SOL    HW119535   3.701   3.454   7.308  1.1991  0.8420  0.2572
 2692SOL    HW219536   3.689   3.602   7.303  0.9286 -0.0745  0.8728
 2693SOL     OW19537   0.570   4.230   7.623 -0.0792 -0.8834 -0.4617
 2693SOL    HW119538   0.659   4.212   7.652 -0.3670  1.0360  1.6610
 2693SOL    HW219539   0.577   4.322   7.597 -0.5922 -0.5523  0.5921
 2694SOL     OW19540   4.389   4.086   2.452  0.8781  0.2720 -0.3713
 2694SOL    HW119541   4.454   4.019   2.476 -1.6665 -1.4146  1.8165
 2694SOL    HW219542   4.405   4.150   2.520 -1.2041 -0.5953  0.9318
 2695SOL     OW19543   0.267   1.781   4.518  0.3341 -0.3469  0.1055
 2695SOL    HW119544   0.311   1.823   4.592 -0.2227  1.1018 -0.4060
 2695SOL    HW219545   0.336   1.787   4.453  0.2017 -0.6864 -0.0674
 2696SOL     OW19546   2.005   1.518   8.671 -0.0697  0.5841  0.0864
 2696SOL    HW119547   1.923   1.519   8.720  0.1330 -3.2636  0.5133
 2696SOL    HW219548   1.982   1.564   8.591  0.6195 -1.4130 -1.2713
 2697SOL     OW19549   3.276   2.359   5.950 -0.0928  0.1471 -0.4729
 2697SOL    HW119550   3.314   2.434   5.995  2.2208 -1.1960 -0.1713
 2697SOL    HW219551   3.313   2.380   5.864  1.0374  0.1279  0.0074
 2698SOL     OW19552   0.125   3.682   3.454  0.1991  0.2691 -0.3812
 2698SOL    HW119553   0.098   3.612   3.512 -1.1360  2.3550  1.4983
 2698SOL    HW219554   0.066   3.672   3.379 -2.2709  0.3216  1.5853
 2699SOL     OW19555   3.426   2.187   8.162  0.1747 -0.1716  1.0196
 2699SOL    HW119556   3.339   2.148   8.159 -0.6469  1.6579  0.9868
 2699SOL    HW219557   3.403   2.255   8.098 -0.4224  0.1282  1.5604
 2700SOL     OW19558   2.491   2.715   3.703 -0.2615 -0.5200  0.3597
 2700SOL    HW119559   2.434   2.792   3.707 -3.0109 -2.6357  1.1966
 2700SOL    HW219560   2.559   2.751   3.646 -0.6257  0.4362  0.5162
 2701SOL     OW19561   3.701   1.421   4.806  0.2878  0.0475  0.0044
 2701SOL    HW119562   3.646   1.357   4.760 -1.7578  1.6522  0.1773
 2701SOL    HW219563   3.647   1.500   4.814 -1.9019 -1.3181 -1.2343
 2702SOL     OW19564   0.767   0.505   7.918  0.0625  0.2721  0.5224
 2702SOL    HW119565   0.757   0.574   7.853 -0.6659  0.9769  1.3769
 2702SOL    HW219566   0.830   0.542   7.980  2.4865  1.3882 -2.5866
 2703SOL     OW19567   1.708   2.712   5.489 -0.5450 -0.5098  0.6921
 2703SOL    HW119568   1.732   2.651   5.559  0.4586 -1.8004 -0.7619
 2703SOL    HW219569   1.749   2.670   5.413  0.2365  0.1712  0.7446
 2704SOL     OW19570   1.310   1.496  10.651 -0.2415  0.4814 -0.6154
 2704SOL    HW119571   1.255   1.553  10.597 -1.6858  0.0365  0.3884
 2704SOL    HW219572   1.384   1.556  10.663 -0.9000  1.1974 -0.1348
 2705SOL     OW19573   2.787   0.565   2.484 -0.1313 -0.0218 -0.8630
 2705SOL    HW119574   2.747   0.525   2.407 -1.2454  0.4175 -0.5239
 2705SOL    HW219575   2.754   0.655   2.477 -1.2853 -0.1501  2.4379
 2706SOL     OW19576   4.496   1.285   7.123  0.2169  0.0344  0.1081
 2706SOL    HW119577   4.439   1.359   7.145 -1.6490 -1.0878 -0.9846
 2706SOL    HW219578   4.466   1.217   7.184  1.2747 -0.9256 -0.4431
 2707SOL     OW19579   4.415   3.133  14.770 -1.3384  0.3966  0.4227
 2707SOL    HW119580   4.461   3.050  14.761 -0.1025  0.8195  2.8686
 2707SOL    HW219581   4.330   3.099  14.740 -0.9658 -0.4462  0.3299
 2708SOL     OW19582   1.470   2.742  11.624 -0.0195 -0.9307 -0.5957
 2708SOL    HW119583   1.526   2.820  11.624  1.5452 -2.0293  2.6904
 2708SOL    HW219584   1.402   2.773  11.683 -1.2535 -2.3148 -1.2983
 2709SOL     OW19585   2.046   3.488   6.835 -0.0814  0.3065  0.1529
 2709SOL    HW119586   2.015   3.431   6.906 -2.4720 -0.7695 -1.7400
 2709SOL    HW219587   2.006   3.441   6.762 -0.8557 -0.4235  1.0425
 2710SOL     OW19588   3.183   0.424   2.481 -0.4152 -0.3777 -0.3233
 2710SOL    HW119589   3.231   0.369   2.418  0.3487  0.2213 -0.2685
 2710SOL    HW219590   3.203   0.511   2.448  0.9045 -0.0326  1.3626
 2711SOL     OW19591   3.911   3.432   6.293 -0.4061  0.2244  0.2403
 2711SOL    HW119592   3.896   3.411   6.385  4.1955  1.8052  1.3149
 2711SOL    HW219593   4.005   3.434   6.275 -0.7704  0.7867 -1.5908
 2712SOL     OW19594   0.565   3.323   7.119  0.1889  0.2351  0.1703
 2712SOL    HW119595   0.563   3.383   7.194 -1.9993  1.4101 -0.8177
 2712SOL    HW219596   0.655   3.322   7.088 -0.0191 -1.6873 -0.4037
 2713SOL     OW19597   0.194   1.160   1.519  0.1911 -0.5717 -0.0794
 2713SOL    HW119598   0.133   1.233   1.521  1.6372  0.5894  2.1821
 2713SOL    HW219599   0.162   1.121   1.438 -1.0985 -0.4880  0.3940
 2714SOL     OW19600   2.941   1.999   1.421  0.6367 -0.3926  0.2054
 2714SOL    HW119601   2.881   1.947   1.367  0.1413  1.9654 -1.5254
 2714SOL    HW219602   3.007   1.938   1.455  3.0872  1.6175 -1.0018
 2715SOL     OW19603   0.535   0.002  10.673  0.2544 -0.5254 -0.3344
 2715SOL    HW119604   0.452   0.032  10.709  0.1378  0.5937 -1.5161
 2715SOL    HW219605   0.516   0.004  10.579  0.4180  0.4158 -0.3404
 2716SOL     OW19606   2.718   0.808  15.821 -0.6872 -0.1640  0.3044
 2716SOL    HW119607   2.656   0.771  15.884 -0.4279 -0.0164  0.6429
 2716SOL    HW219608   2.794   0.757  15.850 -1.5496 -1.4496  0.3205
 2717SOL     OW19609   2.691   2.587   6.733  0.1629 -0.0829  0.0022
 2717SOL    HW119610   2.727   2.527   6.798  0.4694  1.6104  1.3974
 2717SOL    HW219611   2.666   2.529   6.660 -0.0237 -0.8789  0.7004
 2718SOL     OW19612   0.598   2.216   5.648 -0.1904  0.1927  0.3680
 2718SOL    HW119613   0.570   2.160   5.575  0.1825 -0.0539  0.4102
 2718SOL    HW219614   0.694   2.210   5.641  0.0145  1.1590  2.4262
 2719SOL     OW19615   3.919   0.249   7.764  0.3574  0.2618 -0.8077
 2719SOL    HW119616   4.014   0.251   7.777  0.0101  0.5068  1.6508
 2719SOL    HW219617   3.921   0.203   7.680 -0.4963 -1.3186  0.0339
 2720SOL     OW19618   1.119   0.594   8.771  0.2008 -0.1268 -0.3691
 2720SOL    HW119619   1.202   0.611   8.817  0.3264  1.7330 -1.2583
 2720SOL    HW219620   1.109   0.678   8.726 -0.4586 -0.5446 -0.9946
 2721SOL     OW19621   3.719   0.850   0.484 -0.8026 -0.1090 -0.4900
 2721SOL    HW119622   3.787   0.915   0.468 -0.5250 -0.4227 -0.5887
 2721SOL    HW219623   3.714   0.852   0.579 -1.3837 -0.6930 -0.5102
 2722SOL     OW19624   3.485   0.522   3.958  0.0506 -0.5077 -0.3182
 2722SOL    HW119625   3.568   0.535   4.004 -0.1478 -0.5314  0.0479
 2722SOL    HW219626   3.473   0.597   3.900 -1.3831 -0.2237  0.3589
 2723SOL     OW19627   3.752   2.660   6.508 -0.4944 -0.8974 -0.8127
 2723SOL    HW119628   3.669   2.648   6.460 -0.6199 -3.1832 -0.0160
 2723SOL    HW219629   3.815   2.602   6.464 -2.1210 -2.4681 -1.1010
 2724SOL     OW19630   4.063   2.533   5.117  0.1399  0.0095 -0.0392
 2724SOL    HW119631   4.034   2.530   5.026 -0.3232 -1.5842  0.1689
 2724SOL    HW219632   3.987   2.536   5.174  0.3361 -3.2224  0.3745
 2725SOL     OW19633   4.490   1.335   2.695 -0.3019  0.1881 -0.1461
 2725SOL    HW119634   4.569   1.349   2.643  1.5383  1.0792  2.8731
 2725SOL    HW219635   4.487   1.415   2.747  0.3737 -0.9361  1.6452
 2726SOL     OW19636   3.995   2.466  11.892 -0.5637  0.4556  0.7385
 2726SOL    HW119637   4.028   2.389  11.846  1.1956  1.0883  0.9312
 2726SOL    HW219638   3.925   2.421  11.939 -0.5681  0.9774  1.2299
 2727SOL     OW19639   1.663   2.426   6.080 -0.0632 -0.5439 -0.7868
 2727SOL    HW119640   1.655   2.507   6.030  0.5225 -0.9661 -1.5652
 2727SOL    HW219641   1.577   2.403   6.114  0.8564 -0.3798  1.6994
 2728SOL     OW19642   2.466   0.545  14.168  0.5807 -0.0243 -0.0925
 2728SOL    HW119643   2.384   0.557  14.216  0.4148 -1.4391 -0.0012
 2728SOL    HW219644   2.478   0.451  14.157 -1.5533 -0.2637 -0.4031
 2729SOL     OW19645   1.943   0.061   0.209 -0.0330  0.7399  0.1513
 2729SOL    HW119646   1.895   4.713   0.175  0.1976  0.7442 -0.1908
 2729SOL    HW219647   2.002   0.088   0.138  0.0884 -1.1234 -0.4473
 2730SOL     OW19648   0.965   2.422   3.022  0.0593  0.3592  0.3312
 2730SOL    HW119649   0.996   2.435   2.933 -1.6042 -1.3612 -0.4940
 2730SOL    HW219650   0.890   2.366   3.003  0.4828 -0.4288  0.9819
 2731SOL     OW19651   3.545   3.037   3.945  0.1599 -0.0540  0.3979
 2731SOL    HW119652   3.593   3.120   3.949  0.5557 -0.3148  1.0091
 2731SOL    HW219653   3.578   3.006   3.861  1.3039  1.4407  0.2977
 2732SOL     OW19654   0.409   2.824   3.714  0.3287 -0.5110 -0.2970
 2732SOL    HW119655   0.496   2.793   3.687  0.0461 -0.1051 -1.6874
 2732SOL    HW219656   0.423   2.907   3.669  1.6516 -0.2222  0.6638
 2733SOL     OW19657   4.075   4.549   3.846  0.3546  0.1585  0.3386
 2733SOL    HW119658   4.075   4.520   3.755  1.7225 -1.6743  0.9301
 2733SOL    HW219659   4.015   4.623   3.831  0.4431  0.4185  1.2195
 2734SOL     OW19660   1.266   2.260   4.858  0.1590 -0.1450  0.0282
 2734SOL    HW119661   1.280   2.219   4.773 -0.5266 -0.7238  0.1996
 2734SOL    HW219662   1.171   2.267   4.861  0.0521 -1.4043 -0.8001
 2735SOL     OW19663   2.481   1.681   4.936  0.1737 -0.0288 -0.3068
 2735SOL    HW119664   2.483   1.774   4.957  0.7866 -0.0186 -0.4048
 2735SOL    HW219665   2.425   1.682   4.859  2.9414 -0.5697 -2.3368
 2736SOL     OW19666   1.669   0.062  17.415 -0.1831 -0.2958  0.2046
 2736SOL    HW119667   1.715   4.706  17.402 -0.4357 -0.7471  2.1224
 2736SOL    HW219668   1.737   0.113  17.459  2.4913 -0.5340 -3.6569
 2737SOL     OW19669   0.017   4.052   1.443  0.0200 -0.4121  0.2353
 2737SOL    HW119670   0.053   3.967   1.470  2.1414  0.8910  1.5366
 2737SOL    HW219671   0.094   4.085   1.396 -1.7639  2.7682 -0.4408
 2738SOL     OW19672   1.242   1.257   1.913  0.2023 -0.2806 -0.1160
 2738SOL    HW119673   1.232   1.293   1.825  2.1438  0.3448 -0.0870
 2738SOL    HW219674   1.336   1.275   1.927  0.0454  0.8102 -0.5035
 2739SOL     OW19675   4.192   0.279   2.700 -0.5334 -0.6651 -0.1541
 2739SOL    HW119676   4.223   0.208   2.644  0.4989  1.5458 -2.3807
 2739SOL    HW219677   4.267   0.338   2.705  0.1676 -1.5871  0.2453
 2740SOL     OW19678   2.926   1.823   5.637  0.0643 -0.0481  0.1109
 2740SOL    HW119679   2.885   1.738   5.657  1.0079 -0.1276  1.7416
 2740SOL    HW219680   3.010   1.795   5.673 -0.5773 -2.2043 -0.0784
 2741SOL     OW19681   4.012   3.944   9.366  0.3524 -0.0460 -0.3658
 2741SOL    HW119682   3.962   3.893   9.301 -0.2603  0.0473  0.0299
 2741SOL    HW219683   4.014   3.886   9.442  0.8149  1.4127  0.7248
 2742SOL     OW19684   1.930   3.114  12.523 -0.6551 -0.8394 -0.4545
 2742SOL    HW119685   1.959   3.036  12.571  2.0568 -0.4429 -1.4762
 2742SOL    HW219686   1.945   3.183  12.588  1.7552 -0.6090 -1.2775
 2743SOL     OW19687   1.664   1.793   0.186 -0.2152  0.3205 -0.0710
 2743SOL    HW119688   1.641   1.846   0.263 -1.4827  3.2876 -2.5011
 2743SOL    HW219689   1.725   1.840   0.130 -0.0734  0.3745  0.1301
 2744SOL     OW19690   0.489   1.703   5.823 -0.0358  0.9132  0.0989
 2744SOL    HW119691   0.551   1.633   5.803 -1.5176 -0.0988 -1.0752
 2744SOL    HW219692   0.407   1.660   5.795  0.5089 -0.8600  1.2131
 2745SOL     OW19693   1.854   2.469   0.504  0.2807  0.0990  0.3152
 2745SOL    HW119694   1.847   2.531   0.577 -1.8943  0.1385  0.0643
 2745SOL    HW219695   1.887   2.519   0.429  0.3195 -0.6714 -0.1725
 2746SOL     OW19696   3.884   2.962   7.515 -0.0040  0.4585 -0.0415
 2746SOL    HW119697   3.843   2.904   7.578 -2.5065  1.4231 -0.7918
 2746SOL    HW219698   3.966   2.983   7.560 -2.3058  1.6271  3.5646
 2747SOL     OW19699   3.383   1.456   3.354  0.5822 -0.6493 -0.6242
 2747SOL    HW119700   3.288   1.460   3.345  0.4038 -2.0306  0.6136
 2747SOL    HW219701   3.393   1.404   3.433  0.9046 -0.7238 -0.7128
 2748SOL     OW19702   3.719   0.717  13.570 -0.2695 -0.5582  0.2840
 2748SOL    HW119703   3.645   0.701  13.629 -0.9678  0.4799 -0.2997
 2748SOL    HW219704   3.702   0.811  13.571  1.2420 -0.2625 -3.0395
 2749SOL     OW19705   0.957   2.489   6.676 -0.0662  0.0260  0.0790
 2749SOL    HW119706   0.908   2.430   6.619 -0.6008 -0.2741  0.8427
 2749SOL    HW219707   0.995   2.551   6.613 -1.5590  0.7290 -0.1094
 2750SOL     OW19708   0.328   2.225   0.568  0.1913  0.2549  0.0911
 2750SOL    HW119709   0.360   2.218   0.479  0.0422 -0.4027  0.0889
 2750SOL    HW219710   0.338   2.133   0.594 -1.8280 -0.0090 -0.0014
 2751SOL     OW19711   2.233   4.324  15.169 -0.3001  0.6263  0.1704
 2751SOL    HW119712   2.237   4.329  15.073  2.8750  0.3389  0.2811
 2751SOL    HW219713   2.277   4.241  15.187 -2.1891 -0.0493  1.5966
 2752SOL     OW19714   2.847   0.972   5.909 -0.9184 -0.6763  0.1217
 2752SOL    HW119715   2.890   0.966   5.995 -0.5735  1.7835  0.1202
 2752SOL    HW219716   2.850   0.877   5.898 -0.6144 -0.7219  0.5726
 2753SOL     OW19717   4.617   4.326  11.809  0.1290 -0.2404  0.1620
 2753SOL    HW119718   4.620   4.299  11.900  0.2038  2.6379  1.0216
 2753SOL    HW219719   4.563   4.262  11.764 -0.7757  0.7493 -0.1576
 2754SOL     OW19720   3.671   1.120   4.015 -0.3509 -0.2154 -0.9618
 2754SOL    HW119721   3.725   1.060   4.066  0.3707  0.7270 -0.6064
 2754SOL    HW219722   3.597   1.061   4.001  1.1633 -1.9851 -1.4391
 2755SOL     OW19723   2.914   3.900  13.236  0.2602  0.1970  0.1042
 2755SOL    HW119724   2.913   3.984  13.190 -1.6878  0.4001  0.5203
 2755SOL    HW219725   2.884   3.918  13.325 -0.5969 -2.7949  0.3946
 2756SOL     OW19726   1.889   1.284   2.854  0.6143  0.3163 -0.1974
 2756SOL    HW119727   1.804   1.246   2.832 -0.6916  2.6812  0.7726
 2756SOL    HW219728   1.870   1.377   2.867 -2.9662 -0.1465 -2.3646
 2757SOL     OW19729   1.992   1.485  11.823 -0.3807  0.0652  0.3996
 2757SOL    HW119730   1.974   1.428  11.748  3.6986  1.7177 -1.7727
 2757SOL    HW219731   2.068   1.440  11.860 -0.0583  1.4747  1.4102
 2758SOL     OW19732   1.678   1.147   3.182  0.2104  0.5745 -0.1957
 2758SOL    HW119733   1.621   1.221   3.163 -1.7792 -0.3446  2.0721
 2758SOL    HW219734   1.724   1.173   3.262 -0.3266  1.6089 -0.2247
 2759SOL     OW19735   2.387   3.163   2.491  0.2790 -0.5429 -0.1359
 2759SOL    HW119736   2.411   3.076   2.461 -0.2805  0.1429 -2.6003
 2759SOL    HW219737   2.451   3.220   2.448  0.4431 -1.5279 -1.1861
 2760SOL     OW19738   1.452   3.820  12.984  0.4319  0.0995 -1.0068
 2760SOL    HW119739   1.455   3.842  12.891 -1.0415 -0.5938 -1.2236
 2760SOL    HW219740   1.511   3.886  13.019  1.9021 -2.6798  1.8204
 2761SOL     OW19741   1.240   2.981   6.900 -0.0886 -0.7300 -0.4232
 2761SOL    HW119742   1.261   3.021   6.815 -0.7603  1.2734  0.3437
 2761SOL    HW219743   1.246   2.889   6.875  3.1844 -0.0470 -2.1952
 2762SOL     OW19744   2.268   4.124   0.281 -0.1713  0.5731  0.2542
 2762SOL    HW119745   2.337   4.190   0.277  0.7072 -0.4608 -1.6894
 2762SOL    HW219746   2.278   4.101   0.374 -1.1013  1.5065  0.5854
 2763SOL     OW19747   3.979   0.008   4.417 -0.3320  0.1352 -0.3051
 2763SOL    HW119748   4.014   4.681   4.488 -0.9768  2.5715  1.8364
 2763SOL    HW219749   4.014   4.692   4.339 -0.6692 -1.7946  0.6051
 2764SOL     OW19750   0.977   4.002  16.504  0.9804  0.2574  0.1043
 2764SOL    HW119751   0.928   4.047  16.434 -0.4948 -1.1446  0.2442
 2764SOL    HW219752   0.961   3.911  16.481 -0.5282  1.3754 -3.3653
 2765SOL     OW19753   4.224   3.500   4.382  0.6680 -0.2871 -0.6418
 2765SOL    HW119754   4.315   3.495   4.413  0.3435 -0.2051  0.3264
 2765SOL    HW219755   4.218   3.596   4.384  1.1536 -0.3550  4.7623
 2766SOL     OW19756   0.314   1.041  11.778  0.6811 -0.1219 -0.7935
 2766SOL    HW119757   0.379   1.075  11.840 -0.5508  0.8637 -0.0383
 2766SOL    HW219758   0.345   0.950  11.775  0.2225 -0.3060  0.2261
 2767SOL     OW19759   1.478   0.114  14.032 -0.0903  0.1977 -0.6285
 2767SOL    HW119760   1.506   0.169  14.105 -0.5670  0.0910 -0.3559
 2767SOL    HW219761   1.523   0.155  13.959  0.6292 -1.0813 -0.9097
 2768SOL     OW19762   3.684   0.989   3.119 -0.5298  0.1978 -0.0599
 2768SOL    HW119763   3.754   0.972   3.183 -0.4604 -0.9524 -0.4412
 2768SOL    HW219764   3.623   0.929   3.162 -0.6674 -0.6631 -1.4713
 2769SOL     OW19765   4.111   4.473   5.548  0.2131  0.1395 -0.1814
 2769SOL    HW119766   4.060   4.458   5.469 -1.2742  0.4560  0.7276
 2769SOL    HW219767   4.144   4.561   5.528  0.2903  0.4061  1.0799
 2770SOL     OW19768   1.876   4.020   7.013  0.1640 -0.0334  0.0432
 2770SOL    HW119769   1.933   4.078   6.963 -0.3536 -0.2087 -0.7540
 2770SOL    HW219770   1.822   4.089   7.050  0.5309  0.1077  0.3068
 2771SOL     OW19771   3.614   2.262   8.336 -0.0262  0.0127 -0.2314
 2771SOL    HW119772   3.644   2.336   8.284 -0.3420 -0.5908 -1.2844
 2771SOL    HW219773   3.552   2.219   8.276 -1.3623  1.7497 -0.0889
 2772SOL     OW19774   0.509   1.147   1.962 -0.3970 -0.1096 -0.4161
 2772SOL    HW119775   0.447   1.150   1.890  1.6498  1.0741 -2.1584
 2772SOL    HW219776   0.506   1.238   1.993 -1.7196 -1.2391  2.7848
 2773SOL     OW19777   3.218   3.350   3.854 -0.5039  0.0012  0.4779
 2773SOL    HW119778   3.149   3.333   3.790 -1.6309 -0.6345  1.8719
 2773SOL    HW219779   3.245   3.259   3.867  1.2515  0.9726  3.5417
 2774SOL     OW19780   2.719   2.094   1.990  0.2515 -0.2420  0.1745
 2774SOL    HW119781   2.738   2.064   1.901 -1.9907 -1.6901  0.1842
 2774SOL    HW219782   2.638   2.048   2.013 -0.9071  1.6472 -0.1375
 2775SOL     OW19783   0.462   3.971   0.716 -0.0868  0.5654 -0.0586
 2775SOL    HW119784   0.410   3.995   0.640  1.4809  1.2271 -0.9241
 2775SOL    HW219785   0.494   4.055   0.748 -1.5905  0.1703  2.5288
 2776SOL     OW19786   3.266   1.724  10.749 -0.5928 -0.3858  0.2455
 2776SOL    HW119787   3.306   1.810  10.762 -0.0311 -0.6544  0.2937
 2776SOL    HW219788   3.325   1.674  10.806 -0.6911  2.8478  3.1513
 2777SOL     OW19789   1.620   4.629   3.079 -0.1079 -0.3139  0.2619
 2777SOL    HW119790   1.613   4.689   3.004 -0.5897 -1.6556 -0.7718
 2777SOL    HW219791   1.714   4.614   3.082 -0.0663 -0.4461 -1.6215
 2778SOL     OW19792   3.527   2.142  14.108 -0.9570  0.3146 -0.6374
 2778SOL    HW119793   3.471   2.215  14.135 -1.0481  0.1595 -0.4116
 2778SOL    HW219794   3.610   2.178  14.141 -2.0587  0.7305  1.6597
 2779SOL     OW19795   2.968   0.688   1.594  0.4004 -0.1039  0.1206
 2779SOL    HW119796   2.900   0.631   1.559  0.7100  0.3534 -1.2368
 2779SOL    HW219797   3.008   0.632   1.660 -0.4318 -0.8738 -0.0306
 2780SOL     OW19798   0.874   1.014   4.198  0.6305 -0.1315  0.1496
 2780SOL    HW119799   0.944   1.034   4.136  1.8692 -1.4164  1.1195
 2780SOL    HW219800   0.924   0.960   4.260 -0.4066 -2.2878 -0.8804
 2781SOL     OW19801   2.577   1.959   3.672 -0.2141 -0.4822  0.2555
 2781SOL    HW119802   2.644   1.908   3.626 -1.2537  0.3609 -2.1923
 2781SOL    HW219803   2.579   1.905   3.751  1.6211 -1.4045 -0.4261
 2782SOL     OW19804   0.814   4.272  16.502  0.4425  0.2741  0.0360
 2782SOL    HW119805   0.862   4.308  16.428  1.0044 -0.7685 -0.1117
 2782SOL    HW219806   0.733   4.323  16.507 -0.0455 -0.5439  0.4695
 2783SOL     OW19807   1.667   3.061  12.524  0.4827 -0.4545 -0.0762
 2783SOL    HW119808   1.664   2.975  12.566 -1.6881 -0.6514 -0.6391
 2783SOL    HW219809   1.762   3.073  12.515  0.3847 -0.2901 -0.8714
 2784SOL     OW19810   0.602   1.438   7.094 -0.1883  0.1207 -0.1163
 2784SOL    HW119811   0.639   1.489   7.166  0.3580  1.7857 -1.5989
 2784SOL    HW219812   0.570   1.361   7.142 -2.2398  1.4812  0.6799
 2785SOL     OW19813   3.109   1.476   3.261 -0.3178 -0.1510 -0.1657
 2785SOL    HW119814   3.042   1.417   3.296  0.1827  0.4115  1.7179
 2785SOL    HW219815   3.055   1.533   3.206  1.3497 -1.1843 -2.8953
 2786SOL     OW19816   2.149   3.538   3.316  0.1794 -0.0490  0.6162
 2786SOL    HW119817   2.196   3.476   3.260 -1.7753 -3.0129  2.2771
 2786SOL    HW219818   2.065   3.525   3.272  0.7482  0.1440 -0.5475
 2787SOL     OW19819   2.065   1.219   8.717  0.4942 -0.6019  0.0207
 2787SOL    HW119820   2.088   1.312   8.722  2.7086 -1.0625 -1.6308
 2787SOL    HW219821   1.985   1.227   8.664  0.0702  0.9073  0.8840
 2788SOL     OW19822   2.618   3.331  11.072  0.1389  0.2488 -0.0121
 2788SOL    HW119823   2.711   3.329  11.095 -0.4970 -0.3868  2.4631
 2788SOL    HW219824   2.608   3.419  11.034 -0.1192  1.0937  1.9811
 2789SOL     OW19825   2.372   1.405  11.716 -0.5674 -0.0010 -0.7313
 2789SOL    HW119826   2.400   1.480  11.769 -1.0872  0.4154 -1.0441
 2789SOL    HW219827   2.342   1.347  11.785 -2.5088  0.3387 -1.2928
 2790SOL     OW19828   0.114   0.415  14.674 -0.8914 -0.2075  0.0920
 2790SOL    HW119829   0.118   0.332  14.722  2.3986  0.2503  0.5876
 2790SOL    HW219830   0.160   0.402  14.592  2.1196 -1.5172  2.0041
 2791SOL     OW19831   1.594   0.299  16.630 -0.0245  0.3290  0.3146
 2791SOL    HW119832   1.565   0.382  16.668 -0.6829 -0.6985  2.0615
 2791SOL    HW219833   1.536   0.308  16.554  0.1613  1.4115  0.3070
 2792SOL     OW19834   4.527   2.463   0.783 -0.0769 -0.2394  0.3464
 2792SOL    HW119835   4.524   2.367   0.785  0.6447 -0.2787 -0.3491
 2792SOL    HW219836   4.616   2.479   0.751 -0.2250  0.6728  0.3942
 2793SOL     OW19837   3.356   4.535  13.218  0.3191  0.2572  0.0245
 2793SOL    HW119838   3.375   4.563  13.307 -0.9150 -2.2754  1.0685
 2793SOL    HW219839   3.422   4.466  13.209  1.5514  1.6333 -1.5514
 2794SOL     OW19840   2.698   3.671   4.013 -0.6219  0.3247 -0.4976
 2794SOL    HW119841   2.674   3.703   3.926 -2.0215  2.3751  0.6459
 2794SOL    HW219842   2.794   3.669   4.014 -0.6618 -1.1603  0.3356
 2795SOL     OW19843   2.416   0.880   4.417  0.1090 -0.3299  0.1782
 2795SOL    HW119844   2.436   0.843   4.503 -2.4673 -0.3211  0.7850
 2795SOL    HW219845   2.495   0.931   4.397  0.1560 -0.0253  1.1475
 2796SOL     OW19846   4.225   0.174   3.275 -0.0301 -0.7183  0.4070
 2796SOL    HW119847   4.212   0.252   3.329 -1.9515  0.3671 -1.6228
 2796SOL    HW219848   4.308   0.198   3.234  0.0716  1.4488  1.9061
 2797SOL     OW19849   1.249   1.628   9.497 -0.5192 -0.1655  0.4487
 2797SOL    HW119850   1.174   1.672   9.456  0.7433  1.1467 -0.4809
 2797SOL    HW219851   1.212   1.551   9.538 -0.0852  0.3000  1.7195
 2798SOL     OW19852   0.597   3.603  12.691  0.6125  0.1316  0.3111
 2798SOL    HW119853   0.654   3.671  12.726 -0.0098  1.4551 -1.2469
 2798SOL    HW219854   0.517   3.651  12.668 -0.2320  0.7582  4.5652
 2799SOL     OW19855   2.508   0.790   3.668  0.1674 -0.0093 -0.0542
 2799SOL    HW119856   2.421   0.822   3.643  0.6851  2.9168  1.9639
 2799SOL    HW219857   2.496   0.751   3.755 -3.1188 -2.9688 -1.7778
 2800SOL     OW19858   0.775   3.697   8.354 -0.0826  0.0284 -0.2210
 2800SOL    HW119859   0.690   3.655   8.340 -0.3686  0.4986  0.1257
 2800SOL    HW219860   0.801   3.647   8.432  0.4972  1.8786  0.7703
 2801SOL     OW19861   2.002   2.080   3.350  1.0146 -0.7967 -0.3374
 2801SOL    HW119862   1.944   2.078   3.274  0.6608  2.7570 -0.1673
 2801SOL    HW219863   2.085   2.117   3.320  1.1072  1.9733  3.3430
 2802SOL     OW19864   0.635   4.155   6.475 -0.5950 -0.2023 -0.4487
 2802SOL    HW119865   0.719   4.179   6.434  0.8738 -0.5173  2.3995
 2802SOL    HW219866   0.589   4.238   6.483 -0.9895 -0.4329 -0.3171
 2803SOL     OW19867   1.979   0.945   3.042  0.4138 -0.5200 -0.1862
 2803SOL    HW119868   1.888   0.921   3.025  0.0935 -0.3218  1.3258
 2803SOL    HW219869   1.973   0.996   3.123  1.8077  0.3847 -0.6346
 2804SOL     OW19870   4.281   1.543  13.944 -0.6303  0.1993  0.5331
 2804SOL    HW119871   4.348   1.515  14.006  1.0702 -0.1735 -1.4836
 2804SOL    HW219872   4.221   1.469  13.955 -1.3300  0.5491 -0.9119
 2805SOL     OW19873   0.275   0.783   4.777  0.1921 -0.1067 -0.0330
 2805SOL    HW119874   0.323   0.829   4.708  0.2871 -0.9737 -0.5496
 2805SOL    HW219875   0.185   0.775   4.747 -0.4437 -2.2868  2.4405
 2806SOL     OW19876   3.628   2.110   6.795 -0.5240 -0.2330  0.4701
 2806SOL    HW119877   3.594   2.152   6.716 -2.7378 -1.5669  0.7360
 2806SOL    HW219878   3.621   2.021   6.760  0.7539  0.9923 -2.8486
 2807SOL     OW19879   2.285   1.895   7.918  0.4268 -0.0155  0.3743
 2807SOL    HW119880   2.232   1.823   7.953  0.5900 -0.6452 -0.6584
 2807SOL    HW219881   2.345   1.890   7.992  1.2347 -1.3074 -0.3702
 2808SOL     OW19882   3.740   0.315   1.280 -0.2732 -0.8666  0.4439
 2808SOL    HW119883   3.820   0.360   1.254 -0.3529 -0.6814  0.5256
 2808SOL    HW219884   3.776   0.265   1.354  2.0777  0.1523 -0.0149
 2809SOL     OW19885   2.240   1.019   4.615 -0.0967 -0.7881 -0.3268
 2809SOL    HW119886   2.292   1.008   4.695  0.6787  0.0272 -0.7239
 2809SOL    HW219887   2.291   0.977   4.546 -1.7809 -1.3383 -1.2259
 2810SOL     OW19888   1.978   0.491  15.649  0.5472 -0.3591  0.4423
 2810SOL    HW119889   2.008   0.577  15.619 -3.4560  0.3354 -1.5468
 2810SOL    HW219890   2.019   0.483  15.735  3.9990 -0.8388 -1.2657
 2811SOL     OW19891   0.955   0.317   6.516 -0.2620 -0.0620 -0.4316
 2811SOL    HW119892   0.920   0.268   6.442  0.5491 -0.5030 -0.5275
 2811SOL    HW219893   0.969   0.405   6.481  1.7509  0.5047  1.7643
 2812SOL     OW19894   2.915   2.603  13.600  0.0602  0.4572 -0.0229
 2812SOL    HW119895   2.822   2.609  13.619 -0.4974 -0.4866 -2.3793
 2812SOL    HW219896   2.923   2.509  13.582 -1.6976  0.0318  1.4851
 2813SOL     OW19897   1.444   1.531   8.614  0.3675 -0.3132  0.3614
 2813SOL    HW119898   1.355   1.524   8.649 -0.0158  0.8181 -0.3981
 2813SOL    HW219899   1.484   1.444   8.617  0.2596 -0.4123 -1.1477
 2814SOL     OW19900   1.208   1.340  16.739 -0.2916 -0.3170  0.5088
 2814SOL    HW119901   1.216   1.260  16.686  0.4165  0.0731  0.0280
 2814SOL    HW219902   1.147   1.304  16.803 -1.5231 -1.2334 -1.1672
 2815SOL     OW19903   1.827   0.981  11.549 -0.2214  0.1572 -0.6104
 2815SOL    HW119904   1.849   1.063  11.593  3.5954 -1.2175  0.0938
 2815SOL    HW219905   1.845   1.025  11.466  1.7552  0.7165  0.0999
 2816SOL     OW19906   0.393   4.172   3.222  0.3396  0.2150 -0.0209
 2816SOL    HW119907   0.452   4.178   3.296  1.2532 -0.7370 -0.6812
 2816SOL    HW219908   0.369   4.080   3.226 -0.5829  0.4516 -0.0456
 2817SOL     OW19909   1.322   3.114   4.297 -0.4367  0.5076  0.3081
 2817SOL    HW119910   1.356   3.095   4.385  1.4271 -0.4596 -0.6226
 2817SOL    HW219911   1.300   3.025   4.269  0.3559  0.0723  1.0574
 2818SOL     OW19912   3.552   1.591   6.334  0.4291  0.3911 -0.6310
 2818SOL    HW119913   3.603   1.527   6.284  0.1062  0.6186 -1.2560
 2818SOL    HW219914   3.609   1.623   6.403  0.4691 -0.2216 -0.3757
 2819SOL     OW19915   4.572   0.913   9.755  0.1151  0.6574  0.4467
 2819SOL    HW119916   4.567   0.893   9.849 -1.5235 -0.7283  0.0722
 2819SOL    HW219917   4.605   0.828   9.726 -0.7959  0.8494 -1.1237
 2820SOL     OW19918   3.089   0.394   3.037 -0.2755 -0.5329  0.7167
 2820SOL    HW119919   3.086   0.300   3.016  1.0694  0.0212 -1.9457
 2820SOL    HW219920   3.006   0.399   3.084 -0.0661 -1.3073  1.1807
 2821SOL     OW19921   4.602   2.585  14.302  0.0496  0.6426  0.2844
 2821SOL    HW119922   4.550   2.596  14.381 -0.7225 -0.7093 -0.0428
 2821SOL    HW219923   4.689   2.572  14.339  0.4005  0.0168 -0.7450
 2822SOL     OW19924   2.745   3.898   8.563 -0.3333 -0.2519 -0.4233
 2822SOL    HW119925   2.770   3.937   8.479 -0.0145 -0.5658 -0.4776
 2822SOL    HW219926   2.835   3.873   8.585  0.5853  2.3819 -1.1938
 2823SOL     OW19927   3.828   1.073   5.578  0.4176 -0.4451 -0.3893
 2823SOL    HW119928   3.811   0.989   5.537 -2.0348  0.0149 -0.2927
 2823SOL    HW219929   3.923   1.090   5.572  0.0295  1.1127 -2.0414
 2824SOL     OW19930   0.004   2.375   7.367 -0.1791  0.3446 -0.0230
 2824SOL    HW119931   4.710   2.295   7.415 -1.6120  0.0203 -1.1656
 2824SOL    HW219932   0.051   2.417   7.438 -1.3591  1.8869 -0.1473
 2825SOL     OW19933   2.597   4.156   1.573  0.5542  0.1753  0.1808
 2825SOL    HW119934   2.513   4.163   1.528  0.8035 -1.2686 -0.4982
 2825SOL    HW219935   2.602   4.066   1.603 -0.1383 -0.1414 -0.6591
 2826SOL     OW19936   1.585   2.798   6.279 -0.4829 -0.4256 -0.5641
 2826SOL    HW119937   1.584   2.822   6.186  2.4615 -1.2595 -0.8028
 2826SOL    HW219938   1.533   2.717   6.284 -2.0918  0.6681  0.4614
 2827SOL     OW19939   0.724   1.773   8.046 -0.0849 -0.1339  0.3377
 2827SOL    HW119940   0.764   1.839   7.989 -3.2092 -0.1731 -1.9053
 2827SOL    HW219941   0.651   1.760   7.985 -0.9422 -0.4377  1.4377
 2828SOL     OW19942   3.559   0.916   3.673 -0.3137 -0.5184 -0.2409
 2828SOL    HW119943   3.627   0.970   3.632 -0.6968  1.0245  1.2065
 2828SOL    HW219944   3.605   0.891   3.753 -2.2305 -0.0069  1.0050
 2829SOL     OW19945   0.728   4.341  11.622 -0.0046  0.8023 -0.5346
 2829SOL    HW119946   0.661   4.373  11.682  2.0358  0.4589  1.9597
 2829SOL    HW219947   0.714   4.404  11.552 -0.3310 -0.7155 -1.8131
 2830SOL     OW19948   4.546   1.039   7.278  0.1783  0.2250 -0.0084
 2830SOL    HW119949   4.518   0.967   7.222 -0.0634  0.9629 -0.8351
 2830SOL    HW219950   4.621   1.007   7.327  0.3045  1.2712  0.4908
 2831SOL     OW19951   3.267   2.990  16.341  0.3782  0.0699 -0.0218
 2831SOL    HW119952   3.314   3.071  16.320 -1.4526  1.1471  0.0113
 2831SOL    HW219953   3.283   2.948  16.256  2.5956 -1.5716  1.2181
 2832SOL     OW19954   2.063   2.293   0.676 -0.1987 -0.3520  0.1201
 2832SOL    HW119955   2.010   2.240   0.617 -0.9498  0.1563  0.3297
 2832SOL    HW219956   1.997   2.304   0.745  0.6994 -0.4584  1.0050
 2833SOL     OW19957   2.207   0.985  15.672 -0.0845 -0.7054  0.2911
 2833SOL    HW119958   2.175   0.895  15.662 -1.6508  0.1992 -3.0028
 2833SOL    HW219959   2.261   0.978  15.593  0.2947  0.1422  0.4794
 2834SOL     OW19960   1.673   2.765   4.078 -0.0969  0.0648  0.1393
 2834SOL    HW119961   1.755   2.777   4.030  0.2766 -0.9558  0.5100
 2834SOL    HW219962   1.701   2.696   4.139  2.3208  0.1992 -0.8214
 2835SOL     OW19963   2.117   3.479  10.193  0.1546 -0.7303 -0.2115
 2835SOL    HW119964   2.154   3.567  10.189 -1.6007 -0.0927 -2.5538
 2835SOL    HW219965   2.115   3.457  10.286  1.1564 -1.9344 -0.4786
 2836SOL     OW19966   1.260   3.484   5.068  0.2594  0.1678 -0.1593
 2836SOL    HW119967   1.272   3.418   5.137  2.2129  1.6499  0.9210
 2836SOL    HW219968   1.269   3.570   5.109 -1.0629  0.9481 -1.5044
 2837SOL     OW19969   2.600   4.635   7.859 -0.0950  0.3202  0.1739
 2837SOL    HW119970   2.681   4.661   7.902  1.3584 -2.1644 -1.1160
 2837SOL    HW219971   2.541   4.707   7.884 -1.6370 -0.2772 -1.6569
 2838SOL     OW19972   1.728   2.285   4.203 -0.6709 -0.4945  0.3341
 2838SOL    HW119973   1.702   2.208   4.151 -1.8826  0.8276 -1.0228
 2838SOL    HW219974   1.814   2.253   4.229  0.6566  1.8191 -1.2511
 2839SOL     OW19975   2.707   3.237   2.789  0.3490 -0.2860 -0.2450
 2839SOL    HW119976   2.773   3.175   2.821  1.0324 -0.0441 -1.1846
 2839SOL    HW219977   2.628   3.184   2.787  0.3811 -0.4076  1.5473
 2840SOL     OW19978   2.716   1.944   0.199 -0.4399  0.2562 -0.1414
 2840SOL    HW119979   2.673   1.944   0.285  2.9952 -1.3127  1.6090
 2840SOL    HW219980   2.802   1.978   0.227  0.6980  0.3817 -3.8518
 2841SOL     OW19981   3.670   4.392   7.541  0.7611 -0.2434 -0.3486
 2841SOL    HW119982   3.694   4.484   7.544  0.2738 -0.1317  0.2128
 2841SOL    HW219983   3.577   4.407   7.523  0.6093 -0.1199  0.5426
 2842SOL     OW19984   1.057   4.489  17.416  0.6047  0.3915 -0.0935
 2842SOL    HW119985   1.036   4.458  17.504  2.0102 -1.5401 -0.4359
 2842SOL    HW219986   0.973   4.474  17.372  1.4690 -0.2273 -1.5317
 2843SOL     OW19987   4.093   3.576   2.068  0.3305 -0.3109  0.4097
 2843SOL    HW119988   4.175   3.535   2.042 -0.1847 -1.6291  0.8822
 2843SOL    HW219989   4.119   3.667   2.051  0.3438 -0.8394 -2.3749
 2844SOL     OW19990   4.375   2.566   4.971 -0.6702 -0.0987  0.4330
 2844SOL    HW119991   4.426   2.640   4.938  1.7809 -1.3686  1.3742
 2844SOL    HW219992   4.306   2.625   5.002 -1.0922  0.1718 -0.9855
 2845SOL     OW19993   3.946   2.704  17.489 -0.3683 -0.2741  0.3494
 2845SOL    HW119994   3.914   2.760  17.418  2.0506 -0.6659 -1.0523
 2845SOL    HW219995   3.887   2.630  17.496 -1.9858  0.8581 -1.4736
 2846SOL     OW19996   2.168   1.288  12.433 -0.3901 -0.2527 -0.5024
 2846SOL    HW119997   2.201   1.256  12.349 -0.3885 -0.9829 -0.2211
 2846SOL    HW219998   2.180   1.383  12.425 -0.9715 -0.0663  0.7202
 2847SOL     OW19999   0.816   2.290  11.589  0.0093 -0.2081  0.5114
 2847SOL    HW120000   0.768   2.340  11.655  0.0095  2.6157 -1.6006
 2847SOL    HW220001   0.749   2.222  11.586  0.4908 -0.6944  0.9421
 2848SOL     OW20002   3.887   2.138   2.224  0.0863 -0.2118  0.4747
 2848SOL    HW120003   3.793   2.128   2.214  0.0648  0.5921 -0.0925
 2848SOL    HW220004   3.915   2.100   2.308  0.8864 -0.8392 -0.0724
 2849SOL     OW20005   2.890   2.073   6.544 -0.0595  0.7769  0.0099
 2849SOL    HW120006   2.935   2.138   6.598 -0.4055  1.4006 -0.4582
 2849SOL    HW220007   2.956   2.015   6.505 -0.5244  0.0589  0.2887
 2850SOL     OW20008   2.043   1.699   1.687 -0.5097 -0.1852  0.3370
 2850SOL    HW120009   2.117   1.732   1.635  0.0223  0.8710  1.7492
 2850SOL    HW220010   2.015   1.776   1.737  1.6377  1.2172 -0.5844
 2851SOL     OW20011   0.259   3.287   9.911 -0.2325  0.1241  0.2453
 2851SOL    HW120012   0.305   3.242   9.982  1.4611 -0.7839 -1.4247
 2851SOL    HW220013   0.209   3.352   9.959 -1.7451 -0.3596 -0.6531
 2852SOL     OW20014   1.131   3.960  11.434 -0.3873  0.1093  0.0874
 2852SOL    HW120015   1.074   3.883  11.430 -1.2229  0.8010 -1.2147
 2852SOL    HW220016   1.170   3.946  11.521  0.6762  1.4031 -0.1973
 2853SOL     OW20017   4.320   2.811   9.551 -0.1314  0.0714 -0.1914
 2853SOL    HW120018   4.372   2.732   9.546 -1.1678 -0.5959 -0.4956
 2853SOL    HW220019   4.304   2.820   9.457 -1.3888 -2.0503 -0.1777
 2854SOL     OW20020   0.053   1.395   2.613  0.2202  0.3677  0.1883
 2854SOL    HW120021   0.122   1.441   2.661 -0.1943 -0.2328  1.3682
 2854SOL    HW220022   0.094   1.408   2.527 -1.2003 -1.8472 -0.8306
 2855SOL     OW20023   3.243   2.706   8.602 -0.0538  0.0171  0.4904
 2855SOL    HW120024   3.164   2.661   8.630 -0.3023 -0.3334 -0.7533
 2855SOL    HW220025   3.312   2.642   8.620  0.3399  0.8515  1.9198
 2856SOL     OW20026   2.750   0.248   4.133 -1.1302  0.1556  0.2617
 2856SOL    HW120027   2.664   0.216   4.160 -0.9973  0.9887  1.6272
 2856SOL    HW220028   2.770   0.178   4.069  0.5454  1.1606 -0.3250
 2857SOL     OW20029   0.754   2.996  14.802  0.5581  0.2217 -0.6145
 2857SOL    HW120030   0.775   2.903  14.807 -0.1101  0.0729 -0.5863
 2857SOL    HW220031   0.722   3.000  14.712 -0.7487 -2.6955 -0.3010
 2858SOL     OW20032   2.781   4.198   6.750 -0.1403  0.1431  0.1423
 2858SOL    HW120033   2.713   4.178   6.814  0.5198 -1.0879  0.4431
 2858SOL    HW220034   2.734   4.221   6.670 -1.2988  0.5899  0.9384
 2859SOL     OW20035   4.089   3.009   7.896  0.3506 -0.2646 -0.1059
 2859SOL    HW120036   4.116   3.088   7.848  0.7759 -0.9824 -1.0510
 2859SOL    HW220037   4.059   3.059   7.972  0.1350  0.3758 -0.6068
 2860SOL     OW20038   2.432   1.093   6.463 -0.5128 -0.8353  0.8497
 2860SOL    HW120039   2.475   1.008   6.469 -1.4088 -1.3944 -0.6942
 2860SOL    HW220040   2.502   1.156   6.480 -1.1412 -0.2389  1.2673
 2861SOL     OW20041   1.187   1.826   6.499  0.0408  0.0221 -0.2145
 2861SOL    HW120042   1.270   1.823   6.547 -0.1234 -2.2769 -0.0817
 2861SOL    HW220043   1.210   1.774   6.422 -1.1600 -1.4280  0.3923
 2862SOL     OW20044   0.500   0.084   1.627  0.6750  0.7053 -0.3386
 2862SOL    HW120045   0.494   0.146   1.700  0.4811 -0.6446  0.7941
 2862SOL    HW220046   0.534   0.136   1.555 -1.3092  0.1575 -1.6770
 2863SOL     OW20047   3.996   2.555  16.578 -0.1065 -0.1933  0.4569
 2863SOL    HW120048   3.905   2.578  16.595  0.3059  0.7101  1.4387
 2863SOL    HW220049   4.020   2.513  16.660  1.5068 -3.4045 -1.6293
 2864SOL     OW20050   3.052   4.017  14.103 -0.6713  0.0867  0.6850
 2864SOL    HW120051   3.117   4.082  14.130 -0.0126 -0.5370  0.6076
 2864SOL    HW220052   3.085   3.935  14.139  0.1703 -0.8750 -2.2817
 2865SOL     OW20053   2.434   1.722   6.795  0.1535 -0.0465 -0.5361
 2865SOL    HW120054   2.439   1.665   6.718  0.8048 -0.1675 -0.4068
 2865SOL    HW220055   2.497   1.690   6.859 -1.7501 -0.4012  1.1712
 2866SOL     OW20056   0.533   2.936  13.234 -0.1410 -0.3558 -0.3488
 2866SOL    HW120057   0.471   2.983  13.179  2.9928  3.0328 -0.9991
 2866SOL    HW220058   0.554   2.995  13.306  0.9751 -1.3310  0.1305
 2867SOL     OW20059   4.666   3.631  10.675  0.1029  0.1440  0.7256
 2867SOL    HW120060   0.032   3.651  10.675  0.0552  0.3740  0.3785
 2867SOL    HW220061   4.627   3.718  10.664 -0.0092  0.1047  0.8044
 2868SOL     OW20062   3.715   0.607   0.362 -0.5365  0.2440  0.1263
 2868SOL    HW120063   3.692   0.616   0.270 -1.3473 -0.5528  0.2465
 2868SOL    HW220064   3.695   0.689   0.407 -1.9174 -1.0388  1.8931
 2869SOL     OW20065   1.218   3.050   1.144  0.7011  0.2925 -0.0515
 2869SOL    HW120066   1.276   3.105   1.091  1.3954 -1.0212 -0.6712
 2869SOL    HW220067   1.159   3.032   1.071 -0.5555 -3.7785  1.9775
 2870SOL     OW20068   2.642   3.697  13.350  0.5741  0.2981  0.2458
 2870SOL    HW120069   2.670   3.759  13.283 -1.8200  2.8464  1.5518
 2870SOL    HW220070   2.683   3.617  13.320 -0.8458 -0.8257  1.3088
 2871SOL     OW20071   2.656   3.975   5.890 -0.3800  0.3289 -0.1263
 2871SOL    HW120072   2.635   3.984   5.797  1.0152  1.6338 -0.3225
 2871SOL    HW220073   2.570   3.976   5.931 -1.7842  2.9189 -3.1211
 2872SOL     OW20074   4.396   0.908  11.181  0.4166  0.1782 -0.2956
 2872SOL    HW120075   4.366   0.927  11.269  2.0219 -0.5463  0.4023
 2872SOL    HW220076   4.489   0.906  11.203  0.5236  1.2312 -0.6303
 2873SOL     OW20077   4.177   2.007   6.247 -0.3071  0.1988 -0.3581
 2873SOL    HW120078   4.129   1.950   6.307  2.0784 -2.2177 -0.7285
 2873SOL    HW220079   4.258   2.013   6.298 -2.3590  0.5603  2.8801
 2874SOL     OW20080   2.992   3.422   3.073 -0.5781 -0.3880 -0.2905
 2874SOL    HW120081   2.911   3.383   3.104  0.4573 -3.1417 -1.0235
 2874SOL    HW220082   3.058   3.386   3.132 -0.6861  0.2947  0.2351
 2875SOL     OW20083   1.494   4.234   7.899  0.6799  0.0576 -1.0719
 2875SOL    HW120084   1.445   4.299   7.850  2.4529  2.0623 -0.1870
 2875SOL    HW220085   1.533   4.175   7.835  0.5179  0.8219 -1.8778
 2876SOL     OW20086   1.257   3.614  10.038 -0.1746  0.0393  0.4439
 2876SOL    HW120087   1.261   3.527   9.999  0.6367  0.0617  0.4821
 2876SOL    HW220088   1.171   3.642  10.006  0.6148  2.8179  0.7279
 2877SOL     OW20089   0.584   2.269  12.642  0.2985  0.0563 -0.6762
 2877SOL    HW120090   0.505   2.217  12.634 -0.1620  1.0402 -2.6428
 2877SOL    HW220091   0.638   2.215  12.584 -0.4908 -0.5198 -0.8614
 2878SOL     OW20092   1.968   1.545   3.085  0.1264 -0.0027  0.2331
 2878SOL    HW120093   2.062   1.556   3.078 -0.0650  0.6926 -1.1728
 2878SOL    HW220094   1.933   1.607   3.020 -0.3400 -1.0234 -0.4917
 2879SOL     OW20095   3.761   4.222   8.841  0.6271  0.3838 -0.3150
 2879SOL    HW120096   3.837   4.245   8.894 -1.0176  3.1264  0.8282
 2879SOL    HW220097   3.733   4.136   8.872  0.2741 -0.1859 -2.2044
 2880SOL     OW20098   3.386   1.329   3.080 -0.6995  0.2080  0.8833
 2880SOL    HW120099   3.400   1.234   3.073 -1.6579 -0.0043  1.8545
 2880SOL    HW220100   3.396   1.343   3.175  0.8308 -0.5631  0.8397
 2881SOL     OW20101   0.432   0.231   7.410  0.2048 -0.2251  0.2154
 2881SOL    HW120102   0.377   0.246   7.487 -1.4238 -3.6636 -0.2364
 2881SOL    HW220103   0.452   0.319   7.378 -0.8528 -0.6171 -1.5045
 2882SOL     OW20104   1.443   1.025   4.653 -0.4350  0.2264 -0.2202
 2882SOL    HW120105   1.440   1.004   4.746  0.4953  0.5035 -0.1229
 2882SOL    HW220106   1.535   1.034   4.628 -0.0173  0.4020  1.3947
 2883SOL     OW20107   2.640   3.229   6.266  0.4409 -0.5403  0.2042
 2883SOL    HW120108   2.636   3.269   6.179  0.6632 -0.6728  0.1343
 2883SOL    HW220109   2.553   3.248   6.302 -0.0426 -0.1074 -1.1873
 2884SOL     OW20110   2.475   0.147   3.418 -0.1289 -0.0178 -0.0062
 2884SOL    HW120111   2.499   0.111   3.333  0.7819 -1.2432  0.7565
 2884SOL    HW220112   2.469   0.242   3.412 -2.0567 -0.0490  1.5526
 2885SOL     OW20113   1.912   4.606   3.212  0.5968 -0.4116  0.7959
 2885SOL    HW120114   1.907   4.701   3.198  2.7961 -0.1469  1.8202
 2885SOL    HW220115   1.887   4.605   3.304  0.7760 -0.3534  0.8447
 2886SOL     OW20116   4.706   3.077   7.814 -0.3002 -0.7211  0.3074
 2886SOL    HW120117   0.001   3.163   7.851  1.0927 -1.7381  1.8410
 2886SOL    HW220118   4.616   3.095   7.785  0.4706 -0.3085 -1.7959
 2887SOL     OW20119   3.061   3.617  11.688  0.3477  0.3168 -0.2667
 2887SOL    HW120120   3.140   3.601  11.741  0.4639 -0.2855 -0.6232
 2887SOL    HW220121   3.094   3.650  11.605 -1.9651  0.6088 -1.0579
 2888SOL     OW20122   3.851   1.315   1.879 -0.6948  0.3903 -0.1764
 2888SOL    HW120123   3.891   1.395   1.913 -0.2267 -0.1260  0.4753
 2888SOL    HW220124   3.809   1.279   1.957 -3.0739  1.3332 -1.0326
 2889SOL     OW20125   2.431   3.684   2.063  0.1131 -0.1820 -0.1454
 2889SOL    HW120126   2.452   3.624   1.991 -1.3203 -0.8735  0.0140
 2889SOL    HW220127   2.368   3.626   2.106 -1.3518 -0.4594 -2.6839
 2890SOL     OW20128   0.547   3.490   7.375  0.6759  0.4143 -0.3056
 2890SOL    HW120129   0.519   3.440   7.452  1.3702  0.1864 -0.2039
 2890SOL    HW220130   0.624   3.539   7.404  1.2117  0.0329 -1.0822
 2891SOL     OW20131   4.441   1.211  14.984 -0.7584 -0.5836  0.0675
 2891SOL    HW120132   4.489   1.202  14.901 -3.0984 -0.5859 -1.2862
 2891SOL    HW220133   4.458   1.304  15.001 -3.1737  0.2491 -2.0357
 2892SOL     OW20134   3.267   3.254   6.740 -0.0316 -0.1357 -0.3811
 2892SOL    HW120135   3.353   3.283   6.771  0.7801  0.8626 -3.5565
 2892SOL    HW220136   3.222   3.332   6.710 -0.1592 -0.4061 -0.8937
 2893SOL     OW20137   3.189   3.219   7.072  0.2669  0.0974  0.0495
 2893SOL    HW120138   3.161   3.297   7.024 -1.3462  0.5902  1.7515
 2893SOL    HW220139   3.173   3.158   7.000 -1.2514 -1.0725  1.3640
 2894SOL     OW20140   1.517   4.298   7.406  0.1646  0.3096 -0.8418
 2894SOL    HW120141   1.550   4.377   7.363  2.0558 -0.0529 -0.0650
 2894SOL    HW220142   1.592   4.268   7.457  0.7152  0.4394 -1.5830
 2895SOL     OW20143   2.762   3.827  15.710  0.0803 -0.7547 -0.0961
 2895SOL    HW120144   2.694   3.880  15.667  0.7886  1.2891  1.2879
 2895SOL    HW220145   2.768   3.867  15.796 -0.2118 -0.0268 -0.4083
 2896SOL     OW20146   2.190   1.764   6.941 -0.5904  0.0548  0.2338
 2896SOL    HW120147   2.269   1.806   6.975  0.7138 -4.1362  2.3867
 2896SOL    HW220148   2.209   1.762   6.848 -1.3847  1.1458  0.0542
 2897SOL     OW20149   0.587   3.111  16.800  0.6322  0.1517 -0.7176
 2897SOL    HW120150   0.505   3.119  16.848  0.0804 -0.6176 -1.5176
 2897SOL    HW220151   0.552   3.104  16.711  0.5073  0.9429 -0.7298
 2898SOL     OW20152   1.396   0.803  16.551 -0.2809  0.0970 -0.2229
 2898SOL    HW120153   1.370   0.869  16.615 -0.1690 -0.3868  0.3247
 2898SOL    HW220154   1.317   0.749  16.558 -0.8114  0.7182 -1.5297
 2899SOL     OW20155   4.113   0.923   5.024 -0.0841 -0.2952 -0.5064
 2899SOL    HW120156   4.069   0.978   5.089 -0.7079  0.7689 -1.8310
 2899SOL    HW220157   4.173   0.879   5.084  2.3154  2.8270 -0.5877
 2900SOL     OW20158   2.744   4.707   9.619 -0.2029  0.5433  0.2342
 2900SOL    HW120159   2.702   0.060   9.653 -1.4723  0.4973 -1.2414
 2900SOL    HW220160   2.782   0.025   9.543 -2.3174 -0.9482 -1.6901
 2901SOL     OW20161   3.250   0.589   5.749  0.1430 -0.1764  0.3194
 2901SOL    HW120162   3.156   0.568   5.746 -0.0856  1.1394 -1.3661
 2901SOL    HW220163   3.254   0.582   5.845 -1.1204 -3.5923  0.1615
 2902SOL     OW20164   0.794   0.164  13.932 -0.7920  0.0459  0.0830
 2902SOL    HW120165   0.771   0.226  13.862  0.1128  0.0296 -0.2273
 2902SOL    HW220166   0.756   0.204  14.010 -3.2784 -1.0227 -0.5783
 2903SOL     OW20167   2.394   1.208  14.379  0.1025 -0.4324 -0.2519
 2903SOL    HW120168   2.477   1.181  14.417  0.0552 -2.5202 -1.6491
 2903SOL    HW220169   2.393   1.148  14.305  0.9849  0.9967 -1.4330
 2904SOL     OW20170   2.328   3.099  12.015 -0.3480 -0.3179  0.1408
 2904SOL    HW120171   2.289   3.172  12.063  0.4462  0.2073 -0.0159
 2904SOL    HW220172   2.363   3.043  12.084 -0.3482 -0.5193 -0.0237
 2905SOL     OW20173   2.269   1.798  12.710 -0.1363  0.2276 -0.1227
 2905SOL    HW120174   2.349   1.846  12.733 -1.4001  2.0297  0.5673
 2905SOL    HW220175   2.296   1.766  12.624 -0.2302  2.2651 -0.9260
 2906SOL     OW20176   2.567   2.102   7.022  0.1318 -0.1580  0.1918
 2906SOL    HW120177   2.533   2.192   7.022 -3.2904 -1.4739 -0.9679
 2906SOL    HW220178   2.654   2.133   6.998  0.5781 -1.9177 -0.4368
 2907SOL     OW20179   1.686   0.051   3.452  0.0272 -0.4412 -0.2082
 2907SOL    HW120180   1.608   0.088   3.495 -1.4730 -1.3160 -2.1591
 2907SOL    HW220181   1.638   0.005   3.382 -2.1093  1.5348 -0.0308
 2908SOL     OW20182   3.050   4.067  16.715  0.1185 -0.0730 -0.6192
 2908SOL    HW120183   3.016   3.990  16.669  0.4154 -0.1852 -0.6517
 2908SOL    HW220184   3.132   4.038  16.754  0.4909  1.1230 -0.5346
 2909SOL     OW20185   0.992   2.590   8.364  0.0854  0.5895  0.2428
 2909SOL    HW120186   1.054   2.530   8.324  0.2509 -0.5574  2.2018
 2909SOL    HW220187   1.021   2.672   8.323  0.6945  0.2621  0.0234
 2910SOL     OW20188   0.390   1.009   3.260 -0.1235 -0.2819 -0.1198
 2910SOL    HW120189   0.478   1.037   3.236 -0.0383 -0.8591 -0.4935
 2910SOL    HW220190   0.402   0.986   3.352 -2.8899 -2.4115 -0.2891
 2911SOL     OW20191   1.499   0.152  16.960 -0.3095 -0.2083  0.2603
 2911SOL    HW120192   1.412   0.175  16.992 -0.0802  0.0053  0.7416
 2911SOL    HW220193   1.525   0.102  17.038 -3.3413 -2.8586 -0.4444
 2912SOL     OW20194   3.650   2.159  12.180  0.4007  0.3850 -0.1477
 2912SOL    HW120195   3.586   2.103  12.136  0.7906  0.1260 -0.3825
 2912SOL    HW220196   3.672   2.105  12.256 -2.0522 -1.3231 -0.6553
 2913SOL     OW20197   1.111   2.799   8.264  0.4361  0.0854  0.4614
 2913SOL    HW120198   1.153   2.815   8.348  0.4498  0.1026  0.4512
 2913SOL    HW220199   1.158   2.858   8.206 -0.4876  0.7918  0.4340
 2914SOL     OW20200   3.422   4.592   7.856  0.5291 -0.4788  0.3425
 2914SOL    HW120201   3.342   4.539   7.853 -0.6799  1.2870  1.5890
 2914SOL    HW220202   3.388   4.665   7.907 -0.3558 -0.6699  0.0338
 2915SOL     OW20203   0.120   4.028   1.749  0.7897 -0.0417  0.4556
 2915SOL    HW120204   0.167   3.984   1.821  2.4247 -1.2207 -1.3438
 2915SOL    HW220205   0.178   4.099   1.722 -0.8482  0.7581 -0.9850
 2916SOL     OW20206   2.643   3.783   3.762 -0.7102 -0.2794  0.3732
 2916SOL    HW120207   2.561   3.830   3.750  0.4740  1.5388 -0.6062
 2916SOL    HW220208   2.709   3.836   3.717  0.6042 -0.6319  1.8585
 2917SOL     OW20209   2.888   0.446   9.965 -0.5306 -0.1953 -0.5399
 2917SOL    HW120210   2.953   0.463  10.033 -1.4195 -0.1663  0.2868
 2917SOL    HW220211   2.846   0.532   9.965  1.4671  0.7959 -2.0787
 2918SOL     OW20212   4.289   4.396   4.767  0.2178  0.3147 -0.0000
 2918SOL    HW120213   4.252   4.333   4.828  1.5498 -0.4555  0.0271
 2918SOL    HW220214   4.335   4.454   4.828  0.3795 -0.2967  0.4551
 2919SOL     OW20215   0.255   3.793   2.814  1.0764  0.1255 -0.4229
 2919SOL    HW120216   0.271   3.733   2.741 -2.8111 -3.0835  1.3468
 2919SOL    HW220217   0.184   3.748   2.860  2.8630 -0.7607  1.4187
 2920SOL     OW20218   2.496   2.168   9.099  0.2048 -0.2434  0.5362
 2920SOL    HW120219   2.537   2.241   9.052 -1.6505  0.1847 -0.4446
 2920SOL    HW220220   2.525   2.093   9.047 -0.2641 -0.4504  0.5755
 2921SOL     OW20221   2.227   3.061   2.707 -0.3245  0.1222 -0.3612
 2921SOL    HW120222   2.218   3.121   2.633  0.1529 -0.3767 -0.8213
 2921SOL    HW220223   2.165   2.995   2.678 -0.3372  0.0675 -0.2071
 2922SOL     OW20224   3.812   1.314   9.582 -0.2142  0.1223 -0.4307
 2922SOL    HW120225   3.858   1.391   9.618  2.1292 -2.4062  2.0001
 2922SOL    HW220226   3.799   1.271   9.667 -1.1488 -0.9779 -1.1391
 2923SOL     OW20227   0.235   0.161   2.248  0.5336 -0.4140 -0.3295
 2923SOL    HW120228   0.204   0.250   2.265 -0.4791 -1.1281  1.6582
 2923SOL    HW220229   0.230   0.120   2.335  0.5203 -2.6232 -1.3716
 2924SOL     OW20230   1.741   2.854   4.839 -0.4501 -0.3343  0.3187
 2924SOL    HW120231   1.731   2.823   4.749  0.6415 -0.9559  0.4103
 2924SOL    HW220232   1.696   2.938   4.833 -1.8788 -1.1316 -0.2222
 2925SOL     OW20233   1.962   0.841  10.360  0.5666  0.2997  0.4066
 2925SOL    HW120234   2.033   0.897  10.391  2.2546 -1.9411  0.6192
 2925SOL    HW220235   1.895   0.836  10.428 -0.8064  1.6220 -0.8480
 2926SOL     OW20236   2.326   4.280  15.925  0.1927 -0.1493 -0.2935
 2926SOL    HW120237   2.334   4.373  15.948 -1.8808 -0.9719  3.8767
 2926SOL    HW220238   2.360   4.285  15.836 -2.0302  0.7931 -1.1002
 2927SOL     OW20239   2.109   4.531  11.462 -0.2146 -0.2049  0.1592
 2927SOL    HW120240   2.026   4.572  11.489 -0.1622  0.6626 -1.0284
 2927SOL    HW220241   2.072   4.497  11.381  1.1666 -0.8591 -0.1944
 2928SOL     OW20242   1.589   1.152   5.878  0.0713  0.0522 -0.2263
 2928SOL    HW120243   1.684   1.147   5.888 -0.1016 -1.4564  0.8306
 2928SOL    HW220244   1.584   1.199   5.795 -0.1845 -0.6034 -0.5814
 2929SOL     OW20245   0.732   3.990   3.734  0.3203 -0.2385 -0.7412
 2929SOL    HW120246   0.780   3.974   3.652  0.2668  1.6068 -1.1358
 2929SOL    HW220247   0.806   3.988   3.795 -1.0532  1.6234  0.9956
 2930SOL     OW20248   2.377   2.252  14.711 -0.6890  0.1587 -0.2891
 2930SOL    HW120249   2.386   2.194  14.787 -1.8956 -0.6587 -0.7571
 2930SOL    HW220250   2.289   2.232  14.678 -0.8696  0.5744 -0.0622
 2931SOL     OW20251   3.104   1.550   6.908  0.7074 -0.3377  0.2994
 2931SOL    HW120252   3.157   1.470   6.910  0.9056 -0.2614 -2.8489
 2931SOL    HW220253   3.076   1.560   6.999  2.9202  1.0066  0.8311
 2932SOL     OW20254   1.508   2.834   6.018  0.1045 -0.0522  0.0485
 2932SOL    HW120255   1.494   2.900   5.950  1.2118  0.8652  0.7017
 2932SOL    HW220256   1.427   2.843   6.067  0.1621  2.1388 -0.2480
 2933SOL     OW20257   4.169   4.261  15.574  0.0464  0.0423 -0.0012
 2933SOL    HW120258   4.205   4.271  15.662 -2.1183  0.6754  0.8218
 2933SOL    HW220259   4.160   4.349  15.537 -1.1610 -0.0182  0.1326
 2934SOL     OW20260   4.490   4.389  14.443  0.4437  0.3985 -0.1404
 2934SOL    HW120261   4.553   4.328  14.403 -0.4045  0.0753 -0.9766
 2934SOL    HW220262   4.548   4.420  14.512  0.6795 -0.3368 -0.0068
 2935SOL     OW20263   4.128   1.688   7.986  0.2095  0.1574  0.2647
 2935SOL    HW120264   4.085   1.756   7.934 -1.0672  0.0518  1.1833
 2935SOL    HW220265   4.166   1.742   8.056 -1.0724 -1.2550  2.0719
 2936SOL     OW20266   1.825   2.037   4.906  0.1609 -0.4528 -0.1243
 2936SOL    HW120267   1.821   2.078   4.992 -1.2400 -0.7638 -0.0410
 2936SOL    HW220268   1.733   2.014   4.893  0.8756 -2.1190 -2.3422
 2937SOL     OW20269   4.561   1.207   1.958  0.3887  0.1862 -0.2648
 2937SOL    HW120270   4.505   1.280   1.931  1.0929 -0.0341 -2.2851
 2937SOL    HW220271   4.502   1.132   1.967 -1.7761  2.1822  2.2109
 2938SOL     OW20272   2.048   1.097  13.170  0.1895 -0.2907 -0.3279
 2938SOL    HW120273   2.094   1.077  13.089  1.8135 -1.0332  0.7747
 2938SOL    HW220274   2.087   1.034  13.230  1.9121  0.5994 -0.5141
 2939SOL     OW20275   3.857   2.710   1.843 -0.0068  0.1155 -0.2803
 2939SOL    HW120276   3.942   2.734   1.805 -0.4875  0.5646 -1.0822
 2939SOL    HW220277   3.825   2.787   1.891 -2.5339 -1.5487  0.6876
 2940SOL     OW20278   4.389   0.947   7.741 -0.2509 -0.3792  0.6075
 2940SOL    HW120279   4.476   0.908   7.751 -0.2417 -0.3664  0.5795
 2940SOL    HW220280   4.393   1.023   7.798 -1.1832 -0.0907  0.2977
 2941SOL     OW20281   2.325   1.430   6.202  0.2953  0.4098  0.6312
 2941SOL    HW120282   2.414   1.423   6.166  0.1322  2.2634 -0.1057
 2941SOL    HW220283   2.288   1.342   6.198  0.1399  0.3818  2.7530
 2942SOL     OW20284   0.092   4.002   3.141 -0.4791  0.0324 -0.0604
 2942SOL    HW120285   0.082   3.998   3.236 -1.2172 -1.6077 -0.2090
 2942SOL    HW220286   0.158   3.933   3.135  0.9364  1.3938 -0.0274
 2943SOL     OW20287   1.353   1.090   5.372  0.1991  0.5458 -0.2146
 2943SOL    HW120288   1.401   1.145   5.434 -1.0067  0.7258  0.5745
 2943SOL    HW220289   1.311   1.035   5.438  0.5716  0.2449 -0.2335
 2944SOL     OW20290   1.970   0.334   4.246 -0.0243 -0.3500  0.0965
 2944SOL    HW120291   1.915   0.296   4.314 -1.8535  0.5160 -0.9137
 2944SOL    HW220292   1.983   0.423   4.280 -0.0192  0.3698 -1.8038
 2945SOL     OW20293   2.375   3.093   6.042 -0.2169 -0.1964 -0.3638
 2945SOL    HW120294   2.428   3.017   6.066  1.1144 -0.0200 -2.7278
 2945SOL    HW220295   2.444   3.153   6.013  1.1251 -1.0488  1.1273
 2946SOL     OW20296   1.071   1.384   8.021  0.3964 -0.3846 -0.4472
 2946SOL    HW120297   1.011   1.385   8.096  0.8954  0.6749 -0.0731
 2946SOL    HW220298   1.044   1.458   7.967  1.5996  0.8826  0.6908
 2947SOL     OW20299   1.076   1.094   4.023 -0.8157  0.8918  0.0717
 2947SOL    HW120300   1.096   1.119   3.933 -1.4934  1.2154  0.0148
 2947SOL    HW220301   1.128   1.157   4.073  1.1626 -0.4047 -0.3535
 2948SOL     OW20302   1.124   4.571  13.690  0.1479 -0.3379 -0.4728
 2948SOL    HW120303   1.136   4.604  13.779 -0.1229  1.6557 -1.1810
 2948SOL    HW220304   1.160   4.482  13.699 -2.9272 -1.4299  0.8473
 2949SOL     OW20305   1.107   4.258   2.986  0.1562 -0.1866 -0.0298
 2949SOL    HW120306   1.139   4.339   2.946 -1.1045 -0.2733 -1.1992
 2949SOL    HW220307   1.188   4.207   2.988 -0.5166 -1.2376  0.6486
 2950SOL     OW20308   0.299   2.211   5.090 -0.3617  0.2967  0.0713
 2950SOL    HW120309   0.351   2.145   5.136 -0.8134 -0.2770 -0.2522
 2950SOL    HW220310   0.257   2.258   5.162  0.6428 -0.1640  0.9631
 2951SOL     OW20311   4.520   0.416   6.825  0.2416  0.2111 -0.5297
 2951SOL    HW120312   4.488   0.504   6.846  1.2266  0.4932 -0.1715
 2951SOL    HW220313   4.611   0.437   6.803  0.4873 -0.9713 -0.6197
 2952SOL     OW20314   0.176   3.078   2.077  0.2542  0.2566 -0.0740
 2952SOL    HW120315   0.111   3.127   2.128  2.4283  1.0852  1.9276
 2952SOL    HW220316   0.138   2.990   2.072 -0.3566  0.4213  1.6568
 2953SOL     OW20317   2.396   3.529   1.143 -0.3224 -0.3977  0.4205
 2953SOL    HW120318   2.318   3.582   1.128  0.8515  1.7945  1.8919
 2953SOL    HW220319   2.450   3.585   1.199  1.6733 -1.7013 -0.2279
 2954SOL     OW20320   3.446   1.930   0.524  0.4540 -0.4018 -0.5563
 2954SOL    HW120321   3.537   1.912   0.500  0.1016 -0.3130 -2.0073
 2954SOL    HW220322   3.413   1.844   0.552 -0.4788  0.2679  0.3739
 2955SOL     OW20323   3.736   0.326  10.680 -0.0276  0.0937 -0.3037
 2955SOL    HW120324   3.751   0.330  10.775  3.0572  0.5078 -0.8258
 2955SOL    HW220325   3.651   0.369  10.672  0.8001  1.0361 -4.0820
 2956SOL     OW20326   2.868   2.396   3.112  0.4698  0.4596 -0.1191
 2956SOL    HW120327   2.933   2.458   3.145  0.3057  0.7268 -0.3105
 2956SOL    HW220328   2.879   2.351   3.197  2.5921  1.0464 -0.0919
 2957SOL     OW20329   0.415   2.329  15.341 -0.1114 -0.3499 -0.2348
 2957SOL    HW120330   0.487   2.285  15.295  1.3631  1.4296  0.3629
 2957SOL    HW220331   0.420   2.297  15.431 -0.3399  0.6172  0.1205
 2958SOL     OW20332   1.668   1.059   0.763 -0.1399  0.0003 -0.6642
 2958SOL    HW120333   1.705   1.044   0.675 -1.6616 -1.0321 -1.1152
 2958SOL    HW220334   1.583   1.016   0.763  0.3596 -0.9750 -1.4604
 2959SOL     OW20335   0.237   3.177   3.122 -0.5191 -0.1293  0.3527
 2959SOL    HW120336   0.264   3.087   3.108 -0.7077 -0.0163 -0.6916
 2959SOL    HW220337   0.183   3.164   3.201  0.3835  0.7961  1.1299
 2960SOL     OW20338   0.348   0.722   2.240  0.1835 -0.0501  0.5573
 2960SOL    HW120339   0.399   0.771   2.304  1.2769 -0.2682 -0.1503
 2960SOL    HW220340   0.374   0.763   2.158 -0.9920 -0.4511 -0.0235
 2961SOL     OW20341   4.338   3.632   5.825  0.1906  0.7163 -1.0790
 2961SOL    HW120342   4.407   3.697   5.838 -0.2624  0.9917 -0.0805
 2961SOL    HW220343   4.265   3.654   5.882  0.2951  0.8810 -1.0103
 2962SOL     OW20344   2.912   3.592  15.911 -0.4303  0.4409 -0.0081
 2962SOL    HW120345   2.862   3.673  15.901 -0.0989  0.5805 -0.5349
 2962SOL    HW220346   2.853   3.518  15.920  1.9747 -1.7011 -1.9020
 2963SOL     OW20347   0.338   1.283   5.309 -0.1388 -0.3019  0.1919
 2963SOL    HW120348   0.342   1.203   5.257 -2.8253  0.8614 -1.8238
 2963SOL    HW220349   0.265   1.262   5.368  0.9998 -2.0894  0.9803
 2964SOL     OW20350   2.573   2.596   8.955  0.3835 -0.0225 -0.2543
 2964SOL    HW120351   2.504   2.581   9.020  1.9506 -2.0412  0.9384
 2964SOL    HW220352   2.586   2.506   8.923  1.3190  0.0737 -0.1608
 2965SOL     OW20353   3.287   2.427   4.625 -0.4583 -0.4453  0.5230
 2965SOL    HW120354   3.355   2.374   4.585  0.5404  1.7410 -0.6688
 2965SOL    HW220355   3.212   2.385   4.584 -0.2857 -0.0068 -0.2420
 2966SOL     OW20356   0.702   2.737   0.487 -0.1277  0.7203 -0.0699
 2966SOL    HW120357   0.742   2.797   0.550 -0.1279 -1.6326  2.1639
 2966SOL    HW220358   0.726   2.777   0.403  2.9027  0.8023  0.8492
 2967SOL     OW20359   1.753   4.109   3.026  0.2515  0.1793 -0.3977
 2967SOL    HW120360   1.789   4.023   3.047  0.2257  0.2938  0.1244
 2967SOL    HW220361   1.824   4.147   2.975  1.2434 -2.3069 -0.8687
 2968SOL     OW20362   3.315   1.458   6.368  0.8274  0.2027 -0.3303
 2968SOL    HW120363   3.268   1.438   6.448 -0.8821  1.3344 -1.0455
 2968SOL    HW220364   3.392   1.509   6.394 -0.0397  0.0756  2.4454
 2969SOL     OW20365   3.301   1.342   4.035 -0.6970 -0.2444 -0.0386
 2969SOL    HW120366   3.330   1.302   3.953  0.8223  1.4840 -0.3322
 2969SOL    HW220367   3.383   1.343   4.083 -1.1298  0.4599  0.6960
 2970SOL     OW20368   0.052   2.830  14.415 -0.4662  0.6862  1.0537
 2970SOL    HW120369   0.032   2.818  14.322 -3.0804  0.7444  1.6095
 2970SOL    HW220370   0.090   2.745  14.439 -0.1971  0.1745 -1.1869
 2971SOL     OW20371   3.429   0.559   5.058 -0.2451  0.1366  0.1499
 2971SOL    HW120372   3.411   0.582   5.149  0.0977  1.6659 -0.1824
 2971SOL    HW220373   3.398   0.468   5.056 -2.2714  0.7946  1.0268
 2972SOL     OW20374   0.247   3.748   1.971 -0.0454  0.3012 -0.0961
 2972SOL    HW120375   0.260   3.690   1.896 -0.3016  0.8366 -0.5517
 2972SOL    HW220376   0.332   3.744   2.016  1.2116  0.4646 -2.4327
 2973SOL     OW20377   3.344   0.621  10.619  0.0384  0.7908 -0.2443
 2973SOL    HW120378   3.274   0.577  10.570  0.8261 -0.8973  0.1584
 2973SOL    HW220379   3.333   0.714  10.599  0.0063  0.5236 -1.4987
 2974SOL     OW20380   1.996   0.527  10.599  0.0097 -0.0093 -0.1420
 2974SOL    HW120381   2.044   0.448  10.573  1.3603  0.6554  0.3394
 2974SOL    HW220382   2.070   0.586  10.608 -0.7830  1.1502 -1.1512
 2975SOL     OW20383   1.705   4.294   0.318 -0.0579  0.6948  0.0956
 2975SOL    HW120384   1.664   4.372   0.279 -0.2384  0.4173 -0.2637
 2975SOL    HW220385   1.628   4.249   0.353 -0.3306  1.7055  0.8001
 2976SOL     OW20386   0.295   3.072  16.244  0.1330 -0.2419 -0.5363
 2976SOL    HW120387   0.218   3.057  16.297  2.1295 -0.4149  2.3276
 2976SOL    HW220388   0.263   3.135  16.179 -1.4727  1.3700  1.7987
 2977SOL     OW20389   2.227   3.792   0.198 -0.1760  0.8251  0.6713
 2977SOL    HW120390   2.144   3.811   0.153 -1.2635 -1.1848  1.8183
 2977SOL    HW220391   2.269   3.873   0.167 -2.0280  1.8277  0.7417
 2978SOL     OW20392   3.690   3.631   8.156 -0.0601 -0.7558  0.0297
 2978SOL    HW120393   3.622   3.698   8.165 -0.3554 -1.0809  0.2099
 2978SOL    HW220394   3.734   3.637   8.241  1.5107  0.8427 -0.8935
 2979SOL     OW20395   0.852   2.122   3.571 -0.3973 -0.1166  0.4366
 2979SOL    HW120396   0.927   2.123   3.512 -0.5743  0.3344  0.2146
 2979SOL    HW220397   0.876   2.039   3.611  1.6930  0.2012 -0.1746
 2980SOL     OW20398   2.960   2.550   7.175 -0.4958  0.1187 -0.0645
 2980SOL    HW120399   2.951   2.622   7.237  0.1015 -1.4215  1.7790
 2980SOL    HW220400   3.048   2.560   7.139 -0.3187  0.9578  0.6019
 2981SOL     OW20401   1.249   3.673   5.285 -0.1490 -0.0606  0.0071
 2981SOL    HW120402   1.232   3.625   5.366  0.4916 -0.9429 -0.3862
 2981SOL    HW220403   1.289   3.752   5.323 -1.4015  0.4082  0.3522
 2982SOL     OW20404   2.406   3.791   8.897 -0.3556 -0.4329 -0.2057
 2982SOL    HW120405   2.396   3.759   8.987  1.5373 -1.0676 -0.2129
 2982SOL    HW220406   2.327   3.757   8.855  0.1113 -0.4102 -1.0911
 2983SOL     OW20407   3.948   1.190   2.717  0.0906  0.1287 -0.8461
 2983SOL    HW120408   4.028   1.138   2.711  0.4049  0.4879  0.1122
 2983SOL    HW220409   3.991   1.271   2.744  0.6674 -0.0336 -1.2736
 2984SOL     OW20410   3.227   1.252   2.693 -0.1690  0.3111  0.8851
 2984SOL    HW120411   3.237   1.163   2.662  2.2493  0.9776 -0.2690
 2984SOL    HW220412   3.291   1.305   2.645  1.8847 -1.8588  1.2324
 2985SOL     OW20413   2.228   3.115  10.543  0.1308 -0.1561  0.5031
 2985SOL    HW120414   2.196   3.194  10.502 -1.7900 -1.4035 -0.3775
 2985SOL    HW220415   2.277   3.083  10.468 -0.9252 -0.9402  0.1551
 2986SOL     OW20416   4.494   2.592   9.487  0.1024 -0.3096 -0.3215
 2986SOL    HW120417   4.518   2.554   9.402 -1.4501 -0.8462 -0.5132
 2986SOL    HW220418   4.586   2.602   9.513 -0.2813  1.5825  0.3241
 2987SOL     OW20419   0.408   2.631   4.936  0.7363  0.2707  0.6119
 2987SOL    HW120420   0.439   2.614   5.026 -0.5682 -1.0337  0.8158
 2987SOL    HW220421   0.435   2.550   4.892  1.3008  1.1319 -0.5927
 2988SOL     OW20422   1.834   0.400  12.818 -0.6054  0.1890 -0.4352
 2988SOL    HW120423   1.903   0.403  12.884 -0.2216  1.0474 -0.8923
 2988SOL    HW220424   1.834   0.307  12.796  0.4729  1.0212 -3.9209
 2989SOL     OW20425   4.489   1.194   4.281  0.2235 -0.1252  1.1415
 2989SOL    HW120426   4.487   1.232   4.193  1.9946 -0.7178  0.8546
 2989SOL    HW220427   4.527   1.108   4.263  0.1843 -0.2545  1.6779
 2990SOL     OW20428   0.561   3.917   9.997 -0.3818 -0.3549  0.4455
 2990SOL    HW120429   0.504   3.843   9.979  0.9790 -1.4359  0.6133
 2990SOL    HW220430   0.524   3.950  10.079  0.4795  1.0683  0.2722
 2991SOL     OW20431   2.523   2.857   4.514 -0.1150 -0.1168 -0.5754
 2991SOL    HW120432   2.430   2.840   4.527  0.6003 -1.8245  2.5410
 2991SOL    HW220433   2.543   2.767   4.487 -2.6391 -0.4482 -1.3043
 2992SOL     OW20434   0.104   4.601   8.840  0.4010  0.2124 -0.0674
 2992SOL    HW120435   0.110   4.672   8.776  1.5652 -0.0216 -0.2100
 2992SOL    HW220436   0.010   4.600   8.859  0.6286  1.7223  1.1124
 2993SOL     OW20437   3.782   0.968  16.527  0.2011  0.2792 -0.2398
 2993SOL    HW120438   3.744   0.912  16.459  0.7268 -0.1662 -0.1561
 2993SOL    HW220439   3.713   1.035  16.530  0.4075  0.4643  0.4371
 2994SOL     OW20440   2.204   1.264   1.266 -0.0100 -0.0195  0.1154
 2994SOL    HW120441   2.156   1.245   1.185  0.0666  0.6028 -0.0733
 2994SOL    HW220442   2.204   1.359   1.262  1.8741 -0.0958 -1.6574
 2995SOL     OW20443   3.792   0.834  11.778  0.6215  0.3324  0.0131
 2995SOL    HW120444   3.877   0.793  11.791 -0.0344 -0.4662  1.7422
 2995SOL    HW220445   3.813   0.924  11.751 -0.4124  1.1013  1.7811
 2996SOL     OW20446   0.308   4.560  10.092 -0.7207 -0.2594  0.1152
 2996SOL    HW120447   0.284   4.644  10.131  0.1172 -0.6193  1.4091
 2996SOL    HW220448   0.403   4.557  10.104 -0.5367  0.2983 -1.1967
 2997SOL     OW20449   1.842   1.094   6.797 -0.4754 -0.2789  0.1958
 2997SOL    HW120450   1.794   1.127   6.873 -1.1328  2.2242 -1.3227
 2997SOL    HW220451   1.863   1.172   6.747  0.4177  0.4552  1.7419
 2998SOL     OW20452   1.876   0.597   9.788  0.0734 -0.4662 -0.4709
 2998SOL    HW120453   1.950   0.555   9.744 -0.8339  2.1421 -4.5543
 2998SOL    HW220454   1.914   0.633   9.868  0.1059  1.1078 -1.2021
 2999SOL     OW20455   1.782   1.891  10.879 -0.3661  0.0013 -0.3734
 2999SOL    HW120456   1.828   1.944  10.944 -0.4522  0.0168 -0.3258
 2999SOL    HW220457   1.692   1.911  10.906 -0.7791 -0.2084 -1.5718
 3000SOL     OW20458   0.024   3.668   4.399  0.0699 -0.1935 -0.0538
 3000SOL    HW120459   0.059   3.725   4.330 -0.0092  0.3605  0.3631
 3000SOL    HW220460   4.669   3.712   4.421  0.9637  0.5675  1.7284
 3001SOL     OW20461   3.672   1.455   2.436 -0.0831 -0.0263  0.4893
 3001SOL    HW120462   3.693   1.500   2.354 -1.2333  0.1752  0.3050
 3001SOL    HW220463   3.728   1.377   2.429 -0.7244 -0.6225  1.9849
 3002SOL     OW20464   4.407   3.517  12.839  0.2853  0.6216 -0.2500
 3002SOL    HW120465   4.477   3.504  12.903 -0.4382 -0.9780  0.2160
 3002SOL    HW220466   4.401   3.440  12.784  1.0210  0.0722  0.4315
 3003SOL     OW20467   3.843   2.050  15.082  0.8369 -0.1453  0.0494
 3003SOL    HW120468   3.763   2.062  15.134 -1.0049 -1.3339 -2.5405
 3003SOL    HW220469   3.829   1.962  15.047 -1.2866  0.8468 -1.5407
 3004SOL     OW20470   4.160   0.436   3.944 -0.4093 -0.1030 -0.3987
 3004SOL    HW120471   4.128   0.380   4.015 -3.0841  0.6171 -1.0512
 3004SOL    HW220472   4.240   0.394   3.913  0.5556  0.5051  1.2648
 3005SOL     OW20473   2.893   0.932   7.290 -0.2983 -0.1001  0.1585
 3005SOL    HW120474   2.917   0.845   7.322 -0.2957  0.1820  0.9060
 3005SOL    HW220475   2.897   0.995   7.362  1.6607  0.0880 -0.1204
 3006SOL     OW20476   3.733   1.400   6.665  0.5349  0.3720  0.1063
 3006SOL    HW120477   3.731   1.318   6.615  0.8882 -0.8947  2.1659
 3006SOL    HW220478   3.694   1.377   6.750  0.4724  1.2009  0.3061
 3007SOL     OW20479   0.671   1.272   6.350  0.8624 -0.0452  0.4389
 3007SOL    HW120480   0.639   1.345   6.403  0.6099  1.7012 -2.1040
 3007SOL    HW220481   0.736   1.233   6.408  0.6496  1.5337  1.7356
 3008SOL     OW20482   1.840   0.573  12.462 -0.0864  0.0225 -0.0582
 3008SOL    HW120483   1.790   0.604  12.386 -2.0093 -2.2621  0.3166
 3008SOL    HW220484   1.931   0.579  12.431 -0.0337  2.3885  0.5957
 3009SOL     OW20485   1.408   4.268  15.886 -0.6409  0.1352 -0.0387
 3009SOL    HW120486   1.365   4.220  15.957 -1.5064  2.9949  1.3420
 3009SOL    HW220487   1.402   4.361  15.904  0.2390  0.2067 -0.1115
 3010SOL     OW20488   3.166   0.180  15.742  0.4103  0.5404 -0.0838
 3010SOL    HW120489   3.136   0.170  15.652  3.5080  1.0093 -1.1496
 3010SOL    HW220490   3.222   0.103  15.755  0.2516  0.3151 -0.7393
 3011SOL     OW20491   2.488   3.813   6.640  0.0137  0.5216 -0.3069
 3011SOL    HW120492   2.408   3.762   6.623 -0.2344  0.1087  2.0578
 3011SOL    HW220493   2.497   3.792   6.733 -2.3733  1.2614  0.0978
 3012SOL     OW20494   3.254   3.924   5.015  0.0239  0.0219 -0.0300
 3012SOL    HW120495   3.223   4.008   5.047  0.3907  0.8772 -1.8752
 3012SOL    HW220496   3.194   3.866   5.061 -1.2179  1.6989  0.4501
 3013SOL     OW20497   1.429   0.194   6.184  0.0913 -0.4605  0.1928
 3013SOL    HW120498   1.490   0.228   6.250  0.8486 -1.6313  0.0852
 3013SOL    HW220499   1.489   0.150   6.124 -1.1234 -1.3176 -0.3949
 3014SOL     OW20500   1.505   2.651  11.072  0.0861 -0.0748 -0.1643
 3014SOL    HW120501   1.500   2.595  10.995  0.3273  0.0709 -0.2853
 3014SOL    HW220502   1.581   2.611  11.114  0.7599 -1.0201 -2.2953
 3015SOL     OW20503   4.508   3.836   8.989 -0.5262  0.3125 -0.1443
 3015SOL    HW120504   4.575   3.776   9.022 -0.4374 -0.2508 -1.3336
 3015SOL    HW220505   4.498   3.812   8.897 -2.3530 -0.2763  0.2172
 3016SOL     OW20506   2.212   4.136   9.685 -0.0945 -0.5040  0.2188
 3016SOL    HW120507   2.265   4.080   9.742 -1.1473 -1.3845  0.3463
 3016SOL    HW220508   2.272   4.198   9.645  0.2575 -0.7576  0.3530
 3017SOL     OW20509   2.989   3.797  11.247  0.4019 -0.1936 -0.1516
 3017SOL    HW120510   2.957   3.875  11.202 -0.0532 -0.0845  0.3581
 3017SOL    HW220511   2.925   3.739  11.206 -0.2834 -0.5720  1.4493
 3018SOL     OW20512   0.502   0.674   8.644 -0.1801 -0.4569  0.0204
 3018SOL    HW120513   0.523   0.767   8.642  0.1714 -0.5486 -0.4201
 3018SOL    HW220514   0.581   0.633   8.610 -0.9444 -3.6194  2.0190
 3019SOL     OW20515   1.608   2.273   1.373  0.0945  0.2051 -0.3344
 3019SOL    HW120516   1.533   2.321   1.408  0.2746 -0.6214  1.1864
 3019SOL    HW220517   1.577   2.208   1.310 -1.2673  1.3319 -0.8177
 3020SOL     OW20518   3.579   3.980   4.458 -0.0571  0.3851 -0.4724
 3020SOL    HW120519   3.563   3.941   4.372  2.1849  0.3111 -0.8632
 3020SOL    HW220520   3.606   4.070   4.438 -1.8706  0.6280 -1.8037
 3021SOL     OW20521   3.276   3.983  12.471  0.0296 -0.6452  0.4462
 3021SOL    HW120522   3.211   3.913  12.470 -2.0444  1.3029  0.5840
 3021SOL    HW220523   3.350   3.950  12.523  0.9315  1.0020  0.2070
 3022SOL     OW20524   4.626   0.608   6.105  0.0272 -0.3410  0.8189
 3022SOL    HW120525   4.683   0.680   6.079 -0.0025  0.0670  1.8693
 3022SOL    HW220526   4.674   0.563   6.174 -1.4145 -1.1912  1.2669
 3023SOL     OW20527   3.852   0.868   3.300 -0.1919 -0.0768  0.1951
 3023SOL    HW120528   3.946   0.877   3.312 -0.5045  1.0998  1.6972
 3023SOL    HW220529   3.824   0.834   3.385 -0.6398 -0.8506 -0.2567
 3024SOL     OW20530   1.991   1.293  11.325 -0.4407 -0.0487  0.2098
 3024SOL    HW120531   1.900   1.321  11.320 -0.1960  0.8020  0.6713
 3024SOL    HW220532   1.985   1.197  11.333  2.0266 -0.1821  0.4154
 3025SOL     OW20533   0.463   3.548   6.686  0.1499 -0.0683 -0.5209
 3025SOL    HW120534   0.438   3.515   6.772 -1.5006  1.4256 -0.4282
 3025SOL    HW220535   0.548   3.588   6.703  0.6555 -1.0642 -0.6516
 3026SOL     OW20536   0.405   3.450   6.932 -0.3375  0.0706  0.1163
 3026SOL    HW120537   0.353   3.516   6.978 -2.2663 -1.6579  0.3851
 3026SOL    HW220538   0.442   3.403   7.007  0.7298 -0.8926 -1.0041
 3027SOL     OW20539   4.530   0.356   1.574 -0.1954  0.6165  0.4703
 3027SOL    HW120540   4.535   0.295   1.500  2.2829 -2.2071  2.9426
 3027SOL    HW220541   4.439   0.346   1.600 -0.0601 -2.4927 -0.2010
 3028SOL     OW20542   1.451   0.266   4.340  0.8808 -0.5060 -0.0557
 3028SOL    HW120543   1.434   0.255   4.434  0.3093  1.6233  0.0974
 3028SOL    HW220544   1.540   0.233   4.330  0.5258 -1.0205 -1.4441
 3029SOL     OW20545   2.234   1.625   4.008  0.6141 -0.2358 -0.1335
 3029SOL    HW120546   2.160   1.665   4.055  1.4108  1.3416 -0.2168
 3029SOL    HW220547   2.170   1.595   3.943  1.3708  2.0747 -1.9559
 3030SOL     OW20548   0.948   2.612   7.893  1.4073 -0.6780 -0.0992
 3030SOL    HW120549   0.896   2.671   7.838 -0.2264 -0.5309  1.6009
 3030SOL    HW220550   0.893   2.534   7.894  1.1182 -0.4482  2.1198
 3031SOL     OW20551   4.478   4.430   2.079 -0.0106 -0.3436  0.4295
 3031SOL    HW120552   4.396   4.423   2.029  0.3490 -1.6095  0.0155
 3031SOL    HW220553   4.496   4.347   2.124 -1.2293 -1.3121 -0.8414
 3032SOL     OW20554   3.225   0.194   7.400  0.3491 -0.1147  0.2126
 3032SOL    HW120555   3.249   0.286   7.384  0.1238  0.1160  1.2245
 3032SOL    HW220556   3.276   0.144   7.335  0.8689  0.0070  0.5228
 3033SOL     OW20557   1.289   2.018   2.366 -0.4018  0.0479 -0.1280
 3033SOL    HW120558   1.292   1.971   2.282  1.9353  3.3805 -1.8924
 3033SOL    HW220559   1.237   2.093   2.337  0.0014  0.7241  0.9153
 3034SOL     OW20560   0.179   2.218  15.991  0.0183  0.4068 -0.4653
 3034SOL    HW120561   0.256   2.168  16.014 -0.4302 -0.8324 -1.6345
 3034SOL    HW220562   0.211   2.308  15.991  0.5403  0.2218  0.9761
 3035SOL     OW20563   0.095   1.260   9.229  0.7250 -0.3249  0.3605
 3035SOL    HW120564   0.113   1.299   9.144 -0.6391  0.8853  0.6215
 3035SOL    HW220565   0.137   1.322   9.290 -1.3447 -0.1024  1.5635
 3036SOL     OW20566   3.054   1.234   1.623 -0.7731  0.5566  0.0590
 3036SOL    HW120567   2.990   1.244   1.693 -0.7151 -0.3202  0.2375
 3036SOL    HW220568   3.046   1.139   1.609 -0.6504  0.9418 -2.6009
 3037SOL     OW20569   1.694   3.909   8.039  0.0495 -0.3664 -0.8278
 3037SOL    HW120570   1.703   3.845   7.969  1.7996 -0.3601 -0.5935
 3037SOL    HW220571   1.767   3.879   8.092  0.4849 -0.1922 -1.3341
 3038SOL     OW20572   3.070   4.006   8.367  0.0647 -0.0383 -0.4346
 3038SOL    HW120573   3.105   4.072   8.308  1.1408  0.8692  1.2290
 3038SOL    HW220574   3.093   4.026   8.458  2.5993  0.3077 -1.1506
 3039SOL     OW20575   1.543   0.978  14.072 -0.2681  0.1097 -0.5948
 3039SOL    HW120576   1.467   1.028  14.043  0.9185  0.3195 -3.3902
 3039SOL    HW220577   1.612   1.042  14.053  0.8444 -1.1159 -0.6857
 3040SOL     OW20578   1.394   2.402   8.652  0.6736 -0.0545  0.5715
 3040SOL    HW120579   1.301   2.394   8.675  0.7019 -0.2853  0.6107
 3040SOL    HW220580   1.406   2.496   8.646  0.4020 -0.1866 -2.4361
 3041SOL     OW20581   0.505   1.580   3.110  0.0109  0.4215 -0.7320
 3041SOL    HW120582   0.414   1.552   3.117  0.0285  0.1815 -1.4847
 3041SOL    HW220583   0.489   1.673   3.128  0.4676  0.5439 -0.9674
 3042SOL     OW20584   0.528   2.633   7.077 -0.9115  0.1997 -0.6593
 3042SOL    HW120585   0.533   2.560   7.016 -0.1222  0.7354 -1.2295
 3042SOL    HW220586   0.467   2.693   7.035 -0.8430 -0.4860 -1.7274
 3043SOL     OW20587   1.228   1.623   8.220  0.1406  0.0767 -0.5153
 3043SOL    HW120588   1.167   1.641   8.148  0.3524  0.0116 -0.7119
 3043SOL    HW220589   1.172   1.561   8.267  0.2944  0.0531 -0.3636
 3044SOL     OW20590   4.098   1.713   7.519 -0.0201  0.0177  0.1145
 3044SOL    HW120591   4.137   1.691   7.435  0.6850  0.2774  0.3764
 3044SOL    HW220592   4.008   1.681   7.509  0.0877  0.0935 -1.0642
 3045SOL     OW20593   2.613   4.647   1.391  0.0263  0.0017  0.2403
 3045SOL    HW120594   2.630   4.609   1.305 -0.7420 -1.8121  0.8985
 3045SOL    HW220595   2.579   4.570   1.437  4.3289 -1.3850  1.0494
 3046SOL     OW20596   1.758   2.147   5.149 -0.4692 -0.3654  0.0316
 3046SOL    HW120597   1.752   2.242   5.153 -1.9433 -0.4649  0.1277
 3046SOL    HW220598   1.823   2.136   5.218  2.2774  1.0462 -2.3498
 3047SOL     OW20599   0.440   2.492  16.805 -0.2149  0.4260  0.1202
 3047SOL    HW120600   0.484   2.487  16.720 -0.2411  1.9479  0.0070
 3047SOL    HW220601   0.349   2.506  16.778 -0.7345 -1.2632  0.9926
 3048SOL     OW20602   1.741   3.305  14.586 -1.1731 -0.4608  0.1126
 3048SOL    HW120603   1.648   3.315  14.607 -1.1777  0.3220 -0.2802
 3048SOL    HW220604   1.771   3.267  14.669 -2.1247 -0.2599  0.5518
 3049SOL     OW20605   3.403   2.328  16.642  0.0171  0.0966 -0.3712
 3049SOL    HW120606   3.393   2.345  16.548  0.2434 -0.7712 -0.5544
 3049SOL    HW220607   3.488   2.371  16.656 -0.7702  1.8525 -1.0234
 3050SOL     OW20608   4.148   4.558   8.161  0.4365 -0.1420  0.9124
 3050SOL    HW120609   4.117   4.604   8.239  0.7986 -0.2360  1.1127
 3050SOL    HW220610   4.140   4.620   8.088  0.6109  0.0239  1.0359
 3051SOL     OW20611   3.016   0.641   3.821 -0.8784 -0.1745 -0.0328
 3051SOL    HW120612   2.937   0.694   3.810 -1.8761 -1.8493 -0.9928
 3051SOL    HW220613   2.971   0.558   3.837 -2.1201  0.5626  0.3349
 3052SOL     OW20614   0.506   2.811  16.954 -0.8367 -0.2258  0.1481
 3052SOL    HW120615   0.496   2.905  16.971 -0.1100 -0.2379  0.6539
 3052SOL    HW220616   0.501   2.810  16.859 -0.8669 -0.8340  0.1575
 3053SOL     OW20617   2.552   1.561   3.468 -0.7839 -0.2296 -0.1550
 3053SOL    HW120618   2.646   1.551   3.449 -0.8330 -0.9292 -0.0384
 3053SOL    HW220619   2.544   1.651   3.438 -2.4750 -0.7589 -1.2548
 3054SOL     OW20620   0.927   1.563   7.856  0.1767  0.4097  0.1855
 3054SOL    HW120621   0.914   1.641   7.802  1.0674 -1.8714 -3.3142
 3054SOL    HW220622   0.934   1.505   7.781 -0.0184  1.3222 -0.5472
 3055SOL     OW20623   0.816   4.487  17.310  0.1084 -0.1670 -0.0630
 3055SOL    HW120624   0.751   4.470  17.377  0.0668  1.6461  0.3640
 3055SOL    HW220625   0.767   4.451  17.236  0.4974  0.6387 -0.7121
 3056SOL     OW20626   4.498   0.241   3.226 -0.1823 -0.6475  0.1385
 3056SOL    HW120627   4.589   0.214   3.221  0.4689  1.4970  0.2911
 3056SOL    HW220628   4.500   0.310   3.159 -0.6737  0.8257  1.6186
 3057SOL     OW20629   0.243   3.692   2.252  0.2417 -0.0801  0.0817
 3057SOL    HW120630   0.239   3.749   2.329 -1.8871  1.5925 -1.2759
 3057SOL    HW220631   0.313   3.736   2.205  1.5699 -0.4547  1.6857
 3058SOL     OW20632   2.845   1.956   4.667 -0.4395  0.3717 -0.0843
 3058SOL    HW120633   2.817   1.897   4.737  0.7431 -1.9267 -1.5503
 3058SOL    HW220634   2.906   2.005   4.723  2.5029 -3.7493  0.3007
 3059SOL     OW20635   3.808   3.448   3.924  0.0628 -0.0285  0.5654
 3059SOL    HW120636   3.743   3.409   3.982 -0.6813 -2.3451 -1.8424
 3059SOL    HW220637   3.839   3.527   3.969  1.2196 -0.3869  0.3697
 3060SOL     OW20638   0.793   0.409   5.122  0.1898 -0.0888 -0.0735
 3060SOL    HW120639   0.825   0.440   5.206  1.3633  1.3499 -1.0480
 3060SOL    HW220640   0.708   0.452   5.115  0.0895  0.0472  1.9266
 3061SOL     OW20641   2.210   3.756  15.236  0.3977  0.1250  0.8484
 3061SOL    HW120642   2.240   3.730  15.149 -1.2064  0.6706  0.1408
 3061SOL    HW220643   2.195   3.669  15.273  1.6943 -0.3242  0.2826
 3062SOL     OW20644   2.030   1.918  14.787  0.2139  0.3510  0.2041
 3062SOL    HW120645   1.998   1.828  14.796 -0.6526  0.7669  1.2373
 3062SOL    HW220646   1.965   1.973  14.830  2.6801  1.5819  2.3549
 3063SOL     OW20647   4.187   4.680   9.318  0.6360 -0.1771  0.2893
 3063SOL    HW120648   4.233   4.699   9.399 -0.3654  1.4203  0.4772
 3063SOL    HW220649   4.140   4.600   9.342 -0.9215  0.5145 -0.4520
 3064SOL     OW20650   3.342   2.219   2.237 -0.5830  0.0657  0.3691
 3064SOL    HW120651   3.298   2.140   2.268 -0.7885  0.2683  0.5892
 3064SOL    HW220652   3.272   2.261   2.186 -0.7830 -0.1853  0.4397
 3065SOL     OW20653   0.097   0.189   9.165 -0.0688 -0.1165  0.6431
 3065SOL    HW120654   0.059   0.102   9.158  0.4465 -0.0794 -2.6483
 3065SOL    HW220655   0.097   0.203   9.260  1.5565 -1.0315  0.7883
 3066SOL     OW20656   4.391   2.945   7.862  0.3903  0.3126  0.2638
 3066SOL    HW120657   4.418   2.992   7.783 -0.9015 -0.3131 -0.5448
 3066SOL    HW220658   4.380   3.022   7.917 -0.1688  0.8224 -0.5684
 3067SOL     OW20659   1.070   3.134   8.377  0.2898 -0.3579  0.0295
 3067SOL    HW120660   1.146   3.099   8.330 -0.2498  1.2916 -2.1232
 3067SOL    HW220661   1.011   3.059   8.381 -0.0645 -0.1146 -0.5340
 3068SOL     OW20662   2.952   1.214   5.592  0.0170 -0.3035  0.0280
 3068SOL    HW120663   2.898   1.234   5.668 -1.0198  0.8585 -1.0211
 3068SOL    HW220664   3.037   1.202   5.635  0.4111 -2.2323 -1.2838
 3069SOL     OW20665   0.601   1.936   5.471  0.6421 -0.0626  0.1846
 3069SOL    HW120666   0.680   1.888   5.495  0.9646 -0.0540 -0.8866
 3069SOL    HW220667   0.545   1.860   5.456  0.1481  1.2230 -4.5234
 3070SOL     OW20668   1.260   2.634   9.420 -0.0244 -0.6039 -0.5134
 3070SOL    HW120669   1.308   2.639   9.503 -1.1319 -0.6830  0.1251
 3070SOL    HW220670   1.325   2.585   9.369  1.1673 -0.0600  0.4730
 3071SOL     OW20671   3.398   0.353   8.447 -0.3645  0.0628 -0.1336
 3071SOL    HW120672   3.483   0.311   8.440 -0.1593  0.5229 -0.4392
 3071SOL    HW220673   3.365   0.314   8.528 -0.4525  1.2641  0.4119
 3072SOL     OW20674   0.398   1.556   7.872  0.2688  0.1126  0.1925
 3072SOL    HW120675   0.407   1.641   7.916  1.3244  0.5201 -0.8040
 3072SOL    HW220676   0.481   1.515   7.896  0.6360  0.8947  0.2540
 3073SOL     OW20677   2.139   3.609  16.450 -0.0650 -0.7003 -0.6303
 3073SOL    HW120678   2.058   3.641  16.490  0.2439 -0.4765 -0.1847
 3073SOL    HW220679   2.116   3.521  16.423 -1.0392 -0.9162  0.9389
 3074SOL     OW20680   2.644   3.280   0.616 -0.0815 -0.3167  0.2182
 3074SOL    HW120681   2.683   3.284   0.528  0.6359 -1.0943  0.5058
 3074SOL    HW220682   2.569   3.338   0.600  0.9754  0.5599 -1.6217
 3075SOL     OW20683   1.985   1.919  11.491  0.1086 -0.1861 -0.3701
 3075SOL    HW120684   1.964   1.825  11.489  0.0145 -0.1915  1.0158
 3075SOL    HW220685   2.072   1.924  11.451 -0.1865  1.5592 -0.8013
 3076SOL     OW20686   0.052   4.405   7.923  0.4044 -0.0729  0.3695
 3076SOL    HW120687   0.107   4.332   7.953  2.5590  0.8959 -1.1958
 3076SOL    HW220688   0.010   4.432   8.005 -0.0586 -0.7020  0.3417
 3077SOL     OW20689   1.172   4.376   5.416  0.0551 -0.3738 -0.0034
 3077SOL    HW120690   1.174   4.413   5.504  1.0207 -1.8914  0.6124
 3077SOL    HW220691   1.210   4.289   5.426  0.6174  0.2178  3.1463
 3078SOL     OW20692   0.291   3.017   3.920  0.2660 -0.6197  0.1447
 3078SOL    HW120693   0.319   2.929   3.942  1.8215 -0.2936 -0.5149
 3078SOL    HW220694   0.342   3.035   3.842 -1.3040 -0.6908 -0.9017
 3079SOL     OW20695   0.072   1.100   1.018 -0.1005 -0.2666  0.3430
 3079SOL    HW120696   0.098   1.177   0.968  1.1673 -0.6440  0.4325
 3079SOL    HW220697   0.024   1.061   0.945 -0.7564 -1.1628  1.2512
 3080SOL     OW20698   0.957   1.409   3.940 -0.2396  0.1475  0.5805
 3080SOL    HW120699   0.909   1.407   3.857  1.0079 -0.1589 -0.1345
 3080SOL    HW220700   0.888   1.376   3.997  0.8637 -2.4662  0.3902
 3081SOL     OW20701   0.366   3.786  13.395 -0.6686  0.3234 -0.4202
 3081SOL    HW120702   0.369   3.840  13.473  0.7881 -2.0610  1.1878
 3081SOL    HW220703   0.411   3.705  13.422 -0.0716  0.5508 -0.7304
 3082SOL     OW20704   4.559   3.753   1.467 -0.2868  0.4961 -0.3366
 3082SOL    HW120705   4.616   3.687   1.506  0.3612 -0.0343 -2.1978
 3082SOL    HW220706   4.474   3.741   1.509  1.3100  1.3741  3.1818
 3083SOL     OW20707   0.917   3.766  11.500 -0.0444 -0.6812 -0.2893
 3083SOL    HW120708   0.825   3.742  11.492 -0.0679 -0.0826 -1.8643
 3083SOL    HW220709   0.919   3.794  11.592  0.9131 -0.8017 -0.2784
 3084SOL     OW20710   1.062   2.985   7.705  0.3515 -1.0705 -0.7271
 3084SOL    HW120711   1.138   2.930   7.725  1.3459  0.8601  0.8752
 3084SOL    HW220712   1.017   2.939   7.635 -1.3916 -0.8174  0.2134
 3085SOL     OW20713   3.867   1.367   7.835 -0.4460  0.5055 -0.8335
 3085SOL    HW120714   3.960   1.341   7.839 -0.2738  1.4026  0.7144
 3085SOL    HW220715   3.872   1.458   7.864 -1.0512  0.0138  0.8153
 3086SOL     OW20716   1.448   4.230   1.594  0.0914  0.3594  0.3082
 3086SOL    HW120717   1.516   4.172   1.561 -1.4119 -1.3424  0.2192
 3086SOL    HW220718   1.367   4.181   1.577  1.9374 -2.3189 -0.6975
 3087SOL     OW20719   3.176   3.271   3.468  0.2939 -0.0494 -0.2304
 3087SOL    HW120720   3.124   3.289   3.547  1.1919 -1.0145  0.5897
 3087SOL    HW220721   3.183   3.176   3.477  0.7037  0.0324  0.3694
 3088SOL     OW20722   4.091   2.586   3.645 -0.2884  0.1768  0.0976
 3088SOL    HW120723   4.178   2.577   3.605 -0.0879  0.0755  0.5538
 3088SOL    HW220724   4.121   2.617   3.730  1.8694  0.7584 -0.8422
 3089SOL     OW20725   0.112   0.732  11.244  0.1723  0.3798 -0.5638
 3089SOL    HW120726   0.162   0.658  11.279  0.6372  1.8642  1.9211
 3089SOL    HW220727   0.191   0.772  11.207  0.6704 -1.2729 -1.3002
 3090SOL     OW20728   3.626   0.984  13.546 -0.1856 -0.2229 -0.2207
 3090SOL    HW120729   3.619   1.040  13.468  2.5507 -0.8232 -0.9163
 3090SOL    HW220730   3.582   1.026  13.619 -0.7453 -0.6001 -0.3454
 3091SOL     OW20731   0.048   1.463  13.602  0.0190 -0.6319 -0.1777
 3091SOL    HW120732   0.131   1.484  13.646  0.3280 -2.2441  0.0472
 3091SOL    HW220733   0.069   1.377  13.564 -2.2948 -0.1521 -2.5446
 3092SOL     OW20734   2.214   0.560   8.600  0.6144 -0.2567  0.7148
 3092SOL    HW120735   2.308   0.569   8.589  0.5510 -0.4467  0.0361
 3092SOL    HW220736   2.187   0.537   8.511 -1.0792  0.4816  1.0432
 3093SOL     OW20737   1.926   2.836   9.651 -0.0852  0.7237  0.4142
 3093SOL    HW120738   1.941   2.912   9.593 -1.7367  1.2460  0.6719
 3093SOL    HW220739   1.881   2.781   9.588 -0.8240  2.1827 -0.3416
 3094SOL     OW20740   2.742   4.407   3.679 -0.0066  0.1588  0.0896
 3094SOL    HW120741   2.725   4.443   3.766  0.0590 -1.0385  0.6002
 3094SOL    HW220742   2.703   4.473   3.621 -1.0463 -0.1367  0.4611
 3095SOL     OW20743   2.637   0.769  10.146  0.1747  0.6578  0.0648
 3095SOL    HW120744   2.612   0.677  10.136  1.3860  0.2439  0.8558
 3095SOL    HW220745   2.621   0.790  10.237  0.3210  1.0383  0.0011
 3096SOL     OW20746   1.746   3.354  13.663 -0.0363  0.3570  0.7310
 3096SOL    HW120747   1.785   3.430  13.618  1.8927 -1.6691 -1.0126
 3096SOL    HW220748   1.674   3.335  13.604  1.2921  1.3160 -1.2226
 3097SOL     OW20749   2.068   2.884   1.505  0.4897  0.4163 -0.0230
 3097SOL    HW120750   2.001   2.906   1.569  0.9934 -1.9981  1.3332
 3097SOL    HW220751   2.048   2.796   1.473 -0.5686  0.7798 -0.3569
 3098SOL     OW20752   1.942   1.143   0.844  0.4053  0.2573  0.4885
 3098SOL    HW120753   1.850   1.118   0.844  0.8793 -1.5208 -0.1259
 3098SOL    HW220754   1.929   1.237   0.833 -0.5888 -0.0868 -1.1884
 3099SOL     OW20755   1.408   0.509   4.219  0.0299  0.0476  0.1316
 3099SOL    HW120756   1.476   0.548   4.273 -0.0181 -0.0577  0.2694
 3099SOL    HW220757   1.410   0.419   4.253  1.2040 -0.0586 -0.2251
 3100SOL     OW20758   1.084   0.331   1.011 -0.0893 -0.4803  0.6442
 3100SOL    HW120759   1.073   0.304   0.920  1.8806 -0.3411  0.3609
 3100SOL    HW220760   1.157   0.274   1.035  0.0506 -0.9153 -0.8452
 3101SOL     OW20761   3.401   0.454   2.875  0.1318 -0.0875  0.5217
 3101SOL    HW120762   3.411   0.538   2.921  1.3596  0.5397 -0.8860
 3101SOL    HW220763   3.308   0.437   2.890 -0.2339  2.0116  0.5990
 3102SOL     OW20764   3.076   3.309   5.515  0.0217 -0.6700  0.4295
 3102SOL    HW120765   3.136   3.236   5.506 -1.0208 -1.4362 -0.4071
 3102SOL    HW220766   3.012   3.292   5.445  1.5515  1.1187 -1.3993
 3103SOL     OW20767   0.966   2.779   6.757 -0.0412 -0.6992 -0.2265
 3103SOL    HW120768   0.940   2.801   6.847  0.1744  0.6153 -0.4793
 3103SOL    HW220769   1.059   2.804   6.755 -0.8909  2.3073 -1.7565
 3104SOL     OW20770   3.171   3.686   3.864  0.0616  0.4468  0.0144
 3104SOL    HW120771   3.258   3.653   3.886 -0.6725 -1.1715  0.4294
 3104SOL    HW220772   3.157   3.759   3.925  0.8139  1.6012 -1.1830
 3105SOL     OW20773   1.500   4.571   5.390  0.0810 -0.1539 -0.2717
 3105SOL    HW120774   1.483   4.479   5.409 -2.4126  0.1812 -0.9023
 3105SOL    HW220775   1.542   4.572   5.304  0.5366 -0.3148 -0.0567
 3106SOL     OW20776   0.445   1.962   6.304 -0.2835  0.2311 -0.3558
 3106SOL    HW120777   0.433   1.890   6.242 -0.4034 -0.5842  0.6190
 3106SOL    HW220778   0.484   2.027   6.246 -1.4522 -0.7571 -2.2662
 3107SOL     OW20779   4.635   1.445  10.071 -0.0963 -0.7464  0.0380
 3107SOL    HW120780   4.653   1.354  10.049  1.3663 -0.7191  1.1290
 3107SOL    HW220781   4.601   1.480   9.988 -0.0903  1.3448  0.9274
 3108SOL     OW20782   0.995   4.160  10.640 -0.2485  0.8403  1.1460
 3108SOL    HW120783   1.000   4.162  10.736  2.0815 -1.5822  1.0664
 3108SOL    HW220784   0.900   4.166  10.628 -0.1097  0.4202 -0.1875
 3109SOL     OW20785   0.559   0.104   2.474  0.2039  0.3049 -0.0223
 3109SOL    HW120786   0.513   0.036   2.425  0.5979  0.0944 -0.0940
 3109SOL    HW220787   0.650   0.100   2.446  0.2511  0.1749  0.1474
 3110SOL     OW20788   0.407   4.474   8.400  0.7857  0.2714 -0.0307
 3110SOL    HW120789   0.362   4.559   8.392  0.4577  0.1258  0.2230
 3110SOL    HW220790   0.448   4.480   8.486  0.5481  1.7058 -0.0124
 3111SOL     OW20791   1.829   2.153  17.050 -0.6439  0.7116 -0.3601
 3111SOL    HW120792   1.880   2.110  16.981 -4.0737 -3.4456 -0.2885
 3111SOL    HW220793   1.735   2.140  17.036 -0.8035  0.9340  0.4717
 3112SOL     OW20794   3.668   3.551   6.576  0.2629  0.4341 -0.4985
 3112SOL    HW120795   3.673   3.495   6.654  2.3024  2.8852  1.1242
 3112SOL    HW220796   3.588   3.599   6.598 -0.5666 -1.5153  0.8054
 3113SOL     OW20797   0.513   4.688   7.343 -0.1987  0.8331 -0.3683
 3113SOL    HW120798   0.568   0.031   7.380  1.7443 -1.4058  0.9828
 3113SOL    HW220799   0.447   0.020   7.307  1.1222  2.9516  0.6310
 3114SOL     OW20800   1.707   3.541   6.140  0.4187 -0.3387  0.6160
 3114SOL    HW120801   1.755   3.480   6.084 -1.8986 -1.8628  0.2971
 3114SOL    HW220802   1.705   3.487   6.219  2.4380  2.7242  2.7284
 3115SOL     OW20803   2.477   1.975   2.058  0.0212  0.2664  0.3277
 3115SOL    HW120804   2.447   1.891   2.091 -3.9991  1.2652 -0.7887
 3115SOL    HW220805   2.409   2.001   1.996 -2.1165  0.4085  2.7697
 3116SOL     OW20806   2.828   4.245   4.446  0.1852  0.0172  1.1123
 3116SOL    HW120807   2.899   4.209   4.394 -0.3983 -0.9548  0.9707
 3116SOL    HW220808   2.762   4.284   4.388  1.1689 -0.9736 -0.6506
 3117SOL     OW20809   1.235   2.263   2.200  0.1427 -0.2784 -0.1340
 3117SOL    HW120810   1.302   2.300   2.257 -2.0487 -0.2075  2.4054
 3117SOL    HW220811   1.174   2.334   2.218 -0.3573 -0.0270 -2.9000
 3118SOL     OW20812   0.230   0.468   5.638 -0.4326  0.2205 -0.1967
 3118SOL    HW120813   0.209   0.462   5.731 -0.9912  0.7332 -0.2905
 3118SOL    HW220814   0.270   0.382   5.631  0.3262  0.3944  2.1705
 3119SOL     OW20815   2.182   3.496  15.325 -0.1962  0.4666  0.0999
 3119SOL    HW120816   2.246   3.433  15.358 -0.1687 -0.3420 -1.4981
 3119SOL    HW220817   2.144   3.516  15.411  0.6881  1.2732  0.2907
 3120SOL     OW20818   4.109   1.527   0.335 -0.1181  0.0833 -0.1115
 3120SOL    HW120819   4.141   1.582   0.264 -0.8514 -0.5386 -0.9238
 3120SOL    HW220820   4.151   1.567   0.411 -1.8136  2.8905 -0.6718
 3121SOL     OW20821   3.505   3.581   6.092  0.2836 -0.3137  0.3158
 3121SOL    HW120822   3.585   3.557   6.045  1.1085 -0.1879  1.6579
 3121SOL    HW220823   3.472   3.646   6.030 -0.4242  1.5663  2.7173
 3122SOL     OW20824   4.152   3.409  16.835  0.5442  0.0469  0.2930
 3122SOL    HW120825   4.170   3.494  16.795 -2.4091  0.8770  0.6825
 3122SOL    HW220826   4.065   3.393  16.798  0.7501  1.0832 -0.6520
 3123SOL     OW20827   1.881   0.271   1.608  0.3496 -0.4814  0.1318
 3123SOL    HW120828   1.932   0.328   1.551  0.1085  0.0664  0.4622
 3123SOL    HW220829   1.951   0.207   1.622 -1.4261 -1.8116  2.9751
 3124SOL     OW20830   1.584   4.619   2.450  0.1192  0.1261  0.4893
 3124SOL    HW120831   1.509   4.626   2.509 -0.2353  0.7020 -0.0342
 3124SOL    HW220832   1.567   4.534   2.408 -0.5467  0.9004 -0.8186
 3125SOL     OW20833   4.640   1.135   2.917 -0.1473  0.9577 -0.6873
 3125SOL    HW120834   4.561   1.099   2.875  1.0524 -1.8542 -0.5331
 3125SOL    HW220835   4.624   1.229   2.914  0.8454  1.0931 -1.4756
 3126SOL     OW20836   3.379   1.923   2.564 -0.5357 -0.4804 -0.4509
 3126SOL    HW120837   3.299   1.885   2.529 -0.7115 -0.6753  0.1550
 3126SOL    HW220838   3.438   1.928   2.489 -0.0795 -1.7039 -0.1674
 3127SOL     OW20839   4.062   0.974  14.341  0.3679 -0.5617  0.1619
 3127SOL    HW120840   4.053   1.069  14.337 -2.1560 -0.9962 -5.3439
 3127SOL    HW220841   4.130   0.961  14.407  0.9909  0.0275 -0.3570
 3128SOL     OW20842   4.715   0.168   5.662 -0.6015 -0.1732  0.0632
 3128SOL    HW120843   0.034   0.148   5.581  1.0156 -3.2177  1.7100
 3128SOL    HW220844   4.683   0.080   5.680  0.6285 -0.9309 -1.5325
 3129SOL     OW20845   3.304   0.308   8.699 -0.3767 -0.0209 -0.0720
 3129SOL    HW120846   3.238   0.243   8.722 -0.8120  1.1468  1.9093
 3129SOL    HW220847   3.359   0.286   8.774 -0.8171  1.8139  0.7675
 3130SOL     OW20848   0.592   3.197   6.531 -0.1648  0.6756 -0.1205
 3130SOL    HW120849   0.651   3.227   6.600  0.5843 -1.5199  0.1864
 3130SOL    HW220850   0.656   3.140   6.489 -0.4033 -0.7291  1.4123
 3131SOL     OW20851   4.525   1.614   6.018  0.1642 -0.1079  0.8087
 3131SOL    HW120852   4.506   1.520   6.015  1.5416 -0.2998 -1.8487
 3131SOL    HW220853   4.526   1.620   6.114  1.2514  1.1286  0.7149
 3132SOL     OW20854   2.654   3.302   3.529  0.3225  0.4111 -0.3508
 3132SOL    HW120855   2.585   3.355   3.568 -1.3875 -2.4113  0.4816
 3132SOL    HW220856   2.715   3.374   3.514  0.9191  0.0860  0.4722
 3133SOL     OW20857   0.105   2.266   5.274  0.3500 -0.1477  0.2979
 3133SOL    HW120858   0.017   2.284   5.306  1.9033  0.6241  4.1725
 3133SOL    HW220859   0.111   2.171   5.280 -0.8922 -0.3409 -1.5665
 3134SOL     OW20860   3.520   0.729  11.362 -0.3559 -0.0709  0.0353
 3134SOL    HW120861   3.536   0.661  11.297  1.5246  0.1247  0.3000
 3134SOL    HW220862   3.490   0.796  11.300 -1.3291  0.7324  1.3725
 3135SOL     OW20863   0.078   0.679   2.304  0.0648 -0.0422  0.0819
 3135SOL    HW120864   0.166   0.703   2.275  0.3585 -2.3358 -0.8674
 3135SOL    HW220865   0.101   0.650   2.393 -1.3535  0.1496  0.5068
 3136SOL     OW20866   0.479   2.254   2.982  0.1922 -0.2592 -0.1922
 3136SOL    HW120867   0.406   2.307   2.948  0.0536  0.4406  1.2000
 3136SOL    HW220868   0.443   2.165   2.982  1.1248 -0.6321  0.7046
 3137SOL     OW20869   1.972   2.881  17.321  0.3015  0.0801  0.0039
 3137SOL    HW120870   1.960   2.826  17.244  1.3878 -0.5995  0.3194
 3137SOL    HW220871   2.064   2.875  17.346  0.3937 -1.0807 -0.6327
 3138SOL     OW20872   2.502   0.414   3.766  0.0279 -0.3831  0.3691
 3138SOL    HW120873   2.449   0.409   3.687  3.4368 -3.8179 -1.7027
 3138SOL    HW220874   2.440   0.394   3.836 -1.8708 -0.6165 -1.3825
 3139SOL     OW20875   4.431   3.631   5.192  0.0576  0.5636  0.7450
 3139SOL    HW120876   4.459   3.722   5.180 -2.7388  1.1909 -0.9362
 3139SOL    HW220877   4.511   3.584   5.215  0.1100  0.1311 -0.3469
 3140SOL     OW20878   3.977   2.775   8.493 -0.0220 -0.5537  0.1019
 3140SOL    HW120879   4.008   2.762   8.404 -1.7815  0.7991 -0.7079
 3140SOL    HW220880   4.057   2.765   8.545 -0.4606 -1.7375  0.5586
 3141SOL     OW20881   4.047   2.156  17.648 -0.1735  0.9720  0.1108
 3141SOL    HW120882   4.092   2.072  17.654 -1.0317  0.4862 -0.2691
 3141SOL    HW220883   4.124   2.213  17.659 -0.2748  0.8657  1.3542
 3142SOL     OW20884   4.304   4.428  16.127  0.0654 -0.1751 -0.4116
 3142SOL    HW120885   4.333   4.411  16.037  1.3641 -1.4005  0.2419
 3142SOL    HW220886   4.336   4.515  16.149  0.7868 -0.7404  0.8045
 3143SOL     OW20887   0.199   0.344   0.525  0.5486 -0.4401 -0.2330
 3143SOL    HW120888   0.193   0.419   0.584 -0.2285 -1.1081  0.5367
 3143SOL    HW220889   0.109   0.327   0.497  0.8549 -1.1533 -0.7981
 3144SOL     OW20890   1.049   1.458   5.149 -0.1766 -0.3381  0.6121
 3144SOL    HW120891   1.079   1.478   5.060 -3.3074  2.9393  0.3093
 3144SOL    HW220892   1.105   1.382   5.167  0.0036 -1.1793 -3.4645
 3145SOL     OW20893   3.302   2.628  12.535  0.1400  0.3022 -0.1345
 3145SOL    HW120894   3.291   2.723  12.527  1.3464  0.5139  0.6985
 3145SOL    HW220895   3.262   2.604  12.452 -0.7290 -0.6498  0.5586
 3146SOL     OW20896   2.715   1.698  17.272 -0.7249 -0.6201  0.9995
 3146SOL    HW120897   2.637   1.752  17.281 -0.0083  0.9489 -2.3976
 3146SOL    HW220898   2.787   1.753  17.240 -1.6954 -0.3445 -0.6860
 3147SOL     OW20899   0.769   1.857   6.598  0.0870  0.3895 -0.6782
 3147SOL    HW120900   0.857   1.850   6.634 -0.5984 -0.8468  0.7573
 3147SOL    HW220901   0.731   1.917   6.663  1.2632  1.1991 -0.7420
 3148SOL     OW20902   3.023   2.986  14.513  0.1909  0.4662  0.3640
 3148SOL    HW120903   3.004   2.893  14.523 -0.4025  0.6173  0.6308
 3148SOL    HW220904   3.004   3.021  14.600 -0.9226 -1.3321  0.8544
 3149SOL     OW20905   2.575   1.462   6.071 -0.6947 -0.0846 -0.1087
 3149SOL    HW120906   2.586   1.535   6.011 -1.6112 -1.7751 -2.3179
 3149SOL    HW220907   2.661   1.423   6.061  0.1925  1.1137  2.5673
 3150SOL     OW20908   0.788   1.473   5.416 -0.0141  0.1485  0.1942
 3150SOL    HW120909   0.850   1.493   5.346  0.9664  1.6858  1.5102
 3150SOL    HW220910   0.727   1.544   5.395 -1.0333 -1.0609 -1.0026
 3151SOL     OW20911   4.665   2.141   5.711 -0.5549 -0.8830 -0.2518
 3151SOL    HW120912   0.016   2.173   5.757 -0.3350 -0.0814 -1.1906
 3151SOL    HW220913   4.594   2.198   5.742 -1.1328 -0.7448 -1.8653
 3152SOL     OW20914   2.921   3.208   2.459  0.0245 -0.3270 -0.0965
 3152SOL    HW120915   2.914   3.117   2.430  3.4735 -0.1525 -1.4778
 3152SOL    HW220916   2.997   3.203   2.518 -0.4138 -1.2606  0.3842
 3153SOL     OW20917   3.423   1.633   7.858  0.0906 -0.2068  0.5927
 3153SOL    HW120918   3.346   1.576   7.862 -2.3931  3.0439 -0.1180
 3153SOL    HW220919   3.440   1.644   7.951  1.4560 -3.5320  0.7100
 3154SOL     OW20920   0.411   4.305  10.386  0.0138  0.1566 -0.2140
 3154SOL    HW120921   0.438   4.239  10.449  1.7002  0.6567 -0.4194
 3154SOL    HW220922   0.329   4.334  10.426  0.2207 -0.6169  0.7524
 3155SOL     OW20923   1.892   0.251   3.648  0.3711  0.0675 -0.3089
 3155SOL    HW120924   1.800   0.256   3.673  0.2950  2.8963 -1.1199
 3155SOL    HW220925   1.928   0.179   3.699 -0.2219  1.9533  2.8353
 3156SOL     OW20926   3.010   1.536  17.008  0.0766 -0.6178  0.5404
 3156SOL    HW120927   3.047   1.452  17.035  1.9838  0.4260  1.1826
 3156SOL    HW220928   3.085   1.594  17.023 -0.3242  0.1493 -0.3788
 3157SOL     OW20929   0.456   0.362   6.356  0.1370  0.0574  0.0809
 3157SOL    HW120930   0.401   0.353   6.279  0.2171 -1.2329  0.1645
 3157SOL    HW220931   0.520   0.427   6.326  1.2557 -1.6941 -1.3128
 3158SOL     OW20932   1.333   2.039   2.873  0.0308 -0.9928 -0.3405
 3158SOL    HW120933   1.311   2.019   2.782  0.3444  1.0796 -0.8800
 3158SOL    HW220934   1.303   2.130   2.881  0.6374 -0.9849  2.0381
 3159SOL     OW20935   2.137   3.481   5.395 -0.2096  0.1388  0.6157
 3159SOL    HW120936   2.080   3.420   5.442 -1.0405  1.6389  1.5844
 3159SOL    HW220937   2.191   3.519   5.465  3.1586 -1.3411 -1.2202
 3160SOL     OW20938   1.616   3.812   2.649  0.0178 -0.5349  0.2364
 3160SOL    HW120939   1.591   3.782   2.561 -1.7734  0.7499  0.3073
 3160SOL    HW220940   1.533   3.827   2.694  0.0879 -0.6250  0.3938
 3161SOL     OW20941   2.589   4.089   5.621 -0.2537  0.0099  0.3777
 3161SOL    HW120942   2.554   4.065   5.535  2.2206 -0.9798 -0.3364
 3161SOL    HW220943   2.570   4.183   5.625  1.1364  0.2826  0.6742
 3162SOL     OW20944   4.455   2.424   8.379 -0.0180  0.6479  0.1077
 3162SOL    HW120945   4.465   2.385   8.293 -0.7606  1.1538 -0.2131
 3162SOL    HW220946   4.390   2.361   8.411 -1.2278  0.7383 -2.1857
 3163SOL     OW20947   2.291   1.015   7.077  0.3433 -0.2946  0.4700
 3163SOL    HW120948   2.350   1.088   7.091  0.7258 -0.2657 -1.2509
 3163SOL    HW220949   2.255   1.043   6.992  0.2491 -0.8617  0.3157
 3164SOL     OW20950   3.429   3.611  15.001  0.5257 -0.6215 -0.3011
 3164SOL    HW120951   3.412   3.687  14.945  0.1565 -0.0801  0.5385
 3164SOL    HW220952   3.511   3.632  15.046 -1.3467  1.4113  2.1685
 3165SOL     OW20953   2.762   3.319   0.379 -0.0989  0.5596  0.2112
 3165SOL    HW120954   2.840   3.358   0.338  0.9438 -0.8489  0.8515
 3165SOL    HW220955   2.702   3.391   0.362  0.0038  0.7952  0.8697
 3166SOL     OW20956   2.474   4.197   2.229 -0.4460  0.0153  0.3422
 3166SOL    HW120957   2.483   4.105   2.257 -0.6206 -0.2251 -0.4020
 3166SOL    HW220958   2.442   4.236   2.311  0.5084  1.4224  0.0272
 3167SOL     OW20959   1.885   0.585   7.534 -0.3543  0.1902  1.0027
 3167SOL    HW120960   1.901   0.629   7.617  0.2675  0.9041  0.4989
 3167SOL    HW220961   1.810   0.636   7.501 -1.4047 -1.2391  1.1582
 3168SOL     OW20962   3.424   4.669  11.655  0.0642  0.1459  0.4322
 3168SOL    HW120963   3.379   4.674  11.570 -1.2061 -1.1855  1.0174
 3168SOL    HW220964   3.428   0.038  11.664 -0.7357  0.2335 -0.1673
 3169SOL     OW20965   2.401   1.283   2.869 -0.1943  0.8259 -0.1588
 3169SOL    HW120966   2.490   1.247   2.874  0.5057  2.3571 -1.8473
 3169SOL    HW220967   2.366   1.194   2.876  0.7563  0.3248 -1.8303
 3170SOL     OW20968   1.817   2.685   9.455  0.0890 -0.3377 -0.0546
 3170SOL    HW120969   1.725   2.711   9.444  0.3057  0.3320 -0.3303
 3170SOL    HW220970   1.856   2.747   9.393 -1.1832  0.9486  0.4070
 3171SOL     OW20971   0.236   0.454   5.904 -0.5965  0.7127  0.0237
 3171SOL    HW120972   0.235   0.474   5.997 -1.8244 -1.7362  0.5295
 3171SOL    HW220973   0.165   0.391   5.903 -0.4547  0.5450  0.8120
 3172SOL     OW20974   3.653   2.373   5.868 -0.2490 -0.6703  0.3488
 3172SOL    HW120975   3.665   2.342   5.958 -1.5962  1.1290  1.1511
 3172SOL    HW220976   3.740   2.386   5.830 -1.9302  1.3515 -2.7981
 3173SOL     OW20977   0.987   3.762   0.054  0.3799 -0.2060  0.0347
 3173SOL    HW120978   0.935   3.705  17.705  0.8717 -1.7522  1.1491
 3173SOL    HW220979   0.992   3.700   0.127  1.3998 -0.0170  0.1234
 3174SOL     OW20980   2.677   3.517   7.093 -0.3417 -0.4273 -0.0628
 3174SOL    HW120981   2.592   3.513   7.135 -0.8455 -1.8487 -1.2214
 3174SOL    HW220982   2.715   3.434   7.119  0.8246  0.9796  2.6650
 3175SOL     OW20983   0.538   0.772   9.238  0.2254  0.4391 -0.3648
 3175SOL    HW120984   0.460   0.773   9.294  0.8199 -2.9127  0.5560
 3175SOL    HW220985   0.598   0.809   9.302 -0.5658  0.4584  0.3765
 3176SOL     OW20986   1.741   2.371   2.524  0.0949 -0.2573 -0.1268
 3176SOL    HW120987   1.741   2.447   2.466 -1.2780  1.3822  2.0755
 3176SOL    HW220988   1.650   2.364   2.551  0.4791 -1.1874  0.9438
 3177SOL     OW20989   4.249   4.276  13.478 -0.3269 -0.5062  0.0498
 3177SOL    HW120990   4.280   4.302  13.565 -1.1794 -1.3316  0.6016
 3177SOL    HW220991   4.155   4.265  13.489 -0.1711  0.0660  1.8539
 3178SOL     OW20992   2.255   3.789   1.443 -0.4940 -0.3007  0.0405
 3178SOL    HW120993   2.242   3.729   1.516 -0.6968 -0.2607  0.0365
 3178SOL    HW220994   2.336   3.832   1.470 -0.9771 -0.3900  1.6101
 3179SOL     OW20995   0.747   0.618   2.917  0.1873  0.4321 -0.2616
 3179SOL    HW120996   0.670   0.672   2.900  1.1059  1.4971 -1.0701
 3179SOL    HW220997   0.811   0.683   2.886 -1.7318  2.5353  0.2126
 3180SOL     OW20998   3.702   0.623   4.510  0.6277  0.4863  0.6748
 3180SOL    HW120999   3.703   0.635   4.605  0.4870 -1.3214  0.8954
 3180SOL    HW221000   3.642   0.694   4.487  0.8688  0.5571  0.2731
 3181SOL     OW21001   0.596   0.884   3.720  0.3414 -0.2049 -0.2982
 3181SOL    HW121002   0.512   0.897   3.677  0.2812 -0.7053 -0.3274
 3181SOL    HW221003   0.654   0.871   3.645 -1.9206 -1.7923 -1.7779
 3182SOL     OW21004   0.461   0.172  14.547  0.1664  0.0085  0.3748
 3182SOL    HW121005   0.411   0.241  14.503  2.7320  0.2412 -2.2059
 3182SOL    HW221006   0.497   0.117  14.477  0.3288 -0.3930  0.7737
 3183SOL     OW21007   1.052   0.686   0.577 -0.0380 -0.2495 -0.1390
 3183SOL    HW121008   1.132   0.736   0.593  0.6874 -1.9379  1.5038
 3183SOL    HW221009   1.030   0.699   0.485  0.5126  0.8925 -0.1090
 3184SOL     OW21010   4.621   1.291  16.617 -0.1041 -0.4071  0.2398
 3184SOL    HW121011   4.634   1.277  16.523  0.4468 -0.0754  0.2671
 3184SOL    HW221012   4.525   1.295  16.625 -0.4279 -1.1563 -3.2358
 3185SOL     OW21013   4.067   0.049   6.070  0.3634  0.5589 -0.2442
 3185SOL    HW121014   4.078   4.700   6.012  0.6664  0.5632 -0.1881
 3185SOL    HW221015   4.149   0.041   6.117 -0.7821  2.0053  1.9851
 3186SOL     OW21016   2.856   2.527   0.485  0.5807  0.0282  0.4623
 3186SOL    HW121017   2.761   2.517   0.484  0.5126  0.6645  0.3817
 3186SOL    HW221018   2.884   2.438   0.466 -0.2394 -0.2135  0.3881
 3187SOL     OW21019   4.419   0.920  10.562  0.1984 -0.3620  0.3621
 3187SOL    HW121020   4.409   0.916  10.657 -0.2129 -0.8395  0.2967
 3187SOL    HW221021   4.494   0.979  10.552 -0.5702  0.6378  0.5346
 3188SOL     OW21022   2.237   3.340   1.008 -0.2998 -0.1311  0.2963
 3188SOL    HW121023   2.297   3.379   1.072  0.8719  1.3783 -1.7329
 3188SOL    HW221024   2.199   3.265   1.054 -0.5303 -1.1873 -1.6226
 3189SOL     OW21025   1.667   2.968   5.517  0.5724  0.0740 -0.0361
 3189SOL    HW121026   1.572   2.959   5.511  0.6622  0.1844 -1.4508
 3189SOL    HW221027   1.694   2.877   5.520  0.0495 -0.0337  1.6644
 3190SOL     OW21028   1.734   3.162   9.678 -0.1235  0.2219  0.7478
 3190SOL    HW121029   1.741   3.208   9.761  0.7624 -0.2716  0.9526
 3190SOL    HW221030   1.686   3.082   9.701 -1.8270  0.7934 -0.8112
 3191SOL     OW21031   0.363   4.250   5.150  0.7620 -0.5347  0.8376
 3191SOL    HW121032   0.432   4.191   5.122  0.3526 -0.7900  0.3597
 3191SOL    HW221033   0.418   4.279   5.223  1.2279 -0.0571  0.2897
 3192SOL     OW21034   4.294   1.088   2.297  0.2482  0.1163  0.0476
 3192SOL    HW121035   4.242   1.166   2.277  2.6271  1.5652 -0.5249
 3192SOL    HW221036   4.237   1.039   2.357 -1.4061  0.1612 -1.4958
 3193SOL     OW21037   4.098   0.648   3.502 -0.3535 -0.3358 -0.3493
 3193SOL    HW121038   4.135   0.654   3.590 -1.1448 -0.9972  0.0350
 3193SOL    HW221039   4.009   0.684   3.511 -0.1808  0.7882 -3.2679
 3194SOL     OW21040   3.455   1.775   6.903  0.5870 -0.4823  0.0009
 3194SOL    HW121041   3.531   1.794   6.849  0.9665  1.3291  1.1772
 3194SOL    HW221042   3.388   1.827   6.858  1.2500  0.1232 -0.2877
 3195SOL     OW21043   1.847   1.953   7.768 -0.0218  0.0907 -1.0202
 3195SOL    HW121044   1.853   1.903   7.849 -1.6246  1.5816 -0.0009
 3195SOL    HW221045   1.870   2.039   7.802 -2.8135  0.6626 -0.5373
 3196SOL     OW21046   0.214   0.665   9.857 -0.8322  0.4117  0.4677
 3196SOL    HW121047   0.289   0.618   9.893  0.0087  0.9503 -0.5919
 3196SOL    HW221048   0.245   0.756   9.859  1.0294 -0.2083 -0.7804
 3197SOL     OW21049   4.297   2.556   6.918 -0.6455  0.6727  0.5343
 3197SOL    HW121050   4.265   2.581   7.004  0.0725  1.4636  0.5829
 3197SOL    HW221051   4.222   2.566   6.859 -0.7593 -0.1130  0.5582
 3198SOL     OW21052   0.573   4.600  13.190  0.0370 -0.0245 -0.0662
 3198SOL    HW121053   0.590   4.671  13.252  3.4033 -1.2980  0.4471
 3198SOL    HW221054   0.626   4.539  13.241 -0.3637  0.5167  0.9895
 3199SOL     OW21055   0.482   2.956   6.237  0.4403 -0.6449 -0.3225
 3199SOL    HW121056   0.574   2.944   6.258  0.3535 -0.1329  0.3274
 3199SOL    HW221057   0.477   2.934   6.143  0.9560 -1.0579 -0.2548
 3200SOL     OW21058   4.368   1.842   6.796  0.2651  0.1894 -0.0594
 3200SOL    HW121059   4.439   1.788   6.762  1.1710  1.1165  0.3870
 3200SOL    HW221060   4.399   1.917   6.745 -1.3814  0.0629 -1.2703
 3201SOL     OW21061   0.154   2.161  14.763  0.8903 -0.1573 -0.1442
 3201SOL    HW121062   0.229   2.207  14.799  0.3661  0.5016  0.1078
 3201SOL    HW221063   0.205   2.113  14.697 -1.1406  0.4391 -2.1782
 3202SOL     OW21064   0.826   1.692   3.796 -0.3918 -0.4600  0.0281
 3202SOL    HW121065   0.889   1.631   3.835 -2.4857 -0.4338  3.4815
 3202SOL    HW221066   0.763   1.697   3.869 -1.0764  1.0744 -0.6667
 3203SOL     OW21067   0.112   3.944   3.405  0.7231  0.2112 -0.1129
 3203SOL    HW121068   0.199   3.982   3.411  0.0945  1.4770  1.0685
 3203SOL    HW221069   0.122   3.850   3.415  0.1967 -0.0282 -1.7522
 3204SOL     OW21070   4.265   2.142   6.786  0.2403  0.1076  0.0912
 3204SOL    HW121071   4.181   2.098   6.796  0.9227 -0.9772  1.1676
 3204SOL    HW221072   4.299   2.155   6.875 -1.8687  1.0866  0.7514
 3205SOL     OW21073   0.122   1.424  16.429 -0.0615  0.1475  0.2239
 3205SOL    HW121074   0.182   1.476  16.482 -0.5919 -0.4025  1.3659
 3205SOL    HW221075   0.044   1.473  16.453 -0.0040  0.3783 -0.0650
 3206SOL     OW21076   2.353   1.377   7.193 -0.2416 -0.5290  0.0993
 3206SOL    HW121077   2.408   1.452   7.215  0.9088 -1.2040 -0.5237
 3206SOL    HW221078   2.326   1.403   7.105 -1.3735 -3.0676 -0.2998
 3207SOL     OW21079   3.242   0.834   2.587  0.1844  0.3747 -0.1097
 3207SOL    HW121080   3.222   0.860   2.677  0.7053 -0.5139  0.2599
 3207SOL    HW221081   3.328   0.794   2.600 -0.2121 -0.4733 -0.0982
 3208SOL     OW21082   2.436   2.494   5.136 -0.6173 -0.2281 -0.2674
 3208SOL    HW121083   2.482   2.532   5.211  0.4744  0.4892 -1.2988
 3208SOL    HW221084   2.510   2.443   5.102  2.1590  2.6045  1.5214
 3209SOL     OW21085   3.018   2.139  17.563  0.5006 -0.2444  0.3388
 3209SOL    HW121086   2.986   2.049  17.558  0.0555 -0.1620  1.7211
 3209SOL    HW221087   2.943   2.175  17.611  0.1320 -0.2653 -0.2125
 3210SOL     OW21088   2.703   4.580  10.847 -0.5779  0.3461  0.3165
 3210SOL    HW121089   2.654   4.648  10.893  0.3495  0.0952  1.6803
 3210SOL    HW221090   2.647   4.504  10.862 -1.7955  0.9908 -1.0040
 3211SOL     OW21091   0.460   3.807   7.382 -0.6926 -0.0139 -0.2932
 3211SOL    HW121092   0.460   3.871   7.454 -0.5434 -0.9036  0.5010
 3211SOL    HW221093   0.403   3.741   7.421  0.0692 -0.6449 -0.2430
 3212SOL     OW21094   1.552   4.710  12.708  0.4793  1.1240  0.1237
 3212SOL    HW121095   1.620   4.644  12.696 -0.7350  0.0762 -1.1136
 3212SOL    HW221096   1.583   0.039  12.778  1.4523  0.2545  0.3813
 3213SOL     OW21097   4.233   3.238   1.936  0.0606  0.4637  0.2905
 3213SOL    HW121098   4.165   3.240   1.869  0.7859  3.2257 -0.3626
 3213SOL    HW221099   4.285   3.310   1.900 -1.9979  1.7404 -0.1326
 3214SOL     OW21100   3.340   4.047   5.399 -0.4937 -0.5468  0.0621
 3214SOL    HW121101   3.407   3.991   5.361  0.9642  0.3243  1.3650
 3214SOL    HW221102   3.261   4.028   5.349 -0.8268 -2.8996  1.5167
 3215SOL     OW21103   4.209   0.229  10.798  0.0781 -0.3819 -0.1894
 3215SOL    HW121104   4.244   0.307  10.841 -1.4463  0.4190 -0.4133
 3215SOL    HW221105   4.147   0.267  10.736 -0.8489 -0.2385  0.8298
 3216SOL     OW21106   2.935   0.527  11.945  0.0309  0.4628  0.1339
 3216SOL    HW121107   3.012   0.473  11.927 -0.3834  0.4364 -1.5675
 3216SOL    HW221108   2.931   0.535  12.040 -1.2600  1.8477 -0.0451
 3217SOL     OW21109   3.465   4.674  16.287  0.0249  0.1700 -0.0826
 3217SOL    HW121110   3.393   4.719  16.244 -1.5746  0.2990  2.7070
 3217SOL    HW221111   3.513   0.029  16.304 -0.0260  0.6357 -2.2693
 3218SOL     OW21112   0.231   1.694   2.956  0.1518  0.0010  0.5778
 3218SOL    HW121113   0.172   1.766   2.975 -0.1417  0.5386 -2.4344
 3218SOL    HW221114   0.223   1.647   3.039  1.7882  0.8789  1.2359
 3219SOL     OW21115   0.206   0.036   2.489 -0.3871 -0.1998 -0.1168
 3219SOL    HW121116   0.235   4.672   2.493  0.4101  0.0445 -0.4944
 3219SOL    HW221117   0.112   0.029   2.471 -0.3219 -1.6762  0.1259
 3220SOL     OW21118   1.870   2.189   2.386  0.0297  0.0344  0.1436
 3220SOL    HW121119   1.804   2.127   2.356 -0.7061  0.9282 -0.0780
 3220SOL    HW221120   1.814   2.256   2.426  0.5735 -0.4123  1.6518
 3221SOL     OW21121   3.278   0.190  10.605 -0.2281  0.1369 -0.7593
 3221SOL    HW121122   3.241   0.270  10.568 -0.5752  0.8337  1.0698
 3221SOL    HW221123   3.249   0.123  10.544  1.9266 -0.4346 -1.1424
 3222SOL     OW21124   2.495   2.677   8.100  0.1545 -0.3950 -0.5237
 3222SOL    HW121125   2.441   2.634   8.034  0.3473 -1.1130 -0.2093
 3222SOL    HW221126   2.431   2.705   8.165 -0.7027 -1.7249 -0.8178
 3223SOL     OW21127   1.393   0.941   5.137  0.0874 -0.0605 -0.6542
 3223SOL    HW121128   1.380   0.856   5.178  2.2331  0.8979  1.9726
 3223SOL    HW221129   1.407   1.000   5.212  0.0583 -2.5484  1.2975
 3224SOL     OW21130   2.404   1.653  12.519  0.0119  0.3129 -0.1190
 3224SOL    HW121131   2.442   1.571  12.551  1.5860  0.0010 -2.8245
 3224SOL    HW221132   2.324   1.627  12.475 -0.6610  1.2291  0.5637
 3225SOL     OW21133   0.619   2.182   0.573 -0.1830  0.1506 -0.0231
 3225SOL    HW121134   0.630   2.274   0.598  0.1586 -0.0313  0.4914
 3225SOL    HW221135   0.653   2.182   0.484  0.2287  2.8159  0.1067
 3226SOL     OW21136   3.694   2.078   7.641  0.1561  0.5145 -0.7849
 3226SOL    HW121137   3.680   2.004   7.700  0.8560  0.1919 -1.0320
 3226SOL    HW221138   3.786   2.091   7.660 -0.0046 -1.3870  1.2954
 3227SOL     OW21139   2.229   1.332  11.932 -0.0252 -0.0493  0.0402
 3227SOL    HW121140   2.282   1.353  12.009  1.7199  1.2128 -1.5232
 3227SOL    HW221141   2.183   1.255  11.967  1.6549 -1.0257  0.0975
 3228SOL     OW21142   4.016   1.592   4.018  0.0506 -0.2694 -0.0342
 3228SOL    HW121143   4.047   1.502   4.030 -0.3716 -0.5448 -1.0231
 3228SOL    HW221144   3.922   1.577   4.018  0.2882 -1.7440  2.1969
 3229SOL     OW21145   1.863   2.378   4.892 -0.2356  0.5215 -0.0151
 3229SOL    HW121146   1.945   2.347   4.932 -0.8038  0.2259  0.9128
 3229SOL    HW221147   1.857   2.329   4.811 -1.3644 -1.5691  1.3430
 3230SOL     OW21148   3.154   3.785  13.189  0.1452  0.0546  0.1113
 3230SOL    HW121149   3.065   3.811  13.215  0.3587  1.4987 -0.6137
 3230SOL    HW221150   3.208   3.779  13.268 -0.7951  0.4148  0.7802
 3231SOL     OW21151   0.256   1.331   8.000  0.2370  0.0168 -0.7530
 3231SOL    HW121152   0.315   1.265   7.965 -1.0191 -1.3549 -0.2817
 3231SOL    HW221153   0.295   1.415   7.977 -0.2071  0.4645  0.1221
 3232SOL     OW21154   3.217   1.174   4.758  0.2106 -0.1748 -0.4940
 3232SOL    HW121155   3.141   1.233   4.758 -1.0089 -1.7540 -0.2575
 3232SOL    HW221156   3.173   1.089   4.764 -0.9273  0.2808 -2.5391
 3233SOL     OW21157   2.722   2.993   8.479 -0.1722 -0.6965 -0.1038
 3233SOL    HW121158   2.800   2.938   8.485  0.4677  0.4460  1.9741
 3233SOL    HW221159   2.746   3.085   8.484  1.8049 -1.1998 -0.4603
 3234SOL     OW21160   1.881   1.533   6.733  0.8008 -0.6842  0.0073
 3234SOL    HW121161   1.869   1.590   6.657  2.7124 -1.9706 -1.2878
 3234SOL    HW221162   1.900   1.454   6.683  0.8040 -1.3211  1.0275
 3235SOL     OW21163   1.171   1.914   5.637  0.1300 -0.0852  0.1315
 3235SOL    HW121164   1.107   1.865   5.689  1.2289  0.1677  1.7223
 3235SOL    HW221165   1.113   1.972   5.588  0.2928 -0.2528 -0.2617
 3236SOL     OW21166   2.253   3.611   2.864  0.2550  0.2853  0.3063
 3236SOL    HW121167   2.316   3.653   2.923  0.2914  4.5018 -2.8021
 3236SOL    HW221168   2.252   3.670   2.789 -0.9557  0.0700  0.1610
 3237SOL     OW21169   2.465   1.986  15.408 -0.3755 -0.0643  0.5344
 3237SOL    HW121170   2.514   1.917  15.363  0.8087 -0.3167  2.2333
 3237SOL    HW221171   2.451   1.955  15.497 -0.1770  2.0169  1.2887
 3238SOL     OW21172   1.997   4.322   3.138 -0.0344 -0.5528 -0.5779
 3238SOL    HW121173   2.087   4.290   3.143  0.8280  1.8820 -0.3918
 3238SOL    HW221174   2.002   4.411   3.173  1.7457 -1.2734  0.9400
 3239SOL     OW21175   4.687   2.506   5.865 -0.0880  0.4037  0.1819
 3239SOL    HW121176   0.037   2.473   5.911 -1.2517 -2.9491 -0.2787
 3239SOL    HW221177   4.664   2.579   5.922 -1.4967 -0.9036  1.3070
 3240SOL     OW21178   2.668   1.293   7.834  0.4483 -0.3194 -0.1610
 3240SOL    HW121179   2.761   1.302   7.814  0.5658 -1.8793 -0.3678
 3240SOL    HW221180   2.667   1.210   7.882  1.7576  0.3798  1.0701
 3241SOL     OW21181   2.152   2.653   6.216  0.3159  0.2038 -0.4052
 3241SOL    HW121182   2.133   2.708   6.292  0.1684  0.1438 -0.3990
 3241SOL    HW221183   2.228   2.601   6.242 -1.1368 -1.1982  0.9862
 3242SOL     OW21184   2.820   3.902  15.954  0.0343 -0.5308 -0.1186
 3242SOL    HW121185   2.759   3.969  15.986 -0.2617 -1.3611  1.0560
 3242SOL    HW221186   2.895   3.928  16.007 -1.3524  0.6916  1.2429
 3243SOL     OW21187   0.462   1.784  12.780  0.4944  0.8048 -0.1865
 3243SOL    HW121188   0.373   1.760  12.803  0.3481  0.3661 -1.1943
 3243SOL    HW221189   0.501   1.705  12.742 -1.2821 -1.5440  2.8333
 3244SOL     OW21190   4.261   3.141   0.551  0.0389 -0.4071  0.2678
 3244SOL    HW121191   4.357   3.146   0.548  0.0400  0.0343  0.8908
 3244SOL    HW221192   4.256   3.047   0.534 -1.3701  0.3474 -3.5376
 3245SOL     OW21193   3.806   3.910   7.141  0.7927  0.3334  0.0958
 3245SOL    HW121194   3.843   3.843   7.198 -2.9074 -2.2275 -0.4759
 3245SOL    HW221195   3.716   3.878   7.135 -0.6149  4.1160  0.8276
 3246SOL     OW21196   0.000   4.601   3.237  0.2649  0.2295 -0.0505
 3246SOL    HW121197   0.027   4.512   3.260  0.7448  0.2520 -0.5509
 3246SOL    HW221198   4.671   4.615   3.314  2.0196 -1.2662  1.5150
 3247SOL     OW21199   2.458   0.050   8.181  0.0116 -0.3214 -0.1422
 3247SOL    HW121200   2.473   4.702   8.239  0.3120  1.2574  1.8270
 3247SOL    HW221201   2.420   0.013   8.101 -0.0941  1.4391 -0.9155
 3248SOL     OW21202   0.528   0.362   3.086 -1.0510 -0.1241  0.5933
 3248SOL    HW121203   0.459   0.376   3.021 -0.7190 -0.1584  0.2366
 3248SOL    HW221204   0.576   0.283   3.059  0.3677  0.8750  0.1907
 3249SOL     OW21205   2.906   3.596   4.352 -0.2013 -0.0445  0.6997
 3249SOL    HW121206   2.864   3.680   4.372  1.3573  0.5627  1.3720
 3249SOL    HW221207   2.855   3.528   4.396  2.1783 -2.0570  0.3398
 3250SOL     OW21208   1.503   2.253  14.058  0.4467 -0.2365  0.7644
 3250SOL    HW121209   1.485   2.346  14.067 -1.0986 -0.4963  0.4433
 3250SOL    HW221210   1.414   2.221  14.044  0.6862 -0.4064 -0.4200
 3251SOL     OW21211   2.159   0.510   8.847 -0.4241  0.0136 -0.6993
 3251SOL    HW121212   2.183   0.530   8.756  0.0833  0.8683 -0.3675
 3251SOL    HW221213   2.101   0.434   8.838  1.9835 -1.7254 -1.2766
 3252SOL     OW21214   2.448   1.077   3.529 -0.3345  0.3319 -0.2761
 3252SOL    HW121215   2.480   1.070   3.619 -0.5091 -0.2743 -0.2615
 3252SOL    HW221216   2.366   1.029   3.537  1.3240 -2.6460 -0.8960
 3253SOL     OW21217   2.885   3.079   9.313 -0.2223  0.5388 -0.3524
 3253SOL    HW121218   2.950   3.149   9.310 -0.6910  0.8996 -2.0878
 3253SOL    HW221219   2.916   3.034   9.235 -0.2888 -1.9466  1.0775
 3254SOL     OW21220   1.094   1.714   7.062 -0.3721 -0.2249  0.1488
 3254SOL    HW121221   1.135   1.772   6.997  1.4778  1.6882  3.0442
 3254SOL    HW221222   1.164   1.668   7.107  0.4020 -0.1577 -0.9813
 3255SOL     OW21223   0.480   1.023   6.293  0.0492 -0.1790 -0.1441
 3255SOL    HW121224   0.434   1.055   6.371 -0.3019 -1.2163  0.0837
 3255SOL    HW221225   0.550   1.087   6.283  0.2519 -0.2228  1.0811
 3256SOL     OW21226   1.641   3.806   6.096 -0.4148  0.3016 -0.3372
 3256SOL    HW121227   1.580   3.823   6.168 -0.4195  0.8731 -0.4753
 3256SOL    HW221228   1.645   3.711   6.098  1.1797  0.3747 -0.0663
 3257SOL     OW21229   0.048   0.528  17.664 -0.1021 -0.1987 -0.4026
 3257SOL    HW121230   0.034   0.612   0.001  1.6458 -0.9454  1.5370
 3257SOL    HW221231   4.688   0.523  17.623  0.1748 -0.6651 -0.9329
 3258SOL     OW21232   3.232   1.361  16.944 -0.5295 -0.2323  0.0234
 3258SOL    HW121233   3.262   1.332  16.858  0.5996  0.8172  0.0586
 3258SOL    HW221234   3.282   1.305  17.003 -1.1253 -1.3435 -0.5286
 3259SOL     OW21235   3.930   3.960  17.443  0.6857 -0.2413  0.3517
 3259SOL    HW121236   3.973   4.017  17.507  1.0134 -1.5611  1.3159
 3259SOL    HW221237   3.958   3.873  17.472 -0.0955 -0.8993 -0.8827
 3260SOL     OW21238   4.138   2.330   1.915 -0.2644  0.0742  0.5596
 3260SOL    HW121239   4.165   2.320   2.006 -1.2496 -0.0297  0.8376
 3260SOL    HW221240   4.077   2.256   1.913 -0.2320  0.0846 -0.9525
 3261SOL     OW21241   1.553   1.575   5.001  0.8042  0.3335  0.1511
 3261SOL    HW121242   1.539   1.543   5.091  0.2996  1.1710  0.3709
 3261SOL    HW221243   1.464   1.598   4.977 -0.4544 -1.5898  3.0604
 3262SOL     OW21244   3.212   4.004   1.586 -0.1121 -0.7952  0.2849
 3262SOL    HW121245   3.187   4.000   1.494  2.0844 -0.0715 -0.3317
 3262SOL    HW221246   3.157   4.061   1.640 -0.8848  0.6526 -2.0302
 3263SOL     OW21247   2.444   1.879   2.345 -0.4663 -0.2895  0.5301
 3263SOL    HW121248   2.423   1.785   2.344 -0.8114 -0.1873 -1.7646
 3263SOL    HW221249   2.420   1.893   2.437 -1.7494 -0.8786  0.2770
 3264SOL     OW21250   4.124   2.793   6.498  0.0120  0.2133 -0.6765
 3264SOL    HW121251   4.104   2.756   6.412 -0.0974 -1.0479 -0.1155
 3264SOL    HW221252   4.151   2.720   6.555  0.1994  0.4486 -0.4621
 3265SOL     OW21253   0.215   4.684   8.086  0.1744 -0.5208  0.2624
 3265SOL    HW121254   0.195   4.591   8.098 -2.4045  0.0220  0.1595
 3265SOL    HW221255   0.149   4.715   8.148 -0.8671  0.6613 -1.4385
 3266SOL     OW21256   2.575   1.712   9.718 -0.4183  0.4135  0.1366
 3266SOL    HW121257   2.546   1.766   9.791 -0.2328 -0.5264  0.8992
 3266SOL    HW221258   2.498   1.724   9.661  0.1195 -0.2552 -0.7413
 3267SOL     OW21259   3.923   2.267  11.673 -0.0869  0.0476 -0.1746
 3267SOL    HW121260   3.941   2.303  11.586 -1.0162 -0.9587 -0.7888
 3267SOL    HW221261   3.968   2.183  11.660  1.1055  0.4782  1.2119
 3268SOL     OW21262   4.718   1.616   4.885  0.0489  0.4691  0.4715
 3268SOL    HW121263   4.705   1.671   4.808 -1.1048  0.9909  1.0400
 3268SOL    HW221264   0.035   1.542   4.841 -1.2560 -0.1454  0.2280
 3269SOL     OW21265   4.561   1.575  15.315 -1.0126 -0.0038  0.1489
 3269SOL    HW121266   4.567   1.515  15.390 -2.9981  1.1280  1.1859
 3269SOL    HW221267   4.624   1.535  15.255 -0.5733  0.4921  0.2786
 3270SOL     OW21268   2.975   3.178  16.862  0.2811  0.5218 -0.1014
 3270SOL    HW121269   2.939   3.092  16.839  0.5417  0.4452 -0.2267
 3270SOL    HW221270   2.889   3.213  16.885  1.0941  1.4365  1.5815
 3271SOL     OW21271   2.696   4.452   8.111 -0.3166  0.5074 -0.1547
 3271SOL    HW121272   2.604   4.463   8.089 -0.8000 -1.0658  1.0836
 3271SOL    HW221273   2.702   4.457   8.206  0.9070 -1.0269 -0.1431
 3272SOL     OW21274   4.091   1.606   0.860 -0.5425  0.3179 -0.5708
 3272SOL    HW121275   4.015   1.567   0.817  0.8069 -1.4953 -1.2849
 3272SOL    HW221276   4.157   1.599   0.791 -0.3005 -1.4976 -0.1522
 3273SOL     OW21277   0.389   4.467   5.628 -0.2107  0.3607  0.3263
 3273SOL    HW121278   0.410   4.559   5.637  1.1401 -0.0010  0.9044
 3273SOL    HW221279   0.434   4.445   5.546  0.6281 -0.6944  1.0599
 3274SOL     OW21280   0.569   4.340   4.797  0.5114  0.1609  0.4962
 3274SOL    HW121281   0.589   4.248   4.776 -3.3532 -0.4000 -0.6473
 3274SOL    HW221282   0.583   4.357   4.704  0.1538  0.4160  0.4912
 3275SOL     OW21283   4.070   3.641  10.304  0.0590 -0.2621 -0.4740
 3275SOL    HW121284   4.013   3.618  10.231  1.3313 -1.3754 -1.1039
 3275SOL    HW221285   4.040   3.727  10.332 -0.4948 -0.8974  0.8815
 3276SOL     OW21286   2.138   1.992   5.145 -0.3628 -0.1096 -0.1277
 3276SOL    HW121287   2.162   1.931   5.215  0.2476  0.0633 -0.1788
 3276SOL    HW221288   2.192   1.969   5.070 -1.2943 -1.6486 -0.3137
 3277SOL     OW21289   2.101   2.840   6.433  0.3807  0.3908  0.8744
 3277SOL    HW121290   2.084   2.931   6.408  0.2330 -0.0876 -0.8015
 3277SOL    HW221291   2.022   2.809   6.477  0.3710  2.0938  2.0634
 3278SOL     OW21292   0.926   4.636   6.447  0.1261 -0.3981 -0.6538
 3278SOL    HW121293   0.992   4.701   6.470 -0.7823 -0.5769  2.4785
 3278SOL    HW221294   0.855   4.698   6.432  0.2817  0.2202  1.2093
 3279SOL     OW21295   1.283   4.588   8.593  0.0004  0.8736  0.5214
 3279SOL    HW121296   1.286   4.511   8.650 -0.9509  0.8724  0.5778
 3279SOL    HW221297   1.329   4.655   8.644 -0.0655 -0.8263  2.8194
 3280SOL     OW21298   0.249   2.091   2.387 -0.8149 -0.8018 -0.2330
 3280SOL    HW121299   0.304   2.098   2.308 -3.5551  0.1300 -2.0547
 3280SOL    HW221300   0.169   2.133   2.355  0.5621  2.2822  0.3019
 3281SOL     OW21301   2.100   1.191  13.925 -0.2191  0.5433 -0.8489
 3281SOL    HW121302   2.063   1.269  13.884 -1.7550 -0.1354 -0.7185
 3281SOL    HW221303   2.152   1.154  13.853  4.4027  2.2697  1.6198
 3282SOL     OW21304   0.584   4.387  16.556  0.2914 -0.5224 -0.2570
 3282SOL    HW121305   0.506   4.420  16.513 -0.2883 -1.7557 -0.1563
 3282SOL    HW221306   0.612   4.447  16.626 -2.7561  0.1287  0.3890
 3283SOL     OW21307   1.915   2.917   7.365 -0.4359  0.0856 -0.6045
 3283SOL    HW121308   1.913   3.011   7.383  0.2467  0.1103 -0.6317
 3283SOL    HW221309   1.956   2.915   7.278  0.1743 -2.7095 -0.2534
 3284SOL     OW21310   2.637   2.413  14.083 -0.1366  0.1209  0.4709
 3284SOL    HW121311   2.542   2.420  14.076 -0.0042  1.3187 -0.1036
 3284SOL    HW221312   2.664   2.420  13.992  2.4892  0.1388  1.2626
 3285SOL     OW21313   2.405   3.953   9.484 -0.5806 -0.2423  0.1298
 3285SOL    HW121314   2.466   3.942   9.557 -0.7381  4.3002  0.9226
 3285SOL    HW221315   2.330   3.914   9.527 -2.0533  1.2462 -1.0873
 3286SOL     OW21316   4.346   4.358   3.679  0.5201  0.2638 -0.0964
 3286SOL    HW121317   4.265   4.396   3.646  0.3465 -0.6514 -0.7237
 3286SOL    HW221318   4.327   4.266   3.657 -1.3969  0.5379  0.3978
 3287SOL     OW21319   1.838   0.084   4.944 -0.3413  0.1896 -0.3103
 3287SOL    HW121320   1.850   0.179   4.945 -1.1067  0.2880 -1.0264
 3287SOL    HW221321   1.851   0.073   4.850  1.6748 -0.6705  0.0448
 3288SOL     OW21322   2.020   4.030   2.553  0.0159  0.0701  0.0725
 3288SOL    HW121323   2.011   4.089   2.628  3.8845 -0.2850  0.8427
 3288SOL    HW221324   2.067   4.069   2.480 -0.3095  2.2616  1.0477
 3289SOL     OW21325   0.511   2.242   7.016  0.2459  0.3302  0.5254
 3289SOL    HW121326   0.461   2.185   6.957 -0.3597 -1.0889  2.3813
 3289SOL    HW221327   0.513   2.320   6.962 -0.2554 -0.3815 -0.5225
 3290SOL     OW21328   0.853   0.520   6.212 -0.8144  0.0472 -0.3700
 3290SOL    HW121329   0.848   0.586   6.143  0.1763  1.6690  1.1095
 3290SOL    HW221330   0.766   0.480   6.207 -0.7146 -0.2610  0.3110
 3291SOL     OW21331   2.690   3.682  15.106 -0.0787  0.6946  0.1865
 3291SOL    HW121332   2.620   3.646  15.161 -0.1507  1.1847  0.4124
 3291SOL    HW221333   2.693   3.606  15.047 -2.0409  0.3661  0.5124
 3292SOL     OW21334   0.206   1.432   2.383  0.4277  0.1293 -0.3694
 3292SOL    HW121335   0.249   1.511   2.416  0.4411 -0.2159  0.4492
 3292SOL    HW221336   0.232   1.439   2.291  1.3773  0.6379 -0.0629
 3293SOL     OW21337   0.057   3.417  11.874  0.3613 -0.0118 -0.5131
 3293SOL    HW121338   0.115   3.487  11.846 -0.4532  0.7850 -0.2194
 3293SOL    HW221339   0.121   3.359  11.914 -0.4307 -0.0724  0.6772
 3294SOL     OW21340   2.867   0.273   5.842 -0.3121 -0.2464 -0.1068
 3294SOL    HW121341   2.868   0.179   5.861  1.2592 -0.3627 -0.7918
 3294SOL    HW221342   2.833   0.282   5.753  0.6638  0.7296 -0.3793
 3295SOL     OW21343   3.985   4.088   1.909 -0.0087 -0.0167 -0.1923
 3295SOL    HW121344   3.970   4.183   1.906  1.7903  0.1738 -3.5379
 3295SOL    HW221345   4.075   4.094   1.878 -0.2075  1.1899 -0.5366
 3296SOL     OW21346   1.826   1.782  12.439  0.1505 -0.1953 -0.3726
 3296SOL    HW121347   1.856   1.851  12.498  0.0610 -0.6652  0.2168
 3296SOL    HW221348   1.783   1.841  12.377 -2.2111 -1.9876 -0.4240
 3297SOL     OW21349   1.077   2.898   1.931 -0.1250  0.0623  0.3620
 3297SOL    HW121350   1.099   2.915   1.840  0.3755 -2.5470 -0.0265
 3297SOL    HW221351   1.162   2.890   1.976  0.4929  1.5425 -0.5773
 3298SOL     OW21352   0.519   4.123   7.982 -0.2485  0.2912 -0.2459
 3298SOL    HW121353   0.458   4.071   8.035  0.2010 -0.4786 -0.4874
 3298SOL    HW221354   0.467   4.202   7.966  0.2824  0.9352  1.2067
 3299SOL     OW21355   4.680   0.525   4.510  0.2591 -0.2876  0.0116
 3299SOL    HW121356   0.048   0.538   4.508  0.4325 -1.7827 -1.1788
 3299SOL    HW221357   4.656   0.576   4.432 -1.4294  0.6956  1.1658
 3300SOL     OW21358   2.384   2.323  13.995  0.2079  0.1797 -0.0494
 3300SOL    HW121359   2.429   2.324  13.910  0.3283  0.2100  0.0141
 3300SOL    HW221360   2.292   2.310  13.973  0.1106  0.4026  0.2163
 3301SOL     OW21361   3.952   4.364   4.696 -0.7033 -0.5313  0.2378
 3301SOL    HW121362   3.969   4.270   4.692 -3.5471 -1.0970  1.0406
 3301SOL    HW221363   3.996   4.390   4.615  2.3222 -0.8339  1.8014
 3302SOL     OW21364   4.654   3.954   2.249 -0.2085 -0.4481  0.4501
 3302SOL    HW121365   4.696   4.021   2.303 -1.7680 -0.4252  1.6345
 3302SOL    HW221366   4.620   3.890   2.312 -0.5739  0.2272  0.9390
 3303SOL     OW21367   3.043   2.954  16.488  0.1600 -0.1489 -0.0384
 3303SOL    HW121368   2.983   3.006  16.433 -1.1167 -0.4714  1.0435
 3303SOL    HW221369   3.118   2.956  16.429  0.4723 -0.2850  0.3546
 3304SOL     OW21370   3.914   4.012   3.127 -0.1205 -0.6629  0.3617
 3304SOL    HW121371   3.912   3.944   3.195  0.4671 -1.8258 -0.7903
 3304SOL    HW221372   3.828   3.992   3.090  0.0993 -0.2847 -0.3430
 3305SOL     OW21373   0.797   1.187  12.465  0.1864  0.1064 -0.0126
 3305SOL    HW121374   0.866   1.122  12.482  1.2398  0.7390 -1.8241
 3305SOL    HW221375   0.726   1.150  12.518  0.1011 -1.2027 -1.0500
 3306SOL     OW21376   2.637   0.205   7.869 -0.1510 -0.3231  1.0565
 3306SOL    HW121377   2.559   0.230   7.918 -1.9661  0.5789 -2.3184
 3306SOL    HW221378   2.705   0.207   7.936  0.4904 -2.6123  0.4792
 3307SOL     OW21379   2.448   4.470  15.794 -0.1755  0.4451  0.0427
 3307SOL    HW121380   2.450   4.565  15.779  0.7625  0.0639 -2.2179
 3307SOL    HW221381   2.541   4.460  15.818 -0.6188  2.8253  2.7725
 3308SOL     OW21382   3.456   4.381   8.670 -0.2897  0.2030 -0.4128
 3308SOL    HW121383   3.437   4.422   8.585 -0.9294  2.4333  0.8253
 3308SOL    HW221384   3.520   4.442   8.706 -1.0936 -1.3812  3.6954
 3309SOL     OW21385   1.359   3.129   9.078 -0.0168 -0.2501  0.3544
 3309SOL    HW121386   1.300   3.198   9.111 -0.5224 -0.9143  0.8498
 3309SOL    HW221387   1.349   3.126   8.983  0.0890 -0.2267  0.3432
 3310SOL     OW21388   0.025   2.397   6.749 -0.3813 -0.2494 -0.3598
 3310SOL    HW121389   4.674   2.393   6.805 -0.0071 -0.7367  0.1182
 3310SOL    HW221390   0.081   2.446   6.809  3.2142 -3.4788 -1.0851
 3311SOL     OW21391   3.283   3.748  16.372  0.1039 -0.2475 -0.2889
 3311SOL    HW121392   3.243   3.813  16.313  0.1861  1.7190  1.8458
 3311SOL    HW221393   3.351   3.709  16.317 -1.3640 -2.7319 -0.3450
 3312SOL     OW21394   1.243   3.782   2.964  0.0383  0.1968  0.0643
 3312SOL    HW121395   1.321   3.806   3.014  1.7902 -0.8182 -2.1902
 3312SOL    HW221396   1.268   3.738   2.882 -0.0545  0.2080  0.0291
 3313SOL     OW21397   4.151   4.552   5.919 -0.7393  0.5329 -0.3300
 3313SOL    HW121398   4.204   4.506   5.984  0.4175  1.9499 -0.2911
 3313SOL    HW221399   4.227   4.590   5.875  0.5399  1.1575  2.4243
 3314SOL     OW21400   2.196   4.536   2.840  0.5941  0.2312 -0.2076
 3314SOL    HW121401   2.220   4.627   2.823  0.7856 -0.1805 -2.1896
 3314SOL    HW221402   2.131   4.516   2.772  0.9768 -0.4135 -0.3798
 3315SOL     OW21403   0.994   3.331   3.682 -0.2271  0.8802 -0.1185
 3315SOL    HW121404   1.032   3.403   3.732  1.3799 -2.3581  3.4025
 3315SOL    HW221405   0.976   3.363   3.594  1.5540 -0.1233 -0.8408
 3316SOL     OW21406   0.054   4.063   8.507 -0.1688 -0.3055  0.8839
 3316SOL    HW121407   0.055   4.054   8.602  1.6691 -0.6052  0.8330
 3316SOL    HW221408   4.707   4.004   8.490 -0.7254  0.6774 -0.1330
 3317SOL     OW21409   1.097   1.217   6.403 -0.2790  0.2558  0.4990
 3317SOL    HW121410   1.048   1.280   6.455 -1.2864 -0.5779  0.5628
 3317SOL    HW221411   1.032   1.146   6.411  1.0491 -1.0626 -0.3900
 3318SOL     OW21412   2.442   2.785  14.900 -0.5597  0.0584  0.2422
 3318SOL    HW121413   2.484   2.865  14.867 -2.4186  0.8191 -0.2905
 3318SOL    HW221414   2.511   2.758  14.961 -1.1058 -0.0486  0.8139
 3319SOL     OW21415   1.718   1.479  12.877  0.6994 -0.0546 -0.2414
 3319SOL    HW121416   1.789   1.414  12.878 -0.6187 -1.4973 -0.1540
 3319SOL    HW221417   1.725   1.510  12.786 -1.5983  1.3892  0.0680
 3320SOL     OW21418   2.299   0.081   1.456 -0.0404 -1.0345  0.4935
 3320SOL    HW121419   2.380   0.083   1.406 -1.0055 -0.7926 -1.0755
 3320SOL    HW221420   2.261   0.002   1.417 -0.5624 -0.8246  0.5665
 3321SOL     OW21421   2.675   0.444  16.996  0.3627 -0.7092 -0.1727
 3321SOL    HW121422   2.646   0.527  16.958 -0.0914 -0.0968  1.5234
 3321SOL    HW221423   2.587   0.407  16.998  0.1145 -0.0299  0.9429
 3322SOL     OW21424   1.397   2.759   2.303  0.1519 -0.4545 -0.2033
 3322SOL    HW121425   1.466   2.768   2.238 -0.4194 -0.9125 -0.8713
 3322SOL    HW221426   1.361   2.848   2.295  1.4710 -0.0950 -2.0382
 3323SOL     OW21427   2.066   1.356   3.509 -0.5995 -0.3288 -0.3690
 3323SOL    HW121428   2.114   1.344   3.427  0.7562  2.1563  0.0549
 3323SOL    HW221429   2.127   1.342   3.581 -0.4307 -2.2266 -0.8832
 3324SOL     OW21430   4.241   2.665   3.140 -0.0120  0.0996  0.2757
 3324SOL    HW121431   4.305   2.614   3.091 -0.3179 -2.9145  3.0353
 3324SOL    HW221432   4.284   2.750   3.150 -1.2485  0.6155  1.2188
 3325SOL     OW21433   4.343   4.106   8.270 -0.3513 -0.0270  0.2565
 3325SOL    HW121434   4.430   4.110   8.231 -0.3084  3.1879  0.7248
 3325SOL    HW221435   4.280   4.092   8.199 -0.2023  1.7061 -0.2015
 3326SOL     OW21436   0.554   4.346   5.325  0.7362 -0.1866 -0.0364
 3326SOL    HW121437   0.619   4.288   5.364 -0.6841 -0.4583  1.9190
 3326SOL    HW221438   0.616   4.410   5.290  1.1437 -0.1133  0.8340
 3327SOL     OW21439   3.442   1.850   5.344  0.3278 -0.2036 -0.2413
 3327SOL    HW121440   3.504   1.919   5.366 -1.4763  1.5022 -0.4483
 3327SOL    HW221441   3.367   1.875   5.397  0.2495  1.4799 -1.1228
 3328SOL     OW21442   0.673   4.381  10.607 -0.2247  0.4479 -0.2544
 3328SOL    HW121443   0.756   4.404  10.649  0.1649  0.0147 -0.7809
 3328SOL    HW221444   0.636   4.468  10.622 -0.8785  0.0163  0.5937
 3329SOL     OW21445   4.466   2.668   8.523 -0.1752  0.4006  0.1686
 3329SOL    HW121446   4.456   2.731   8.453  0.3833 -0.0684 -0.3317
 3329SOL    HW221447   4.486   2.588   8.474 -3.8307 -1.4506  1.6158
 3330SOL     OW21448   4.132   2.882  11.612  0.0424 -0.1409 -0.4435
 3330SOL    HW121449   4.224   2.864  11.592 -0.3088 -0.0231 -2.1008
 3330SOL    HW221450   4.116   2.833  11.693 -0.2059 -0.5715 -0.7554
 3331SOL     OW21451   3.177   3.365   7.520  0.3218 -0.2532 -0.1087
 3331SOL    HW121452   3.222   3.355   7.436  0.2583  1.4814 -0.3459
 3331SOL    HW221453   3.104   3.308   7.495 -0.2581  0.4301  0.0341
 3332SOL     OW21454   1.170   3.402  17.547  0.4827 -0.1850 -0.0851
 3332SOL    HW121455   1.099   3.424  17.607  2.4867 -0.1856  2.2432
 3332SOL    HW221456   1.216   3.486  17.540 -2.6872  1.6440  0.8581
 3333SOL     OW21457   3.035   3.447   4.709 -0.4077  0.7912  0.2980
 3333SOL    HW121458   3.067   3.402   4.630 -1.4164  1.8831 -0.7374
 3333SOL    HW221459   3.118   3.444   4.756  0.0424  1.1965 -0.4683
 3334SOL     OW21460   0.886   2.821   3.470 -0.1839  0.0086 -0.0696
 3334SOL    HW121461   0.946   2.896   3.466  0.1534 -0.3010 -0.7384
 3334SOL    HW221462   0.925   2.760   3.533 -1.1895  0.4317  0.9671
 3335SOL     OW21463   2.880   4.572   4.457 -0.0499  0.0646 -0.6221
 3335SOL    HW121464   2.835   4.638   4.404  2.1543  1.4282 -0.8074
 3335SOL    HW221465   2.935   4.535   4.389 -1.6214 -1.0327 -1.2882
 3336SOL     OW21466   0.880   2.414  14.629  0.1785  0.5816 -0.1402
 3336SOL    HW121467   0.959   2.410  14.682  1.0309  0.4436 -1.4223
 3336SOL    HW221468   0.868   2.324  14.599  1.9517 -0.0039  0.8973
 3337SOL     OW21469   0.436   2.197   3.720 -0.2598 -0.6129 -0.0669
 3337SOL    HW121470   0.495   2.273   3.723  0.5810 -1.3721  2.6788
 3337SOL    HW221471   0.484   2.153   3.649 -0.0093  0.7289 -0.7349
 3338SOL     OW21472   1.449   0.701  15.324  0.1631 -0.3127  0.4271
 3338SOL    HW121473   1.473   0.703  15.232  0.7725  0.6833  0.6008
 3338SOL    HW221474   1.396   0.622  15.335 -1.3188  0.6732  0.3729
 3339SOL     OW21475   0.389   3.230   6.737 -0.3126  0.3947  0.4130
 3339SOL    HW121476   0.382   3.299   6.803  2.8080 -1.1126  2.3470
 3339SOL    HW221477   0.478   3.242   6.703 -0.4747 -1.3163 -0.6273
 3340SOL     OW21478   0.447   2.639   0.533  0.1229 -0.2529 -0.7718
 3340SOL    HW121479   0.531   2.663   0.492 -0.3842 -0.1910 -1.7845
 3340SOL    HW221480   0.405   2.724   0.525  1.7145  0.4652 -1.5796
 3341SOL     OW21481   2.459   2.458  15.581  0.4204  0.3043  0.0718
 3341SOL    HW121482   2.456   2.380  15.526  0.9808  0.7703 -0.6151
 3341SOL    HW221483   2.381   2.445  15.635  1.2534 -1.1139  0.9332
 3342SOL     OW21484   1.702   4.691   6.450 -0.1269  0.7464  0.5116
 3342SOL    HW121485   1.735   0.018   6.522 -0.3009 -1.2367  2.0504
 3342SOL    HW221486   1.752   4.610   6.453  0.6650  1.2179 -0.0570
 3343SOL     OW21487   4.569   1.579   8.819 -0.3974 -0.8690  0.3558
 3343SOL    HW121488   4.594   1.662   8.779 -0.1985 -0.9246  0.3673
 3343SOL    HW221489   4.574   1.601   8.911  2.1562 -0.4529  0.1101
 3344SOL     OW21490   0.756   0.338   0.046  0.1202 -0.4671 -0.3374
 3344SOL    HW121491   0.778   0.310  17.665  1.1563  0.5716 -0.3921
 3344SOL    HW221492   0.660   0.337   0.046  0.1187  0.1284  1.3416
 3345SOL     OW21493   3.427   3.075   8.776 -0.3965  0.0722  0.0635
 3345SOL    HW121494   3.402   3.147   8.834  1.6169 -0.9993  2.2229
 3345SOL    HW221495   3.353   3.015   8.773 -1.4797  1.2916  2.4723
 3346SOL     OW21496   1.129   1.443   4.892 -0.6642 -0.0477  0.0261
 3346SOL    HW121497   1.199   1.382   4.915 -0.3246 -0.1512 -1.2968
 3346SOL    HW221498   1.099   1.406   4.810 -0.6550 -1.4252  0.6516
 3347SOL     OW21499   3.130   1.779  11.098  0.3623  0.0446  0.5158
 3347SOL    HW121500   3.094   1.731  11.023  0.8189  1.5648 -0.6696
 3347SOL    HW221501   3.101   1.711  11.159  2.1663 -3.2266 -2.2319
 3348SOL     OW21502   1.776   4.530   5.075  0.3096 -0.1733 -0.0316
 3348SOL    HW121503   1.796   4.596   5.141 -0.3193 -0.3213  0.3130
 3348SOL    HW221504   1.770   4.588   4.999  0.0314  0.9671  0.8478
 3349SOL     OW21505   2.890   1.457   5.061 -0.2573 -0.2633 -0.2388
 3349SOL    HW121506   2.956   1.508   5.012  0.5881  0.0527  1.2189
 3349SOL    HW221507   2.858   1.412   4.983 -0.1156  0.2507 -0.5961
 3350SOL     OW21508   3.515   2.743   6.338  0.4271  0.7172  0.2581
 3350SOL    HW121509   3.471   2.658   6.335  0.3001  0.7230  2.2939
 3350SOL    HW221510   3.476   2.798   6.269  0.9213 -1.8973 -2.1027
 3351SOL     OW21511   4.044   3.223  13.797  0.2059 -0.1385 -0.5961
 3351SOL    HW121512   4.033   3.293  13.732  0.3484  2.2038  1.9019
 3351SOL    HW221513   4.110   3.173  13.749 -0.4156  0.3105 -1.9215
 3352SOL     OW21514   2.394   0.466   2.150 -0.5239 -0.8996  0.5695
 3352SOL    HW121515   2.432   0.545   2.112  0.7216 -1.6218  0.3231
 3352SOL    HW221516   2.313   0.465   2.099  0.2032  0.0959 -0.6007
 3353SOL     OW21517   1.984   3.145  10.948 -0.8929  0.3582  0.3894
 3353SOL    HW121518   2.048   3.090  10.994 -0.7850  0.8647  0.8442
 3353SOL    HW221519   2.013   3.133  10.857 -0.2706 -0.6730  0.7207
 3354SOL     OW21520   4.226   2.297  12.613  0.1453  0.1046 -0.7719
 3354SOL    HW121521   4.281   2.367  12.648  1.2196 -1.1425  0.0445
 3354SOL    HW221522   4.137   2.323  12.636 -0.2917 -2.1203  0.0468
 3355SOL     OW21523   1.091   2.278  16.263  0.3733  0.8434  0.3897
 3355SOL    HW121524   1.000   2.298  16.285 -0.4004 -1.1915 -0.9008
 3355SOL    HW221525   1.099   2.183  16.273 -0.1105  1.0357  2.6150
 3356SOL     OW21526   1.105   0.009  11.458  0.3636  0.3851  0.0908
 3356SOL    HW121527   1.188   0.041  11.493  1.2474 -1.2578 -0.4852
 3356SOL    HW221528   1.035   0.038  11.516  0.7735 -0.9366  1.2247
 3357SOL     OW21529   1.548   3.209   7.376 -0.2438 -0.0100 -0.3572
 3357SOL    HW121530   1.459   3.245   7.382 -0.2884 -0.6445  2.7977
 3357SOL    HW221531   1.609   3.281   7.392  0.7540 -0.8226 -0.4883
 3358SOL     OW21532   1.884   3.776  14.582  0.1182 -0.2932 -0.1930
 3358SOL    HW121533   1.863   3.809  14.495 -0.7730 -3.0373 -1.0282
 3358SOL    HW221534   1.942   3.701  14.564 -1.3001 -1.2499 -0.7588
 3359SOL     OW21535   0.487   1.865  12.180 -0.3203  0.2566  0.0943
 3359SOL    HW121536   0.570   1.901  12.212 -0.5548  0.8939 -0.0105
 3359SOL    HW221537   0.443   1.852  12.264 -1.8286  0.6402 -0.6448
 3360SOL     OW21538   1.505   1.744   9.554  0.3997 -0.3916 -0.0831
 3360SOL    HW121539   1.413   1.726   9.533 -0.1371  2.4017 -0.1522
 3360SOL    HW221540   1.532   1.659   9.587  3.5516  0.7204  0.1375
 3361SOL     OW21541   3.088   1.666  11.855 -0.3000  0.5270  0.4564
 3361SOL    HW121542   3.016   1.670  11.792 -1.6913 -1.4785  1.9369
 3361SOL    HW221543   3.080   1.575  11.885  0.7307  1.3200  3.1183
 3362SOL     OW21544   0.289   4.196  12.109 -0.0465  0.0539 -0.1553
 3362SOL    HW121545   0.343   4.272  12.130 -1.1723  1.1964 -1.3575
 3362SOL    HW221546   0.353   4.131  12.137 -1.8284 -1.5770  0.1202
 3363SOL     OW21547   0.850   1.628  14.956  0.7060 -0.3323  0.7234
 3363SOL    HW121548   0.922   1.691  14.949  1.6089 -1.6459 -1.7472
 3363SOL    HW221549   0.894   1.548  14.930 -0.9462 -1.3118  0.9257
 3364SOL     OW21550   1.578   2.337   2.093 -0.5087 -0.3314 -0.4611
 3364SOL    HW121551   1.565   2.422   2.052  0.9606  0.4999  0.8025
 3364SOL    HW221552   1.550   2.345   2.185  1.1823  0.4358 -0.0194
 3365SOL     OW21553   3.402   0.915   4.885  0.4542 -0.4118  0.6861
 3365SOL    HW121554   3.325   0.882   4.930 -0.4309  1.5079  0.5942
 3365SOL    HW221555   3.355   0.978   4.831  0.3272 -0.1947  1.0448
 3366SOL     OW21556   0.827   1.979  13.060 -0.1004  0.0523 -0.1597
 3366SOL    HW121557   0.811   2.049  12.997 -1.1472 -1.8346 -1.9711
 3366SOL    HW221558   0.833   1.910  12.995  0.9719  0.6715 -0.7310
 3367SOL     OW21559   2.744   2.541   8.405 -0.4585  0.0087  0.3492
 3367SOL    HW121560   2.724   2.570   8.494  0.1417 -2.5486  1.3189
 3367SOL    HW221561   2.820   2.483   8.414 -0.0820 -0.0524 -3.2535
 3368SOL     OW21562   0.792   1.890  10.750 -0.2719  0.0340  0.3199
 3368SOL    HW121563   0.804   1.969  10.802  0.2547  0.1157  0.0701
 3368SOL    HW221564   0.787   1.826  10.821  1.6680 -1.2012 -0.6541
 3369SOL     OW21565   3.724   0.628   3.167  0.8604  0.2595  0.6249
 3369SOL    HW121566   3.803   0.584   3.134  1.1971 -0.8623  2.8958
 3369SOL    HW221567   3.763   0.694   3.225  1.8892  0.1002  0.1182
 3370SOL     OW21568   1.364   3.106   8.807  0.2894  0.1740 -0.2121
 3370SOL    HW121569   1.288   3.061   8.771 -0.7473  0.1134  2.0945
 3370SOL    HW221570   1.436   3.084   8.747  0.4849  1.5471 -0.4775
 3371SOL     OW21571   4.685   0.215   7.708 -0.0422 -0.0198 -0.0291
 3371SOL    HW121572   4.726   0.286   7.659  2.5592 -0.8785  0.9309
 3371SOL    HW221573   4.723   0.132   7.678 -0.7899  0.0875 -1.2955
 3372SOL     OW21574   0.881   0.698   1.005  0.4832 -0.0243 -0.1473
 3372SOL    HW121575   0.911   0.620   1.051 -0.2850  0.0185  0.4213
 3372SOL    HW221576   0.888   0.679   0.911  1.9202  0.8878 -0.2219
 3373SOL     OW21577   4.496   0.479  17.651 -0.7356  0.3773  0.2216
 3373SOL    HW121578   4.460   0.466   0.031 -3.1740  1.0386 -0.6928
 3373SOL    HW221579   4.413   0.478  17.603  0.2902  0.1091 -1.5834
 3374SOL     OW21580   2.560   0.072   3.165  0.1793 -0.1253 -0.6966
 3374SOL    HW121581   2.610   0.130   3.107 -0.6126  1.5479  0.2588
 3374SOL    HW221582   2.611   4.719   3.152  2.0271  0.9614 -0.1198
 3375SOL     OW21583   2.061   4.328   6.401 -0.1746  0.0802 -0.2427
 3375SOL    HW121584   2.136   4.345   6.344 -0.3967 -0.7871 -0.7999
 3375SOL    HW221585   2.110   4.329   6.483 -2.2848  3.0013  0.9513
 3376SOL     OW21586   0.402   2.188   2.591 -0.2370  0.1674 -0.0423
 3376SOL    HW121587   0.331   2.150   2.541  0.6955 -1.4325 -0.1392
 3376SOL    HW221588   0.482   2.167   2.544 -0.8754 -2.5070  0.0986
 3377SOL     OW21589   0.018   4.309   8.365  0.1982  0.5233 -0.1720
 3377SOL    HW121590   4.664   4.270   8.331  1.4838 -2.8276  0.6129
 3377SOL    HW221591   0.044   4.235   8.419  0.2863  2.2487  2.1386
 3378SOL     OW21592   1.619   3.491   1.865  0.0269  0.4591 -0.0071
 3378SOL    HW121593   1.661   3.416   1.824  0.0681  0.9029 -0.7721
 3378SOL    HW221594   1.606   3.550   1.791  3.2445 -0.8847 -1.6167
 3379SOL     OW21595   2.973   0.210  12.941  0.5640  0.0892 -0.3074
 3379SOL    HW121596   2.971   0.302  12.968 -0.0893 -0.4440  1.4117
 3379SOL    HW221597   3.060   0.209  12.901  0.6739 -0.9441 -0.0195
 3380SOL     OW21598   1.876   0.459   8.467  0.3434 -0.5387  0.3782
 3380SOL    HW121599   1.877   0.429   8.558  0.8548  0.5604  0.7470
 3380SOL    HW221600   1.790   0.428   8.440  1.3557 -1.5355 -1.7170
 3381SOL     OW21601   3.158   2.108  16.497 -0.3228  0.4716 -0.4094
 3381SOL    HW121602   3.107   2.059  16.432 -1.3294  0.0508  0.6999
 3381SOL    HW221603   3.136   2.201  16.489 -0.8170  0.3618 -0.3197
 3382SOL     OW21604   3.969   0.068   3.842 -0.0924  0.0268  0.1410
 3382SOL    HW121605   4.017   0.129   3.786  1.1514 -0.9963  0.0886
 3382SOL    HW221606   3.878   0.092   3.821  0.5252 -0.6920 -3.2603
 3383SOL     OW21607   1.968   2.027   2.112  0.1938  0.5127 -0.4389
 3383SOL    HW121608   2.048   2.045   2.162 -0.4723  1.1515  0.4115
 3383SOL    HW221609   1.940   1.946   2.156 -0.4090  0.8053 -0.2755
 3384SOL     OW21610   3.637   2.643   4.865  0.1907 -0.0690  0.0284
 3384SOL    HW121611   3.544   2.651   4.844  0.0573  1.7390  1.3640
 3384SOL    HW221612   3.641   2.685   4.951  1.9143 -0.8269  0.3124
 3385SOL     OW21613   4.622   0.297  16.009 -0.2808  0.1279 -0.1327
 3385SOL    HW121614   4.662   0.362  15.951 -1.3909  0.9694  0.0456
 3385SOL    HW221615   4.531   0.301  15.981 -0.6252  0.1223  0.9580
 3386SOL     OW21616   3.533   4.611   3.797  0.1647 -0.3939 -0.7271
 3386SOL    HW121617   3.482   4.597   3.877  0.9647 -2.4243 -0.5642
 3386SOL    HW221618   3.594   4.538   3.808 -0.3880 -0.4219  2.0693
 3387SOL     OW21619   2.152   1.621  11.501  0.0185 -0.1704  0.1063
 3387SOL    HW121620   2.133   1.660  11.586 -0.1007  1.2503 -0.5759
 3387SOL    HW221621   2.068   1.644  11.462  0.1345  0.8983  0.4928
 3388SOL     OW21622   2.524   3.045   2.783 -0.6537 -0.7918 -0.9764
 3388SOL    HW121623   2.434   3.068   2.763 -0.0793  2.1537 -0.2654
 3388SOL    HW221624   2.546   2.997   2.703  1.4738 -0.4164 -0.6267
 3389SOL     OW21625   4.289   4.296   6.936  0.4105  0.2568 -0.4670
 3389SOL    HW121626   4.344   4.338   7.002  1.3843  0.4216 -1.3923
 3389SOL    HW221627   4.287   4.207   6.972  1.5312  0.3845 -0.0968
 3390SOL     OW21628   3.256   2.787   5.848 -0.2523 -0.0811 -0.1598
 3390SOL    HW121629   3.230   2.854   5.912 -1.8935 -0.4141 -0.4679
 3390SOL    HW221630   3.250   2.704   5.896 -0.6663  0.1791  0.2411
 3391SOL     OW21631   1.528   2.433   1.730  0.0756  0.2617 -0.0124
 3391SOL    HW121632   1.605   2.490   1.734  0.5011 -0.4016  1.2716
 3391SOL    HW221633   1.459   2.497   1.746  1.0833  1.2519  0.3421
 3392SOL     OW21634   3.416   4.690   4.854 -0.4856 -0.5271  0.0518
 3392SOL    HW121635   3.455   4.651   4.776  1.5062  0.6862  0.4235
 3392SOL    HW221636   3.492   4.687   4.913  0.4453  1.2512 -1.0458
 3393SOL     OW21637   1.357   4.252   6.684 -0.2428 -0.0607 -0.7700
 3393SOL    HW121638   1.312   4.332   6.713 -0.8957 -1.0394  0.9404
 3393SOL    HW221639   1.443   4.282   6.654  0.1536  0.5318  0.9452
 3394SOL     OW21640   4.479   0.540   3.453 -0.0555 -0.1657 -0.3712
 3394SOL    HW121641   4.552   0.548   3.391  0.7035 -1.1622  0.3921
 3394SOL    HW221642   4.428   0.621   3.442  3.6185  2.0643 -1.2233
 3395SOL     OW21643   4.457   1.991   7.405 -0.1622 -0.1091 -0.1034
 3395SOL    HW121644   4.361   1.997   7.397  0.0549  0.7954 -1.9904
 3395SOL    HW221645   4.470   1.930   7.332  0.2489 -2.0229  1.5501
 3396SOL     OW21646   4.140   4.451   2.210 -0.0499  0.4192 -0.0743
 3396SOL    HW121647   4.100   4.537   2.222 -1.0129 -0.0918  0.4189
 3396SOL    HW221648   4.162   4.420   2.297  0.4796  0.7075 -0.1108
 3397SOL     OW21649   1.855   2.081  14.975  0.2985 -0.3379 -0.2988
 3397SOL    HW121650   1.814   2.155  15.019 -0.4167 -0.5960 -0.5344
 3397SOL    HW221651   1.945   2.105  14.998 -0.4466 -0.5437  2.7687
 3398SOL     OW21652   0.583   0.591   7.605  0.3711  0.3757 -0.6311
 3398SOL    HW121653   0.548   0.575   7.693  3.1137 -0.9696  0.2339
 3398SOL    HW221654   0.641   0.660   7.637  2.2361 -0.7104 -1.6511
 3399SOL     OW21655   2.377   1.880   7.088 -0.6205  0.0242  0.4132
 3399SOL    HW121656   2.395   1.971   7.065  1.7013 -0.9056 -1.5091
 3399SOL    HW221657   2.414   1.878   7.176  1.9907  0.4393 -0.6761
 3400SOL     OW21658   4.494   2.618  12.302 -0.3160  0.2988 -0.8353
 3400SOL    HW121659   4.579   2.620  12.259 -1.6687  0.3653 -3.5171
 3400SOL    HW221660   4.486   2.532  12.344  1.2215 -0.1753 -1.5074
 3401SOL     OW21661   0.076   4.197   5.766  0.2027 -0.3052 -0.2846
 3401SOL    HW121662   0.170   4.212   5.773  0.2083 -0.3797 -0.1987
 3401SOL    HW221663   0.049   4.289   5.765 -1.5230 -0.8015  1.2408
 3402SOL     OW21664   2.174   1.740   6.672  0.3689  0.1157 -0.0864
 3402SOL    HW121665   2.090   1.720   6.631  0.7624  0.8486 -1.2469
 3402SOL    HW221666   2.235   1.716   6.602 -1.4790 -1.9526 -0.9954
 3403SOL     OW21667   0.618   2.284   6.728 -0.1083 -0.1119 -0.6698
 3403SOL    HW121668   0.677   2.217   6.764 -1.3954 -1.7138 -1.5220
 3403SOL    HW221669   0.554   2.219   6.698 -0.8563  0.2967  0.0832
 3404SOL     OW21670   1.917   3.578   3.198 -0.3213 -0.2407  0.4904
 3404SOL    HW121671   1.860   3.516   3.242 -1.9991  0.1786 -1.0782
 3404SOL    HW221672   1.875   3.580   3.111 -0.2553  1.6800  0.5060
 3405SOL     OW21673   1.537   1.748  14.311  0.2890  0.4830 -0.1009
 3405SOL    HW121674   1.603   1.789  14.255  1.5034  1.4138  1.9750
 3405SOL    HW221675   1.582   1.757  14.396  0.8685 -3.4728 -0.0206
 3406SOL     OW21676   4.486   4.334   3.215  0.4381  0.6998  0.0184
 3406SOL    HW121677   4.551   4.276   3.254  0.0828 -1.1506 -2.1104
 3406SOL    HW221678   4.533   4.352   3.134  1.1780 -1.3946 -0.0315
 3407SOL     OW21679   4.123   2.002  15.802  0.3429 -0.1032 -0.5834
 3407SOL    HW121680   4.214   2.006  15.834  0.6695 -0.0099 -1.5371
 3407SOL    HW221681   4.133   1.924  15.748  2.2153  0.8395 -1.5799
 3408SOL     OW21682   2.525   2.804  10.110  0.1018  0.8697 -0.4471
 3408SOL    HW121683   2.587   2.863  10.154  1.3866  0.3323 -1.5447
 3408SOL    HW221684   2.479   2.865  10.052  0.7428 -1.0885 -3.0038
 3409SOL     OW21685   1.599   0.995   2.707  0.3357 -0.2232  0.3084
 3409SOL    HW121686   1.574   1.082   2.738  0.3108 -0.6161  1.3738
 3409SOL    HW221687   1.695   1.002   2.706  0.1867  1.7939  1.0616
 3410SOL     OW21688   4.673   1.393   9.649 -0.3593  0.3358  0.5126
 3410SOL    HW121689   4.665   1.420   9.558  0.0350 -0.2037  0.3128
 3410SOL    HW221690   0.022   1.445   9.676  0.8007 -1.1360  0.1381
 3411SOL     OW21691   1.516   3.584   8.127  0.2499 -0.2325 -0.4854
 3411SOL    HW121692   1.564   3.519   8.179  0.0657 -0.2739 -0.3642
 3411SOL    HW221693   1.513   3.658   8.188  0.7027 -1.4677  1.0401
 3412SOL     OW21694   0.119   4.655   7.007 -0.3132  0.4125 -0.6629
 3412SOL    HW121695   0.192   4.644   7.069 -0.2615 -2.3176 -1.2223
 3412SOL    HW221696   0.075   0.011   7.027  0.6129  0.9040 -0.6683
 3413SOL     OW21697   0.671   0.632   1.799  0.1707 -0.0974  0.0698
 3413SOL    HW121698   0.698   0.613   1.889  1.1602  1.3061  0.0721
 3413SOL    HW221699   0.739   0.693   1.772  2.3347 -1.8509  1.4751
 3414SOL     OW21700   1.313   1.881   8.316  0.6129 -0.1013  0.0666
 3414SOL    HW121701   1.281   1.806   8.265  2.4577 -0.9095  0.1159
 3414SOL    HW221702   1.254   1.883   8.392 -0.4698  0.2697 -0.7818
 3415SOL     OW21703   0.169   2.453   3.233  0.2237 -0.2667  0.3673
 3415SOL    HW121704   0.174   2.358   3.229 -1.2018 -0.2393 -2.2455
 3415SOL    HW221705   0.166   2.466   3.328 -2.0794  3.2022 -0.1770
 3416SOL     OW21706   2.403   2.230  17.099  0.3382  0.4444 -0.4183
 3416SOL    HW121707   2.333   2.214  17.162  0.2448 -3.4198 -1.4529
 3416SOL    HW221708   2.380   2.165  17.033 -0.4193  1.3153 -1.0063
 3417SOL     OW21709   0.048   0.769  14.281  0.4932  0.3761 -0.5072
 3417SOL    HW121710   4.697   0.763  14.225  0.2008 -0.5433  0.0046
 3417SOL    HW221711   0.026   0.721  14.361 -0.0499  1.1105 -0.2089
 3418SOL     OW21712   4.245   2.262   8.422  0.1130  0.2633 -0.2249
 3418SOL    HW121713   4.165   2.313   8.415  1.1864  2.1133  1.1775
 3418SOL    HW221714   4.205   2.175   8.424  0.8361 -0.0863 -0.8185
 3419SOL     OW21715   4.593   3.837   8.435  0.4518 -0.1031 -0.4933
 3419SOL    HW121716   4.662   3.775   8.457  1.0575  0.3181 -1.1837
 3419SOL    HW221717   4.578   3.819   8.342 -0.5390  0.7561 -0.4960
 3420SOL     OW21718   4.394   1.840   7.748 -0.1995  0.2160  0.3931
 3420SOL    HW121719   4.425   1.868   7.662  0.6485  0.4193  0.7646
 3420SOL    HW221720   4.362   1.925   7.778 -0.1647 -0.3160  1.9366
 3421SOL     OW21721   4.277   1.684   3.748 -0.4372  0.2542 -0.0589
 3421SOL    HW121722   4.213   1.705   3.680 -0.4163 -1.1789 -0.5270
 3421SOL    HW221723   4.337   1.758   3.744  1.2172 -0.9495  2.7068
 3422SOL     OW21724   0.632   2.783   5.567 -0.1674  0.3696 -0.4969
 3422SOL    HW121725   0.636   2.690   5.542 -1.6289 -0.1167  1.0923
 3422SOL    HW221726   0.551   2.802   5.521 -1.4325 -1.2096  1.0497
 3423SOL     OW21727   1.720   1.550  13.811 -0.1900  1.1169  0.2223
 3423SOL    HW121728   1.762   1.630  13.779  1.5245 -0.0308 -0.4233
 3423SOL    HW221729   1.657   1.535  13.741  1.4322 -0.2222 -0.9370
 3424SOL     OW21730   1.004   2.613   2.495  0.4802  0.5497  0.2596
 3424SOL    HW121731   0.918   2.655   2.490 -0.5576 -1.5584  0.1538
 3424SOL    HW221732   0.988   2.566   2.576  2.4959 -0.1994  0.2089
 3425SOL     OW21733   0.251   0.406   8.408 -0.2430  0.2903 -0.2472
 3425SOL    HW121734   0.287   0.343   8.345  1.4654  1.8812 -0.8515
 3425SOL    HW221735   0.189   0.461   8.359 -1.6090 -2.5980 -1.8153
 3426SOL     OW21736   1.186   0.866   2.405  0.4137 -0.1610  0.1427
 3426SOL    HW121737   1.117   0.804   2.383 -0.0188 -0.0552  1.2378
 3426SOL    HW221738   1.261   0.809   2.387  2.1024  2.3726 -0.9290
 3427SOL     OW21739   3.417   4.271  15.525  0.3120  0.0416  0.7500
 3427SOL    HW121740   3.366   4.330  15.469  0.5347  0.1248  0.6329
 3427SOL    HW221741   3.481   4.246  15.458 -0.0051  2.9270 -0.6471
 3428SOL     OW21742   2.496   3.246  16.755 -0.1606  0.0965 -0.4909
 3428SOL    HW121743   2.565   3.286  16.808 -0.1420 -1.0945  0.3842
 3428SOL    HW221744   2.532   3.159  16.735  0.4509  0.2804 -0.1778
 3429SOL     OW21745   0.768   0.731   3.885 -0.2343 -0.9613 -0.2960
 3429SOL    HW121746   0.699   0.770   3.831  1.7948  2.4352 -0.3560
 3429SOL    HW221747   0.839   0.788   3.858  0.3934 -1.1588  0.9372
 3430SOL     OW21748   1.262   3.831   8.045 -0.2071 -0.2902  0.7648
 3430SOL    HW121749   1.343   3.877   8.066  0.3539 -0.8007 -0.2438
 3430SOL    HW221750   1.228   3.871   7.965  1.8770 -1.2193 -0.5909
 3431SOL     OW21751   3.689   0.202   8.816 -0.5343 -0.2054 -0.2590
 3431SOL    HW121752   3.618   0.260   8.844 -0.9915  0.1259 -2.0934
 3431SOL    HW221753   3.732   0.175   8.897 -0.6923 -1.5531 -0.6269
 3432SOL     OW21754   2.661   3.236   2.388  0.3140 -0.1851 -0.1433
 3432SOL    HW121755   2.755   3.237   2.406  0.4144  1.8749 -0.7886
 3432SOL    HW221756   2.635   3.147   2.412 -1.1729  0.6197  1.2433
 3433SOL     OW21757   2.928   0.543  11.578  0.1528  0.4638  0.2380
 3433SOL    HW121758   3.022   0.527  11.571 -0.2219 -1.4948 -0.4716
 3433SOL    HW221759   2.890   0.455  11.577  1.7774 -0.2378 -1.3598
 3434SOL     OW21760   3.660   2.209   6.107  0.4362 -0.1341  0.4434
 3434SOL    HW121761   3.740   2.175   6.149  1.3229  1.1708 -0.1950
 3434SOL    HW221762   3.594   2.142   6.124  0.3305 -0.5974 -1.8064
 3435SOL     OW21763   3.385   3.330  11.948  0.2728 -0.2095  0.1387
 3435SOL    HW121764   3.400   3.262  12.013 -1.1776 -0.5224  0.1321
 3435SOL    HW221765   3.432   3.287  11.876  0.9422  0.9197 -0.1038
 3436SOL     OW21766   2.000   1.736  12.742  0.1726 -0.0262  0.2120
 3436SOL    HW121767   1.965   1.822  12.765  0.6821  0.2800 -0.1591
 3436SOL    HW221768   2.093   1.750  12.723  0.1972  0.4431  0.6702
 3437SOL     OW21769   1.608   2.003   0.383 -0.0727 -0.2765  0.8150
 3437SOL    HW121770   1.668   2.003   0.458 -0.9486  1.3318  1.5121
 3437SOL    HW221771   1.530   1.966   0.425  0.5652 -1.2479  1.1575
 3438SOL     OW21772   0.088   2.153   0.353  0.6130  0.5603  0.0193
 3438SOL    HW121773   0.077   2.068   0.312  0.8109  0.3010  0.5064
 3438SOL    HW221774   0.182   2.171   0.351  0.6818  0.1480 -0.4768
 3439SOL     OW21775   3.607   1.811   7.515 -0.3829 -0.0057  0.1810
 3439SOL    HW121776   3.520   1.775   7.532  0.1619 -1.5290 -0.3382
 3439SOL    HW221777   3.605   1.904   7.540 -0.3937 -0.4690  1.9081
 3440SOL     OW21778   2.163   2.277   8.317 -0.0753  0.4637  0.3973
 3440SOL    HW121779   2.239   2.259   8.371 -0.0172  1.2657  0.5808
 3440SOL    HW221780   2.187   2.262   8.225  1.5530 -1.7822  1.2114
 3441SOL     OW21781   0.130   4.695   7.519  0.1630  0.2024  0.3200
 3441SOL    HW121782   0.214   4.695   7.564  0.6617  0.8277 -0.5926
 3441SOL    HW221783   0.069   4.703   7.592  1.3816  0.5464  1.2963
 3442SOL     OW21784   0.416   3.317   0.261  0.1462  0.2342 -0.1270
 3442SOL    HW121785   0.498   3.352   0.296  0.5976 -0.0309 -0.9057
 3442SOL    HW221786   0.355   3.389   0.248  0.0543  0.2453  0.3547
 3443SOL     OW21787   3.617   3.053  10.352 -0.1776  0.6154 -0.5048
 3443SOL    HW121788   3.598   3.084  10.441  4.2484  1.6076  0.0957
 3443SOL    HW221789   3.688   3.110  10.323  0.3939 -0.6691 -1.5979
 3444SOL     OW21790   1.177   3.878  15.839 -0.4114 -0.4409  0.0464
 3444SOL    HW121791   1.090   3.865  15.875 -0.0294  0.1807  1.1823
 3444SOL    HW221792   1.172   3.944  15.769 -1.1396  0.0815  0.6022
 3445SOL     OW21793   2.658   2.416  10.082 -0.4930  0.2233  0.3793
 3445SOL    HW121794   2.605   2.436  10.159 -0.1171  0.8873  0.4560
 3445SOL    HW221795   2.690   2.503  10.059 -0.1584 -0.0477 -0.1632
 3446SOL     OW21796   0.419   2.052  13.609 -0.4666 -0.0534 -0.6235
 3446SOL    HW121797   0.335   2.044  13.564 -1.1392  0.8621  0.4512
 3446SOL    HW221798   0.408   2.123  13.673  0.7182 -1.1180  0.7437
 3447SOL     OW21799   0.791   4.135   9.661  0.0124  0.2974 -0.0487
 3447SOL    HW121800   0.842   4.126   9.581  1.1044  0.4085  0.6425
 3447SOL    HW221801   0.783   4.046   9.694 -1.6835  1.1596  1.8587
 3448SOL     OW21802   3.566   1.077  16.966  0.4493 -0.5777 -0.0378
 3448SOL    HW121803   3.608   1.016  16.905  0.2249  0.8756 -1.6534
 3448SOL    HW221804   3.490   1.027  16.998 -0.7332  2.7462  2.3729
 3449SOL     OW21805   1.247   3.317   7.281 -0.2796 -0.5361  0.4792
 3449SOL    HW121806   1.168   3.370   7.286  0.0138 -0.1124  0.5937
 3449SOL    HW221807   1.293   3.358   7.354 -0.2126  0.8814 -0.3703
 3450SOL     OW21808   3.962   0.398   1.832 -0.4187  0.3789  0.5003
 3450SOL    HW121809   4.023   0.470   1.819 -0.6060  0.9790  2.8186
 3450SOL    HW221810   3.889   0.429   1.779 -0.7632  1.9792  1.8703
 3451SOL     OW21811   2.037   2.814   3.482 -0.7582 -0.3322 -0.2871
 3451SOL    HW121812   2.126   2.790   3.459  0.3834  3.7445 -0.1950
 3451SOL    HW221813   2.033   2.771   3.567 -1.0961  1.9709  0.8681
 3452SOL     OW21814   1.845   4.542   0.130  0.0561  0.2914  1.0305
 3452SOL    HW121815   1.765   4.516   0.083  0.0578 -0.4382  1.4233
 3452SOL    HW221816   1.901   4.464   0.138 -1.0026 -0.5065  0.7232
 3453SOL     OW21817   0.370   1.954   0.506 -0.3449  0.4706  0.3370
 3453SOL    HW121818   0.393   1.883   0.566  0.2734 -0.7023 -1.2906
 3453SOL    HW221819   0.370   1.898   0.428 -0.9865  0.1922  0.5348
 3454SOL     OW21820   0.614   4.600   3.374 -0.8775  0.4512  0.3168
 3454SOL    HW121821   0.644   4.565   3.290  0.7016  0.9907  0.6511
 3454SOL    HW221822   0.593   4.691   3.353 -1.3969  1.1487  3.8374
 3455SOL     OW21823   0.539   2.451   2.485 -0.1514 -0.4505  0.3596
 3455SOL    HW121824   0.572   2.455   2.575 -1.7933 -0.7779  0.9764
 3455SOL    HW221825   0.523   2.357   2.478  1.1708 -0.7118  0.7157
 3456SOL     OW21826   1.780   0.297   6.251 -0.3105 -0.5611 -0.4850
 3456SOL    HW121827   1.722   0.345   6.310  0.8171 -0.7395  0.7745
 3456SOL    HW221828   1.858   0.349   6.271  0.2651 -1.2342 -0.9678
 3457SOL     OW21829   0.774   3.298   9.890  0.0467  0.1047 -0.8909
 3457SOL    HW121830   0.707   3.251   9.841 -1.4937  0.5029  0.7999
 3457SOL    HW221831   0.818   3.222   9.929  2.1512  1.4004 -0.7459
 3458SOL     OW21832   1.214   2.441  13.938  0.1041 -0.0574 -0.6073
 3458SOL    HW121833   1.298   2.453  13.894  0.5536  0.7794  0.4775
 3458SOL    HW221834   1.229   2.362  13.990  0.0805  0.6403  0.4534
 3459SOL     OW21835   1.939   3.305   7.030  0.4730  0.0542 -0.5369
 3459SOL    HW121836   1.984   3.290   7.113 -0.2392 -0.8575 -0.3208
 3459SOL    HW221837   1.849   3.306   7.061  0.6885 -1.6532  0.1320
 3460SOL     OW21838   2.003   1.125   7.110 -0.3781  0.6080  0.4579
 3460SOL    HW121839   1.988   1.204   7.058  1.1972 -0.0002 -0.9227
 3460SOL    HW221840   2.084   1.094   7.069  0.2163  3.4419 -0.4656
 3461SOL     OW21841   2.716   4.102  16.609 -0.0690 -0.2835  0.1654
 3461SOL    HW121842   2.686   4.074  16.696 -0.8113 -0.6107 -0.1938
 3461SOL    HW221843   2.751   4.018  16.582  0.4588 -0.3852  1.1871
 3462SOL     OW21844   1.594   3.260  11.242  0.0276  0.0711 -0.5607
 3462SOL    HW121845   1.578   3.242  11.335  2.3117 -0.1757 -0.2123
 3462SOL    HW221846   1.659   3.327  11.263 -0.5531  0.3272  0.4032
 3463SOL     OW21847   0.176   1.009   8.835 -0.0189 -0.4297  0.2335
 3463SOL    HW121848   0.149   0.996   8.744  0.4788 -0.8580  0.1419
 3463SOL    HW221849   0.249   0.947   8.844 -0.4460 -1.1426 -1.2792
 3464SOL     OW21850   1.930   2.441  15.678 -0.0559 -0.6130 -0.1097
 3464SOL    HW121851   1.835   2.441  15.691 -0.1931 -1.9796 -1.0462
 3464SOL    HW221852   1.926   2.447  15.582  1.3711 -0.2999 -0.1465
 3465SOL     OW21853   3.415   1.758   4.994 -0.3523  0.0798 -0.0219
 3465SOL    HW121854   3.378   1.676   5.028 -0.0693 -0.3914 -0.8384
 3465SOL    HW221855   3.399   1.812   5.071 -0.7289  1.1808 -0.8678
 3466SOL     OW21856   3.405   4.516   5.715 -0.4456  0.6752 -0.2746
 3466SOL    HW121857   3.453   4.541   5.637 -1.2923  2.7630 -0.1183
 3466SOL    HW221858   3.419   4.591   5.773 -2.4513  0.6898  0.2059
 3467SOL     OW21859   3.557   1.376   7.076  0.4612  0.0533 -0.1866
 3467SOL    HW121860   3.520   1.321   7.144  2.2323 -0.0822  0.6596
 3467SOL    HW221861   3.500   1.452   7.081  0.2445 -0.2552  1.9248
 3468SOL     OW21862   2.420   0.758   4.693 -0.5993 -0.1377  0.1367
 3468SOL    HW121863   2.514   0.748   4.708 -0.4931 -1.1531 -1.2862
 3468SOL    HW221864   2.381   0.732   4.777 -1.1307  0.6162  0.1259
 3469SOL     OW21865   0.349   3.943  14.667 -0.3971  0.1833  0.6482
 3469SOL    HW121866   0.304   3.981  14.591 -3.0408 -3.4072  0.4020
 3469SOL    HW221867   0.329   3.850  14.681 -0.6534 -0.0286 -1.1074
 3470SOL     OW21868   2.219   1.576   3.669 -0.3480 -0.0803  0.3176
 3470SOL    HW121869   2.211   1.644   3.602 -2.3831 -0.6729 -0.0440
 3470SOL    HW221870   2.146   1.601   3.726 -2.9026 -2.3742 -1.9318
 3471SOL     OW21871   3.823   4.196   3.970  0.5017  0.2770 -0.1100
 3471SOL    HW121872   3.911   4.232   3.980  0.0497  1.2115  0.5450
 3471SOL    HW221873   3.823   4.135   4.043 -0.3130 -1.6649 -1.7365
 3472SOL     OW21874   1.179   1.203   0.768 -0.5892  0.8492 -0.1823
 3472SOL    HW121875   1.114   1.138   0.741 -0.7193  0.7370  0.4091
 3472SOL    HW221876   1.144   1.227   0.854 -0.6555  2.1810 -0.5874
 3473SOL     OW21877   3.320   3.280   1.488  0.0830 -0.4682  0.0566
 3473SOL    HW121878   3.367   3.313   1.412 -0.4530 -1.5181 -0.7335
 3473SOL    HW221879   3.311   3.360   1.539  1.0694 -0.5301  0.3319
 3474SOL     OW21880   2.642   2.608  13.626 -0.4087  0.2158  0.5768
 3474SOL    HW121881   2.619   2.658  13.547  0.5691  1.0668  0.8381
 3474SOL    HW221882   2.596   2.660  13.692 -0.6215 -0.0424  0.6344
 3475SOL     OW21883   2.836   0.082   1.913 -0.3475 -0.6630  0.1949
 3475SOL    HW121884   2.768   0.021   1.885 -0.9897  0.2584 -0.2408
 3475SOL    HW221885   2.904   0.029   1.955 -0.6783  0.2517  1.8972
 3476SOL     OW21886   0.628   2.987  14.558  0.4358 -0.1868  0.1883
 3476SOL    HW121887   0.580   2.907  14.578  2.3965 -0.9650  1.7683
 3476SOL    HW221888   0.666   2.952  14.477 -1.1505 -0.4964 -0.4171
 3477SOL     OW21889   3.130   1.463  10.968 -0.0624  0.3633 -0.6848
 3477SOL    HW121890   3.045   1.467  11.012 -0.4158 -2.7611 -1.1358
 3477SOL    HW221891   3.199   1.484  11.031  1.2516  0.0779 -2.0556
 3478SOL     OW21892   3.863   3.088   7.277 -0.3375 -0.2602  0.1101
 3478SOL    HW121893   3.868   3.013   7.218 -1.3265 -0.1765 -0.0968
 3478SOL    HW221894   3.891   3.049   7.359  2.0442 -0.6560 -0.9069
 3479SOL     OW21895   1.910   4.161   3.834 -0.1852  0.1101 -0.6076
 3479SOL    HW121896   1.949   4.093   3.888  1.1483  0.4216 -1.1814
 3479SOL    HW221897   1.920   4.129   3.744  1.7872  1.2490 -0.8030
 3480SOL     OW21898   1.567   0.359   5.581 -0.5428 -0.8888 -0.0888
 3480SOL    HW121899   1.549   0.425   5.515 -1.2763  0.8797  1.8635
 3480SOL    HW221900   1.519   0.387   5.659 -0.0877  0.6199 -0.3483
 3481SOL     OW21901   3.182   3.533   9.197 -0.1101  0.4844  0.8920
 3481SOL    HW121902   3.250   3.554   9.261  0.9394 -0.0869 -0.0419
 3481SOL    HW221903   3.182   3.438   9.206 -0.6783  0.4479  0.5308
 3482SOL     OW21904   0.351   3.407   5.542  0.0952  0.4284 -0.0194
 3482SOL    HW121905   0.327   3.494   5.510 -0.5445  0.0501 -0.5478
 3482SOL    HW221906   0.412   3.429   5.613  0.6149 -0.5914 -0.1479
 3483SOL     OW21907   2.758   1.533   4.378 -0.1397 -0.2568 -0.1741
 3483SOL    HW121908   2.847   1.558   4.354 -0.2751  1.0807  0.7322
 3483SOL    HW221909   2.722   1.592   4.445  0.8452 -0.4708  0.5413
 3484SOL     OW21910   3.194   0.377  12.796 -0.3448 -0.1220  0.3763
 3484SOL    HW121911   3.234   0.293  12.818 -0.2394 -0.0474  0.4673
 3484SOL    HW221912   3.245   0.404  12.719 -1.0563  1.8531  0.6008
 3485SOL     OW21913   3.938   1.755  11.603  0.1136 -0.1266  0.0653
 3485SOL    HW121914   3.891   1.816  11.658  2.4563  0.7562  1.0852
 3485SOL    HW221915   4.012   1.738  11.660  0.2961  1.9667  0.4424
 3486SOL     OW21916   1.960   2.804   6.843  0.1515 -0.1965  0.2617
 3486SOL    HW121917   1.925   2.886   6.807  0.0780 -0.3029  0.0907
 3486SOL    HW221918   2.047   2.809   6.805 -0.2625 -0.3418 -0.6968
 3487SOL     OW21919   4.672   2.154  11.650  0.0571  0.0524 -0.6831
 3487SOL    HW121920   4.673   2.130  11.742 -1.4479  1.0822 -0.4141
 3487SOL    HW221921   4.616   2.088  11.608  0.9003 -0.6906 -0.6506
 3488SOL     OW21922   1.936   4.000  12.848  0.3174  0.4152  0.3903
 3488SOL    HW121923   1.908   3.987  12.939  0.4927  0.5428  0.4625
 3488SOL    HW221924   2.028   3.972  12.850  0.8648  2.1100 -0.9220
 3489SOL     OW21925   1.278   3.220  16.390 -0.1847 -0.6124  0.7168
 3489SOL    HW121926   1.349   3.258  16.443  0.3301  0.2379 -0.5776
 3489SOL    HW221927   1.204   3.259  16.436  2.0739  0.6826  3.2988
 3490SOL     OW21928   4.321   1.864   8.107  0.2015  0.3264 -0.4097
 3490SOL    HW121929   4.276   1.940   8.069 -3.2216 -1.0249  0.8561
 3490SOL    HW221930   4.414   1.882   8.093  0.0394  0.7280 -0.9902
 3491SOL     OW21931   1.493   2.897  16.449  0.1093 -0.0386  0.1917
 3491SOL    HW121932   1.517   2.941  16.367 -0.1393 -0.8253 -0.3107
 3491SOL    HW221933   1.401   2.875  16.439  0.3221 -1.4081  1.2675
 3492SOL     OW21934   4.251   0.013  11.065  0.6892  0.0278 -0.5058
 3492SOL    HW121935   4.285   0.059  11.142 -0.1682 -0.3500  0.0892
 3492SOL    HW221936   4.325   0.039  11.010  2.1734  0.8185  1.8601
 3493SOL     OW21937   0.531   2.986  13.678 -0.1957 -0.2206  0.3209
 3493SOL    HW121938   0.614   2.998  13.726 -0.8197  0.2269  1.2863
 3493SOL    HW221939   0.551   3.006  13.586  0.1518 -1.4962  0.1223
 3494SOL     OW21940   1.232   2.267   9.512  0.1205  0.2107  0.5553
 3494SOL    HW121941   1.224   2.253   9.607 -1.3183  0.1995  0.4389
 3494SOL    HW221942   1.325   2.270   9.493 -0.0639  2.7926  0.0861
 3495SOL     OW21943   3.164   2.218   8.467 -0.1283  0.7527  0.2679
 3495SOL    HW121944   3.170   2.166   8.387  0.1931 -1.4017  1.6894
 3495SOL    HW221945   3.254   2.238   8.491  0.0165 -0.7403  0.9729
 3496SOL     OW21946   3.789   0.684   1.460 -0.1355  0.1504 -0.6371
 3496SOL    HW121947   3.845   0.757   1.483 -1.7801 -0.0420  4.0630
 3496SOL    HW221948   3.824   0.660   1.374  1.3177  0.5964 -0.1652
 3497SOL     OW21949   2.530   4.469   5.114  0.5896 -0.0776  0.0064
 3497SOL    HW121950   2.459   4.510   5.066  1.6617 -0.0001 -1.5164
 3497SOL    HW221951   2.600   4.485   5.051  0.7192 -0.1715  0.1270
 3498SOL     OW21952   4.306   4.724   3.034 -0.3017 -0.3461  0.0269
 3498SOL    HW121953   4.278   0.019   3.123  1.5197 -1.3602  0.8435
 3498SOL    HW221954   4.361   0.074   3.013 -2.6178  1.3987  0.3349
 3499SOL     OW21955   0.281   2.863   2.862 -0.7175  0.6399 -0.2663
 3499SOL    HW121956   0.303   2.817   2.943 -0.3185  0.3615 -0.5327
 3499SOL    HW221957   0.296   2.954   2.887  1.3241  0.1035  0.4674
 3500SOL     OW21958   3.875   0.980   0.127  0.5424 -0.2460 -0.2253
 3500SOL    HW121959   3.936   0.916   0.090  1.8068  0.2130  1.0938
 3500SOL    HW221960   3.879   0.970   0.222  0.1203 -1.0260 -0.2823
 3501SOL     OW21961   1.492   3.312  14.627 -0.1981  0.3899  0.2175
 3501SOL    HW121962   1.431   3.312  14.701 -0.7212 -2.1331 -0.2173
 3501SOL    HW221963   1.459   3.241  14.572  1.1931 -1.1708  1.4300
 3502SOL     OW21964   2.105   0.329   2.858  0.3416 -0.6364 -0.1215
 3502SOL    HW121965   2.023   0.373   2.883  0.4765 -0.3804 -0.1270
 3502SOL    HW221966   2.121   0.370   2.773 -0.2708  2.3096  1.1653
 3503SOL     OW21967   2.154   2.741   3.891 -0.2314  0.6412 -0.1362
 3503SOL    HW121968   2.217   2.687   3.939 -1.2842  1.2198  1.8974
 3503SOL    HW221969   2.209   2.767   3.817  1.4877  0.1079  0.9371
 3504SOL     OW21970   0.594   2.453   3.448  0.3773 -0.3066  0.6435
 3504SOL    HW121971   0.535   2.421   3.381  0.4702  1.5278 -0.3104
 3504SOL    HW221972   0.673   2.436   3.396 -1.2551 -2.5670 -1.0885
 3505SOL     OW21973   0.526   0.800   6.062  0.2583 -0.6805  0.4788
 3505SOL    HW121974   0.497   0.837   6.146 -0.4596 -0.3882  0.1038
 3505SOL    HW221975   0.614   0.839   6.055  0.1040 -0.4964 -0.5069
 3506SOL     OW21976   1.681   2.169  14.698  0.0023  0.3143  0.1360
 3506SOL    HW121977   1.653   2.081  14.673  0.4300 -0.2245  1.5896
 3506SOL    HW221978   1.758   2.167  14.640  1.4612 -3.7320  2.1419
 3507SOL     OW21979   1.279   2.093   6.340 -0.5931  0.2942 -0.6776
 3507SOL    HW121980   1.306   2.002   6.325  2.4249  0.7896  1.8161
 3507SOL    HW221981   1.269   2.089   6.435 -0.9330 -0.6327 -0.7518
 3508SOL     OW21982   3.606   0.706   8.732  0.4048 -0.2942  0.0548
 3508SOL    HW121983   3.658   0.632   8.701  0.2264 -1.0163  1.4910
 3508SOL    HW221984   3.547   0.705   8.657 -0.4078  0.0512  0.6804
 3509SOL     OW21985   4.342   0.094   4.766  0.6466  0.0145  0.5253
 3509SOL    HW121986   4.385   0.177   4.746 -0.3869  0.7871  1.5022
 3509SOL    HW221987   4.398   0.034   4.716  0.4170  1.4897 -1.5042
 3510SOL     OW21988   0.583   4.045   5.735  0.2122  0.0533 -0.3926
 3510SOL    HW121989   0.651   4.041   5.668 -0.3932  0.2329 -1.0100
 3510SOL    HW221990   0.634   4.016   5.811 -0.1300  3.2820  1.0999
 3511SOL     OW21991   0.306   3.278   4.896 -0.2815 -0.4121  0.4723
 3511SOL    HW121992   0.320   3.224   4.974 -0.5241  0.2894  1.0042
 3511SOL    HW221993   0.350   3.232   4.824 -0.8979 -0.1445 -0.0755
 3512SOL     OW21994   1.726   1.188  11.098 -0.3905 -0.0886 -0.7004
 3512SOL    HW121995   1.727   1.262  11.159 -1.1498 -0.4607 -0.2363
 3512SOL    HW221996   1.666   1.201  11.025  0.1478  1.8857 -0.7944
 3513SOL     OW21997   3.034   0.728   7.655 -0.2378 -0.1111 -0.0967
 3513SOL    HW121998   3.081   0.653   7.692 -0.9463  0.1959  1.4031
 3513SOL    HW221999   2.955   0.724   7.709 -0.5102  0.2839 -0.4725
 3514SOL     OW22000   0.702   4.723   7.056 -0.2027 -0.2522 -0.3773
 3514SOL    HW122001   0.761   0.039   6.994 -0.0437  0.4551  0.2510
 3514SOL    HW222002   0.715   0.047   7.136 -2.2178 -0.6469  0.1956
 3515SOL     OW22003   2.373   3.672   3.905  0.1112 -0.3006 -0.1612
 3515SOL    HW122004   2.373   3.762   3.870 -0.4861 -0.1949  0.1145
 3515SOL    HW222005   2.379   3.691   3.998  2.0033  0.1397 -0.3676
 3516SOL     OW22006   0.752   0.786   3.219 -0.3538 -0.3146  0.7028
 3516SOL    HW122007   0.755   0.707   3.165  0.4124  1.7065 -2.2119
 3516SOL    HW222008   0.695   0.845   3.170  0.5826  0.7500  0.8749
 3517SOL     OW22009   3.582   2.070   3.956 -0.0858 -0.2591 -0.0508
 3517SOL    HW122010   3.673   2.048   3.935  1.0189  2.9502  1.4002
 3517SOL    HW222011   3.593   2.155   3.998  0.6792 -1.1298  1.5388
 3518SOL     OW22012   1.370   1.313   7.135  0.2797 -0.1433  0.2898
 3518SOL    HW122013   1.405   1.387   7.185 -0.5587  0.0405  0.6117
 3518SOL    HW222014   1.393   1.357   7.053 -0.7717  0.4482  0.3099
 3519SOL     OW22015   3.598   4.516   5.241 -0.2558 -0.0402  0.5573
 3519SOL    HW122016   3.598   4.455   5.168 -3.3049  2.3257 -1.4005
 3519SOL    HW222017   3.676   4.566   5.216 -1.4472  0.9839 -1.0461
 3520SOL     OW22018   3.912   3.628  16.939 -0.4039 -0.5818  0.5241
 3520SOL    HW122019   3.826   3.644  16.903  1.5043  0.8885 -3.3409
 3520SOL    HW222020   3.901   3.681  17.018 -1.0983 -0.2190  0.1749
 3521SOL     OW22021   0.701   2.248   4.007  0.2070 -0.8250  0.1875
 3521SOL    HW122022   0.773   2.311   4.016 -0.8943  0.4690  0.0026
 3521SOL    HW222023   0.624   2.306   4.005 -0.1495 -1.2796  0.8245
 3522SOL     OW22024   4.047   0.870  11.525 -0.2005  0.1527  0.2071
 3522SOL    HW122025   4.122   0.929  11.513 -0.8455  1.0081  0.3652
 3522SOL    HW222026   4.010   0.880  11.612  1.2121 -0.0916  0.8258
 3523SOL     OW22027   4.086   1.345   8.724  0.6337 -0.3878  0.4738
 3523SOL    HW122028   4.154   1.336   8.790  0.2127 -2.2899  0.6539
 3523SOL    HW222029   4.006   1.378   8.766 -0.0322 -0.7688 -0.4869
 3524SOL     OW22030   3.070   4.367   5.860  0.1939 -0.4071 -1.2944
 3524SOL    HW122031   3.052   4.316   5.939  0.6101  0.1960 -0.8108
 3524SOL    HW222032   2.998   4.351   5.799 -2.4247  0.8555  1.4250
 3525SOL     OW22033   3.963   2.798  15.550  0.2837  0.0835 -0.5082
 3525SOL    HW122034   3.950   2.847  15.469 -0.3921  0.0560 -0.4125
 3525SOL    HW222035   3.872   2.805  15.577  0.7665 -1.8463  1.5836
 3526SOL     OW22036   2.562   2.902   7.301 -0.4584  0.0331 -0.6651
 3526SOL    HW122037   2.526   2.841   7.236  0.1945 -0.7068 -0.3277
 3526SOL    HW222038   2.490   2.965   7.307 -0.9518 -0.5645 -0.3519
 3527SOL     OW22039   2.654   4.157   2.744 -0.5541 -0.2490 -0.3822
 3527SOL    HW122040   2.615   4.240   2.715 -1.1042 -0.2051  0.4672
 3527SOL    HW222041   2.740   4.168   2.705 -1.7492 -1.9670 -3.4670
 3528SOL     OW22042   2.620   4.509  13.716 -0.2740 -0.3132  0.6376
 3528SOL    HW122043   2.596   4.528  13.807  1.1618 -0.2186  0.9904
 3528SOL    HW222044   2.557   4.568  13.674 -0.1172  0.0402  0.9012
 3529SOL     OW22045   3.765   0.047   9.032  0.1395 -0.8291 -0.3631
 3529SOL    HW122046   3.673   0.022   9.049  0.3771 -1.7626 -0.4361
 3529SOL    HW222047   3.786   0.073   9.122 -2.3627 -1.0797  0.3144
 3530SOL     OW22048   0.454   3.477   3.299  0.4946 -0.0067 -0.4461
 3530SOL    HW122049   0.388   3.454   3.234  0.3518  1.8298 -0.9493
 3530SOL    HW222050   0.441   3.571   3.312  0.4551  0.0169 -0.6670
 3531SOL     OW22051   4.208   1.009   4.546  0.4689 -0.0994  0.6434
 3531SOL    HW122052   4.213   0.917   4.521 -1.4059  0.4273 -1.6968
 3531SOL    HW222053   4.113   1.019   4.554  0.4252 -1.1173  1.3837
 3532SOL     OW22054   2.444   2.525  17.020  0.1582 -0.2625 -0.7625
 3532SOL    HW122055   2.537   2.505  17.009  0.3648 -0.4020  1.2634
 3532SOL    HW222056   2.408   2.436  17.025 -0.3029 -0.0667 -0.5940
 3533SOL     OW22057   2.906   0.590  15.837  0.0700 -0.4951 -0.3063
 3533SOL    HW122058   2.957   0.518  15.874  0.5035 -1.3927 -2.6374
 3533SOL    HW222059   2.951   0.660  15.884 -1.1380 -0.2193  0.4321
 3534SOL     OW22060   3.820   4.331   8.032 -0.2999  0.4278  0.3429
 3534SOL    HW122061   3.843   4.358   8.121  3.0896  1.5120 -0.8397
 3534SOL    HW222062   3.906   4.306   7.997 -0.9162 -1.2200  0.0140
 3535SOL     OW22063   3.086   3.017   3.441 -0.2026  0.5488 -0.4867
 3535SOL    HW122064   3.001   3.038   3.402 -0.7648 -0.7524  0.0114
 3535SOL    HW222065   3.125   2.956   3.379  0.6954  0.7066 -0.0740
 3536SOL     OW22066   2.861   4.137   4.856  0.0429  0.1951 -0.4805
 3536SOL    HW122067   2.851   4.089   4.773 -0.3976 -1.1152  0.3358
 3536SOL    HW222068   2.855   4.229   4.828 -1.6701  0.0977 -0.4527
 3537SOL     OW22069   2.046   2.376   3.106 -0.4375 -0.4690 -0.3287
 3537SOL    HW122070   2.133   2.415   3.113 -2.2253  3.4335  0.1985
 3537SOL    HW222071   1.996   2.427   3.170 -1.8198 -1.8872 -0.2790
 3538SOL     OW22072   2.160   2.257  11.477  0.0621 -0.0250 -0.1281
 3538SOL    HW122073   2.230   2.296  11.425  0.0284  0.7516  0.4160
 3538SOL    HW222074   2.132   2.189  11.416 -1.6562  0.3953  0.1806
 3539SOL     OW22075   3.634   3.854   2.457  0.4474  0.1801  0.1300
 3539SOL    HW122076   3.701   3.890   2.399  0.0220 -2.6589 -2.1114
 3539SOL    HW222077   3.688   3.787   2.498 -0.7527 -0.6965  0.2783
 3540SOL     OW22078   1.266   2.299   2.856  0.1637 -0.3593  0.0002
 3540SOL    HW122079   1.285   2.392   2.844 -0.0203 -0.1168  1.5051
 3540SOL    HW222080   1.188   2.280   2.803 -0.4001 -2.7939  1.6501
 3541SOL     OW22081   3.730   0.913  16.805  0.4125 -0.8109 -0.3914
 3541SOL    HW122082   3.809   0.874  16.842  1.5318  1.3013 -0.5506
 3541SOL    HW222083   3.743   0.883  16.715  0.7327  0.4167 -0.7529
 3542SOL     OW22084   0.749   0.135   3.214 -0.2582 -0.1056 -0.6967
 3542SOL    HW122085   0.812   0.203   3.240 -0.6726 -0.4214  1.1301
 3542SOL    HW222086   0.756   0.158   3.121 -0.1221  1.0614 -0.3964
 3543SOL     OW22087   3.969   2.382   2.867 -0.1004  0.1062 -0.0777
 3543SOL    HW122088   4.061   2.390   2.840  0.3871  1.2516  1.8172
 3543SOL    HW222089   3.923   2.419   2.792 -1.4129  0.1310  0.7317
 3544SOL     OW22090   1.103   2.326   3.300  0.5263  0.0717 -0.0478
 3544SOL    HW122091   1.183   2.312   3.249  0.5358 -0.2805  0.0689
 3544SOL    HW222092   1.085   2.238   3.332  0.1702 -0.1968 -0.9895
 3545SOL     OW22093   2.354   1.887   2.602 -0.0746 -0.1317 -0.4691
 3545SOL    HW122094   2.375   1.872   2.695  1.6341  3.2245 -0.2862
 3545SOL    HW222095   2.348   1.797   2.569  1.7540 -0.7060  0.7728
 3546SOL     OW22096   3.227   0.153   5.790  0.0035  0.8181  0.1736
 3546SOL    HW122097   3.221   0.060   5.811 -0.1432  0.6350 -0.7079
 3546SOL    HW222098   3.206   0.190   5.876  0.1191 -1.6232  1.2427
 3547SOL     OW22099   2.372   0.553   7.203  0.2211 -0.1932 -0.0754
 3547SOL    HW122100   2.314   0.589   7.269 -2.0232 -1.5618 -1.3050
 3547SOL    HW222101   2.442   0.526   7.263  0.3942  2.4727  0.9113
 3548SOL     OW22102   2.020   2.122   6.586 -0.1643 -0.3368  0.2181
 3548SOL    HW122103   2.039   2.149   6.676 -0.9180 -0.3026  0.3591
 3548SOL    HW222104   1.994   2.206   6.547  1.0532 -0.1961 -0.3281
 3549SOL     OW22105   0.617   0.241   4.610  0.4344  0.4048  0.0564
 3549SOL    HW122106   0.610   0.326   4.565 -0.6002  0.2536 -0.0610
 3549SOL    HW222107   0.536   0.200   4.580  0.2397  2.5925 -2.4478
 3550SOL     OW22108   4.013   1.635   6.387 -0.7238  0.1737 -0.1943
 3550SOL    HW122109   4.003   1.691   6.309 -0.6597  1.8459  0.9884
 3550SOL    HW222110   4.091   1.586   6.361 -0.8734 -1.6002  2.7802
 3551SOL     OW22111   4.279   2.569   1.933 -0.4686 -0.1505 -0.3726
 3551SOL    HW122112   4.229   2.635   1.981  1.0073 -0.5849  1.7611
 3551SOL    HW222113   4.223   2.492   1.934  0.0054 -0.4684  1.2249
 3552SOL     OW22114   1.711   1.298   6.946  0.2914  0.1147 -0.2292
 3552SOL    HW122115   1.631   1.350   6.943 -0.1331 -0.4807  1.0522
 3552SOL    HW222116   1.732   1.311   7.038 -1.3757  0.5724  0.0707
 3553SOL     OW22117   4.440   3.143  10.121  0.0256  0.4026 -0.3565
 3553SOL    HW122118   4.398   3.174  10.041 -1.4667  2.2575  1.1411
 3553SOL    HW222119   4.478   3.058  10.100 -0.1036  0.2511  0.0129
 3554SOL     OW22120   2.170   4.492   7.661  0.3448 -0.4558 -0.1229
 3554SOL    HW122121   2.207   4.413   7.701 -0.0718  0.3899  1.9446
 3554SOL    HW222122   2.239   4.556   7.650 -1.7540  2.4291  3.6417
 3555SOL     OW22123   3.402   4.299   1.891  0.4776 -0.2353 -0.4181
 3555SOL    HW122124   3.345   4.225   1.912 -0.2203 -0.3445 -2.6647
 3555SOL    HW222125   3.354   4.336   1.816 -1.1320 -0.4049  0.5233
 3556SOL     OW22126   3.532   3.839   7.074  0.0298 -0.3765  0.1847
 3556SOL    HW122127   3.497   3.908   7.017 -1.5798 -0.2141  1.3587
 3556SOL    HW222128   3.512   3.757   7.029 -2.3794 -0.5493  1.5655
 3557SOL     OW22129   4.726   1.986   6.756 -0.2267  0.5268 -0.5399
 3557SOL    HW122130   4.647   1.942   6.726  0.6609 -0.6222 -1.2105
 3557SOL    HW222131   4.704   2.025   6.841  0.0041 -2.3347  0.8532
 3558SOL     OW22132   0.802   1.652   6.145 -0.8352  0.1834 -0.4945
 3558SOL    HW122133   0.856   1.676   6.220 -1.1548 -1.5330  0.2957
 3558SOL    HW222134   0.829   1.723   6.087  2.1835  0.3770  1.1475
 3559SOL     OW22135   0.518   2.385   7.850  0.6739 -0.4099 -0.5690
 3559SOL    HW122136   0.454   2.349   7.788  0.4593  0.3544 -0.7858
 3559SOL    HW222137   0.511   2.479   7.837  0.0709 -0.3320  0.3326
 3560SOL     OW22138   0.186   3.392  10.990 -0.0891 -0.1828 -0.6397
 3560SOL    HW122139   0.140   3.314  11.022 -0.9262  0.3502 -0.5224
 3560SOL    HW222140   0.122   3.461  11.008 -0.1087 -0.4672  0.4125
 3561SOL     OW22141   1.296   2.467   7.104 -0.6210  1.0670 -0.0270
 3561SOL    HW122142   1.337   2.548   7.133 -1.2342  0.5628  2.2732
 3561SOL    HW222143   1.318   2.400   7.170 -0.5457  2.0703  0.9611
 3562SOL     OW22144   2.005   3.729  10.868 -0.0221 -0.7630 -0.0314
 3562SOL    HW122145   1.912   3.741  10.849  0.0419 -1.2121 -0.6393
 3562SOL    HW222146   2.011   3.717  10.962  3.0412 -0.7569 -0.2119
 3563SOL     OW22147   3.246   1.069   4.175 -0.1927 -0.6597 -0.1936
 3563SOL    HW122148   3.280   1.112   4.254  1.2759 -3.1708  0.5252
 3563SOL    HW222149   3.177   1.131   4.150 -0.7421 -0.0016  2.9469
 3564SOL     OW22150   1.641   4.278  11.136  0.7726 -0.1115  0.5628
 3564SOL    HW122151   1.638   4.193  11.180  0.1586 -0.0463  0.6454
 3564SOL    HW222152   1.559   4.318  11.165 -0.6069 -1.4963 -1.4547
 3565SOL     OW22153   1.858   1.710   6.504 -0.5788 -0.1516 -0.2258
 3565SOL    HW122154   1.854   1.647   6.432  0.6734  1.0713 -1.3629
 3565SOL    HW222155   1.892   1.791   6.465  0.2945 -1.1935 -1.6675
 3566SOL     OW22156   2.176   1.427  11.196  0.5273 -0.1615 -0.0152
 3566SOL    HW122157   2.254   1.424  11.252 -0.1682 -0.1299  0.9469
 3566SOL    HW222158   2.112   1.382  11.250  3.2895 -1.4074  2.2046
 3567SOL     OW22159   1.928   3.688  12.745 -0.1438 -0.4566  0.0840
 3567SOL    HW122160   1.949   3.764  12.799  0.4655  0.0078 -0.8248
 3567SOL    HW222161   1.915   3.615  12.806 -0.1183 -0.6003 -0.0830
 3568SOL     OW22162   4.149   1.280  17.377 -0.0422  0.1555  0.4029
 3568SOL    HW122163   4.166   1.230  17.298  0.0167 -1.6850  1.5687
 3568SOL    HW222164   4.219   1.344  17.366  0.4159 -0.4153 -0.0211
 3569SOL     OW22165   2.117   0.994  12.937 -0.2775 -0.3672 -0.0488
 3569SOL    HW122166   2.122   0.977  12.843  3.9986 -0.8230  0.2744
 3569SOL    HW222167   2.189   1.057  12.935 -2.2438  1.8792  0.1865
 3570SOL     OW22168   2.781   3.157   5.934 -0.5223 -0.4165  0.0145
 3570SOL    HW122169   2.761   3.064   5.925  0.4766 -0.7952  1.6772
 3570SOL    HW222170   2.855   3.159   5.873 -1.1193 -0.4112 -0.7148
 3571SOL     OW22171   0.669   1.119   3.878  0.6818 -0.1561 -0.5978
 3571SOL    HW122172   0.634   1.036   3.846 -2.4137  1.5024 -1.5366
 3571SOL    HW222173   0.631   1.179   3.813  0.5211 -1.4611 -1.7195
 3572SOL     OW22174   4.660   0.596  14.010 -0.0805 -0.0589 -0.3871
 3572SOL    HW122175   4.596   0.554  13.953  1.7364 -1.8299 -1.1257
 3572SOL    HW222176   0.016   0.596  13.962 -0.1765  1.4698 -0.5539
 3573SOL     OW22177   0.822   3.657   6.720 -0.7965 -0.3483  0.4072
 3573SOL    HW122178   0.900   3.605   6.738  0.3726  1.0505 -0.6020
 3573SOL    HW222179   0.827   3.699   6.807  0.1533  3.2485 -1.3787
 3574SOL     OW22180   2.098   3.364   8.702  1.0484  0.5447  0.0085
 3574SOL    HW122181   2.141   3.340   8.784  1.2813 -0.4531 -0.4146
 3574SOL    HW222182   2.008   3.377   8.732  0.6904 -1.1401 -0.3406
 3575SOL     OW22183   2.503   2.965   6.373 -0.3832  0.6625  0.0457
 3575SOL    HW122184   2.587   2.971   6.418 -1.0200 -3.0467  1.7454
 3575SOL    HW222185   2.546   2.965   6.288  0.5075  0.7718  0.4967
 3576SOL     OW22186   2.529   2.188   5.700  0.1062  0.2357 -0.6834
 3576SOL    HW122187   2.605   2.134   5.722  0.6056 -0.1467 -3.3399
 3576SOL    HW222188   2.543   2.225   5.612  2.6579 -1.6539 -1.0656
 3577SOL     OW22189   0.788   1.431  11.489  0.0235  0.4523  0.1034
 3577SOL    HW122190   0.858   1.397  11.434  1.2563  1.0352  1.3146
 3577SOL    HW222191   0.770   1.519  11.456  0.9948  0.3826 -0.5916
 3578SOL     OW22192   0.470   3.580  13.778 -0.1345 -0.1289  0.1234
 3578SOL    HW122193   0.407   3.525  13.824  0.6905 -1.1870 -0.0095
 3578SOL    HW222194   0.455   3.657  13.833  0.1814 -1.5254  2.1364
 3579SOL     OW22195   0.296   2.988   9.577  0.6217  0.4462  0.7188
 3579SOL    HW122196   0.272   3.022   9.663 -1.4964  0.0570  0.2792
 3579SOL    HW222197   0.284   3.064   9.520  4.0393  1.6846  1.6179
 3580SOL     OW22198   3.088   0.827   3.235  0.1639 -0.0020  0.1950
 3580SOL    HW122199   3.053   0.831   3.147  2.0293  0.4268 -0.5393
 3580SOL    HW222200   3.053   0.744   3.266  0.8181 -0.3228  0.0803
 3581SOL     OW22201   0.465   4.230   2.937 -0.7808  0.3050 -0.0120
 3581SOL    HW122202   0.422   4.285   3.002 -0.1380  3.4217 -2.1738
 3581SOL    HW222203   0.395   4.168   2.918  0.1551 -1.0553  0.9507
 3582SOL     OW22204   3.044   2.301   6.910 -0.5218 -0.6858  0.2207
 3582SOL    HW122205   3.126   2.348   6.903 -0.4604 -0.2796  3.7358
 3582SOL    HW222206   3.008   2.337   6.991  1.7685  0.3150  0.7723
 3583SOL     OW22207   2.605   1.441   6.595 -0.0523  0.3398 -0.1343
 3583SOL    HW122208   2.649   1.365   6.556  0.1439  0.0328  0.6955
 3583SOL    HW222209   2.585   1.488   6.514 -2.4249  1.2272  0.9690
 3584SOL     OW22210   2.965   0.523   7.208 -0.0533  0.0200  0.7991
 3584SOL    HW122211   3.050   0.522   7.163 -1.0731  0.5609 -1.1403
 3584SOL    HW222212   2.982   0.572   7.289  0.7929  0.7852  0.1656
 3585SOL     OW22213   4.349   2.881   6.112 -0.5705  0.2609 -0.3820
 3585SOL    HW122214   4.377   2.963   6.153 -0.3765 -0.1917  0.3858
 3585SOL    HW222215   4.403   2.885   6.033  1.1185 -0.4610  0.7397
 3586SOL     OW22216   0.865   3.785  12.533 -0.3222  0.3061  0.0094
 3586SOL    HW122217   0.805   3.797  12.607 -1.0194 -1.7702 -0.2465
 3586SOL    HW222218   0.948   3.770  12.579 -0.0062  0.5099 -0.4982
 3587SOL     OW22219   0.918   0.055  13.145 -0.4916 -0.3186  0.4997
 3587SOL    HW122220   0.981   0.032  13.076 -0.3790 -2.0975  1.1962
 3587SOL    HW222221   0.877   0.125  13.094  0.1425 -0.6571 -0.4666
 3588SOL     OW22222   0.304   3.595   2.624  0.6202  0.0428 -0.1819
 3588SOL    HW122223   0.346   3.585   2.539  0.3663 -0.1517 -0.2823
 3588SOL    HW222224   0.293   3.502   2.641 -2.2573  0.5814  0.7734
 3589SOL     OW22225   3.553   3.262   0.949 -0.1639  0.5782  0.0752
 3589SOL    HW122226   3.528   3.186   0.895  1.9787 -0.9382  1.2202
 3589SOL    HW222227   3.551   3.324   0.876 -0.1219  0.9109  0.3610
 3590SOL     OW22228   2.476   2.684  12.345 -0.0344 -0.4458  0.4202
 3590SOL    HW122229   2.435   2.757  12.298  1.0558  0.7287  1.2968
 3590SOL    HW222230   2.462   2.617  12.278 -0.1847 -0.2956  0.2993
 3591SOL     OW22231   0.953   3.043   7.944 -0.1125  0.3599  0.0171
 3591SOL    HW122232   0.911   2.959   7.960  2.0266 -0.8692 -0.8141
 3591SOL    HW222233   0.981   3.036   7.853  2.3696  2.2594  0.6267
 3592SOL     OW22234   1.608   3.400   7.684 -0.1025 -0.0674 -0.2145
 3592SOL    HW122235   1.535   3.350   7.721 -1.2525  2.5246  0.9997
 3592SOL    HW222236   1.603   3.472   7.747  1.2829  0.9147 -1.2285
 3593SOL     OW22237   1.274   0.568  14.707  0.1109 -0.1240  0.6246
 3593SOL    HW122238   1.267   0.561  14.802  2.6309 -0.9580  0.7448
 3593SOL    HW222239   1.189   0.603  14.680 -0.1876 -0.8414  0.6240
 3594SOL     OW22240   4.545   0.797   4.921  0.1397 -0.1582  0.4559
 3594SOL    HW122241   4.619   0.762   4.871  0.0134 -0.7671  0.7056
 3594SOL    HW222242   4.491   0.718   4.926 -0.2599 -0.0413 -2.2039
 3595SOL     OW22243   2.129   1.358   5.468 -0.6032 -0.7322  0.6159
 3595SOL    HW122244   2.103   1.380   5.557 -1.4296  0.1985  0.1452
 3595SOL    HW222245   2.168   1.274   5.492 -1.4298 -0.4697  2.8498
 3596SOL     OW22246   3.499   4.049   6.813  0.0159  0.2532 -0.1948
 3596SOL    HW122247   3.574   4.105   6.795  0.7021 -0.1976  1.2777
 3596SOL    HW222248   3.501   4.010   6.725  0.5913 -2.1698  0.8824
 3597SOL     OW22249   1.431   1.627  15.322 -0.0029  0.1687 -0.1351
 3597SOL    HW122250   1.447   1.618  15.416  0.6066 -1.4175 -0.3919
 3597SOL    HW222251   1.478   1.552  15.287 -2.3448 -1.0440 -0.6485
 3598SOL     OW22252   2.919   3.385  17.261  0.1373 -0.1202 -0.3978
 3598SOL    HW122253   2.880   3.326  17.196 -1.1245 -0.2405  0.4735
 3598SOL    HW222254   2.946   3.328  17.333 -1.3817  2.4213  2.1641
 3599SOL     OW22255   3.233   4.223   2.663  0.1067  0.5447 -0.4200
 3599SOL    HW122256   3.311   4.181   2.628 -0.6533 -1.6604  0.5494
 3599SOL    HW222257   3.240   4.311   2.625 -1.3028  1.1063  0.5916
 3600SOL     OW22258   2.569   1.966   8.957  0.0181 -0.0674 -0.0166
 3600SOL    HW122259   2.578   1.875   8.986 -2.4003 -0.3016 -0.0219
 3600SOL    HW222260   2.494   1.953   8.900 -0.1396  0.4740  0.0703
 3601SOL     OW22261   3.421   4.644  11.057 -0.0730  0.5225 -0.4654
 3601SOL    HW122262   3.402   4.552  11.040 -1.4335  0.3596  2.1103
 3601SOL    HW222263   3.394   4.683  10.973  0.7004  2.6493  0.2586
 3602SOL     OW22264   3.696   3.885  15.691 -0.0484 -0.1143  0.4773
 3602SOL    HW122265   3.775   3.868  15.744  0.8736 -2.3010 -1.6035
 3602SOL    HW222266   3.662   3.955  15.747 -1.9776 -0.9307  0.3053
 3603SOL     OW22267   1.990   0.754   9.058  0.7411  0.1901  0.5368
 3603SOL    HW122268   2.010   0.808   8.981 -1.7018  0.0938 -0.1522
 3603SOL    HW222269   2.070   0.770   9.109  0.5585  1.4198  0.4292
 3604SOL     OW22270   4.607   3.175  13.818 -0.4099 -0.3279 -0.3016
 3604SOL    HW122271   4.569   3.107  13.874 -0.2126  0.8747  1.3018
 3604SOL    HW222272   4.544   3.246  13.833  0.9399  0.9721 -0.7588
 3605SOL     OW22273   2.541   2.088  14.378  0.0246 -0.2299 -0.0321
 3605SOL    HW122274   2.552   2.140  14.458  0.9434 -0.7875  0.1997
 3605SOL    HW222275   2.601   2.018  14.404  0.0667  0.5069  1.8644
 3606SOL     OW22276   3.920   2.042  14.261 -0.2036  0.5672  0.1371
 3606SOL    HW122277   3.957   2.048  14.349 -1.4950  0.6180  0.6721
 3606SOL    HW222278   3.878   1.956  14.260  1.8497 -0.4630  1.1594
 3607SOL     OW22279   3.492   3.413   7.933 -0.0114 -0.6700 -0.6311
 3607SOL    HW122280   3.522   3.490   7.884 -1.5796  0.2822 -0.1210
 3607SOL    HW222281   3.414   3.441   7.981  0.3176 -1.1585  0.1862
 3608SOL     OW22282   3.416   2.292   7.219 -0.4248  0.3704 -0.0733
 3608SOL    HW122283   3.380   2.213   7.178 -0.5080  0.3515  0.0348
 3608SOL    HW222284   3.505   2.259   7.233 -0.5677 -0.3808 -0.9222
 3609SOL     OW22285   3.393   1.256  11.257  0.3465 -0.2431  0.4729
 3609SOL    HW122286   3.463   1.259  11.192  1.7011  2.3098  2.0194
 3609SOL    HW222287   3.355   1.344  11.260 -0.8146 -0.6979 -1.2844
 3610SOL     OW22288   3.364   0.235   5.004 -0.8093  0.1231 -0.4314
 3610SOL    HW122289   3.408   0.171   4.949 -0.3340  0.1763 -0.1160
 3610SOL    HW222290   3.353   0.193   5.090  1.1001  0.2501 -0.1134
 3611SOL     OW22291   1.804   3.754   5.467 -0.8733  0.2815 -0.0214
 3611SOL    HW122292   1.774   3.678   5.417  0.6157 -2.0136  2.5813
 3611SOL    HW222293   1.718   3.761   5.510  0.9456  0.6913  3.5739
 3612SOL     OW22294   3.341   0.418   1.725  0.0005  0.4635 -0.1359
 3612SOL    HW122295   3.430   0.380   1.722 -0.2657 -0.0728 -1.4913
 3612SOL    HW222296   3.310   0.352   1.786 -0.3588 -0.1471 -0.9722
 3613SOL     OW22297   4.355   1.464   4.659 -0.0567  0.0753 -0.2128
 3613SOL    HW122298   4.265   1.474   4.627  0.4433  0.1243 -1.5993
 3613SOL    HW222299   4.381   1.373   4.642  0.3518 -0.1730  1.8019
 3614SOL     OW22300   2.140   2.189   3.581  0.4992  0.2850 -0.7720
 3614SOL    HW122301   2.191   2.108   3.572 -2.4431 -1.5942 -0.3506
 3614SOL    HW222302   2.124   2.208   3.489  2.5814 -1.7593 -1.5608
 3615SOL     OW22303   1.710   1.872   2.653  0.4227  0.0365  0.2464
 3615SOL    HW122304   1.671   1.928   2.586  0.3023 -1.2491 -0.7500
 3615SOL    HW222305   1.802   1.875   2.625  0.1010  0.5417 -0.7606
 3616SOL     OW22306   2.193   4.616   7.280  0.1927  0.4397  0.1787
 3616SOL    HW122307   2.256   4.678   7.319  0.6648 -0.6342  1.1393
 3616SOL    HW222308   2.219   4.526   7.300 -2.8627 -0.4685  0.0234
 3617SOL     OW22309   2.291   3.285   2.117  0.0436  0.1730  0.1582
 3617SOL    HW122310   2.380   3.283   2.082 -0.9378  2.1804 -2.3768
 3617SOL    HW222311   2.271   3.191   2.120  3.1933 -0.5969 -2.7814
 3618SOL     OW22312   4.637   0.557  16.641  0.2988  0.4474  0.6103
 3618SOL    HW122313   4.683   0.640  16.630 -1.6503  1.5575  0.9243
 3618SOL    HW222314   4.634   0.537  16.734 -2.4033  0.7390  0.5778
 3619SOL     OW22315   3.962   2.976   1.890 -0.3138 -0.1511 -0.8172
 3619SOL    HW122316   3.973   3.061   1.847  0.1981  1.2491  2.1155
 3619SOL    HW222317   4.012   2.925   1.826  0.7998  2.9708 -2.3937
 3620SOL     OW22318   3.256   1.711   8.221  0.2808 -0.4133 -0.1347
 3620SOL    HW122319   3.268   1.618   8.239 -2.6341 -0.0134  3.8587
 3620SOL    HW222320   3.172   1.723   8.266  1.2681 -2.2578  2.2196
 3621SOL     OW22321   1.602   1.460   2.186 -0.2666 -0.0090  0.0099
 3621SOL    HW122322   1.611   1.400   2.260 -0.3813 -1.3685 -1.0611
 3621SOL    HW222323   1.530   1.410   2.147  1.5270 -2.8909  0.3498
 3622SOL     OW22324   2.253   4.225   8.404  0.4347  0.1117  0.0484
 3622SOL    HW122325   2.303   4.260   8.478  0.2028  1.5842 -0.4822
 3622SOL    HW222326   2.299   4.257   8.326  0.3247  2.8551  1.1034
 3623SOL     OW22327   0.646   3.705   7.138  0.6079  0.2310  0.0036
 3623SOL    HW122328   0.554   3.729   7.148  0.0821 -1.5489 -0.5620
 3623SOL    HW222329   0.652   3.684   7.231 -1.0923  0.7031  0.2156
 3624SOL     OW22330   0.374   4.701   0.242  0.5291 -0.1161 -0.2432
 3624SOL    HW122331   0.405   4.644   0.313 -1.5131 -0.1142  0.6434
 3624SOL    HW222332   0.393   0.061   0.277 -1.9208  0.0622  0.6070
 3625SOL     OW22333   4.416   2.835  14.762  0.2989 -0.2679 -0.0581
 3625SOL    HW122334   4.364   2.775  14.709 -2.2423 -1.2919  3.6124
 3625SOL    HW222335   4.379   2.838  14.850  0.8339  0.2155  0.1534
 3626SOL     OW22336   3.574   2.915   8.643  0.0157 -0.3382 -0.4760
 3626SOL    HW122337   3.522   2.900   8.563  1.3568  0.3263 -1.4748
 3626SOL    HW222338   3.510   2.960   8.698  0.0245 -0.7481 -0.1328
 3627SOL     OW22339   3.077   1.039   0.691 -0.4257  0.4720 -0.0102
 3627SOL    HW122340   3.068   1.001   0.778 -2.2992  1.5455  0.2529
 3627SOL    HW222341   3.147   1.095   0.724  1.0181 -0.7657 -0.9636
 3628SOL     OW22342   3.106   2.676  14.944 -0.1741  0.0396 -0.0907
 3628SOL    HW122343   3.151   2.677  15.028 -0.6392  0.7573  0.1540
 3628SOL    HW222344   3.178   2.694  14.884 -1.0286  1.4405 -0.6877
 3629SOL     OW22345   1.946   0.597   4.329  0.1606 -0.1244  0.0595
 3629SOL    HW122346   2.031   0.638   4.348  0.3465  0.5901 -2.2681
 3629SOL    HW222347   1.899   0.607   4.412  0.9651  0.5033  0.4348
 3630SOL     OW22348   3.453   3.538   1.502  0.2527 -0.4308 -0.1500
 3630SOL    HW122349   3.377   3.581   1.462 -0.3297 -0.4427  0.9420
 3630SOL    HW222350   3.489   3.486   1.430  0.3884  0.6464 -0.8524
 3631SOL     OW22351   0.159   3.143  12.946 -0.5969 -0.4029 -0.0322
 3631SOL    HW122352   0.136   3.205  13.016 -0.7225 -1.0287  0.4785
 3631SOL    HW222353   0.087   3.085  12.970  2.0005 -3.7010 -0.2139
 3632SOL     OW22354   4.095   4.446   3.552 -0.7060 -0.0129 -0.0067
 3632SOL    HW122355   4.141   4.425   3.470 -1.6780 -0.6771 -0.3772
 3632SOL    HW222356   4.003   4.437   3.526 -0.9611  1.8854  0.2340
 3633SOL     OW22357   0.179   2.701   7.530  0.1779 -0.2074  0.3660
 3633SOL    HW122358   0.150   2.686   7.440  0.3802  1.0946  0.0823
 3633SOL    HW222359   0.161   2.611   7.557 -1.2580 -0.2160 -0.6005
 3634SOL     OW22360   0.383   3.718   3.395 -0.3262 -0.0052 -0.4202
 3634SOL    HW122361   0.291   3.699   3.412 -0.2692 -0.1026 -0.2193
 3634SOL    HW222362   0.389   3.798   3.447  2.4579  1.2563 -2.7174
 3635SOL     OW22363   4.151   0.993  10.988 -0.6779  0.2130 -0.0922
 3635SOL    HW122364   4.065   0.974  11.025 -0.1059  0.6619  1.4502
 3635SOL    HW222365   4.131   1.059  10.922 -1.7105 -0.8726 -0.8718
 3636SOL     OW22366   1.013   0.305   4.052  0.2394  0.2064 -0.3880
 3636SOL    HW122367   1.005   0.401   4.046  2.7102  0.5743  1.9545
 3636SOL    HW222368   0.923   0.276   4.039  0.1020  0.7276 -0.6273
 3637SOL     OW22369   0.363   4.557   5.253  0.4701  0.0067  0.3211
 3637SOL    HW122370   0.392   4.474   5.289 -0.7687 -1.3049 -1.7158
 3637SOL    HW222371   0.405   4.555   5.167 -2.0476  0.1472 -0.9325
 3638SOL     OW22372   4.460   4.063   7.481  0.4602 -1.0218  0.0264
 3638SOL    HW122373   4.443   4.010   7.403  0.6382 -1.2099  0.1145
 3638SOL    HW222374   4.548   4.099   7.469  0.7869 -1.3269  1.4652
 3639SOL     OW22375   4.351   1.850   2.930  0.1214  0.0587 -0.3194
 3639SOL    HW122376   4.289   1.907   2.976 -0.8807 -1.0031 -0.3635
 3639SOL    HW222377   4.311   1.832   2.845 -1.1629  3.6061 -0.4867
 3640SOL     OW22378   4.211   3.179   3.776  0.5137  0.4967 -0.6190
 3640SOL    HW122379   4.209   3.154   3.868 -0.6981  1.2875 -0.4322
 3640SOL    HW222380   4.281   3.244   3.773  0.0166  1.0928  0.7458
 3641SOL     OW22381   3.106   3.762  12.397 -0.0845  0.4979  0.0715
 3641SOL    HW122382   3.185   3.707  12.392  1.1065  2.3045 -1.2342
 3641SOL    HW222383   3.058   3.749  12.315 -0.7985  0.2992  0.5279
 3642SOL     OW22384   2.065   1.115   1.095 -1.2119 -0.4083 -0.0582
 3642SOL    HW122385   2.036   1.129   1.005  0.5077 -2.8912 -1.0304
 3642SOL    HW222386   2.002   1.052   1.130 -2.6524  1.9551  1.5839
 3643SOL     OW22387   1.943   3.180   3.945  0.0427 -0.3680 -0.5097
 3643SOL    HW122388   1.960   3.182   4.039 -3.2322  0.0573  0.0842
 3643SOL    HW222389   1.852   3.151   3.951 -0.4419  0.9357 -1.5804
 3644SOL     OW22390   3.744   3.643   3.086  0.0386  0.0665  0.8452
 3644SOL    HW122391   3.684   3.688   3.026  0.2191 -2.3822 -1.1504
 3644SOL    HW222392   3.687   3.586   3.138 -0.1636 -0.1162  0.4228
 3645SOL     OW22393   1.920   3.721  11.113  0.2267  0.2383  0.3351
 3645SOL    HW122394   1.854   3.667  11.156  1.6549 -0.9016  1.1101
 3645SOL    HW222395   1.971   3.755  11.187  0.2389  1.4929 -0.2574
 3646SOL     OW22396   2.339   1.592   6.492 -0.0386 -0.1710  0.1668
 3646SOL    HW122397   2.423   1.597   6.445 -0.9852 -0.3647 -1.5507
 3646SOL    HW222398   2.285   1.640   6.429  0.1987 -1.4631 -1.0062
 3647SOL     OW22399   2.359   1.380   6.692  0.0853  0.2825 -0.3207
 3647SOL    HW122400   2.441   1.415   6.659 -0.2682  1.4863  0.0607
 3647SOL    HW222401   2.304   1.392   6.614 -0.2997  0.3981 -0.0323
 3648SOL     OW22402   3.338   0.909  16.778  0.2062 -1.0168 -0.5112
 3648SOL    HW122403   3.266   0.860  16.736 -0.5132  0.1251 -0.6145
 3648SOL    HW222404   3.323   0.891  16.871 -1.5273 -1.7620 -0.9321
 3649SOL     OW22405   2.184   0.320  15.621  0.0308 -0.6394 -0.3856
 3649SOL    HW122406   2.100   0.366  15.620  0.4235  0.0753 -0.5692
 3649SOL    HW222407   2.176   0.277  15.536  1.0315 -2.5824  0.5056
 3650SOL     OW22408   2.437   2.038   0.169  0.4213 -0.3357 -0.5081
 3650SOL    HW122409   2.376   2.009   0.236 -1.5011  0.1640 -2.0382
 3650SOL    HW222410   2.504   1.970   0.169 -0.5694 -1.3211 -2.7876
 3651SOL     OW22411   4.290   4.433   6.105  0.1579  0.5139 -0.2994
 3651SOL    HW122412   4.232   4.387   6.166 -0.6612  0.5940 -1.0072
 3651SOL    HW222413   4.367   4.429   6.162 -0.6732 -3.9177  0.5562
 3652SOL     OW22414   0.740   0.232   9.506  0.3522  0.3860  0.3470
 3652SOL    HW122415   0.680   0.205   9.576 -1.0668 -2.2461 -1.8712
 3652SOL    HW222416   0.701   0.318   9.487  0.0416 -0.1333 -1.3528
 3653SOL     OW22417   0.241   2.417   5.709  0.2007 -0.3899  0.1908
 3653SOL    HW122418   0.220   2.356   5.780 -0.6955  0.2746  0.5055
 3653SOL    HW222419   0.314   2.471   5.741  1.8979 -2.4594 -0.1945
 3654SOL     OW22420   1.664   1.817   6.674 -0.1235  0.0274  0.1393
 3654SOL    HW122421   1.717   1.776   6.606  0.9726 -0.5066  1.3226
 3654SOL    HW222422   1.699   1.906   6.678 -0.2647  0.0955 -0.1992
 3655SOL     OW22423   1.966   0.351   7.610 -0.8342 -0.1836 -0.4559
 3655SOL    HW122424   1.991   0.316   7.525 -0.3606  1.0666 -0.8342
 3655SOL    HW222425   1.918   0.431   7.590 -1.7625 -0.4807  0.5777
 3656SOL     OW22426   3.246   2.939   8.187  0.2840  0.4256 -0.1510
 3656SOL    HW122427   3.233   2.938   8.092 -0.8572  0.1462  0.0098
 3656SOL    HW222428   3.249   3.034   8.203  1.3659  0.5599 -1.1397
 3657SOL     OW22429   2.063   1.001   8.885  0.4678  0.0566 -0.1607
 3657SOL    HW122430   2.080   0.940   8.814  0.0215  0.8591 -0.9693
 3657SOL    HW222431   2.043   1.076   8.829 -0.2349  0.8805  1.1929
 3658SOL     OW22432   4.646   1.993   3.261  0.1098 -0.7395  0.4824
 3658SOL    HW122433   4.648   1.982   3.356 -0.7530  1.9661  0.8080
 3658SOL    HW222434   4.565   1.945   3.247 -0.4807  0.7196 -1.0853
 3659SOL     OW22435   2.150   1.426   2.609  0.3065 -0.0910 -0.1161
 3659SOL    HW122436   2.166   1.406   2.517  1.8711  1.0310 -0.0933
 3659SOL    HW222437   2.129   1.343   2.652 -3.0257  2.1403  2.5383
 3660SOL     OW22438   4.016   2.291   3.869 -0.0423 -0.2593  0.4317
 3660SOL    HW122439   3.984   2.201   3.868  0.7752 -0.5524  0.4057
 3660SOL    HW222440   4.110   2.276   3.882 -0.8439 -3.1873  2.5685
 3661SOL     OW22441   1.636   0.692   4.775  0.4150 -0.5966  0.5691
 3661SOL    HW122442   1.595   0.633   4.711 -0.6451  1.8761 -1.0456
 3661SOL    HW222443   1.571   0.700   4.845  0.3779  1.3861  0.3100
 3662SOL     OW22444   0.033   2.098   2.886  0.0758  0.8880 -0.2399
 3662SOL    HW122445   4.670   2.128   2.878  0.2192  0.9005 -1.7728
 3662SOL    HW222446   0.066   2.108   2.796 -0.0747  0.8819 -0.2947
 3663SOL     OW22447   1.053   2.224   0.144  0.2596  0.2662 -0.2172
 3663SOL    HW122448   1.090   2.312   0.146 -1.0651  0.8481 -1.3543
 3663SOL    HW222449   1.013   2.216   0.057  0.9791  1.6264 -0.6734
 3664SOL     OW22450   4.446   2.538   3.027  0.2804  0.0082 -0.5991
 3664SOL    HW122451   4.523   2.516   2.975 -1.1054 -2.8058 -1.3979
 3664SOL    HW222452   4.468   2.495   3.110  0.6900  0.1878 -0.6141
 3665SOL     OW22453   2.465   3.457   0.510 -0.3736 -0.4376  0.0808
 3665SOL    HW122454   2.433   3.527   0.567 -0.8252  0.3269 -1.1110
 3665SOL    HW222455   2.507   3.502   0.436  0.4810  0.0441  0.8433
 3666SOL     OW22456   3.881   2.872  17.299 -0.0445  0.3531 -0.1479
 3666SOL    HW122457   3.857   2.833  17.215 -3.4315  0.3852  0.7957
 3666SOL    HW222458   3.866   2.965  17.285 -2.3705 -0.1324 -0.9388
 3667SOL     OW22459   1.651   0.959   1.037 -0.5263  0.1859  0.0127
 3667SOL    HW122460   1.557   0.941   1.042 -0.4181  0.0918  1.5550
 3667SOL    HW222461   1.658   1.000   0.951  2.2018 -2.1931 -0.8799
 3668SOL     OW22462   1.896   4.098   4.464 -0.1701  1.0405 -0.6347
 3668SOL    HW122463   1.854   4.017   4.494  0.2793  0.6448 -1.0706
 3668SOL    HW222464   1.984   4.061   4.455 -1.0595 -0.9577 -1.1195
 3669SOL     OW22465   4.658   2.159   6.994  0.4528 -0.0030 -0.0632
 3669SOL    HW122466   0.013   2.189   7.033  0.9668 -2.5082  0.7841
 3669SOL    HW222467   4.590   2.214   7.033  2.0206 -0.2258  2.9236
 3670SOL     OW22468   1.117   0.710  14.142  0.0794  0.1593 -0.7811
 3670SOL    HW122469   1.190   0.653  14.166  0.0711 -0.1153 -1.4138
 3670SOL    HW222470   1.158   0.779  14.090  1.5099  0.7929  1.1929
 3671SOL     OW22471   4.517   4.639   7.603 -0.0184 -0.3976 -0.3014
 3671SOL    HW122472   4.494   4.553   7.567  1.0167 -1.2005  0.9609
 3671SOL    HW222473   4.597   4.618   7.651  0.3001  1.4315 -0.0127
 3672SOL     OW22474   1.713   0.223   7.956 -0.1233  0.5950  0.2616
 3672SOL    HW122475   1.750   0.185   8.037  1.4798  1.2633 -0.1583
 3672SOL    HW222476   1.671   0.299   7.996  0.3741  1.4272 -0.8003
 3673SOL     OW22477   3.168   0.782   1.442 -0.2976  0.0987 -0.0449
 3673SOL    HW122478   3.237   0.719   1.461  1.0399  1.1929 -1.2451
 3673SOL    HW222479   3.092   0.737   1.478 -0.5336  0.5754  0.0521
 3674SOL     OW22480   0.632   4.673   5.686 -0.5341  0.1221 -0.1303
 3674SOL    HW122481   0.683   4.726   5.625 -0.0730 -1.1878 -0.8791
 3674SOL    HW222482   0.681   4.592   5.703 -2.2478 -0.4418  2.1565
 3675SOL     OW22483   4.224   2.464   2.382  0.6633  0.2355 -0.3463
 3675SOL    HW122484   4.319   2.448   2.383  0.1394 -3.0053 -0.9866
 3675SOL    HW222485   4.199   2.423   2.299 -1.0170 -0.1476  0.3632
 3676SOL     OW22486   0.146   1.563   9.293  0.2993  0.2009  0.2220
 3676SOL    HW122487   0.240   1.578   9.298  0.2048  0.1320  2.4971
 3676SOL    HW222488   0.132   1.500   9.364  3.5974 -0.1385  0.5482
 3677SOL     OW22489   4.214   3.521   5.020 -0.5154  0.3315 -0.6567
 3677SOL    HW122490   4.256   3.445   5.062 -3.0646 -2.5361 -3.3938
 3677SOL    HW222491   4.247   3.588   5.080 -3.3058 -0.3826  1.6739
 3678SOL     OW22492   3.396   1.325   7.605 -0.6206  0.0765  0.2416
 3678SOL    HW122493   3.421   1.240   7.641 -1.0947  0.0696  0.5598
 3678SOL    HW222494   3.309   1.296   7.577 -0.0902  0.8526 -2.2188
 3679SOL     OW22495   0.348   1.917  11.930  0.2781  0.0311 -0.5564
 3679SOL    HW122496   0.253   1.918  11.933  0.3094  0.7506  0.1300
 3679SOL    HW222497   0.382   1.906  12.019  2.8812  1.9685 -1.3307
 3680SOL     OW22498   2.091   3.495   8.375  0.3736  0.1319  0.4026
 3680SOL    HW122499   2.119   3.585   8.357  3.1304 -0.9564 -0.7552
 3680SOL    HW222500   2.132   3.448   8.303  0.3181 -0.7735  0.9624
 3681SOL     OW22501   4.683   0.937  15.507  0.0620  0.6832  0.1964
 3681SOL    HW122502   4.693   1.031  15.520 -3.7329  1.3241 -1.4777
 3681SOL    HW222503   4.629   0.942  15.428  0.8095 -2.2558 -0.4889
 3682SOL     OW22504   3.194   0.644   4.778  0.3669  0.5283 -0.0208
 3682SOL    HW122505   3.246   0.580   4.826 -0.9679  0.7069  1.6202
 3682SOL    HW222506   3.107   0.609   4.795  0.4933  0.0129 -0.4256
 3683SOL     OW22507   3.277   3.078   3.940 -0.2489 -0.4069  0.5436
 3683SOL    HW122508   3.227   3.028   3.875  0.2827  1.5479 -1.3940
 3683SOL    HW222509   3.369   3.053   3.938 -0.9523 -2.8715 -2.4680
 3684SOL     OW22510   3.933   2.861  10.117 -0.5724  0.6684 -0.4775
 3684SOL    HW122511   4.012   2.879  10.065 -0.7189 -0.5220 -1.1208
 3684SOL    HW222512   3.928   2.938  10.173  2.7999  1.2609 -0.9936
 3685SOL     OW22513   3.892   4.699   2.016  0.6379  0.6201  0.0481
 3685SOL    HW122514   3.902   0.067   2.026 -1.0579  0.7210  0.9428
 3685SOL    HW222515   3.973   4.667   2.056 -0.4703 -0.1674  1.6859
 3686SOL     OW22516   1.325   1.250  10.156 -0.6084  0.2007 -0.0365
 3686SOL    HW122517   1.341   1.223  10.066 -1.8827 -0.7755  0.0248
 3686SOL    HW222518   1.401   1.220  10.205 -0.2718 -1.4986 -1.6063
 3687SOL     OW22519   4.707   0.500   4.116 -0.4251  0.3900 -0.0502
 3687SOL    HW122520   4.709   0.512   4.021 -1.1113 -1.5135 -0.3101
 3687SOL    HW222521   4.719   0.407   4.131 -1.5051 -0.0029 -1.5747
 3688SOL     OW22522   4.300   0.462   2.375 -0.3241 -0.0200  0.3776
 3688SOL    HW122523   4.315   0.517   2.452  1.3881 -1.3486  1.0015
 3688SOL    HW222524   4.298   0.519   2.298  0.2033  1.8516  1.7442
 3689SOL     OW22525   1.159   4.504   5.650  0.2552 -0.1644 -0.0973
 3689SOL    HW122526   1.229   4.569   5.655  0.3204 -0.2475  0.0801
 3689SOL    HW222527   1.113   4.528   5.730  0.1651 -1.1256  0.1340
 3690SOL     OW22528   3.507   1.279  15.116 -0.2471  0.1519  0.3006
 3690SOL    HW122529   3.593   1.292  15.075  1.4311  0.0311  3.7929
 3690SOL    HW222530   3.521   1.207  15.176 -0.0507  0.5498  0.7349
 3691SOL     OW22531   0.563   3.864  16.364  0.2368 -0.9489  0.3870
 3691SOL    HW122532   0.593   3.806  16.434 -1.9948 -2.4400  0.1273
 3691SOL    HW222533   0.629   3.933  16.360 -1.3732  0.5880  0.2541
 3692SOL     OW22534   1.884   2.957   5.241  0.1958  0.3624  0.1490
 3692SOL    HW122535   1.961   2.900   5.233  0.0297 -0.3866  3.6311
 3692SOL    HW222536   1.925   3.028   5.290  0.1309  0.0193  0.7043
 3693SOL     OW22537   2.620   1.550   7.966  0.0430  0.0056  0.3369
 3693SOL    HW122538   2.693   1.599   7.927  0.5792 -0.7309  0.4137
 3693SOL    HW222539   2.649   1.461   7.944 -3.4535 -1.3576  1.2098
 3694SOL     OW22540   3.607   2.486   3.645  0.4976  0.0822  0.0960
 3694SOL    HW122541   3.687   2.481   3.698  0.0871  0.3602  0.7346
 3694SOL    HW222542   3.628   2.417   3.582 -0.5771  1.8535 -2.1780
 3695SOL     OW22543   1.652   0.052  15.906 -0.3427 -0.1766 -0.1402
 3695SOL    HW122544   1.693   0.138  15.915 -1.6540  0.4319  0.0665
 3695SOL    HW222545   1.612   0.037  15.992 -1.2920  1.9175 -0.2226
 3696SOL     OW22546   4.186   0.781   6.415  0.3942  0.8865  0.1159
 3696SOL    HW122547   4.120   0.713   6.430  0.6523  0.6746  0.2808
 3696SOL    HW222548   4.166   0.803   6.324  1.7297  0.3190 -0.3091
 3697SOL     OW22549   3.639   1.624   1.739 -0.3347 -0.5130  0.3565
 3697SOL    HW122550   3.677   1.667   1.815  2.1612  0.0209 -1.2048
 3697SOL    HW222551   3.602   1.689   1.680  1.7184  0.2421 -0.0737
 3698SOL     OW22552   2.938   3.783   7.543 -0.0833 -0.4462 -0.5497
 3698SOL    HW122553   2.928   3.859   7.485  1.8491  1.1531  1.2305
 3698SOL    HW222554   2.911   3.809   7.631 -1.7107  0.8261 -1.4116
 3699SOL     OW22555   2.748   2.019   5.706  0.8389  0.0343  0.3265
 3699SOL    HW122556   2.782   2.108   5.700  0.5361  0.3578  3.1927
 3699SOL    HW222557   2.805   1.976   5.643  0.2484  1.0648 -0.9195
 3700SOL     OW22558   0.888   0.370  14.215 -0.3072  0.4175 -0.2042
 3700SOL    HW122559   0.962   0.427  14.237 -0.3280  0.4280 -0.1612
 3700SOL    HW222560   0.870   0.331  14.301 -0.8448  0.5407 -0.2663
 3701SOL     OW22561   0.930   1.789  10.457 -0.3043  0.7307  0.3841
 3701SOL    HW122562   0.950   1.882  10.471 -1.0286  0.7640  1.2325
 3701SOL    HW222563   0.834   1.785  10.453 -0.2630 -1.5785  1.9105
 3702SOL     OW22564   4.490   3.938  15.254 -0.8686 -0.8662 -0.0373
 3702SOL    HW122565   4.456   4.026  15.271 -0.4618 -0.5118 -1.0386
 3702SOL    HW222566   4.408   3.891  15.265 -1.6419  0.5199  0.0577
 3703SOL     OW22567   0.480   2.528  12.558 -0.1240 -0.1635  0.4136
 3703SOL    HW122568   0.553   2.581  12.589  0.3687 -1.4305  1.4381
 3703SOL    HW222569   0.505   2.440  12.587  0.5475  0.0547  0.4964
 3704SOL     OW22570   1.015   3.701   3.341  0.3320  0.0310  0.0971
 3704SOL    HW122571   0.978   3.624   3.384  0.8634 -1.2543 -1.7546
 3704SOL    HW222572   1.011   3.687   3.246  0.6235 -4.1841  0.7110
 3705SOL     OW22573   2.358   4.064  15.076  0.2119 -0.4272 -0.7443
 3705SOL    HW122574   2.363   4.023  15.163  1.4997  0.9814 -0.1483
 3705SOL    HW222575   2.316   3.995  15.024 -0.3564 -0.8538  0.2699
 3706SOL     OW22576   3.690   1.220   2.198  0.4514  0.7553 -0.2135
 3706SOL    HW122577   3.603   1.215   2.238  1.2132 -1.2603  1.1633
 3706SOL    HW222578   3.755   1.189   2.261 -2.0031 -0.4683  1.7020
 3707SOL     OW22579   4.212   0.251   7.691  0.0646 -0.1933  0.1631
 3707SOL    HW122580   4.295   0.299   7.688 -0.6506  1.1756  2.2257
 3707SOL    HW222581   4.237   0.163   7.717 -2.1003 -0.7873  0.2247
 3708SOL     OW22582   0.042   3.923   6.178  0.0730  0.1289  0.0807
 3708SOL    HW122583   0.081   3.966   6.254  0.9026  1.0952 -0.8893
 3708SOL    HW222584   0.019   3.994   6.119  1.8029  0.1337 -0.5995
 3709SOL     OW22585   1.937   2.997   2.365  0.4848  0.2017 -0.3530
 3709SOL    HW122586   2.003   2.951   2.313  1.0843 -1.4074  1.7957
 3709SOL    HW222587   1.941   3.088   2.335 -0.0291 -0.0011 -1.0241
 3710SOL     OW22588   0.941   2.250  17.592  0.0425 -0.1569  0.3713
 3710SOL    HW122589   0.881   2.177  17.574 -0.1770 -0.2467  1.5045
 3710SOL    HW222590   0.882   2.322  17.611  0.4497 -0.1551  1.6222
 3711SOL     OW22591   2.597   4.544  16.048  0.1664 -0.3632  0.4486
 3711SOL    HW122592   2.525   4.605  16.032  2.1625  1.7802 -0.5690
 3711SOL    HW222593   2.617   4.552  16.141 -1.0517  1.5889  0.5403
 3712SOL     OW22594   2.564   4.576   5.798 -0.7879  0.2589 -0.6747
 3712SOL    HW122595   2.493   4.576   5.862  0.6167  2.1933  0.8874
 3712SOL    HW222596   2.509   4.615   5.730 -3.4304 -2.0352  0.1585
 3713SOL     OW22597   1.183   0.057   2.892 -0.3313  0.3431 -0.2434
 3713SOL    HW122598   1.122   0.110   2.944  2.3465  1.9917  1.2501
 3713SOL    HW222599   1.154   0.070   2.802 -0.0639  0.1410 -0.3580
 3714SOL     OW22600   3.653   0.068  10.431  0.1586  0.2928  0.3829
 3714SOL    HW122601   3.580   0.011  10.456 -0.7752  1.9796  1.5251
 3714SOL    HW222602   3.721   0.019  10.478  1.5332  1.4507 -0.4160
 3715SOL     OW22603   3.714   1.486   8.658 -0.5111  0.3245  0.2143
 3715SOL    HW122604   3.779   1.556   8.658 -4.6360  4.1750  1.2993
 3715SOL    HW222605   3.705   1.472   8.752 -0.8531 -0.9248 -0.0004
 3716SOL     OW22606   4.120   0.997   2.493  0.1716 -0.4199  0.1802
 3716SOL    HW122607   4.025   1.007   2.500  0.2101  1.6473 -2.5601
 3716SOL    HW222608   4.150   1.037   2.575  0.2021  2.0748 -1.0251
 3717SOL     OW22609   0.737   2.730   6.625  0.3203 -0.3908 -0.2137
 3717SOL    HW122610   0.830   2.727   6.647 -0.0177  1.9373  1.5311
 3717SOL    HW222611   0.724   2.644   6.586  4.4080 -1.1853  0.2036
 3718SOL     OW22612   2.996   1.956   1.142  0.3634 -0.1415 -0.3841
 3718SOL    HW122613   3.026   2.011   1.214 -0.2734  0.3582 -0.5029
 3718SOL    HW222614   2.900   1.957   1.152  0.6903  0.0450  2.6732
 3719SOL     OW22615   0.512   0.221  10.169  0.3755 -0.3267  0.4654
 3719SOL    HW122616   0.522   0.182  10.256 -4.0329  0.0765  1.1799
 3719SOL    HW222617   0.533   0.143  10.117 -1.9635 -0.6439 -0.0172
 3720SOL     OW22618   1.620   2.675  16.598  0.5739  0.8174  0.0247
 3720SOL    HW122619   1.641   2.768  16.591 -0.9580  1.0131 -1.7624
 3720SOL    HW222620   1.525   2.680  16.609  0.4498  1.3152 -1.2708
 3721SOL     OW22621   4.076   4.283  17.315 -0.6200  0.6074 -0.0746
 3721SOL    HW122622   4.159   4.323  17.290 -0.3372 -0.4183 -0.7843
 3721SOL    HW222623   4.021   4.357  17.338  0.7270  2.6615 -3.4257
 3722SOL     OW22624   2.832   1.258  13.541  0.0779  0.2999  0.1055
 3722SOL    HW122625   2.759   1.197  13.556  0.2415 -0.2547 -1.3975
 3722SOL    HW222626   2.872   1.263  13.628 -1.4099  2.3524  0.6775
 3723SOL     OW22627   0.752   1.605   4.802 -0.1081 -0.0627  0.4573
 3723SOL    HW122628   0.785   1.520   4.773 -0.6555  0.0561 -0.5424
 3723SOL    HW222629   0.657   1.600   4.791 -0.1061 -0.4590  0.6292
 3724SOL     OW22630   0.396   1.312   7.217 -0.3235  0.1289 -0.2599
 3724SOL    HW122631   0.348   1.296   7.298 -2.1932 -2.0666 -1.7661
 3724SOL    HW222632   0.356   1.392   7.182 -0.8428 -0.9599 -2.1709
 3725SOL     OW22633   0.238   4.414   8.196 -0.2593  0.4038 -0.1037
 3725SOL    HW122634   0.146   4.395   8.216 -0.2688 -0.2859 -0.7641
 3725SOL    HW222635   0.279   4.422   8.282  0.5824  3.0884 -0.7703
 3726SOL     OW22636   2.238   0.195   3.874  0.1867  0.2196  0.1912
 3726SOL    HW122637   2.286   0.168   3.796  0.0490  0.9596 -0.1374
 3726SOL    HW222638   2.151   0.169   3.845  1.1276 -0.8396 -1.6795
 3727SOL     OW22639   0.853   3.743  13.740  0.4686 -0.3693 -0.3673
 3727SOL    HW122640   0.915   3.805  13.779  0.4584  1.0940 -2.6659
 3727SOL    HW222641   0.783   3.807  13.728  1.6417  1.1956  1.0347
 3728SOL     OW22642   0.045   3.202   8.391  0.1064  0.3871 -0.4621
 3728SOL    HW122643   0.067   3.133   8.328 -0.5644  0.4215 -0.7363
 3728SOL    HW222644   0.002   3.259   8.327 -1.7392 -1.3850 -0.7944
 3729SOL     OW22645   0.352   0.784   5.842 -0.2389 -0.2652  0.2493
 3729SOL    HW122646   0.327   0.700   5.880  1.3590 -0.4685  0.8364
 3729SOL    HW222647   0.424   0.807   5.901  0.4084 -0.0882 -0.6170
 3730SOL     OW22648   2.097   2.178   5.541 -0.6552  0.7037 -0.0082
 3730SOL    HW122649   2.166   2.114   5.563  1.2286  2.9577  0.6733
 3730SOL    HW222650   2.155   2.253   5.533 -0.0424  0.4360  1.8355
 3731SOL     OW22651   2.419   1.295   0.480 -0.8054  0.3282 -0.0440
 3731SOL    HW122652   2.468   1.222   0.519  1.3938  1.8534  0.0476
 3731SOL    HW222653   2.467   1.364   0.525 -2.9077  0.5390  1.8630
 3732SOL     OW22654   2.867   0.023   2.845  0.5629  0.4112  0.7265
 3732SOL    HW122655   2.797   0.080   2.876 -1.4342 -2.3555  1.2598
 3732SOL    HW222656   2.945   0.066   2.881  0.5320  0.9325  0.1598
 3733SOL     OW22657   2.237   1.314   7.482 -0.1478  0.3712  0.0702
 3733SOL    HW122658   2.195   1.397   7.504 -0.4007 -0.1859  1.6692
 3733SOL    HW222659   2.301   1.305   7.552 -0.0845  0.9091  0.0835
 3734SOL     OW22660   0.770   1.313   2.338  0.1676  0.7462  0.3938
 3734SOL    HW122661   0.695   1.320   2.279  1.1062  0.2574 -0.8463
 3734SOL    HW222662   0.812   1.239   2.295 -1.1955 -0.3599  0.9754
 3735SOL     OW22663   3.818   4.692  16.837  0.0058  0.0598  0.1348
 3735SOL    HW122664   3.765   4.679  16.916  1.8822  1.9538  1.7294
 3735SOL    HW222665   3.804   4.614  16.784  1.7744 -0.0281 -0.1970
 3736SOL     OW22666   4.532   2.720  14.071 -0.7085 -0.0545 -0.2473
 3736SOL    HW122667   4.520   2.680  14.157 -1.8298  0.1854 -0.2877
 3736SOL    HW222668   4.624   2.737  14.088 -1.0211  0.2298  1.1607
 3737SOL     OW22669   3.058   1.256   6.160 -0.3812 -0.0914  0.5337
 3737SOL    HW122670   3.128   1.221   6.215  1.4207  0.4539 -1.4299
 3737SOL    HW222671   2.992   1.189   6.178 -1.2485  0.9711  1.3261
 3738SOL     OW22672   0.226   4.333  16.274  0.0193 -0.6389 -0.3493
 3738SOL    HW122673   0.171   4.325  16.351  0.0044  0.4716 -0.2433
 3738SOL    HW222674   0.300   4.387  16.299  0.9756 -1.7218 -0.8086
 3739SOL     OW22675   4.470   2.097   2.138  0.9376 -0.1361  0.2033
 3739SOL    HW122676   4.559   2.105   2.103  0.3378  1.9109 -0.8477
 3739SOL    HW222677   4.420   2.121   2.061  1.8144  2.5431  0.4704
 3740SOL     OW22678   3.963   0.516   5.635  0.4136 -0.1206  0.1345
 3740SOL    HW122679   4.038   0.494   5.580  0.5194  0.3490  0.0944
 3740SOL    HW222680   3.896   0.457   5.601 -1.4624  0.4359  2.7963
 3741SOL     OW22681   3.122   4.473   7.512  0.4563  0.1663  0.0243
 3741SOL    HW122682   3.071   4.459   7.432  2.4450  2.6527 -1.6799
 3741SOL    HW222683   3.167   4.556   7.495  0.2338 -0.0301 -1.5882
 3742SOL     OW22684   1.607   1.636   5.714  0.0005  0.3022  0.7263
 3742SOL    HW122685   1.552   1.703   5.672 -0.4538 -0.6076 -0.1535
 3742SOL    HW222686   1.541   1.578   5.751 -1.1367  0.7358 -0.6201
 3743SOL     OW22687   0.589   3.086   7.691 -0.1367  0.1336 -0.0603
 3743SOL    HW122688   0.628   3.033   7.760 -0.4036 -1.5467 -1.2264
 3743SOL    HW222689   0.559   3.019   7.630  0.4036 -0.6567  0.5416
 3744SOL     OW22690   3.612   0.384   7.698  0.4280 -0.1766 -0.4367
 3744SOL    HW122691   3.704   0.359   7.683  0.3053  0.0736 -1.5987
 3744SOL    HW222692   3.570   0.299   7.709  1.2561 -0.3510  1.4967
 3745SOL     OW22693   4.034   3.208   4.694  0.1750  0.1583 -0.3916
 3745SOL    HW122694   4.021   3.284   4.751  1.6989 -0.0045  0.1704
 3745SOL    HW222695   4.109   3.238   4.643  1.9952 -3.1793  0.2530
 3746SOL     OW22696   2.488   2.270  15.380  0.1822 -0.1883  0.5565
 3746SOL    HW122697   2.482   2.268  15.284 -1.4355 -1.0061  0.6737
 3746SOL    HW222698   2.487   2.176  15.398  1.1068 -0.5161 -1.0357
 3747SOL     OW22699   1.605   1.023  10.678  0.0067 -0.7101 -0.2073
 3747SOL    HW122700   1.564   1.110  10.677 -3.2013 -2.1884  2.1936
 3747SOL    HW222701   1.523   0.978  10.660 -0.4143  0.2280 -0.6905
 3748SOL     OW22702   2.040   3.996   0.604 -0.1872 -0.1997  1.1112
 3748SOL    HW122703   1.989   3.944   0.542 -0.5916 -1.3988  2.4469
 3748SOL    HW222704   1.993   4.079   0.594  0.3746 -0.1347 -1.0914
 3749SOL     OW22705   0.961   3.447   7.626  0.1330 -0.0641 -0.6086
 3749SOL    HW122706   1.028   3.386   7.657 -1.1592 -1.5124 -0.7069
 3749SOL    HW222707   0.886   3.424   7.681  0.0843 -0.5019 -0.8644
 3750SOL     OW22708   4.259   1.792   4.547  0.1239  0.3984 -0.5447
 3750SOL    HW122709   4.201   1.722   4.518  0.4680  0.4442 -1.3281
 3750SOL    HW222710   4.347   1.754   4.543 -0.1516 -0.1748 -1.0871
 3751SOL     OW22711   0.945   0.526   4.932  0.2826  0.6171  0.1690
 3751SOL    HW122712   0.885   0.485   4.995  0.7993  0.5200  0.5951
 3751SOL    HW222713   0.956   0.612   4.973  2.5160  0.1295  0.5646
 3752SOL     OW22714   2.698   2.710   4.972 -0.5408 -0.2125  0.2655
 3752SOL    HW122715   2.723   2.732   4.883 -0.9872  1.4563  0.5511
 3752SOL    HW222716   2.608   2.742   4.976 -0.0642  1.1800 -0.3899
 3753SOL     OW22717   2.380   1.437   3.309 -0.0358 -0.0360 -0.2800
 3753SOL    HW122718   2.423   1.499   3.251 -2.0730  2.5234  0.9365
 3753SOL    HW222719   2.409   1.465   3.396  0.3638 -1.4543  0.0489
 3754SOL     OW22720   0.601   1.804   8.295  1.0144 -0.4596  0.2424
 3754SOL    HW122721   0.665   1.802   8.224  0.2711 -0.2084 -0.4369
 3754SOL    HW222722   0.634   1.729   8.345 -0.8895 -0.5721  1.3566
 3755SOL     OW22723   2.464   1.137  12.538  0.2321 -0.1439  0.1906
 3755SOL    HW122724   2.395   1.096  12.487  0.8496 -1.3186  0.2936
 3755SOL    HW222725   2.534   1.076  12.513 -0.0945  0.6027 -2.5053
 3756SOL     OW22726   3.842   0.578   0.003 -0.4179 -0.2138 -0.1820
 3756SOL    HW122727   3.910   0.643  17.691  0.4052 -1.3656 -1.1134
 3756SOL    HW222728   3.775   0.644   0.022 -0.7263 -0.5331 -0.1699
 3757SOL     OW22729   1.580   4.076  11.311  0.1387 -0.0152  0.0737
 3757SOL    HW122730   1.525   3.998  11.311 -0.3208  0.3109 -0.5763
 3757SOL    HW222731   1.558   4.108  11.399 -0.3534 -0.8605  0.2647
 3758SOL     OW22732   1.161   0.004   6.962 -0.0138  0.4058 -0.2348
 3758SOL    HW122733   1.067   0.019   6.969 -0.0882 -0.3237  0.3159
 3758SOL    HW222734   1.192   0.055   7.037  2.3962 -2.5029  0.7687
 3759SOL     OW22735   2.722   4.565   3.187 -0.3312 -0.1413  0.1956
 3759SOL    HW122736   2.817   4.569   3.194 -0.3666 -2.1932  1.8493
 3759SOL    HW222737   2.695   4.562   3.279  3.0159 -0.3557  1.1900
 3760SOL     OW22738   2.963   1.445   0.615  0.1927 -0.1172  0.6382
 3760SOL    HW122739   2.960   1.520   0.675  0.2719 -1.2445  2.0593
 3760SOL    HW222740   3.040   1.456   0.559 -1.6342  4.4129 -0.9466
 3761SOL     OW22741   2.834   1.742  13.228  0.1685  0.6148  0.8712
 3761SOL    HW122742   2.750   1.773  13.263 -0.4690 -0.2566  0.1184
 3761SOL    HW222743   2.835   1.657  13.270 -2.8975  0.8551  1.4084
 3762SOL     OW22744   3.335   4.372   4.551 -0.5927  0.1837 -0.3525
 3762SOL    HW122745   3.285   4.405   4.476  2.0431 -2.8238 -3.4018
 3762SOL    HW222746   3.418   4.413   4.529 -1.1607  1.3080 -0.4440
 3763SOL     OW22747   0.351   0.107   7.924  0.0399  0.0381  0.1421
 3763SOL    HW122748   0.292   0.041   7.960 -1.4692  0.7943 -0.9583
 3763SOL    HW222749   0.420   0.110   7.990 -1.5281 -1.2407  1.8225
 3764SOL     OW22750   1.779   0.452  14.134  0.1223  0.0873  0.3048
 3764SOL    HW122751   1.850   0.482  14.191  0.1069  0.2708  0.2266
 3764SOL    HW222752   1.817   0.368  14.107 -0.3055 -0.1919  0.5576
 3765SOL     OW22753   3.901   0.869   2.145 -0.0271  0.1050  0.2733
 3765SOL    HW122754   3.969   0.851   2.079 -0.6629  1.5682 -0.7679
 3765SOL    HW222755   3.831   0.901   2.089 -1.0748 -0.1340  1.4609
 3766SOL     OW22756   0.978   3.503  12.306  0.1694  0.1755 -0.8771
 3766SOL    HW122757   0.930   3.438  12.357 -2.2116  1.6285 -1.2600
 3766SOL    HW222758   1.002   3.561  12.378  0.3880  2.3183 -2.6765
 3767SOL     OW22759   0.028   2.961   0.791 -0.8769 -0.2264 -0.6618
 3767SOL    HW122760   4.672   2.926   0.826  0.1826 -1.0446  1.0235
 3767SOL    HW222761   0.022   3.057   0.788 -1.2567 -0.2670 -1.1707
 3768SOL     OW22762   4.032   1.093   8.582  0.0939 -0.1619 -0.0042
 3768SOL    HW122763   3.993   1.171   8.620  2.1736 -0.9966  3.8817
 3768SOL    HW222764   4.114   1.086   8.631 -0.7309 -1.8588  1.1498
 3769SOL     OW22765   2.623   0.062   7.536 -0.0115 -0.1442  0.3547
 3769SOL    HW122766   2.604   0.138   7.591  1.3611  1.2842 -1.1403
 3769SOL    HW222767   2.680   0.013   7.595  1.1389  1.3201  0.4583
 3770SOL     OW22768   3.206   4.498   4.762  0.0307  0.0301  0.0746
 3770SOL    HW122769   3.264   4.562   4.802  1.4728 -1.0630 -0.2748
 3770SOL    HW222770   3.260   4.441   4.707  0.8613 -0.2295  1.1457
 3771SOL     OW22771   4.643   1.193   5.744 -0.3606 -0.0982  0.2982
 3771SOL    HW122772   4.711   1.174   5.679 -0.9800  1.2764 -0.7557
 3771SOL    HW222773   4.648   1.122   5.807  0.6747  0.2967  0.6509
 3772SOL     OW22774   3.708   0.987   9.978 -0.5195  0.1288 -1.2029
 3772SOL    HW122775   3.636   1.050   9.982 -0.2157  0.5003 -1.6406
 3772SOL    HW222776   3.786   1.017  10.023 -1.0398 -0.1101 -0.1530
 3773SOL     OW22777   3.207   0.194   7.764  0.5912 -0.1728 -0.1470
 3773SOL    HW122778   3.181   0.285   7.781 -1.2516 -1.0764  1.8437
 3773SOL    HW222779   3.122   0.154   7.779 -0.1633  1.9978  1.4777
 3774SOL     OW22780   0.576   0.801   4.151 -0.2522  0.8545  0.0780
 3774SOL    HW122781   0.657   0.816   4.102  0.5278  2.3031  1.8236
 3774SOL    HW222782   0.509   0.784   4.085  0.8874  0.2173 -0.9186
 3775SOL     OW22783   3.136   0.769  16.655  0.1360  0.8242 -0.0586
 3775SOL    HW122784   3.105   0.680  16.640  1.2929  0.4086  0.0369
 3775SOL    HW222785   3.119   0.817  16.574  1.4411  2.2072  0.4937
 3776SOL     OW22786   0.923   2.096   3.882  0.7027  0.1892 -0.8331
 3776SOL    HW122787   0.833   2.069   3.865  0.5430 -0.6767  1.4259
 3776SOL    HW222788   0.909   2.130   3.970 -3.3670 -2.0779 -0.6169
 3777SOL     OW22789   3.163   1.230   2.282 -0.5674 -0.5401  0.1557
 3777SOL    HW122790   3.173   1.141   2.317 -0.9414 -0.5153  0.3316
 3777SOL    HW222791   3.227   1.222   2.212  1.8187 -0.0657  2.3223
 3778SOL     OW22792   4.239   1.939  17.070 -0.1636  0.1362 -0.3813
 3778SOL    HW122793   4.173   2.005  17.051 -1.3187 -0.9624 -0.2217
 3778SOL    HW222794   4.261   1.947  17.163 -0.7777  3.0693 -0.4948
 3779SOL     OW22795   1.192   1.010  17.257 -0.3158 -0.1368  1.3877
 3779SOL    HW122796   1.251   1.036  17.328  0.0010 -1.1206  1.4864
 3779SOL    HW222797   1.111   1.041  17.297 -1.2969 -1.6070  0.5542
 3780SOL     OW22798   3.800   1.633  17.580 -0.2794  0.1771 -0.1158
 3780SOL    HW122799   3.778   1.606  17.669 -0.0783  0.3127 -0.0234
 3780SOL    HW222800   3.745   1.580  17.523 -2.1720  0.3046  1.5868
 3781SOL     OW22801   2.005   0.409   1.343  0.2494  0.4158  0.0586
 3781SOL    HW122802   2.087   0.397   1.392  0.0786 -2.6295 -0.3959
 3781SOL    HW222803   2.040   0.413   1.254  2.7408  0.1618  1.0307
 3782SOL     OW22804   2.856   2.388   3.714  0.5966 -0.0622  0.4449
 3782SOL    HW122805   2.803   2.313   3.738  0.3966 -0.1829 -0.3617
 3782SOL    HW222806   2.938   2.344   3.693  0.6191 -0.4501  1.3464
 3783SOL     OW22807   1.749   4.446  10.948 -0.2358 -0.4129 -0.3344
 3783SOL    HW122808   1.704   4.373  10.991  0.1295 -0.9367 -0.8485
 3783SOL    HW222809   1.684   4.516  10.955  1.1672  1.0024 -1.5578
 3784SOL     OW22810   3.262   0.560   6.504  0.3060 -0.3075 -0.4986
 3784SOL    HW122811   3.234   0.484   6.555  0.2218  0.0441 -0.0189
 3784SOL    HW222812   3.311   0.602   6.575  0.4812 -1.2123 -0.0812
 3785SOL     OW22813   3.259   0.230   7.043 -0.3008  0.0610  0.2450
 3785SOL    HW122814   3.353   0.241   7.053 -0.3196 -0.0715  0.5745
 3785SOL    HW222815   3.240   0.246   6.951 -2.0581 -1.3787  0.3511
 3786SOL     OW22816   3.553   1.049   0.201 -0.0998 -0.0316 -0.1205
 3786SOL    HW122817   3.498   1.078   0.275 -0.3643 -0.8947  0.0270
 3786SOL    HW222818   3.619   0.990   0.238  0.9788 -0.0715 -2.1189
 3787SOL     OW22819   1.145   0.477   7.971  0.1068 -0.2514 -0.0093
 3787SOL    HW122820   1.138   0.499   8.063  1.7670  2.6143 -0.5615
 3787SOL    HW222821   1.119   0.553   7.919  1.8019 -1.3235 -2.4870
 3788SOL     OW22822   4.481   3.472   4.448 -0.1194  0.0164 -0.0195
 3788SOL    HW122823   4.552   3.408   4.458  0.3876  0.3269 -1.5997
 3788SOL    HW222824   4.514   3.545   4.500 -2.6543  2.3446 -1.6498
 3789SOL     OW22825   3.839   0.940   2.417 -0.3340  0.1659 -0.0652
 3789SOL    HW122826   3.871   0.925   2.328  0.8229  0.4699  0.3060
 3789SOL    HW222827   3.788   0.861   2.433  0.8785 -0.6786 -0.4647
 3790SOL     OW22828   1.335   3.368   4.621  0.1229  0.0668 -0.1557
 3790SOL    HW122829   1.372   3.448   4.659  2.4611 -0.3903 -1.4747
 3790SOL    HW222830   1.339   3.321   4.704 -0.1636 -0.2713 -0.3364
 3791SOL     OW22831   0.618   3.171  10.596  0.3742  0.2666 -0.4903
 3791SOL    HW122832   0.696   3.208  10.638  0.3530  0.5865 -0.7319
 3791SOL    HW222833   0.570   3.253  10.589  1.3435  0.7183 -1.9595
 3792SOL     OW22834   3.649   2.910  11.476  0.3548 -0.0241 -0.2743
 3792SOL    HW122835   3.571   2.898  11.424  1.7744 -1.0538 -2.1445
 3792SOL    HW222836   3.718   2.914  11.410 -0.2557  1.0874 -0.8419
 3793SOL     OW22837   3.936   4.159   7.163  0.5451  0.0098  0.8234
 3793SOL    HW122838   3.873   4.087   7.159  0.3102  0.1069  2.4813
 3793SOL    HW222839   4.026   4.126   7.162  0.2474 -0.9578  3.5202
 3794SOL     OW22840   2.453   1.868   6.270 -0.0838  0.4014  0.1297
 3794SOL    HW122841   2.371   1.869   6.221 -1.2361  2.4304  2.0890
 3794SOL    HW222842   2.515   1.881   6.199  0.0064 -2.7799 -0.3680
 3795SOL     OW22843   1.687   3.617  14.822  0.6118 -0.0126  0.2788
 3795SOL    HW122844   1.593   3.600  14.816  0.5814 -0.0393  0.8515
 3795SOL    HW222845   1.688   3.711  14.840  0.9645 -0.0001  0.2055
 3796SOL     OW22846   4.364   0.886   5.670  0.3235  0.0011  0.4256
 3796SOL    HW122847   4.298   0.914   5.734 -1.1856 -3.1222  0.2809
 3796SOL    HW222848   4.410   0.969   5.663 -0.9269  0.6854  0.3130
 3797SOL     OW22849   0.976   2.192   4.194 -0.2750  0.4258 -0.2361
 3797SOL    HW122850   1.010   2.222   4.279  0.7979 -0.5909 -0.3152
 3797SOL    HW222851   1.012   2.105   4.184 -1.7594  0.0048 -1.8267
 3798SOL     OW22852   1.569   2.960   7.518 -0.8554  0.1162  0.2019
 3798SOL    HW122853   1.487   2.915   7.498  0.0069 -1.9584  1.3946
 3798SOL    HW222854   1.557   3.046   7.477 -1.3791  0.9228  2.0453
 3799SOL     OW22855   3.058   1.208   2.936 -0.5228 -0.2592  0.3765
 3799SOL    HW122856   3.121   1.242   2.872  0.4899 -0.2851  1.3591
 3799SOL    HW222857   3.023   1.133   2.887  0.1449 -0.2899 -0.0567
 3800SOL     OW22858   0.420   1.175   2.295  0.4531  0.9467  0.1105
 3800SOL    HW122859   0.433   1.269   2.277  0.1282  0.5100 -2.4542
 3800SOL    HW222860   0.480   1.148   2.226  2.7814 -0.5689  2.7316
 3801SOL     OW22861   1.051   3.046   3.458  0.2402 -0.5544 -0.4268
 3801SOL    HW122862   1.135   3.000   3.464  2.9986  4.2991 -1.7325
 3801SOL    HW222863   1.085   3.116   3.403  0.4661  0.6237  1.2308
 3802SOL     OW22864   1.880   3.321   3.357  0.0557  0.8057 -0.6783
 3802SOL    HW122865   1.897   3.349   3.447 -1.5268  0.5306 -0.3002
 3802SOL    HW222866   1.877   3.225   3.366 -0.3544  0.8716 -0.1328
 3803SOL     OW22867   4.611   4.225   6.357  0.6848  0.6057 -0.4744
 3803SOL    HW122868   4.681   4.163   6.339 -0.1673 -0.6555  0.5550
 3803SOL    HW222869   4.527   4.179   6.359  1.3317 -0.5541 -0.4604
 3804SOL     OW22870   4.261   4.102   1.891  0.2621 -0.6040 -0.0979
 3804SOL    HW122871   4.293   4.192   1.897 -0.6714 -0.4942  2.9780
 3804SOL    HW222872   4.320   4.071   1.823 -1.0986  2.5329 -2.7057
 3805SOL     OW22873   2.380   2.933  10.349  0.3197 -0.0585 -0.4856
 3805SOL    HW122874   2.342   2.889  10.273 -0.5626 -0.5324  0.2290
 3805SOL    HW222875   2.474   2.933  10.332  0.1392 -1.8521 -1.4973
 3806SOL     OW22876   4.519   4.365   5.686 -0.0265 -0.2123 -0.1382
 3806SOL    HW122877   4.491   4.453   5.663  2.3814  0.6305  0.1296
 3806SOL    HW222878   4.493   4.352   5.777 -1.7802 -0.3008 -0.6592
 3807SOL     OW22879   3.898   3.798   3.312  0.1563  0.2873  0.0821
 3807SOL    HW122880   3.857   3.712   3.301  0.5715  0.1382 -0.2660
 3807SOL    HW222881   3.992   3.786   3.306 -0.4607 -4.4208 -0.3568
 3808SOL     OW22882   0.310   0.030   6.219  0.0322 -0.0488  0.6739
 3808SOL    HW122883   0.314   0.050   6.313 -0.6008 -0.3190  0.7618
 3808SOL    HW222884   0.379   4.691   6.221 -0.2835 -0.3730  0.9222
 3809SOL     OW22885   3.577   3.321  17.098 -0.6348 -0.2945 -0.2819
 3809SOL    HW122886   3.555   3.410  17.126 -0.2526  0.2360 -1.6699
 3809SOL    HW222887   3.588   3.281  17.185  1.2715 -1.0231 -0.8536
 3810SOL     OW22888   0.197   2.270   4.543 -0.5200 -0.1721  0.2622
 3810SOL    HW122889   0.175   2.342   4.602  0.3019  0.6177 -0.3936
 3810SOL    HW222890   0.254   2.297   4.471  1.4507 -0.5076  1.6961
 3811SOL     OW22891   2.100   3.114  11.412  0.3030 -0.8326  0.1436
 3811SOL    HW122892   2.172   3.058  11.442 -0.3223 -0.8683  1.5828
 3811SOL    HW222893   2.116   3.096  11.320  1.3284 -1.0294  0.3579
 3812SOL     OW22894   0.082   3.580   5.833 -0.2068 -0.0693 -0.0158
 3812SOL    HW122895   0.171   3.608   5.813 -0.8162  1.7808 -0.1403
 3812SOL    HW222896   0.062   3.615   5.919  0.2392  0.0162  0.0525
 3813SOL     OW22897   4.509   3.736   2.018  0.6552 -0.1509  0.6545
 3813SOL    HW122898   4.593   3.719   2.060 -0.0450 -0.9499  1.7394
 3813SOL    HW222899   4.540   3.786   1.943  1.2265  0.5052  1.3321
 3814SOL     OW22900   3.248   0.912  15.398  1.0866 -0.6587  0.2993
 3814SOL    HW122901   3.228   1.001  15.428  0.9809 -0.5834  0.0012
 3814SOL    HW222902   3.157   0.893  15.376  0.7334 -0.9429  1.9936
 3815SOL     OW22903   2.035   0.456   3.928  0.0306  0.2230  0.0868
 3815SOL    HW122904   1.952   0.412   3.949 -0.9235  1.3248 -1.4369
 3815SOL    HW222905   2.008   0.528   3.872 -2.2695 -1.1120 -0.5049
 3816SOL     OW22906   2.820   4.393   5.726  0.3308 -0.3847 -0.2907
 3816SOL    HW122907   2.860   4.384   5.639 -0.6604 -0.4404 -0.7406
 3816SOL    HW222908   2.728   4.402   5.703  0.5195  1.6456 -0.2179
 3817SOL     OW22909   2.635   0.880   7.239  0.8071  0.0351 -0.3033
 3817SOL    HW122910   2.712   0.892   7.293  0.6789 -0.2105 -0.0637
 3817SOL    HW222911   2.637   0.958   7.184 -0.0158  0.5531  0.4039
 3818SOL     OW22912   1.775   1.182   3.900  0.5174 -0.6336  0.6891
 3818SOL    HW122913   1.845   1.164   3.838 -0.2371  0.2515 -0.4307
 3818SOL    HW222914   1.792   1.118   3.969  0.9976 -0.3372  0.8456
 3819SOL     OW22915   4.496   0.183   0.114  0.4971 -0.3176 -0.5041
 3819SOL    HW122916   4.565   0.176   0.048  2.2374 -1.3838  1.3926
 3819SOL    HW222917   4.530   0.254   0.168 -0.8348 -1.9787  2.5263
 3820SOL     OW22918   2.010   0.025   1.208  0.4210  0.0954 -0.4543
 3820SOL    HW122919   2.079   4.701   1.251  0.0108  0.3361  0.4797
 3820SOL    HW222920   2.041   0.020   1.117  0.3008  2.2148 -0.6156
 3821SOL     OW22921   2.213   1.292   8.291 -0.3980 -0.1749 -0.3378
 3821SOL    HW122922   2.125   1.259   8.308 -1.3215  1.9078 -1.0505
 3821SOL    HW222923   2.267   1.220   8.323  0.6837 -0.0006 -1.8071
 3822SOL     OW22924   2.425   0.083   6.065  0.1924  0.5573 -0.6457
 3822SOL    HW122925   2.337   0.117   6.051 -0.0132  0.1982 -0.2345
 3822SOL    HW222926   2.461   0.127   5.988 -0.0580  0.2500 -0.9422
 3823SOL     OW22927   0.069   2.825   2.103 -0.6229 -0.3868 -0.5265
 3823SOL    HW122928   0.071   2.803   2.196 -2.0398 -0.7111 -0.5770
 3823SOL    HW222929   4.714   2.785   2.074 -0.2348 -0.6085 -1.3493
 3824SOL     OW22930   1.831   3.972  11.289  0.3303 -0.0753  0.0016
 3824SOL    HW122931   1.738   3.978  11.312  0.2702  0.0106 -0.2697
 3824SOL    HW222932   1.852   4.058  11.254 -2.1592  0.8670  0.8319
 3825SOL     OW22933   1.955   4.623   4.671 -0.0421  0.1647  0.0083
 3825SOL    HW122934   2.046   4.651   4.675 -0.0195  0.3686 -2.0040
 3825SOL    HW222935   1.965   4.528   4.676  0.4310  0.1534 -1.2140
 3826SOL     OW22936   2.175   2.963  10.777 -0.1474 -0.1314 -0.5505
 3826SOL    HW122937   2.178   3.022  10.702  2.1711  0.6469  0.1713
 3826SOL    HW222938   2.234   2.896  10.743 -0.8357 -0.9214 -0.1973
 3827SOL     OW22939   1.235   2.054  17.242  0.1948 -0.6845 -0.2758
 3827SOL    HW122940   1.312   2.091  17.198  0.0594  0.2805  0.3055
 3827SOL    HW222941   1.199   2.131  17.285 -2.3034 -0.5949 -2.4929
 3828SOL     OW22942   3.158   3.320   8.026  0.3866  0.1371  0.1399
 3828SOL    HW122943   3.195   3.300   7.940 -1.5384  0.9875 -0.9135
 3828SOL    HW222944   3.198   3.406   8.039  1.3046 -0.5255  1.6765
 3829SOL     OW22945   0.743   1.828   5.849  0.1044 -0.1765  0.3893
 3829SOL    HW122946   0.721   1.910   5.892 -0.2628 -0.7588  1.3053
 3829SOL    HW222947   0.654   1.798   5.829  1.2439 -1.6237 -2.5089
 3830SOL     OW22948   3.897   0.358   2.590  0.1122  0.2376  0.1204
 3830SOL    HW122949   3.988   0.357   2.619 -0.4763  0.0032  1.9278
 3830SOL    HW222950   3.862   0.426   2.647  0.5155 -0.8227  1.6316
 3831SOL     OW22951   2.091   1.233   4.534  0.4642  0.3511 -0.6221
 3831SOL    HW122952   2.147   1.161   4.564 -0.1907 -0.9589 -2.5215
 3831SOL    HW222953   2.152   1.273   4.472 -0.6920  1.5798 -0.9617
 3832SOL     OW22954   2.688   3.698   6.125 -0.3638 -0.0385 -0.1237
 3832SOL    HW122955   2.617   3.650   6.081  0.2533 -0.6932 -0.4016
 3832SOL    HW222956   2.767   3.666   6.083 -1.9724 -0.3323 -2.9186
 3833SOL     OW22957   3.007   1.660   2.807 -0.5832  0.6642 -0.2801
 3833SOL    HW122958   3.093   1.635   2.773 -0.1593 -0.1951  1.3874
 3833SOL    HW222959   2.969   1.575   2.830  1.7905 -0.3124  0.1328
 3834SOL     OW22960   0.745   3.924   5.105  0.7197  0.0743  0.1663
 3834SOL    HW122961   0.721   3.837   5.074 -1.6911  0.3284  1.2461
 3834SOL    HW222962   0.832   3.938   5.069  0.4680 -1.5859 -1.0995
 3835SOL     OW22963   0.256   3.441   3.090  0.6104 -0.0501  0.0343
 3835SOL    HW122964   0.252   3.347   3.073  2.4319  0.2889 -2.2690
 3835SOL    HW222965   0.169   3.468   3.060  1.4332 -0.4181 -2.6178
 3836SOL     OW22966   2.877   2.453   1.079 -0.0545 -0.2442 -0.2376
 3836SOL    HW122967   2.898   2.361   1.061 -2.3112 -0.4705 -1.7778
 3836SOL    HW222968   2.931   2.498   1.015 -0.9705  0.4683 -0.5147
 3837SOL     OW22969   1.343   0.453  15.300  0.2688  0.2026  0.2369
 3837SOL    HW122970   1.399   0.440  15.224  0.8275 -0.1413  0.7034
 3837SOL    HW222971   1.359   0.371  15.347 -0.1426 -0.7072 -1.2046
 3838SOL     OW22972   4.277   3.466  16.341 -0.3809  0.0539  0.2343
 3838SOL    HW122973   4.253   3.499  16.255  0.9074  0.0550 -0.1279
 3838SOL    HW222974   4.309   3.381  16.313  0.7574  1.0393 -1.4570
 3839SOL     OW22975   0.166   2.086  12.302  0.5107 -0.0735  0.8176
 3839SOL    HW122976   0.137   1.996  12.290  0.6392 -0.1115  0.7978
 3839SOL    HW222977   0.097   2.127  12.353  0.7990 -1.9156  2.6685
 3840SOL     OW22978   0.293   4.343   4.827  0.1464  0.3070  0.3588
 3840SOL    HW122979   0.284   4.310   4.738 -0.2267 -1.2185  0.9752
 3840SOL    HW222980   0.388   4.351   4.835 -0.3436  2.3505  4.4053
 3841SOL     OW22981   1.706   2.149   0.639  0.4316 -0.3166  1.3204
 3841SOL    HW122982   1.642   2.216   0.661  1.4762  0.8898  0.7434
 3841SOL    HW222983   1.664   2.072   0.675  1.2289 -0.9204  0.9636
 3842SOL     OW22984   1.566   2.197   8.091 -0.3605  0.2328  0.0215
 3842SOL    HW122985   1.554   2.143   8.012 -2.8693 -1.3009  1.4509
 3842SOL    HW222986   1.660   2.195   8.109 -0.0823 -1.6314 -1.5298
 3843SOL     OW22987   2.331   2.647  13.682 -0.5981  0.3910  1.0087
 3843SOL    HW122988   2.362   2.600  13.605  0.1463  2.2213  0.1867
 3843SOL    HW222989   2.331   2.570  13.739 -0.2407 -0.0977  0.3533
 3844SOL     OW22990   0.389   2.590   6.654 -0.2024  0.0209 -0.2335
 3844SOL    HW122991   0.415   2.681   6.669 -3.0218  0.6861  0.5970
 3844SOL    HW222992   0.416   2.568   6.565  0.0111 -0.3898 -0.0650
 3845SOL     OW22993   1.401   1.979   6.691  0.2398  0.1970 -0.1402
 3845SOL    HW122994   1.394   2.070   6.718 -0.2579  0.1124  0.0109
 3845SOL    HW222995   1.494   1.968   6.713  0.4218 -0.0483 -1.0524
 3846SOL     OW22996   1.826   1.580   2.842  0.0214  0.6291  0.6328
 3846SOL    HW122997   1.749   1.622   2.804  0.2447 -0.3857 -0.9351
 3846SOL    HW222998   1.886   1.587   2.769 -1.8649  2.1021 -0.7837
 3847SOL     OW22999   3.394   2.510   6.325 -0.4612  0.1667  0.2252
 3847SOL    HW123000   3.340   2.447   6.373 -1.2028 -0.1862 -1.0897
 3847SOL    HW223001   3.478   2.466   6.333  0.6059  2.3385  1.0979
 3848SOL     OW23002   1.762   4.502   0.747 -0.1117  0.2313 -0.0014
 3848SOL    HW123003   1.724   4.414   0.741  0.6087  0.0717 -2.0953
 3848SOL    HW223004   1.856   4.493   0.728 -0.2492 -1.8703  0.3075
 3849SOL     OW23005   1.476   4.450  10.245 -0.9903  0.3357 -0.0035
 3849SOL    HW123006   1.431   4.375  10.205 -1.5499  0.8944 -0.4166
 3849SOL    HW223007   1.500   4.495  10.164 -1.6112 -0.2887 -0.5436
 3850SOL     OW23008   4.163   3.030   6.297 -0.6047 -0.2830 -0.2132
 3850SOL    HW123009   4.199   3.111   6.331 -2.4613  0.4116  0.1298
 3850SOL    HW223010   4.182   2.970   6.369 -1.1756 -0.8795 -0.5577
 3851SOL     OW23011   1.086   0.272   2.199 -0.1516 -0.2246 -0.5099
 3851SOL    HW123012   1.030   0.208   2.155  1.8596 -0.4359 -2.8163
 3851SOL    HW223013   1.168   0.221   2.201  0.3357  0.5626 -0.4463
 3852SOL     OW23014   3.927   2.908   9.815 -0.0525  0.1490 -0.2004
 3852SOL    HW123015   4.015   2.928   9.848  0.0040 -2.0793  0.9621
 3852SOL    HW223016   3.950   2.850   9.742  0.6099  1.5610 -1.1167
 3853SOL     OW23017   3.141   1.389  11.483 -0.2888 -0.1996  0.1224
 3853SOL    HW123018   3.184   1.449  11.544 -1.4147 -0.7648  1.4674
 3853SOL    HW223019   3.141   1.443  11.403  2.1123  0.7711  0.7861
 3854SOL     OW23020   2.371   4.575   5.970 -0.9299  0.1575 -0.3607
 3854SOL    HW123021   2.384   4.668   5.991 -1.9471 -0.0078  1.0550
 3854SOL    HW223022   2.324   4.548   6.049 -1.5837 -0.9220 -1.1222
 3855SOL     OW23023   3.212   1.389   6.602  0.2750  0.6035 -0.2643
 3855SOL    HW123024   3.139   1.444   6.630  0.3040  1.5844 -2.1292
 3855SOL    HW223025   3.257   1.372   6.685 -0.7751 -2.3757 -0.3029
 3856SOL     OW23026   2.154   1.167   2.705 -0.3658  0.0025 -0.9285
 3856SOL    HW123027   2.182   1.116   2.782 -0.1074  0.4314 -0.7411
 3856SOL    HW223028   2.227   1.146   2.647  0.6450 -1.9229  0.9942
 3857SOL     OW23029   3.787   3.241   7.778 -0.4944  0.7883  0.1700
 3857SOL    HW123030   3.803   3.318   7.833  0.8304 -0.3954  1.4463
 3857SOL    HW223031   3.856   3.183   7.811 -1.2119 -0.6746 -0.8857
 3858SOL     OW23032   1.942   2.512   9.642  0.2301 -0.8633  0.1855
 3858SOL    HW123033   1.932   2.583   9.705  1.4695  0.1711 -0.7843
 3858SOL    HW223034   1.870   2.532   9.581 -0.7341  1.6554  2.1478
 3859SOL     OW23035   0.873   2.579   7.494 -0.5231  0.4257  0.3538
 3859SOL    HW123036   0.902   2.488   7.509 -0.5506  0.4831  0.7629
 3859SOL    HW223037   0.853   2.561   7.402  1.8076  1.0106 -0.2690
 3860SOL     OW23038   4.560   0.824  14.103 -0.6256 -0.4492 -0.4030
 3860SOL    HW123039   4.615   0.752  14.074 -1.2149  0.0516 -2.8241
 3860SOL    HW223040   4.609   0.897  14.065 -0.2386 -0.2260  0.5319
 3861SOL     OW23041   4.249   4.629  13.767 -0.2439  0.4905  0.3384
 3861SOL    HW123042   4.155   4.610  13.772 -0.0613 -0.0570  1.6065
 3861SOL    HW223043   4.277   4.564  13.702 -1.5925 -1.0394  1.3006
 3862SOL     OW23044   3.157   4.687  10.493  0.0236  0.0855 -0.0274
 3862SOL    HW123045   3.154   4.598  10.459 -4.4244 -0.4146  1.7654
 3862SOL    HW223046   3.071   4.717  10.462  0.2214 -1.0435 -1.6529
 3863SOL     OW23047   4.389   2.819  11.551 -0.4238  0.0620 -0.0792
 3863SOL    HW123048   4.440   2.764  11.611 -1.2472  0.3453  0.8902
 3863SOL    HW223049   4.434   2.788  11.473 -0.1796 -1.0293  0.5085
 3864SOL     OW23050   2.390   1.146   4.112 -0.1654  0.1250  0.1762
 3864SOL    HW123051   2.417   1.141   4.203 -0.0960 -1.6410  0.0703
 3864SOL    HW223052   2.455   1.205   4.075  0.4667  0.3741  1.7080
 3865SOL     OW23053   1.331   2.017  10.345  0.2053  0.5437  0.4090
 3865SOL    HW123054   1.275   2.045  10.417  0.3190 -1.4878  1.2624
 3865SOL    HW223055   1.310   1.925  10.334 -0.0520  0.5631  0.7505
 3866SOL     OW23056   0.741   4.085  16.301 -0.2275  0.0103 -0.2531
 3866SOL    HW123057   0.708   4.131  16.379 -2.7228  0.7564 -1.7396
 3866SOL    HW223058   0.686   4.135  16.240 -1.4547 -0.3831  0.5343
 3867SOL     OW23059   3.328   4.344   5.361  0.3104 -0.6499  0.1913
 3867SOL    HW123060   3.374   4.337   5.444  0.5756  2.2476  0.2920
 3867SOL    HW223061   3.322   4.250   5.343 -0.2493 -0.2866 -1.4933
 3868SOL     OW23062   3.826   1.313  10.903 -0.7281 -0.5068  0.1470
 3868SOL    HW123063   3.898   1.335  10.962  0.7545 -0.4481 -1.6947
 3868SOL    HW223064   3.754   1.355  10.949 -1.0774 -0.1347 -0.7387
 3869SOL     OW23065   1.021   1.785   3.359  0.0192  0.1556 -0.4323
 3869SOL    HW123066   0.979   1.764   3.276  0.4710  1.2341 -0.9491
 3869SOL    HW223067   0.968   1.741   3.425  2.3202 -1.2162  0.4926
 3870SOL     OW23068   4.375   0.022   7.390 -0.1857 -0.4514 -0.2545
 3870SOL    HW123069   4.356   0.115   7.401 -0.3119 -0.4355 -0.6014
 3870SOL    HW223070   4.440   0.003   7.457 -0.5365  2.6171  0.9336
 3871SOL     OW23071   4.365   2.318   3.746  0.3181 -0.9748 -0.0142
 3871SOL    HW123072   4.375   2.240   3.802  2.3174  1.3262  2.8101
 3871SOL    HW223073   4.380   2.279   3.660  1.1092 -0.1563 -0.2514
 3872SOL     OW23074   2.254   3.807   7.479  0.2268  0.0151  0.1882
 3872SOL    HW123075   2.215   3.870   7.539 -0.7127 -2.8070  2.5790
 3872SOL    HW223076   2.337   3.800   7.527  0.3067 -0.2191  0.0180
 3873SOL     OW23077   3.682   3.944   6.298  0.0741 -0.2462 -0.4471
 3873SOL    HW123078   3.726   3.862   6.277  0.0299 -0.0939 -1.1084
 3873SOL    HW223079   3.607   3.953   6.240  1.0258  1.0317 -1.4580
 3874SOL     OW23080   4.077   1.878   6.489 -0.3698  0.0374  0.2331
 3874SOL    HW123081   4.074   1.787   6.461 -0.5163  0.0292  0.2788
 3874SOL    HW223082   4.142   1.881   6.559 -0.1334 -0.6798  0.0392
 3875SOL     OW23083   3.415   0.397   6.054 -0.2081 -0.1298  0.4115
 3875SOL    HW123084   3.375   0.482   6.036  0.5102  0.0293 -0.4728
 3875SOL    HW223085   3.485   0.399   5.988  0.3768 -2.6119  0.9697
 3876SOL     OW23086   4.220   2.511   8.026 -0.5904 -0.8653  0.6352
 3876SOL    HW123087   4.169   2.589   8.049  1.8336  0.2085  2.3485
 3876SOL    HW223088   4.240   2.471   8.110  1.9988 -0.9703 -0.0342
 3877SOL     OW23089   1.341   3.251   5.197  0.1718 -0.0075 -0.4788
 3877SOL    HW123090   1.425   3.205   5.191  1.7745  2.7080  1.0146
 3877SOL    HW223091   1.280   3.178   5.192  1.1398 -0.9162  0.9009
 3878SOL     OW23092   3.995   3.115   4.412 -0.2795 -0.1980 -0.1691
 3878SOL    HW123093   3.954   3.032   4.433 -0.9213 -0.4452 -2.4324
 3878SOL    HW223094   3.994   3.157   4.498  1.2824  0.6531 -0.5590
 3879SOL     OW23095   3.473   1.140   1.664 -0.2232  0.2342 -0.0190
 3879SOL    HW123096   3.537   1.209   1.682 -0.0837  0.5264 -1.5875
 3879SOL    HW223097   3.533   1.067   1.650 -0.5713 -0.1469  0.4937
 3880SOL     OW23098   4.617   3.803   1.772 -0.2684  0.8202  0.2006
 3880SOL    HW123099   4.539   3.823   1.719  0.2911  1.7802 -0.2624
 3880SOL    HW223100   4.654   3.722   1.737 -1.2464  0.5011 -0.0875
 3881SOL     OW23101   0.016   2.170   8.036 -0.2533  0.0083  0.2164
 3881SOL    HW123102   0.101   2.182   8.077  0.2424  0.7211 -0.9998
 3881SOL    HW223103   0.045   2.117   7.962  0.5399  1.8457 -0.7928
 3882SOL     OW23104   3.978   4.561  16.042 -0.5133 -0.0625 -0.0500
 3882SOL    HW123105   4.019   4.486  16.084 -0.2464  0.2662  0.2697
 3882SOL    HW223106   3.994   4.540  15.950  0.9102  1.2023 -0.0968
 3883SOL     OW23107   2.616   1.473   0.564 -0.0720 -0.1698  0.4553
 3883SOL    HW123108   2.637   1.551   0.615 -1.2760 -0.2546  1.0923
 3883SOL    HW223109   2.707   1.443   0.558 -0.2309 -0.3492 -1.0617
 3884SOL     OW23110   3.689   1.096   7.266  0.3227 -0.3603 -0.1245
 3884SOL    HW123111   3.782   1.100   7.246  0.2528  0.8842 -0.2252
 3884SOL    HW223112   3.690   1.122   7.358  0.5154  2.1128 -0.8232
 3885SOL     OW23113   2.439   3.678   5.078 -0.3011 -0.1559 -0.2822
 3885SOL    HW123114   2.463   3.593   5.115  0.6221  0.0064 -0.5202
 3885SOL    HW223115   2.348   3.692   5.106  0.4379  1.4821  1.2925
 3886SOL     OW23116   2.761   0.614  13.142 -0.0669 -0.9222 -0.2226
 3886SOL    HW123117   2.679   0.634  13.187  1.1594  0.3181  1.4637
 3886SOL    HW223118   2.746   0.662  13.061  1.2299 -0.1694 -0.0104
 3887SOL     OW23119   2.164   2.072   7.189 -0.6671 -0.4675  0.2892
 3887SOL    HW123120   2.161   1.977   7.195 -2.3270 -0.4796 -0.6804
 3887SOL    HW223121   2.157   2.104   7.279  3.5311  1.3495 -0.0384
 3888SOL     OW23122   4.254   1.146   5.308  0.0230 -0.5088  0.0116
 3888SOL    HW123123   4.173   1.144   5.256  0.8626 -1.6336 -1.2551
 3888SOL    HW223124   4.256   1.236   5.339  1.2877 -0.8347  0.8959
 3889SOL     OW23125   0.781   0.067   2.319 -0.3091  0.1887  0.1788
 3889SOL    HW123126   0.711   0.104   2.264  1.1603  0.1654 -1.7210
 3889SOL    HW223127   0.849   0.051   2.254 -0.8721  1.0115 -0.6307
 3890SOL     OW23128   4.264   2.869   3.601  0.2122  0.4275  0.5077
 3890SOL    HW123129   4.308   2.798   3.553 -2.4792 -0.5413 -0.5361
 3890SOL    HW223130   4.263   2.844   3.694  0.6590 -0.7582  0.2016
 3891SOL     OW23131   3.033   2.990  13.599 -0.2771  0.2595 -0.0076
 3891SOL    HW123132   3.056   3.008  13.690  1.2333 -1.1886 -0.0970
 3891SOL    HW223133   2.941   3.014  13.596 -0.7495 -1.2943  1.8939
 3892SOL     OW23134   3.233   0.627  11.112  0.9205  1.1044 -0.0080
 3892SOL    HW123135   3.236   0.534  11.089 -0.2876  1.0333  0.1131
 3892SOL    HW223136   3.214   0.678  11.034 -2.7258  0.8449  0.7243
 3893SOL     OW23137   3.745   4.589   2.279  0.0070 -0.1347 -0.1811
 3893SOL    HW123138   3.721   4.496   2.276  1.9774 -0.6597 -0.1182
 3893SOL    HW223139   3.752   4.610   2.186  2.4420  2.4866  0.5969
 3894SOL     OW23140   3.022   4.143   1.718  0.2334  0.1623 -0.1727
 3894SOL    HW123141   3.024   4.180   1.806 -0.3178 -2.5091  0.9798
 3894SOL    HW223142   2.955   4.205   1.689  1.5480  2.2918  1.4060
 3895SOL     OW23143   2.327   3.130   4.106 -0.5181 -0.2349 -0.4666
 3895SOL    HW123144   2.400   3.170   4.153 -2.1606 -0.0793  1.9411
 3895SOL    HW223145   2.332   3.183   4.026  0.7087 -0.4931 -0.5665
 3896SOL     OW23146   1.894   4.706   5.826 -0.0905  0.1575  0.6550
 3896SOL    HW123147   1.861   0.000   5.914  0.8931  2.0632  0.5781
 3896SOL    HW223148   1.812   4.699   5.778  0.7207 -4.0959 -0.0771
 3897SOL     OW23149   0.852   0.724   5.996 -0.2743 -0.1517 -0.7975
 3897SOL    HW123150   0.946   0.710   5.986 -0.6475 -3.9503  1.2657
 3897SOL    HW223151   0.857   0.799   6.055  2.6052 -2.8412  2.3873
 3898SOL     OW23152   1.476   1.381   4.423 -0.0659 -0.2521  0.0714
 3898SOL    HW123153   1.530   1.428   4.359  0.4453 -0.4418  0.3564
 3898SOL    HW223154   1.505   1.435   4.496 -1.0543  0.5305 -0.1277
 3899SOL     OW23155   2.740   3.712  13.086 -0.3180 -0.1952  0.6568
 3899SOL    HW123156   2.754   3.620  13.060 -2.1404 -0.0753 -0.7329
 3899SOL    HW223157   2.825   3.737  13.122 -0.1894 -0.0500  0.2577
 3900SOL     OW23158   2.223   1.201   6.320  0.0891  0.4589 -0.1641
 3900SOL    HW123159   2.184   1.123   6.280  1.5841 -0.3845  0.0074
 3900SOL    HW223160   2.299   1.163   6.365 -0.8501  0.5480  1.4968
 3901SOL     OW23161   2.070   4.705   8.692 -0.6968 -0.1314 -0.3954
 3901SOL    HW123162   2.043   0.035   8.764 -0.3429 -3.2739  2.2208
 3901SOL    HW223163   2.140   4.655   8.735 -1.0163  0.0388  0.3157
 3902SOL     OW23164   3.886   0.895   7.563  0.5140 -0.1740 -0.5323
 3902SOL    HW123165   3.942   0.850   7.500  1.4070 -1.8112  1.4596
 3902SOL    HW223166   3.951   0.955   7.598  0.4924 -0.5732  0.1929
 3903SOL     OW23167   4.123   2.865  15.746  0.1431  0.1302  0.4067
 3903SOL    HW123168   4.075   2.839  15.825  3.2771 -0.9592  1.9756
 3903SOL    HW223169   4.059   2.878  15.677  0.8852  1.4037 -0.0520
 3904SOL     OW23170   0.121   3.963   7.857  0.1305  0.4959 -0.7368
 3904SOL    HW123171   0.149   3.964   7.766  3.1546 -1.0228  0.2002
 3904SOL    HW223172   0.177   3.891   7.886  0.8389  0.9516 -0.9810
 3905SOL     OW23173   0.358   3.082   5.277 -0.0255 -0.8159 -0.0023
 3905SOL    HW123174   0.359   3.103   5.370  1.7799 -2.3992  0.3074
 3905SOL    HW223175   0.274   3.037   5.265 -1.1382  1.0618  0.6673
 3906SOL     OW23176   2.945   4.694   2.350 -0.3231  0.1791  0.4880
 3906SOL    HW123177   2.908   0.005   2.430  0.2866  2.9341 -0.5346
 3906SOL    HW223178   3.033   0.004   2.353 -0.3848  0.5309 -2.1681
 3907SOL     OW23179   4.459   0.330  16.275  0.0196 -0.0332  0.0359
 3907SOL    HW123180   4.406   0.250  16.270  3.5654 -2.3315 -0.2600
 3907SOL    HW223181   4.435   0.377  16.195  0.1150 -1.3123 -0.7360
 3908SOL     OW23182   3.982   4.575  10.261  0.1815 -0.2506  0.4526
 3908SOL    HW123183   4.039   4.564  10.337  1.3932  0.6748 -0.3251
 3908SOL    HW223184   3.907   4.525  10.293  0.4131 -1.7810 -1.3506
 3909SOL     OW23185   3.152   4.615   5.851  0.6441 -0.0307 -0.6745
 3909SOL    HW123186   3.123   4.525   5.837 -2.8955  0.7188  1.9630
 3909SOL    HW223187   3.228   4.601   5.909  0.8884  1.3949 -0.6439
 3910SOL     OW23188   3.828   0.533   6.718 -0.3427 -0.1260  0.4259
 3910SOL    HW123189   3.785   0.557   6.800 -0.3354 -0.5070  0.5411
 3910SOL    HW223190   3.756   0.492   6.670 -0.2850  0.3574 -0.0752
 3911SOL     OW23191   0.649   3.501   0.254 -0.3628  0.4032  0.0894
 3911SOL    HW123192   0.674   3.560   0.183 -0.5658  0.9349  0.4577
 3911SOL    HW223193   0.618   3.561   0.322 -3.3067 -0.4031 -0.5044
 3912SOL     OW23194   0.252   1.928   6.688  0.9508 -0.2655  0.3053
 3912SOL    HW123195   0.276   1.858   6.628 -0.0049 -0.2349 -0.1115
 3912SOL    HW223196   0.175   1.889   6.730  1.3828 -1.8659 -0.4108
 3913SOL     OW23197   3.288   4.370   7.055  0.0337  0.3296  0.2001
 3913SOL    HW123198   3.254   4.296   7.104  1.5762 -1.0107 -0.7109
 3913SOL    HW223199   3.372   4.338   7.020  0.1682  2.1411 -1.1902
 3914SOL     OW23200   3.574   0.855   8.094  0.1878  0.1983 -0.1321
 3914SOL    HW123201   3.536   0.934   8.054  2.8006  1.8553  0.6727
 3914SOL    HW223202   3.593   0.808   8.014  1.5431  1.0651 -0.3187
 3915SOL     OW23203   2.130   3.795   4.385  0.1893  0.3245  0.2802
 3915SOL    HW123204   2.088   3.742   4.453  2.9917 -0.5638  1.3183
 3915SOL    HW223205   2.116   3.883   4.420  3.0736  0.2688  1.5241
 3916SOL     OW23206   0.986   1.637   4.194 -0.9963 -0.4392  0.4801
 3916SOL    HW123207   1.078   1.630   4.220 -0.6225 -2.4007 -1.4050
 3916SOL    HW223208   0.940   1.590   4.263 -0.1953  0.2533  1.4893
 3917SOL     OW23209   4.520   4.538   0.597  0.2556  0.6777 -0.9561
 3917SOL    HW123210   4.592   4.503   0.649 -2.8407  1.2897  3.7426
 3917SOL    HW223211   4.578   4.571   0.527 -3.5500  3.7759 -2.6709
 3918SOL     OW23212   3.827   0.104  10.223 -0.1462  0.4815 -0.5381
 3918SOL    HW123213   3.881   0.169  10.268 -0.3837  1.0224 -1.0386
 3918SOL    HW223214   3.771   0.075  10.294 -0.5637 -0.1537 -1.1327
 3919SOL     OW23215   1.449   4.009   8.074  0.4614  0.0226 -0.2344
 3919SOL    HW123216   1.532   3.964   8.058  0.5198 -0.1609  0.6134
 3919SOL    HW223217   1.451   4.084   8.014  0.6064 -1.3617 -1.9471
 3920SOL     OW23218   0.701   4.377   7.184 -0.4982 -0.1540  0.3049
 3920SOL    HW123219   0.789   4.382   7.222  0.4159  0.6317 -1.8997
 3920SOL    HW223220   0.695   4.283   7.166 -0.1210 -0.5334  2.1554
 3921SOL     OW23221   2.801   3.234  13.856  0.7358 -0.1582  0.2519
 3921SOL    HW123222   2.857   3.177  13.910 -0.7925 -2.2780 -0.3889
 3921SOL    HW223223   2.836   3.318  13.886 -2.2135  0.4565  1.9405
 3922SOL     OW23224   1.375   3.688  17.687  0.0409  0.2045 -0.7572
 3922SOL    HW123225   1.356   3.773   0.020  0.0005 -0.6525  0.9939
 3922SOL    HW223226   1.342   3.695  17.597  2.0407  1.0979 -1.4354
 3923SOL     OW23227   2.073   2.065   1.685 -0.1718  0.4939 -0.1719
 3923SOL    HW123228   2.009   2.005   1.725  1.0808 -1.7608 -1.4960
 3923SOL    HW223229   2.145   2.048   1.746  1.7482  1.0861 -2.2509
 3924SOL     OW23230   4.178   2.918   9.949 -0.5145  0.4443  0.4660
 3924SOL    HW123231   4.250   2.863   9.979 -0.8567 -0.5861 -0.5885
 3924SOL    HW223232   4.225   2.977   9.890 -0.0946 -1.1875 -0.8285
 3925SOL     OW23233   1.971   4.143  14.327  0.4907 -0.1576  0.0594
 3925SOL    HW123234   1.936   4.080  14.264 -3.7512  2.6551 -0.3404
 3925SOL    HW223235   2.013   4.076  14.382 -0.9876 -1.0896  0.0490
 3926SOL     OW23236   2.864   0.619  10.920 -0.5480  0.5528  0.4103
 3926SOL    HW123237   2.860   0.555  10.991 -2.3644 -1.5336 -1.5509
 3926SOL    HW223238   2.894   0.701  10.959 -0.3548  0.6704  0.0214
 3927SOL     OW23239   1.846   3.075   8.643 -0.1763 -0.7372 -0.9453
 3927SOL    HW123240   1.941   3.080   8.655 -0.5961  2.3767  1.3701
 3927SOL    HW223241   1.843   3.023   8.563 -0.0606  0.2012 -1.5611
 3928SOL     OW23242   1.269   4.050   0.745 -0.4343 -0.1450  0.6336
 3928SOL    HW123243   1.203   3.996   0.704  1.9503 -0.5750 -2.6193
 3928SOL    HW223244   1.270   4.129   0.691 -0.1980 -0.2933  0.4233
 3929SOL     OW23245   2.926   4.407  10.862  0.3843  0.4596 -0.6239
 3929SOL    HW123246   2.851   4.463  10.844  0.9643  0.9054 -1.6585
 3929SOL    HW223247   2.873   4.328  10.875  1.0348  0.3944  1.5702
 3930SOL     OW23248   0.802   0.905   1.145 -0.0497 -0.5002  0.2706
 3930SOL    HW123249   0.800   0.838   1.214 -1.2196 -0.2466  0.4768
 3930SOL    HW223250   0.844   0.852   1.078 -0.2108 -0.0660 -0.1710
 3931SOL     OW23251   0.431   2.593   8.124 -0.7122  0.7747 -0.2321
 3931SOL    HW123252   0.468   2.653   8.189 -0.5949 -1.9267  2.1850
 3931SOL    HW223253   0.489   2.607   8.049 -1.8014 -1.3805 -1.4652
 3932SOL     OW23254   2.659   3.273   0.886  0.6009  0.5858 -0.1229
 3932SOL    HW123255   2.631   3.182   0.894 -0.6839  1.1530  1.7193
 3932SOL    HW223256   2.682   3.279   0.793  1.4571 -0.7141  0.0065
 3933SOL     OW23257   3.677   0.624   6.104  0.4407 -0.2699  0.4239
 3933SOL    HW123258   3.706   0.701   6.055  0.9553 -0.1509  0.9136
 3933SOL    HW223259   3.619   0.586   6.038  0.7945  0.0859 -0.0929
 3934SOL     OW23260   2.338   0.393   4.013  0.5265 -0.2001 -0.4126
 3934SOL    HW123261   2.338   0.298   4.021 -1.4428  0.0096  2.0147
 3934SOL    HW223262   2.245   0.407   3.998  0.5710  0.8397  0.3033
 3935SOL     OW23263   3.555   4.632  13.695 -0.4742  0.3218  0.2788
 3935SOL    HW123264   3.648   4.623  13.714 -1.0584 -2.3184  1.9707
 3935SOL    HW223265   3.512   4.625  13.780 -1.5845 -2.5757 -0.4941
 3936SOL     OW23266   3.344   3.660  12.330 -0.1834  0.0548  0.1964
 3936SOL    HW123267   3.386   3.600  12.392 -2.3385 -0.0255  1.5858
 3936SOL    HW223268   3.352   3.608  12.250  0.3768  1.9293 -0.9589
 3937SOL     OW23269   2.852   4.659  15.954  0.7045  0.5450 -0.2047
 3937SOL    HW123270   2.763   4.626  15.968  1.0391 -0.2220  0.0818
 3937SOL    HW223271   2.852   0.004  16.017  0.7852 -0.2911  0.7417
 3938SOL     OW23272   1.920   2.488   4.460 -0.1614  0.4088 -0.4977
 3938SOL    HW123273   1.902   2.431   4.535 -1.2086  0.3164 -0.8124
 3938SOL    HW223274   2.010   2.458   4.451  0.0060  0.9027 -0.4692
 3939SOL     OW23275   2.209   1.708   8.696  0.0930  0.0500  0.2241
 3939SOL    HW123276   2.148   1.634   8.699 -1.3587  1.2977  1.3906
 3939SOL    HW223277   2.157   1.783   8.724 -0.4416  0.1887 -1.0992
 3940SOL     OW23278   1.113   3.050   5.184  0.5242 -0.2771  0.2494
 3940SOL    HW123279   1.023   3.042   5.215  0.6537 -0.0643  0.6729
 3940SOL    HW223280   1.100   3.046   5.089 -0.2491  0.1626  0.3370
 3941SOL     OW23281   4.065   0.389  11.177 -0.0364  0.6401  0.4181
 3941SOL    HW123282   3.977   0.409  11.211 -0.7929  0.6180 -1.5310
 3941SOL    HW223283   4.048   0.318  11.114  0.8708  0.9826 -0.2058
 3942SOL     OW23284   0.375   3.231   8.199  0.3107 -0.0836  0.1040
 3942SOL    HW123285   0.400   3.191   8.116 -4.4182 -1.2989 -0.7331
 3942SOL    HW223286   0.452   3.218   8.255 -0.1254 -1.4904  0.3918
 3943SOL     OW23287   2.748   1.261   5.838 -0.2342 -0.0115  0.0986
 3943SOL    HW123288   2.736   1.233   5.929 -0.7906  1.6196  0.5230
 3943SOL    HW223289   2.666   1.228   5.803 -0.8837  1.6463  0.0332
 3944SOL     OW23290   1.617   2.803   9.266  0.1882 -0.0781  0.2598
 3944SOL    HW123291   1.589   2.826   9.355 -2.2441  0.0191 -0.5277
 3944SOL    HW223292   1.593   2.710   9.259  0.8870 -0.5455  4.0717
 3945SOL     OW23293   4.109   0.644   6.944  0.5602  0.0605  0.3935
 3945SOL    HW123294   4.050   0.660   7.017  0.7723 -2.0613  1.0108
 3945SOL    HW223295   4.184   0.659   7.002  1.3679 -0.6084 -0.4712
 3946SOL     OW23296   1.382   4.597   1.883  0.1111 -0.1696  0.3860
 3946SOL    HW123297   1.429   4.595   1.966 -0.2899  2.3742  0.6657
 3946SOL    HW223298   1.451   4.549   1.837  0.1049 -0.9812  1.2235
 3947SOL     OW23299   0.490   2.737   7.430  0.2999  0.5345 -0.0116
 3947SOL    HW123300   0.416   2.773   7.381  0.5854  1.7526  0.4334
 3947SOL    HW223301   0.480   2.781   7.515  1.1226  0.6233  0.0427
 3948SOL     OW23302   0.312   0.074  13.955 -0.5041  0.3751  0.5341
 3948SOL    HW123303   0.332   4.708  13.969  0.7663  0.6050  0.2725
 3948SOL    HW223304   0.369   0.118  14.019  0.5492 -0.5503  0.2457
 3949SOL     OW23305   3.214   3.369   3.210  0.1099 -0.2212  0.1994
 3949SOL    HW123306   3.219   3.347   3.303  2.6364  1.0267  0.3694
 3949SOL    HW223307   3.300   3.338   3.179  0.2307 -0.6642  0.9713
 3950SOL     OW23308   4.385   0.308   7.414 -0.2180 -0.0705  0.0222
 3950SOL    HW123309   4.442   0.314   7.338  2.5569  0.9840  2.1714
 3950SOL    HW223310   4.446   0.341   7.480  0.3538  0.5480 -0.8241
 3951SOL     OW23311   0.978   1.073  14.922  0.0942  0.5512  0.1649
 3951SOL    HW123312   0.978   1.110  14.833  1.1076 -0.1788 -0.1401
 3951SOL    HW223313   1.037   0.999  14.912 -0.4894 -0.1296  1.8843
 3952SOL     OW23314   0.861   3.089  15.051 -0.0966  0.1809 -0.0828
 3952SOL    HW123315   0.842   3.012  15.105  1.2973 -2.5245 -3.4525
 3952SOL    HW223316   0.824   3.068  14.965 -0.6003  0.0326  0.1745
 3953SOL     OW23317   2.763   0.691   5.501 -0.3696 -0.0416 -0.1741
 3953SOL    HW123318   2.713   0.640   5.565  1.5628 -0.5675  0.9001
 3953SOL    HW223319   2.731   0.649   5.421  0.5726  0.8950 -1.0331
 3954SOL     OW23320   1.577   2.938   6.544  0.1108  0.0244  0.2322
 3954SOL    HW123321   1.582   2.849   6.579  0.9990 -0.4341 -1.0527
 3954SOL    HW223322   1.499   2.926   6.489  0.2131  1.1393 -0.1554
 3955SOL     OW23323   4.581   0.716   2.522 -0.0467  0.6955  0.6706
 3955SOL    HW123324   4.512   0.724   2.456  0.3207 -0.8310  0.1219
 3955SOL    HW223325   4.640   0.791   2.517  1.1180 -0.3600 -1.1424
 3956SOL     OW23326   4.366   1.742  15.589 -0.5309 -0.3539  0.6927
 3956SOL    HW123327   4.357   1.657  15.547  0.6774  0.6192 -1.5527
 3956SOL    HW223328   4.285   1.742  15.640 -0.1350  0.5528  1.3251
 3957SOL     OW23329   3.117   1.281   7.141 -0.3348 -0.4046  0.0060
 3957SOL    HW123330   3.051   1.233   7.092 -0.0660 -0.3020 -0.4677
 3957SOL    HW223331   3.193   1.265   7.084  0.4107  0.7522  0.6755
 3958SOL     OW23332   2.001   1.288   3.125 -0.0126 -0.7759 -0.1571
 3958SOL    HW123333   1.992   1.380   3.102 -1.6806 -1.0945 -0.7462
 3958SOL    HW223334   1.977   1.239   3.046  2.5616 -0.5712 -1.0679
 3959SOL     OW23335   4.338   1.451   3.876  0.1507  0.0023  0.1112
 3959SOL    HW123336   4.289   1.532   3.865 -1.1583 -0.5351  2.1175
 3959SOL    HW223337   4.392   1.448   3.797 -3.3420 -0.3719 -2.2727
 3960SOL     OW23338   4.594   0.883   1.411 -0.2636  0.8675  0.0282
 3960SOL    HW123339   4.661   0.911   1.474  1.7137  0.8172 -2.0647
 3960SOL    HW223340   4.571   0.798   1.447  2.3910 -0.7504 -2.1494
 3961SOL     OW23341   0.562   4.595   6.174 -0.1384  0.2414 -0.2026
 3961SOL    HW123342   0.642   4.553   6.204 -1.1807 -1.3976  0.2773
 3961SOL    HW223343   0.590   4.686   6.168  1.3533 -0.1710  0.5033
 3962SOL     OW23344   3.321   4.217   8.261  0.2203  0.3674  0.6173
 3962SOL    HW123345   3.398   4.161   8.268  1.7977  2.5447  0.5290
 3962SOL    HW223346   3.358   4.305   8.257  0.6343  0.0554 -2.3931
 3963SOL     OW23347   3.632   4.249   4.363  0.1352  0.2780 -0.0107
 3963SOL    HW123348   3.559   4.311   4.368  1.3271  1.5454  1.9614
 3963SOL    HW223349   3.705   4.310   4.349 -0.7581  1.5484  0.8088
 3964SOL     OW23350   0.758   3.401  10.314  0.8297  0.1893  0.2978
 3964SOL    HW123351   0.756   3.497  10.310 -1.4873  0.0894 -0.9275
 3964SOL    HW223352   0.831   3.377  10.371  1.5635  0.7702 -0.3993
 3965SOL     OW23353   4.062   1.355  15.590 -0.5569 -0.1607  0.3612
 3965SOL    HW123354   4.137   1.410  15.565  1.2778 -1.7739  2.3978
 3965SOL    HW223355   4.098   1.276  15.550  1.6407 -0.5472  3.1393
 3966SOL     OW23356   1.025   4.203  17.265 -0.8719  0.0905 -0.2766
 3966SOL    HW123357   1.002   4.132  17.325  1.5031 -0.0568  0.4707
 3966SOL    HW223358   0.947   4.256  17.285  0.7934  1.8884  1.4624
 3967SOL     OW23359   0.441   3.295   5.149  0.9582 -0.2467 -0.0843
 3967SOL    HW123360   0.528   3.295   5.189  0.4158  0.1793  1.0723
 3967SOL    HW223361   0.396   3.220   5.187  0.2795 -0.5174 -1.4125
 3968SOL     OW23362   2.037   3.481  12.339 -0.1335  0.2523 -0.3852
 3968SOL    HW123363   2.049   3.491  12.434 -3.5647 -0.1464  0.0835
 3968SOL    HW223364   2.099   3.551  12.318  1.8111 -1.2496  0.2890
 3969SOL     OW23365   0.678   0.083   1.344 -0.3562 -0.0184  0.2505
 3969SOL    HW123366   0.635   0.105   1.261  0.9491  0.1461 -0.3825
 3969SOL    HW223367   0.719   0.164   1.373 -0.5644 -0.7204  2.5265
 3970SOL     OW23368   3.422   3.042   3.561  0.1931 -0.5000  0.0047
 3970SOL    HW123369   3.334   3.034   3.523 -0.4474  1.2392  1.1439
 3970SOL    HW223370   3.465   2.957   3.547 -0.8738 -1.2817  1.5732
 3971SOL     OW23371   4.113   1.036   3.231 -0.5161  0.0909 -0.0510
 3971SOL    HW123372   4.102   1.081   3.147  1.4651  0.7250  0.0422
 3971SOL    HW223373   4.097   1.109   3.291  2.9954 -0.0726  1.0657
 3972SOL     OW23374   2.718   4.681  10.055  0.1649  0.2952  0.3431
 3972SOL    HW123375   2.754   4.609  10.003 -2.1713 -0.7210  0.1396
 3972SOL    HW223376   2.730   4.645  10.143 -1.2325  0.9559  0.8039
 3973SOL     OW23377   3.732   0.279   6.882  0.2763  0.1099  0.2258
 3973SOL    HW123378   3.730   0.193   6.840 -0.5263 -0.5985  1.7033
 3973SOL    HW223379   3.822   0.295   6.854 -0.0792 -0.8048 -1.4290
 3974SOL     OW23380   0.645   1.502   8.017  0.0352  0.4611 -0.7026
 3974SOL    HW123381   0.696   1.577   8.046  1.9214 -0.9651 -0.3543
 3974SOL    HW223382   0.716   1.451   7.978  0.5015  0.7702 -0.2576
 3975SOL     OW23383   0.868   3.234   3.311  0.6684  0.2074 -0.4413
 3975SOL    HW123384   0.920   3.154   3.320  0.6098  0.0551 -1.4835
 3975SOL    HW223385   0.821   3.217   3.230 -2.9494 -1.7677  2.0325
 3976SOL     OW23386   1.323   0.857   2.042  0.1268  0.4404 -0.4667
 3976SOL    HW123387   1.318   0.795   2.114  0.3707 -0.2334 -1.0277
 3976SOL    HW223388   1.273   0.931   2.077 -0.6920 -1.0580  1.4887
 3977SOL     OW23389   3.817   0.928   4.186 -0.0104 -0.2149 -0.0834
 3977SOL    HW123390   3.747   0.863   4.177 -0.8510  0.6004  0.5707
 3977SOL    HW223391   3.892   0.868   4.186  0.1871  0.0167  0.8986
 3978SOL     OW23392   1.523   2.412   5.778 -0.3187  0.5534  0.1209
 3978SOL    HW123393   1.569   2.484   5.821 -0.4708  1.5453 -1.4069
 3978SOL    HW223394   1.578   2.395   5.702 -0.1735  0.9636  0.1338
 3979SOL     OW23395   1.264   4.168  11.305 -0.2531  0.0502 -0.2151
 3979SOL    HW123396   1.321   4.102  11.266 -1.2924 -0.0862 -1.5042
 3979SOL    HW223397   1.207   4.124  11.368  1.7293 -1.7249  0.3010
 3980SOL     OW23398   4.582   1.263  14.426 -0.5016  0.5198 -0.1242
 3980SOL    HW123399   4.602   1.251  14.333 -0.2662 -0.5378  0.0694
 3980SOL    HW223400   4.489   1.286  14.427 -0.8933 -1.0280 -0.6889
 3981SOL     OW23401   2.626   0.733   6.816 -0.1015  0.1367 -0.6954
 3981SOL    HW123402   2.598   0.740   6.908 -0.7620  0.7872 -0.9507
 3981SOL    HW223403   2.580   0.652   6.793  0.8617 -0.5307 -0.2919
 3982SOL     OW23404   2.653   4.410   2.175  0.4967  0.1905 -0.0304
 3982SOL    HW123405   2.743   4.442   2.178  0.6427 -0.2036 -0.4495
 3982SOL    HW223406   2.654   4.336   2.235  1.0992 -0.0655 -0.3660
 3983SOL     OW23407   0.939   2.598  16.892  0.7116 -0.2370 -0.1748
 3983SOL    HW123408   1.010   2.541  16.924 -0.0005 -1.0092  0.0422
 3983SOL    HW223409   0.983   2.682  16.900  1.2643 -0.3632 -2.0129
 3984SOL     OW23410   3.434   0.447  13.075 -0.6180 -0.0199 -0.6844
 3984SOL    HW123411   3.478   0.365  13.098 -1.5683 -0.3901 -0.1914
 3984SOL    HW223412   3.354   0.457  13.126  0.9484  0.5028  1.6411
 3985SOL     OW23413   1.468   1.352   4.016 -0.2242  0.2750  0.2728
 3985SOL    HW123414   1.508   1.377   3.933 -0.7911  1.6816  0.4339
 3985SOL    HW223415   1.385   1.397   4.002 -1.1310 -1.6514 -0.5329
 3986SOL     OW23416   4.531   1.539   9.837 -0.1126 -0.0882 -0.6876
 3986SOL    HW123417   4.446   1.530   9.794 -1.4846  0.9799  1.7621
 3986SOL    HW223418   4.589   1.499   9.772  2.4234  3.0954 -0.3591
 3987SOL     OW23419   0.119   1.917   3.057  0.4463 -0.3666 -0.0983
 3987SOL    HW123420   0.090   1.986   2.998 -0.0647 -0.3932  0.1234
 3987SOL    HW223421   0.058   1.921   3.131 -0.3420  0.4251 -0.7962
 3988SOL     OW23422   4.134   1.091   9.630 -0.8541 -0.5779  0.2005
 3988SOL    HW123423   4.202   1.026   9.649 -1.3365 -1.0560  0.2898
 3988SOL    HW223424   4.105   1.117   9.717  0.3620 -0.5808  0.6086
 3989SOL     OW23425   0.617   0.776   8.961  0.1103  0.7099 -0.2011
 3989SOL    HW123426   0.620   0.871   8.950 -3.5341  1.2506  3.3802
 3989SOL    HW223427   0.580   0.766   9.049 -0.4146  0.6851 -0.4216
 3990SOL     OW23428   1.707   0.545   6.567 -0.0887 -0.1574 -0.7890
 3990SOL    HW123429   1.614   0.534   6.547  0.0712 -2.4944 -0.1497
 3990SOL    HW223430   1.736   0.627   6.527 -0.4220  0.3656  0.0474
 3991SOL     OW23431   4.378   4.187   7.954 -0.6522  0.0286 -0.6438
 3991SOL    HW123432   4.310   4.246   7.986 -0.8787  0.8144 -2.5693
 3991SOL    HW223433   4.402   4.229   7.872  0.1713 -0.0970 -0.4589
 3992SOL     OW23434   1.694   3.506  10.975 -0.4816 -1.2877 -0.4092
 3992SOL    HW123435   1.691   3.547  11.062  0.1081  0.9471 -1.4698
 3992SOL    HW223436   1.759   3.439  10.996  0.2218  0.4529  3.0045
 3993SOL     OW23437   3.873   4.005   4.154 -0.3500 -0.3776  0.2683
 3993SOL    HW123438   3.826   4.039   4.231  0.3672  0.2053  0.4506
 3993SOL    HW223439   3.944   3.970   4.207 -0.2876 -1.7486 -0.7373
 3994SOL     OW23440   1.695   2.892  15.758  0.7464 -0.0719  0.2997
 3994SOL    HW123441   1.622   2.832  15.746  1.4444 -1.0155  0.7190
 3994SOL    HW223442   1.714   2.878  15.851  2.2802 -1.2941 -0.1874
 3995SOL     OW23443   2.287   2.718   3.478 -0.3746  0.3656 -0.3756
 3995SOL    HW123444   2.351   2.707   3.408 -1.9370 -0.1275 -1.7278
 3995SOL    HW223445   2.342   2.745   3.552  0.7775  0.1059 -1.1386
 3996SOL     OW23446   2.198   1.206   6.023  0.6511  0.0493 -0.4369
 3996SOL    HW123447   2.215   1.125   6.071 -0.9435 -1.6287 -2.7178
 3996SOL    HW223448   2.103   1.205   6.019  0.6838 -1.4972 -0.6509
 3997SOL     OW23449   0.526   3.789  16.806  0.5968  0.9405  0.3196
 3997SOL    HW123450   0.537   3.870  16.756 -0.6184 -0.5284 -2.3249
 3997SOL    HW223451   0.602   3.737  16.780 -1.6206 -1.7286 -0.8307
 3998SOL     OW23452   3.560   2.296  11.636 -0.6173 -0.1416 -0.0860
 3998SOL    HW123453   3.605   2.378  11.659 -0.2402 -0.0292 -1.2314
 3998SOL    HW223454   3.626   2.249  11.586  1.8498  0.6413  2.4113
 3999SOL     OW23455   2.608   1.539   8.445  0.1157 -0.0611 -0.7096
 3999SOL    HW123456   2.529   1.577   8.406 -0.5623 -0.2489  0.4864
 3999SOL    HW223457   2.636   1.474   8.379 -0.5689 -1.6319  0.5419
 4000SOL     OW23458   2.461   0.935   1.939 -0.0182 -0.0404  0.6365
 4000SOL    HW123459   2.519   1.011   1.932  1.1463 -1.0651 -0.8413
 4000SOL    HW223460   2.410   0.934   1.858 -0.7515  0.0824  1.1066
 4001SOL     OW23461   1.214   2.850  15.655 -0.1837 -0.1873 -0.0282
 4001SOL    HW123462   1.196   2.836  15.562 -0.1295 -1.3815  0.1400
 4001SOL    HW223463   1.224   2.945  15.650 -1.2506 -0.1053 -0.4943
 4002SOL     OW23464   4.116   4.555   2.609 -0.5260 -0.1286 -0.1241
 4002SOL    HW123465   4.032   4.571   2.568 -0.9766 -1.8404  0.1496
 4002SOL    HW223466   4.093   4.538   2.701 -1.7569  0.2141 -0.3716
 4003SOL     OW23467   1.227   3.719   8.781  0.5955 -0.7238  0.0094
 4003SOL    HW123468   1.232   3.624   8.772 -0.1257 -0.9985  2.6640
 4003SOL    HW223469   1.183   3.726   8.697 -0.0456 -0.0852  0.4062
 4004SOL     OW23470   1.395   4.128   0.985  0.1679 -0.5118  0.1695
 4004SOL    HW123471   1.481   4.086   0.986 -0.8753 -2.6668 -0.0977
 4004SOL    HW223472   1.345   4.087   0.915  0.7291 -0.7070 -0.1178
 4005SOL     OW23473   1.647   0.375   8.364 -0.3920  0.1989  0.0214
 4005SOL    HW123474   1.647   0.291   8.409 -0.1869 -1.3678 -2.8938
 4005SOL    HW223475   1.559   0.411   8.380 -0.6365  0.6079 -2.1692
 4006SOL     OW23476   3.643   4.174   5.246 -0.2875  0.1949  0.1172
 4006SOL    HW123477   3.572   4.230   5.280 -0.2504  0.0099  0.5031
 4006SOL    HW223478   3.685   4.235   5.185 -1.1842 -2.0648 -2.7495
 4007SOL     OW23479   1.333   2.754  11.275 -0.2955 -0.0296 -0.2934
 4007SOL    HW123480   1.344   2.736  11.182 -2.0830 -0.0374 -0.5003
 4007SOL    HW223481   1.423   2.769  11.305 -0.7721 -2.4195  2.3725
 4008SOL     OW23482   3.349   0.074   3.718  0.2703 -0.0601 -0.1404
 4008SOL    HW123483   3.427   0.018   3.718  0.3331  0.0165  2.9484
 4008SOL    HW223484   3.387   0.153   3.755 -0.4343  0.1824  0.0553
 4009SOL     OW23485   0.785   2.481   1.184 -0.3475 -0.1033 -0.1491
 4009SOL    HW123486   0.738   2.507   1.105 -1.3846  0.9206  0.7978
 4009SOL    HW223487   0.832   2.413   1.137  1.1318  0.8671 -0.0892
 4010SOL     OW23488   4.143   2.729   2.146  0.4910 -0.1991  0.0802
 4010SOL    HW123489   4.062   2.685   2.173  0.2211  0.5008  0.4161
 4010SOL    HW223490   4.119   2.821   2.147 -2.7014 -0.9968 -1.7155
 4011SOL     OW23491   2.549   4.598   4.161 -0.0151  0.2509  0.0604
 4011SOL    HW123492   2.545   4.692   4.182  0.7521  0.2290  0.3063
 4011SOL    HW223493   2.608   4.572   4.232  0.5967  0.3046 -0.4263
 4012SOL     OW23494   4.252   3.770   3.607  0.1943  0.1937 -0.3249
 4012SOL    HW123495   4.157   3.770   3.619  0.3126  0.6767  0.6440
 4012SOL    HW223496   4.268   3.821   3.687  1.4000 -1.2300  0.3576
 4013SOL     OW23497   2.700   2.268   0.755 -0.0791  0.0678  0.3380
 4013SOL    HW123498   2.606   2.267   0.737 -0.1087 -0.6845  0.5590
 4013SOL    HW223499   2.696   2.364   0.754  2.0394  0.1561 -0.5009
 4014SOL     OW23500   3.804   0.513   2.813 -0.6008  0.0270  0.2118
 4014SOL    HW123501   3.882   0.549   2.854 -0.1535  0.0539 -0.6554
 4014SOL    HW223502   3.775   0.443   2.871 -1.8289  0.5434  0.2236
 4015SOL     OW23503   0.302   0.377   3.421  0.1239 -0.0854 -0.4578
 4015SOL    HW123504   0.393   0.360   3.446  0.0114  4.2420  2.6860
 4015SOL    HW223505   0.270   0.308   3.363 -0.4354  2.3652 -3.0640
 4016SOL     OW23506   1.441   1.899   7.171  0.3181 -0.3146  0.4896
 4016SOL    HW123507   1.531   1.868   7.168  1.6138  3.4175  1.0479
 4016SOL    HW223508   1.404   1.818   7.136  0.6649 -0.6583  0.9201
 4017SOL     OW23509   0.644   0.402  14.102  0.0313  0.0068 -0.2818
 4017SOL    HW123510   0.639   0.488  14.062 -1.8994 -0.4450 -0.9998
 4017SOL    HW223511   0.735   0.395  14.131  0.4675  0.0692 -1.6374
 4018SOL     OW23512   2.068   4.368  10.538 -0.4428  0.2311  0.3572
 4018SOL    HW123513   2.002   4.414  10.590 -2.0527 -0.4775 -1.0368
 4018SOL    HW223514   2.023   4.365  10.454  0.5050 -0.7466 -0.1181
 4019SOL     OW23515   3.144   4.003   7.800  0.5511  0.6243  0.1075
 4019SOL    HW123516   3.177   3.973   7.715 -1.0890 -0.7649 -0.0223
 4019SOL    HW223517   3.049   3.994   7.797  0.8120 -2.4864  0.9281
 4020SOL     OW23518   1.010   2.595   2.777  0.3647  0.3337  0.5761
 4020SOL    HW123519   1.105   2.593   2.763  0.5414 -0.2328  1.8513
 4020SOL    HW223520   1.002   2.662   2.845  0.2227  0.7375  0.1674
 4021SOL     OW23521   1.164   4.431   1.878 -0.0301  0.8334  0.3208
 4021SOL    HW123522   1.225   4.502   1.855 -1.4281  1.8752 -0.1898
 4021SOL    HW223523   1.101   4.474   1.936  1.0958 -0.8732  2.8075
 4022SOL     OW23524   2.237   4.553   2.187  0.5716  0.6057  0.0449
 4022SOL    HW123525   2.306   4.579   2.247  1.0540 -0.0989 -0.2028
 4022SOL    HW223526   2.282   4.491   2.129 -1.2010 -0.1254 -0.5692
 4023SOL     OW23527   3.848   4.379  14.033 -0.1372  0.1024  0.7029
 4023SOL    HW123528   3.833   4.355  13.942  2.5398  0.1260  0.2512
 4023SOL    HW223529   3.888   4.299  14.068 -0.8549 -0.3186  0.5465
 4024SOL     OW23530   1.053   1.704   2.593  0.3056  0.1422  0.6089
 4024SOL    HW123531   1.017   1.793   2.589 -1.9796 -0.9720 -3.4852
 4024SOL    HW223532   0.973   1.662   2.563  1.4486 -0.3940 -1.7269
 4025SOL     OW23533   2.215   3.151  10.221 -0.2392  0.0102  0.8655
 4025SOL    HW123534   2.179   3.183  10.138 -1.3298 -1.5451  0.7390
 4025SOL    HW223535   2.210   3.055  10.211 -0.1355  0.1741 -0.7434
 4026SOL     OW23536   1.219   1.702   6.006  0.1401 -0.0364  0.1778
 4026SOL    HW123537   1.186   1.639   5.942  4.1963 -2.2362  0.2289
 4026SOL    HW223538   1.172   1.781   5.980  0.4182  0.6127  1.6422
 4027SOL     OW23539   0.530   1.969   4.987  0.2619 -0.3852  0.1920
 4027SOL    HW123540   0.539   1.904   4.917  4.3288 -0.2597  0.6015
 4027SOL    HW223541   0.575   1.928   5.060 -0.3149  1.1373  1.4103
 4028SOL     OW23542   2.961   3.502   8.541  0.1344 -0.4116  0.2016
 4028SOL    HW123543   2.993   3.577   8.592 -0.4098  1.2103 -1.8676
 4028SOL    HW223544   2.891   3.550   8.497 -0.2748 -0.0135  1.2779
 4029SOL     OW23545   0.190   1.461  14.351  0.2502  0.2168 -0.1544
 4029SOL    HW123546   0.173   1.479  14.258  1.9310  0.5950 -0.3906
 4029SOL    HW223547   0.176   1.367  14.354 -0.5659  0.3690  0.7045
 4030SOL     OW23548   0.724   1.266  13.091  0.0126 -0.3114  0.2285
 4030SOL    HW123549   0.645   1.319  13.077  0.8426  1.0870  0.8552
 4030SOL    HW223550   0.695   1.220  13.169 -1.6714  1.0050  0.3666
 4031SOL     OW23551   4.515   2.406   2.035 -0.1795 -0.1655 -0.5368
 4031SOL    HW123552   4.466   2.467   1.980  2.4957  0.9848 -1.6516
 4031SOL    HW223553   4.603   2.439   2.017 -0.2069 -1.7544 -3.5658
 4032SOL     OW23554   3.785   0.605   4.020  0.2123  0.4623  0.1040
 4032SOL    HW123555   3.813   0.534   3.962  0.7792 -1.9762  3.3871
 4032SOL    HW223556   3.858   0.614   4.080  1.3243  0.8677 -1.3190
 4033SOL     OW23557   2.823   0.262   8.341 -0.2323  0.5282 -0.3527
 4033SOL    HW123558   2.814   0.182   8.394  0.6685  1.6980  1.5615
 4033SOL    HW223559   2.916   0.257   8.319 -0.4744 -0.4840 -1.1506
 4034SOL     OW23560   4.365   1.108   6.071  0.0535  0.3909  0.1132
 4034SOL    HW123561   4.285   1.057   6.059  1.2879 -1.4552 -0.3955
 4034SOL    HW223562   4.360   1.126   6.165 -1.0724 -2.7150  0.6591
 4035SOL     OW23563   2.227   3.338   8.206 -0.2596 -0.4048 -0.5887
 4035SOL    HW123564   2.307   3.389   8.189  0.5187 -1.1407  0.8977
 4035SOL    HW223565   2.190   3.337   8.118 -2.3219  1.0271  0.2645
 4036SOL     OW23566   2.855   4.680   8.839 -0.0053 -0.5369 -0.3231
 4036SOL    HW123567   2.922   4.620   8.871  0.5031  1.2102  1.8884
 4036SOL    HW223568   2.825   4.722   8.920 -2.1873 -1.2998 -0.7254
 4037SOL     OW23569   1.222   3.590   7.780  0.2975  0.3999  0.3347
 4037SOL    HW123570   1.188   3.606   7.693  2.5170  1.2639 -0.3711
 4037SOL    HW223571   1.152   3.623   7.836 -0.8861  3.1602 -2.8209
 4038SOL     OW23572   4.150   2.477  13.149  0.8088  0.5044  0.1045
 4038SOL    HW123573   4.243   2.499  13.158  0.9834 -0.0181 -0.4394
 4038SOL    HW223574   4.114   2.565  13.136 -1.5579 -0.2164  1.7606
 4039SOL     OW23575   3.903   0.796   4.650  0.4623 -0.7386 -0.0749
 4039SOL    HW123576   3.868   0.742   4.579  1.1009 -1.8502  0.4578
 4039SOL    HW223577   3.954   0.729   4.696 -0.7296 -1.4951  0.1382
 4040SOL     OW23578   3.185   2.574   1.627  0.7817 -0.2069 -0.2596
 4040SOL    HW123579   3.267   2.606   1.590  2.0870  0.3273  3.1121
 4040SOL    HW223580   3.203   2.484   1.599  1.0245 -0.5215  0.9251
 4041SOL     OW23581   1.788   4.163  10.745  0.0092  0.6163 -0.2214
 4041SOL    HW123582   1.744   4.188  10.664 -1.0857 -2.3905 -0.5507
 4041SOL    HW223583   1.708   4.146  10.795 -0.5274  2.9334 -0.2976
 4042SOL     OW23584   1.031   3.690  13.131 -0.0955  0.2521 -0.1435
 4042SOL    HW123585   0.968   3.685  13.203  2.2721  0.4454  1.9271
 4042SOL    HW223586   1.092   3.750  13.173  2.7065 -2.6176 -0.0875
 4043SOL     OW23587   4.454   2.886  10.018  0.4045 -0.0439 -0.2726
 4043SOL    HW123588   4.445   2.890  10.114 -0.2705 -0.5907 -0.3102
 4043SOL    HW223589   4.531   2.834   9.995 -0.4829 -0.9070 -1.2836
 4044SOL     OW23590   2.350   3.798  12.976  0.2494 -0.1811  0.1075
 4044SOL    HW123591   2.439   3.810  12.942  0.3420 -2.3827 -0.4402
 4044SOL    HW223592   2.370   3.759  13.061 -0.5055  1.2817  0.9511
 4045SOL     OW23593   4.122   0.723   6.127  0.1484  0.0840 -0.0751
 4045SOL    HW123594   4.209   0.684   6.132  1.4068  2.3310 -4.2029
 4045SOL    HW223595   4.085   0.650   6.077 -2.0530  0.5975  0.8077
 4046SOL     OW23596   3.115   4.436  10.410  0.0795  0.0585 -0.1982
 4046SOL    HW123597   3.057   4.389  10.351  0.5496 -2.4395  1.3514
 4046SOL    HW223598   3.100   4.375  10.482  3.6439 -0.1083  0.4119
 4047SOL     OW23599   0.448   0.973  12.184  0.3415  0.1334  0.2788
 4047SOL    HW123600   0.477   0.907  12.248  0.9107 -1.1385 -1.2782
 4047SOL    HW223601   0.418   1.041  12.245  0.3529  0.3383  0.0530
 4048SOL     OW23602   2.290   4.274   7.755 -0.1306 -0.4545  0.0998
 4048SOL    HW123603   2.337   4.256   7.674  1.5910  2.0448  0.5452
 4048SOL    HW223604   2.224   4.204   7.759  0.8142 -1.4052 -1.0615
 4049SOL     OW23605   3.711   2.627  14.027  0.3391 -0.6449  0.3776
 4049SOL    HW123606   3.658   2.707  14.026  1.6585  0.2188  0.3275
 4049SOL    HW223607   3.684   2.583  14.109 -0.9820 -0.3087  0.1269
 4050SOL     OW23608   3.502   0.651   3.034  0.1447 -0.3206 -0.5453
 4050SOL    HW123609   3.588   0.640   3.074 -0.1255  0.0379  0.1423
 4050SOL    HW223610   3.447   0.599   3.093 -0.3262  0.4772 -0.2805
 4051SOL     OW23611   1.060   0.848   6.404 -0.0490 -0.3418 -0.3995
 4051SOL    HW123612   1.143   0.848   6.451 -1.3881 -0.6155  1.9972
 4051SOL    HW223613   1.031   0.764   6.438 -2.4990  0.9589  0.7551
 4052SOL     OW23614   0.520   4.595  16.749  0.7874 -0.0584 -0.2147
 4052SOL    HW123615   0.595   4.622  16.802  0.8767 -0.9322  0.1074
 4052SOL    HW223616   0.496   4.680  16.713 -0.1569  0.1993  0.9906
 4053SOL     OW23617   0.781   4.447   8.662  0.5643  0.2240 -0.0515
 4053SOL    HW123618   0.823   4.374   8.617  1.2987 -0.6161  2.0117
 4053SOL    HW223619   0.853   4.488   8.710  0.4016  0.9238 -0.4138
 4054SOL     OW23620   1.238   1.818  15.960  0.6297 -0.1062 -0.5274
 4054SOL    HW123621   1.190   1.774  16.030  2.5571  0.5535  1.2041
 4054SOL    HW223622   1.219   1.751  15.894 -2.8434  0.1308  0.2662
 4055SOL     OW23623   2.295   0.439   2.423  0.5329 -0.1519  0.7420
 4055SOL    HW123624   2.254   0.354   2.437  2.3345 -0.5268  3.6710
 4055SOL    HW223625   2.339   0.436   2.338  0.9904  1.8725  0.9041
 4056SOL     OW23626   0.061   2.432  15.838 -0.8743 -0.2243  0.0989
 4056SOL    HW123627   0.100   2.377  15.770  0.3270  2.1824 -1.1680
 4056SOL    HW223628   0.127   2.502  15.833 -0.8799 -0.2668 -0.6287
 4057SOL     OW23629   1.138   1.574   7.538  0.1900 -0.0639  0.1822
 4057SOL    HW123630   1.176   1.531   7.461 -0.3335  1.6369 -1.0209
 4057SOL    HW223631   1.216   1.575   7.595 -0.5097  2.0949  1.1344
 4058SOL     OW23632   2.374   1.079   8.371 -0.4970 -0.0753 -0.4264
 4058SOL    HW123633   2.451   1.021   8.372  0.2730  0.9979  2.2859
 4058SOL    HW223634   2.349   1.081   8.463  1.6504 -3.5354  0.2216
 4059SOL     OW23635   3.059   2.322   4.425 -0.5654 -0.3482  0.6071
 4059SOL    HW123636   2.965   2.340   4.424 -0.7960 -1.5729  0.0894
 4059SOL    HW223637   3.089   2.357   4.342  2.0357  0.3349  1.8344
 4060SOL     OW23638   0.537   4.353  13.049  0.1302  0.3332 -0.3009
 4060SOL    HW123639   0.444   4.354  13.029  0.4345  2.4071 -1.6379
 4060SOL    HW223640   0.539   4.441  13.087  0.3762  0.9427 -1.7207
 4061SOL     OW23641   0.165   1.842   7.052 -0.4735  1.0181  0.0209
 4061SOL    HW123642   0.118   1.852   7.135  1.0126 -1.9901  1.2441
 4061SOL    HW223643   0.250   1.844   7.094 -0.6279  0.7451  0.3504
 4062SOL     OW23644   3.244   1.618   1.133 -0.5104  0.1184  0.0056
 4062SOL    HW123645   3.309   1.571   1.080 -1.5433 -0.0809 -1.0826
 4062SOL    HW223646   3.300   1.665   1.195 -0.9236  0.3207  0.2242
 4063SOL     OW23647   1.510   2.618   2.037  0.0085  0.5365  0.5707
 4063SOL    HW123648   1.422   2.585   2.053 -0.3230  1.3009  0.3147
 4063SOL    HW223649   1.488   2.674   1.963 -0.2635  0.3899  0.5410
 4064SOL     OW23650   2.365   2.376   2.111 -0.0310  0.8551  0.2151
 4064SOL    HW123651   2.309   2.389   2.188 -0.9122 -0.0591 -0.2834
 4064SOL    HW223652   2.449   2.408   2.143  1.1225 -2.3634  0.3354
 4065SOL     OW23653   4.516   2.839   0.866  0.0451 -0.4527 -0.0570
 4065SOL    HW123654   4.515   2.749   0.898 -2.4483  0.0830  1.3490
 4065SOL    HW223655   4.487   2.878   0.948 -4.5063 -2.0506 -0.8538
 4066SOL     OW23656   0.479   1.963   8.516 -0.3124  1.0377 -0.6065
 4066SOL    HW123657   0.510   2.044   8.556 -0.0696  0.8750 -0.4642
 4066SOL    HW223658   0.553   1.945   8.458 -0.3816 -0.4995 -0.2006
 4067SOL     OW23659   3.801   3.853   2.819 -0.6156  0.5547  0.7517
 4067SOL    HW123660   3.745   3.898   2.882 -0.5930 -0.9766  1.8556
 4067SOL    HW223661   3.837   3.928   2.771  0.2308  0.9712  2.0222
 4068SOL     OW23662   2.746   1.288   0.960  0.6007 -0.7566  0.2651
 4068SOL    HW123663   2.749   1.383   0.970  0.7894 -0.7529  0.1732
 4068SOL    HW223664   2.773   1.272   0.870 -1.3164  0.2365 -0.4672
 4069SOL     OW23665   2.550   2.712   1.309  0.5170 -0.2956 -0.2740
 4069SOL    HW123666   2.626   2.736   1.256  0.6993 -2.5631 -1.0207
 4069SOL    HW223667   2.490   2.680   1.242  1.2297  2.7575 -2.3818
 4070SOL     OW23668   2.994   3.717   9.340  0.8800  0.4336 -0.1233
 4070SOL    HW123669   3.041   3.635   9.326 -0.1457 -0.4359  1.3713
 4070SOL    HW223670   2.984   3.722   9.435  4.3273  2.3950  0.1178
 4071SOL     OW23671   3.864   0.307   7.323  0.1500  0.1241  0.3347
 4071SOL    HW123672   3.862   0.240   7.255  0.2032 -1.0665  1.4994
 4071SOL    HW223673   3.956   0.334   7.324  0.2808 -0.2670 -1.0330
 4072SOL     OW23674   2.421   1.634  11.201  0.0224  0.0412  0.0437
 4072SOL    HW123675   2.490   1.594  11.148  0.7987  3.2361 -1.3567
 4072SOL    HW223676   2.349   1.643  11.138 -0.0613  1.5007  0.3495
 4073SOL     OW23677   2.849   1.326  15.379  0.2107  0.0131  0.1162
 4073SOL    HW123678   2.935   1.361  15.402 -0.4374  2.2660 -0.8487
 4073SOL    HW223679   2.818   1.392  15.317 -1.9833  2.1360  3.4390
 4074SOL     OW23680   4.383   2.621  17.161  0.0777 -0.4351  0.0453
 4074SOL    HW123681   4.360   2.575  17.241 -1.3031 -1.1113 -0.7402
 4074SOL    HW223682   4.302   2.651  17.121  0.3045  0.9022  0.5647
 4075SOL     OW23683   4.652   0.120   6.164  0.2700  0.3407 -0.3080
 4075SOL    HW123684   4.587   0.187   6.187 -0.8419 -1.4595  1.8241
 4075SOL    HW223685   4.684   0.105   6.253  1.7338  1.5946 -0.6203
 4076SOL     OW23686   1.223   1.516  16.324 -0.5238  0.0594  0.3491
 4076SOL    HW123687   1.312   1.482  16.315 -0.2783  0.6826  0.4781
 4076SOL    HW223688   1.179   1.436  16.353  1.3792 -1.3727 -0.7397
 4077SOL     OW23689   0.128   4.683  16.754 -0.6850  0.2707  0.1207
 4077SOL    HW123690   0.115   0.048  16.779  2.9345  0.4065  1.4496
 4077SOL    HW223691   0.220   4.675  16.730 -1.7025  1.5826 -4.2335
 4078SOL     OW23692   3.274   4.067   1.987  0.2812 -0.3873 -0.1701
 4078SOL    HW123693   3.253   4.001   2.053 -0.6695  0.0280 -0.0491
 4078SOL    HW223694   3.277   4.010   1.910  0.2195  0.0227 -0.4809
 4079SOL     OW23695   4.145   0.861   8.407 -0.0740 -0.3429  0.3204
 4079SOL    HW123696   4.081   0.801   8.445 -0.3184 -1.0746 -1.2551
 4079SOL    HW223697   4.140   0.929   8.474  0.9378  1.6965 -1.6755
 4080SOL     OW23698   1.318   3.949  12.521 -0.4317 -0.1599  0.5596
 4080SOL    HW123699   1.381   4.014  12.488 -0.6911 -1.0826 -1.7471
 4080SOL    HW223700   1.238   4.001  12.530 -1.2464 -1.1628 -0.8990
 4081SOL     OW23701   0.524   3.452  10.538 -0.0249 -0.5908  0.1777
 4081SOL    HW123702   0.531   3.538  10.498 -2.0654 -1.1428 -1.3709
 4081SOL    HW223703   0.473   3.466  10.618  1.7883 -1.5185  1.4937
 4082SOL     OW23704   0.546   3.358   4.575 -0.3634 -0.0401  0.0572
 4082SOL    HW123705   0.502   3.299   4.636 -2.4679  0.3195 -1.0818
 4082SOL    HW223706   0.627   3.311   4.554 -1.3332 -1.3498 -0.7691
 4083SOL     OW23707   3.310   3.318   7.283 -0.4303 -0.1110  0.2328
 4083SOL    HW123708   3.394   3.275   7.268  0.1395  1.3763 -0.8280
 4083SOL    HW223709   3.256   3.292   7.208  0.4515 -0.4061 -0.2972
 4084SOL     OW23710   4.362   3.520   1.984 -0.1533 -0.7381  0.2447
 4084SOL    HW123711   4.345   3.538   1.891 -0.6843  1.5676  0.7924
 4084SOL    HW223712   4.418   3.595   2.003 -0.3084 -0.0959 -1.8566
 4085SOL     OW23713   0.259   0.562   7.012  0.3462  0.1260 -0.5351
 4085SOL    HW123714   0.193   0.557   7.082  1.5676 -1.0181  0.5137
 4085SOL    HW223715   0.332   0.604   7.058  2.3205 -0.5838 -3.0378
 4086SOL     OW23716   1.789   1.616  15.641  0.5483  0.4718  0.2717
 4086SOL    HW123717   1.827   1.685  15.695 -1.0440 -0.0143  1.9906
 4086SOL    HW223718   1.861   1.554  15.631 -0.0290 -0.4699  2.0008
 4087SOL     OW23719   0.058   4.095  10.682  0.3048  0.2525  0.1308
 4087SOL    HW123720   0.042   4.053  10.767 -1.2360 -1.1431 -0.8320
 4087SOL    HW223721   0.054   4.189  10.695 -1.2772  0.5045 -2.1766
 4088SOL     OW23722   2.335   0.998   2.886 -1.0126  0.0618  0.3741
 4088SOL    HW123723   2.284   0.922   2.913 -0.7935 -0.5771 -0.9852
 4088SOL    HW223724   2.404   1.001   2.952 -1.3132  2.6767  0.5967
 4089SOL     OW23725   2.175   3.963  10.805  0.1057  0.2228 -0.3033
 4089SOL    HW123726   2.111   3.898  10.833 -0.6951  0.1044 -2.3786
 4089SOL    HW223727   2.121   4.035  10.773  1.5942  1.6856  0.5254
 4090SOL     OW23728   3.571   3.204   7.316 -0.4054 -0.5383  0.2544
 4090SOL    HW123729   3.608   3.128   7.270 -0.2712  0.5041 -1.3466
 4090SOL    HW223730   3.651   3.240   7.355  0.1267 -2.5213  0.9693
 4091SOL     OW23731   4.050   0.440   6.068 -0.3550  0.5816 -0.3625
 4091SOL    HW123732   3.984   0.384   6.027 -0.6748 -1.5590  3.1050
 4091SOL    HW223733   4.114   0.432   5.997  0.7336 -0.5059  0.7187
 4092SOL     OW23734   1.421   0.747   2.610 -0.3228  0.1968 -0.4632
 4092SOL    HW123735   1.352   0.682   2.594 -0.3041  0.7204 -2.5832
 4092SOL    HW223736   1.498   0.700   2.643 -0.9875 -2.1906 -2.3636
 4093SOL     OW23737   2.531   3.676   1.344 -0.9306  0.1125 -0.6081
 4093SOL    HW123738   2.604   3.737   1.338 -0.1218 -0.6181  1.6132
 4093SOL    HW223739   2.540   3.653   1.437 -2.7422  1.1667 -0.1525
 4094SOL     OW23740   2.354   4.219  15.429  0.2052 -0.4615 -0.3783
 4094SOL    HW123741   2.440   4.257  15.448 -0.0389 -1.3234  2.4842
 4094SOL    HW223742   2.297   4.287  15.466  3.6230  1.5964  1.0592
 4095SOL     OW23743   4.587   1.146  10.044 -0.4483 -0.3935  0.2847
 4095SOL    HW123744   4.621   1.150   9.954  0.5198  0.0357  0.6713
 4095SOL    HW223745   4.500   1.116  10.020 -0.9616  1.9319 -0.7035
 4096SOL     OW23746   3.967   0.530   4.428 -0.6345  0.1626  0.1186
 4096SOL    HW123747   3.988   0.436   4.425  3.3885  1.1402 -2.0287
 4096SOL    HW223748   3.878   0.540   4.463 -1.2075 -0.4848 -1.1416
 4097SOL     OW23749   0.492   0.559   7.859  0.3940  0.0521 -0.0950
 4097SOL    HW123750   0.411   0.598   7.892  0.5691 -0.4519  0.9289
 4097SOL    HW223751   0.552   0.551   7.933 -1.3562  0.3318  1.3445
 4098SOL     OW23752   1.093   0.286  17.667 -0.1075  0.3527  0.2321
 4098SOL    HW123753   1.097   0.236   0.041  0.0661  2.3640  1.4367
 4098SOL    HW223754   1.009   0.268  17.624  1.9889 -1.3176 -3.1632
 4099SOL     OW23755   2.853   2.125   2.612  0.0431  0.0838 -0.4661
 4099SOL    HW123756   2.763   2.156   2.601 -0.5816 -1.4678  0.2398
 4099SOL    HW223757   2.845   2.057   2.680  2.9050 -0.1879 -0.4153
 4100SOL     OW23758   3.766   3.883   3.542 -0.3969 -0.0550 -0.0749
 4100SOL    HW123759   3.829   3.893   3.471  1.4202  1.2373  1.7452
 4100SOL    HW223760   3.817   3.821   3.594 -0.6422 -2.0411 -2.1888
 4101SOL     OW23761   2.068   1.735   5.700  0.1215 -0.2068 -0.6909
 4101SOL    HW123762   2.081   1.788   5.778 -1.5015  0.5451 -0.9198
 4101SOL    HW223763   2.022   1.798   5.644  0.3374 -1.0209 -1.7887
 4102SOL     OW23764   3.357   1.203  10.577  0.6994 -0.4942 -0.4786
 4102SOL    HW123765   3.262   1.212  10.568  0.4844 -1.4154  0.9098
 4102SOL    HW223766   3.380   1.261  10.650 -1.1381  1.3133 -1.3164
 4103SOL     OW23767   0.140   1.752   0.593 -0.0582 -0.5270 -0.8212
 4103SOL    HW123768   0.211   1.745   0.655 -0.5176  2.3068  0.0236
 4103SOL    HW223769   0.077   1.803   0.643  2.3205  2.9558 -1.4223
 4104SOL     OW23770   3.378   3.249   9.151 -0.0900 -0.0518  0.6900
 4104SOL    HW123771   3.353   3.274   9.062  1.4687  1.7173  0.7418
 4104SOL    HW223772   3.468   3.282   9.147 -0.4799  0.6642 -2.0720
 4105SOL     OW23773   3.863   2.178   8.411  0.6513  0.0861  0.4113
 4105SOL    HW123774   3.775   2.216   8.403  0.0847 -1.2086  0.3716
 4105SOL    HW223775   3.836   2.086   8.405 -0.8690  0.4452  1.6189
 4106SOL     OW23776   0.420   4.000   7.183 -0.9361  0.3700 -0.4173
 4106SOL    HW123777   0.443   3.936   7.250 -1.5543 -1.5692 -2.0348
 4106SOL    HW223778   0.391   4.069   7.241 -0.3275  0.3592 -0.1023
 4107SOL     OW23779   0.437   3.970   3.799 -0.0514 -0.1254 -0.1561
 4107SOL    HW123780   0.514   4.026   3.798  0.2661 -0.5836 -0.8721
 4107SOL    HW223781   0.429   3.941   3.890  1.9507 -0.9620 -0.2666
 4108SOL     OW23782   4.480   3.496  14.396  0.3218 -0.6369  0.2747
 4108SOL    HW123783   4.543   3.424  14.405 -0.3359 -1.1742  0.5418
 4108SOL    HW223784   4.462   3.516  14.488  1.5376  1.1763  0.1200
 4109SOL     OW23785   2.794   2.624   3.418 -0.1332 -0.0659  1.0987
 4109SOL    HW123786   2.884   2.620   3.385 -0.2175 -1.2026  1.0324
 4109SOL    HW223787   2.795   2.713   3.455  3.1138 -0.8381  2.8942
 4110SOL     OW23788   3.029   1.188   1.963 -0.7307  0.1575  0.0735
 4110SOL    HW123789   2.982   1.130   2.022 -2.9001  2.0952  0.2345
 4110SOL    HW223790   3.115   1.146   1.963 -0.7523  0.1199  1.3069
 4111SOL     OW23791   2.477   4.435   3.027 -0.2904  0.3341  0.5037
 4111SOL    HW123792   2.538   4.509   3.028  2.4739 -2.0112  1.8326
 4111SOL    HW223793   2.391   4.479   3.029 -0.3486  0.3008 -0.8156
 4112SOL     OW23794   3.718   0.967  11.413  0.1883  0.0829  0.0153
 4112SOL    HW123795   3.792   1.020  11.442  1.4808 -1.4537 -0.5350
 4112SOL    HW223796   3.703   1.003  11.325  2.0705 -2.4534 -1.3300
 4113SOL     OW23797   0.580   4.159   3.425  0.1786 -0.0280  0.3739
 4113SOL    HW123798   0.675   4.151   3.418  0.4143  1.6842  1.3661
 4113SOL    HW223799   0.578   4.212   3.505  1.2340  2.4222 -1.2169
 4114SOL     OW23800   1.700   0.565   3.482  0.0919 -0.2656  0.4471
 4114SOL    HW123801   1.744   0.484   3.455  0.9537 -0.1296  1.4602
 4114SOL    HW223802   1.610   0.546   3.455 -0.2404  0.2804  1.1683
 4115SOL     OW23803   1.591   1.411   6.012 -0.0053  0.7031 -0.6340
 4115SOL    HW123804   1.686   1.416   6.001  0.0838  0.7416  0.1620
 4115SOL    HW223805   1.574   1.495   6.055 -1.6665  0.0980 -0.1336
 4116SOL     OW23806   0.526   4.541   5.020  0.1621  0.1999 -0.8941
 4116SOL    HW123807   0.538   4.616   4.962  2.0240 -0.1571 -0.9759
 4116SOL    HW223808   0.554   4.472   4.960 -3.4192 -1.2457 -0.9404
 4117SOL     OW23809   3.602   0.744   4.744 -0.3839 -0.1410 -0.5732
 4117SOL    HW123810   3.529   0.804   4.757  0.1598  0.6238 -1.0355
 4117SOL    HW223811   3.656   0.764   4.820  0.3845 -0.0411 -1.1421
 4118SOL     OW23812   2.514   3.886  12.620  0.8286  0.1149 -0.8363
 4118SOL    HW123813   2.489   3.797  12.595 -0.1163  0.2619 -0.4129
 4118SOL    HW223814   2.481   3.892  12.710 -1.3335  0.8085 -1.6913
 4119SOL     OW23815   0.028   1.865   5.781 -0.0268  0.4337  0.4052
 4119SOL    HW123816   4.694   1.824   5.720  0.1929  1.6654 -0.6254
 4119SOL    HW223817   0.002   1.957   5.774 -2.1099 -0.1999 -0.0050
 4120SOL     OW23818   4.326   4.671   5.739  0.3767  0.2133  0.7247
 4120SOL    HW123819   4.260   4.721   5.690 -1.3775 -1.1655  1.6720
 4120SOL    HW223820   4.396   4.659   5.675  1.6509 -1.7549  2.5000
 4121SOL     OW23821   1.501   4.420   2.908  0.1739 -0.0309  0.1680
 4121SOL    HW123822   1.490   4.391   2.817  0.1118  1.7655 -0.3976
 4121SOL    HW223823   1.591   4.450   2.907  0.6558 -1.4784 -0.8030
 4122SOL     OW23824   3.061   3.648   3.293  0.4209  0.6383  0.2391
 4122SOL    HW123825   2.975   3.687   3.277  1.1374  2.3940  0.6580
 4122SOL    HW223826   3.055   3.571   3.236 -0.9780 -1.2228  2.9160
 4123SOL     OW23827   3.828   4.502  11.458 -0.5939  0.6117 -0.3067
 4123SOL    HW123828   3.825   4.451  11.377 -1.3780 -1.8975  1.3222
 4123SOL    HW223829   3.912   4.547  11.449  0.6307 -1.9039 -1.3949
 4124SOL     OW23830   1.496   2.832   9.515 -0.2108  0.5284  0.0690
 4124SOL    HW123831   1.443   2.778   9.575 -1.1846  0.0769 -1.2039
 4124SOL    HW223832   1.530   2.882   9.589  1.6248  0.6575 -0.8766
 4125SOL     OW23833   1.787   4.555   9.360 -0.3825  0.0446  0.2075
 4125SOL    HW123834   1.752   4.540   9.448 -1.3670  0.6381 -0.0843
 4125SOL    HW223835   1.768   4.467   9.327 -0.0769  0.6015 -1.4206
 4126SOL     OW23836   3.785   0.801   4.948  0.3273 -0.6661 -0.0086
 4126SOL    HW123837   3.848   0.742   4.907  0.2865 -0.7697  0.0772
 4126SOL    HW223838   3.827   0.824   5.031 -0.0250 -1.6240  0.4292
 4127SOL     OW23839   1.217   3.623   9.237  0.8327  0.3364 -0.5764
 4127SOL    HW123840   1.162   3.625   9.315  2.4505  1.1748  0.5619
 4127SOL    HW223841   1.162   3.675   9.178 -0.7469  0.2926  0.8543
 4128SOL     OW23842   0.274   3.390   7.304  0.5640 -0.2301 -0.3912
 4128SOL    HW123843   0.350   3.447   7.289  1.3396 -1.0672  0.2862
 4128SOL    HW223844   0.208   3.431   7.250 -0.9796 -1.0731  0.8384
 4129SOL     OW23845   1.501   0.857  17.170 -0.5826 -0.5599  0.3289
 4129SOL    HW123846   1.483   0.819  17.256 -0.9699 -4.3760 -1.4286
 4129SOL    HW223847   1.534   0.942  17.201  0.9132 -0.0385 -2.7324
 4130SOL     OW23848   1.625   4.331   3.871 -1.3220  0.2181 -0.4551
 4130SOL    HW123849   1.591   4.257   3.821 -2.4059  0.4160  0.0041
 4130SOL    HW223850   1.667   4.275   3.935  1.1923  1.0857 -1.3272
 4131SOL     OW23851   0.065   0.401   1.344 -0.2729 -0.4493 -0.0830
 4131SOL    HW123852   0.007   0.407   1.267  0.4733  1.3844 -0.4799
 4131SOL    HW223853   0.089   0.308   1.351  2.5832  0.5039  2.5943
 4132SOL     OW23854   2.495   0.776   5.902 -0.1316 -0.3570  0.1391
 4132SOL    HW123855   2.538   0.837   5.842 -0.0830 -0.2865  0.2457
 4132SOL    HW223856   2.404   0.798   5.881  0.1551  0.9300  0.2385
 4133SOL     OW23857   2.376   1.653   8.914 -0.0164  0.0635 -0.2653
 4133SOL    HW123858   2.326   1.706   8.851 -1.8386 -0.3805  0.7987
 4133SOL    HW223859   2.421   1.598   8.849 -1.5574 -2.9633  1.2413
 4134SOL     OW23860   2.347   3.067   1.179  0.1425  0.3145 -0.3029
 4134SOL    HW123861   2.379   3.079   1.089 -0.1063 -2.9207 -0.7987
 4134SOL    HW223862   2.426   3.028   1.216  2.6006  4.6132 -1.0126
 4135SOL     OW23863   3.680   0.698   2.396  0.4160 -0.0151  0.1826
 4135SOL    HW123864   3.753   0.654   2.351 -1.9577 -2.5710 -1.1431
 4135SOL    HW223865   3.611   0.653   2.348  1.5852  0.0284 -1.5655
 4136SOL     OW23866   2.119   3.803  12.515 -0.1839 -0.1625  0.3327
 4136SOL    HW123867   2.126   3.890  12.477 -1.1935  0.0757  0.6885
 4136SOL    HW223868   2.137   3.833  12.604 -0.7632  2.6816 -0.5216
 4137SOL     OW23869   2.610   0.659   1.699 -0.2368 -0.0019 -0.0158
 4137SOL    HW123870   2.550   0.728   1.725 -0.7753 -1.1284  1.6886
 4137SOL    HW223871   2.642   0.627   1.783 -1.5887 -0.7651  0.2099
 4138SOL     OW23872   1.175   3.657   4.608 -0.1518  0.0660 -0.1334
 4138SOL    HW123873   1.094   3.662   4.557 -1.5761 -1.3738  1.9948
 4138SOL    HW223874   1.231   3.698   4.542  2.4626 -1.4807  1.1365
 4139SOL     OW23875   3.823   3.005  14.202  0.5494 -0.0465 -0.0273
 4139SOL    HW123876   3.838   3.075  14.137  1.2558 -0.4603 -0.3037
 4139SOL    HW223877   3.908   2.966  14.221  0.0117 -1.1815  0.0368
 4140SOL     OW23878   0.471   0.914   2.388  0.0962 -0.4254 -0.4610
 4140SOL    HW123879   0.460   1.008   2.374  2.2353 -0.0938  0.0168
 4140SOL    HW223880   0.563   0.903   2.362  0.8487  2.6985  0.7945
 4141SOL     OW23881   3.534   4.197   7.046  0.3842 -0.6130  0.2855
 4141SOL    HW123882   3.622   4.215   7.012  0.0574 -1.5096 -1.0214
 4141SOL    HW223883   3.497   4.124   6.995  1.4970 -0.5313 -0.6422
 4142SOL     OW23884   0.741   3.539   4.744  0.1887 -0.4089  0.1894
 4142SOL    HW123885   0.661   3.491   4.721  0.6085 -0.3746 -1.3639
 4142SOL    HW223886   0.793   3.469   4.782  0.4390 -0.1345  0.3551
 4143SOL     OW23887   0.812   1.590  13.002 -0.5916  0.1691 -0.1620
 4143SOL    HW123888   0.769   1.654  12.946 -3.0559  0.3345  1.9080
 4143SOL    HW223889   0.744   1.523  13.008 -0.5116  0.0226 -0.9243
 4144SOL     OW23890   0.035   3.366   7.899  0.6244 -0.1299  0.2415
 4144SOL    HW123891   0.124   3.401   7.897 -0.3663  2.3478 -0.6283
 4144SOL    HW223892   4.726   3.389   7.813 -1.7024  3.3293  2.0960
 4145SOL     OW23893   0.929   2.214   5.951 -0.6272 -0.2710  0.0057
 4145SOL    HW123894   0.901   2.124   5.971  2.5092 -0.3054  4.1487
 4145SOL    HW223895   0.845   2.255   5.970 -2.3099 -1.4725 -4.8785
 4146SOL     OW23896   2.601   1.662   2.283  0.2786  0.1121  0.1262
 4146SOL    HW123897   2.607   1.754   2.309  0.6724  0.2330 -0.3846
 4146SOL    HW223898   2.626   1.610   2.360 -2.7555 -0.1716  0.9163
 4147SOL     OW23899   0.664   4.610   3.099  0.5024  0.5514 -0.6880
 4147SOL    HW123900   0.691   4.698   3.072  1.4441  0.5102  0.1539
 4147SOL    HW223901   0.692   4.558   3.024 -0.2186 -0.4907 -0.2350
 4148SOL     OW23902   2.595   2.288   6.787 -0.0644  0.1007 -0.0730
 4148SOL    HW123903   2.588   2.304   6.693  1.7903 -0.2318 -0.2606
 4148SOL    HW223904   2.643   2.206   6.777  1.8723  1.4590 -1.8089
 4149SOL     OW23905   1.452   1.606   1.595  0.0173 -0.2841 -0.0020
 4149SOL    HW123906   1.389   1.676   1.612 -0.8101 -1.3211  1.2672
 4149SOL    HW223907   1.444   1.603   1.500 -0.4855  0.4222  0.0147
 4150SOL     OW23908   1.851   3.240  10.665  0.3989 -0.1151  0.5923
 4150SOL    HW123909   1.854   3.332  10.690 -1.4565  0.7582 -2.4100
 4150SOL    HW223910   1.808   3.205  10.743  0.1014 -0.4487  0.2769
 4151SOL     OW23911   2.678   2.885   8.844  0.1180  0.0286 -0.6428
 4151SOL    HW123912   2.604   2.910   8.788 -0.8126 -2.0113 -0.3309
 4151SOL    HW223913   2.634   2.835   8.913 -1.2800  1.1403 -0.7245
 4152SOL     OW23914   1.096   1.823   8.098  0.1344  0.0529  0.1100
 4152SOL    HW123915   1.004   1.831   8.124  0.0584 -0.5509  0.0219
 4152SOL    HW223916   1.114   1.915   8.077 -2.9645  0.4354 -0.8163
 4153SOL     OW23917   2.226   1.871   3.224  0.0202 -0.0815  0.4310
 4153SOL    HW123918   2.179   1.833   3.149  3.1005 -1.2042 -0.9324
 4153SOL    HW223919   2.216   1.963   3.199  1.8640 -0.8441 -3.1608
 4154SOL     OW23920   0.471   4.030  13.275 -0.2010  0.2778  0.2998
 4154SOL    HW123921   0.429   3.964  13.329 -1.5342  0.2581 -0.7453
 4154SOL    HW223922   0.402   4.093  13.254 -0.8235 -0.1942  0.9527
 4155SOL     OW23923   3.571   4.568   5.523  0.3726 -0.2168  0.6004
 4155SOL    HW123924   3.655   4.534   5.556  1.9003  1.1517 -1.8433
 4155SOL    HW223925   3.580   4.558   5.428  2.9304 -0.3254  0.8440
 4156SOL     OW23926   3.840   2.291  17.055  0.0617 -0.4152  0.2560
 4156SOL    HW123927   3.849   2.300  17.150  0.1465 -0.7415  0.2767
 4156SOL    HW223928   3.745   2.294  17.040 -0.0348 -2.7385  0.4024
 4157SOL     OW23929   4.387   1.489   7.284 -0.0199 -0.2423 -0.6029
 4157SOL    HW123930   4.315   1.551   7.274  1.1865  0.7892 -2.8986
 4157SOL    HW223931   4.385   1.484   7.379 -0.3493  2.7105 -0.4531
 4158SOL     OW23932   1.692   0.143   8.511  0.1245  1.1047  0.1292
 4158SOL    HW123933   1.785   0.128   8.493 -0.0547  0.2186 -0.0521
 4158SOL    HW223934   1.674   0.055   8.544 -0.0793  0.4870 -1.6278
 4159SOL     OW23935   4.715   2.476   1.675  0.3091  0.2794 -0.5748
 4159SOL    HW123936   0.038   2.487   1.756  0.1438  0.2964 -0.4756
 4159SOL    HW223937   4.713   2.566   1.641 -1.7252  0.4912  0.0926
 4160SOL     OW23938   2.665   1.486   9.622 -0.0870  0.0659 -0.5079
 4160SOL    HW123939   2.633   1.519   9.538  0.0612 -2.0897 -1.4238
 4160SOL    HW223940   2.644   1.567   9.668  0.1573 -0.3521  0.3450
 4161SOL     OW23941   0.318   2.809  13.636 -0.8213 -0.2087  0.4040
 4161SOL    HW123942   0.404   2.843  13.662 -0.6490 -0.2455 -0.1209
 4161SOL    HW223943   0.317   2.717  13.660 -0.1472 -0.1540  0.6456
 4162SOL     OW23944   3.172   0.503   7.742 -0.0272  0.6121  0.4152
 4162SOL    HW123945   3.251   0.493   7.690 -0.5062 -1.6495  0.0920
 4162SOL    HW223946   3.107   0.460   7.685  1.0384 -0.7680  0.2513
 4163SOL     OW23947   2.677   2.209   4.686  0.3437 -0.2305 -0.5554
 4163SOL    HW123948   2.735   2.190   4.760 -1.0114  0.1129  0.6027
 4163SOL    HW223949   2.635   2.290   4.716  1.1907 -0.5197  1.4208
 4164SOL     OW23950   2.619   0.661   9.052 -0.0516 -0.0509  0.5046
 4164SOL    HW123951   2.532   0.662   9.092  0.8929 -0.7261  2.5611
 4164SOL    HW223952   2.662   0.588   9.097 -0.4663 -0.3378  0.4428
 4165SOL     OW23953   3.545   3.130  16.448 -0.0534 -0.2060 -0.0594
 4165SOL    HW123954   3.490   3.157  16.375 -0.9006  1.5795  1.2181
 4165SOL    HW223955   3.479   3.110  16.514  1.5135 -0.0089  1.5927
 4166SOL     OW23956   3.694   0.120  12.552 -0.3143 -0.1646  0.1570
 4166SOL    HW123957   3.694   0.052  12.619 -0.4798  0.3502  0.6797
 4166SOL    HW223958   3.710   0.196  12.608 -0.5416  0.5717 -0.7720
 4167SOL     OW23959   3.717   4.041   7.380  0.0410  0.5534 -0.2459
 4167SOL    HW123960   3.812   4.052   7.377  0.1452 -0.1967  0.1094
 4167SOL    HW223961   3.714   4.038   7.476 -2.4944 -0.0872 -0.3429
 4168SOL     OW23962   1.330   2.086   3.482  0.2446  0.3196 -0.2248
 4168SOL    HW123963   1.290   2.024   3.543  1.5690 -1.5567 -1.2611
 4168SOL    HW223964   1.385   2.026   3.432  0.5357  1.9856 -1.8783
 4169SOL     OW23965   0.393   1.902   8.150  0.7923 -0.3308 -0.1636
 4169SOL    HW123966   0.368   1.817   8.187  2.2923 -1.0528 -0.8172
 4169SOL    HW223967   0.469   1.911   8.208 -1.4085  2.4580  2.2941
 4170SOL     OW23968   1.799   0.320   3.058  0.0156  0.3552  0.0153
 4170SOL    HW123969   1.886   0.280   3.063 -0.1784 -0.0676  0.0225
 4170SOL    HW223970   1.806   0.403   3.105  1.8400 -1.3699  2.7720
 4171SOL     OW23971   0.279   4.365   1.506 -0.3530  0.0647  0.1870
 4171SOL    HW123972   0.192   4.325   1.505  0.9528 -2.6891 -3.1275
 4171SOL    HW223973   0.313   4.317   1.430  1.2234  2.5995 -0.6900
 4172SOL     OW23974   2.070   2.139   9.872 -0.0098 -0.8274 -0.3361
 4172SOL    HW123975   2.107   2.219   9.908 -2.1501 -0.3863  0.8448
 4172SOL    HW223976   2.094   2.137   9.779  0.0263 -2.2324 -0.2955
 4173SOL     OW23977   4.431   4.498   8.266  0.0871  0.1197  0.0096
 4173SOL    HW123978   4.401   4.589   8.267  0.8271  0.3199  3.2550
 4173SOL    HW223979   4.359   4.461   8.316 -0.1032 -0.3209 -0.5937
 4174SOL     OW23980   3.951   3.822   4.740  0.7450 -0.4681  0.1144
 4174SOL    HW123981   3.994   3.789   4.819 -2.2589  0.7694  2.2379
 4174SOL    HW223982   3.861   3.793   4.755  0.3490  0.6454 -0.1337
 4175SOL     OW23983   1.727   4.470   9.630 -0.3280  0.0565  0.0833
 4175SOL    HW123984   1.648   4.459   9.578 -0.3325 -1.2306  0.3590
 4175SOL    HW223985   1.699   4.434   9.714  1.8017 -0.5231  0.5510
 4176SOL     OW23986   2.074   3.838   1.253 -0.0957  0.0007  0.1130
 4176SOL    HW123987   2.045   3.927   1.271 -1.3096  0.0165 -1.8869
 4176SOL    HW223988   2.134   3.823   1.326  0.3587 -0.6686 -0.4001
 4177SOL     OW23989   0.327   0.190  15.867  0.3955 -0.5222 -0.5565
 4177SOL    HW123990   0.379   0.259  15.826  0.8336 -2.0859 -2.6677
 4177SOL    HW223991   0.395   0.145  15.917  2.3366  1.9672 -1.0047
 4178SOL     OW23992   4.323   0.911   9.665 -0.1351  0.1258  0.2533
 4178SOL    HW123993   4.406   0.922   9.711  0.4617 -1.3729 -0.4612
 4178SOL    HW223994   4.337   0.818   9.645  0.6301  0.8688 -2.6896
 4179SOL     OW23995   1.355   3.861   3.864 -0.3911  0.1818  0.1967
 4179SOL    HW123996   1.285   3.819   3.815 -0.1281  0.1780 -0.1761
 4179SOL    HW223997   1.407   3.893   3.790 -2.6877  1.6305 -0.7829
 4180SOL     OW23998   1.859   3.800  11.606  0.2762  0.2474  0.4315
 4180SOL    HW123999   1.826   3.710  11.614  2.1371 -0.2685  2.3738
 4180SOL    HW224000   1.770   3.835  11.597  0.3690  0.3064 -0.2021
 4181SOL     OW24001   3.646   4.132   7.635 -0.0777 -0.1118 -0.1514
 4181SOL    HW124002   3.639   4.225   7.612  0.6511  0.4792  2.0029
 4181SOL    HW224003   3.578   4.117   7.701  2.4077  2.0025  2.9255
 4182SOL     OW24004   4.110   2.999   9.011 -0.5814 -0.0929 -0.3804
 4182SOL    HW124005   4.200   2.978   8.989 -0.4760 -2.6972  2.5245
 4182SOL    HW224006   4.057   2.942   8.955 -3.2616 -0.2962  2.3295
 4183SOL     OW24007   1.422   0.354   3.924  0.7717 -0.3247  0.1972
 4183SOL    HW124008   1.506   0.379   3.962 -0.3401  0.7938  1.9474
 4183SOL    HW224009   1.370   0.434   3.936  1.5070  0.0870  0.6422
 4184SOL     OW24010   3.106   0.066  10.990  0.1092 -0.6025 -0.8733
 4184SOL    HW124011   3.177   0.108  10.941  1.1113 -1.4720 -0.1589
 4184SOL    HW224012   3.072   0.002  10.928 -0.8367 -0.2815 -0.6887
 4185SOL     OW24013   0.981   4.456   2.093 -0.2635  0.3328  0.1400
 4185SOL    HW124014   0.938   4.403   2.025 -1.5467  0.6139  0.7389
 4185SOL    HW224015   0.920   4.444   2.166  1.2929  1.0520  1.5548
 4186SOL     OW24016   3.725   1.376  17.171  0.3232 -0.3667  0.2932
 4186SOL    HW124017   3.779   1.323  17.230  0.4076 -2.8991 -2.0233
 4186SOL    HW224018   3.685   1.300  17.129  1.7319 -0.7172 -0.4170
 4187SOL     OW24019   0.865   2.365   0.753 -0.1448 -0.6411 -0.0735
 4187SOL    HW124020   0.783   2.398   0.716  0.2547  0.2148 -0.1851
 4187SOL    HW224021   0.930   2.431   0.730 -0.7444  0.2621  0.8457
 4188SOL     OW24022   3.441   3.733   6.582 -0.2642 -0.0400  0.0831
 4188SOL    HW124023   3.365   3.789   6.596 -0.1639  1.0376 -3.5515
 4188SOL    HW224024   3.442   3.724   6.487  0.7707  1.0840 -0.0148
 4189SOL     OW24025   4.298   0.903   2.073  0.4845 -0.5863 -0.1064
 4189SOL    HW124026   4.322   0.962   2.144  1.7231 -0.0048 -0.9919
 4189SOL    HW224027   4.353   0.927   1.999  2.5549 -1.4465  1.1381
 4190SOL     OW24028   4.695   2.958  13.030  0.1358  0.2039  0.1680
 4190SOL    HW124029   4.599   2.954  13.030  0.1313 -0.0309  2.4927
 4190SOL    HW224030   4.715   2.869  13.002 -0.2294 -0.2072  1.1973
 4191SOL     OW24031   0.251   2.147   3.246 -0.0110  0.1007  0.4138
 4191SOL    HW124032   0.246   2.101   3.162 -0.1303  0.5452  0.1800
 4191SOL    HW224033   0.200   2.093   3.307  0.0656 -0.9993 -0.5032
 4192SOL     OW24034   2.295   4.085   0.563 -0.0622  0.3012 -0.0362
 4192SOL    HW124035   2.353   4.009   0.566  0.2405  0.4442 -2.3845
 4192SOL    HW224036   2.211   4.041   0.577 -0.9258  1.8728 -0.3535
 4193SOL     OW24037   1.046   1.932   2.864  0.1351  0.1448  0.2709
 4193SOL    HW124038   1.127   1.924   2.813  0.8932  3.2990  1.0076
 4193SOL    HW224039   0.979   1.932   2.795 -1.5136 -0.6068  1.8771
 4194SOL     OW24040   0.895   1.029  10.958 -0.0560  0.5798 -0.1929
 4194SOL    HW124041   0.946   0.960  10.916 -0.9992 -0.3349  0.1763
 4194SOL    HW224042   0.868   1.087  10.886 -0.7241  1.7454  0.9919
 4195SOL     OW24043   2.810   1.798   7.561 -0.2031  0.2488  0.6182
 4195SOL    HW124044   2.862   1.866   7.519  0.2929 -0.7064 -0.2991
 4195SOL    HW224045   2.804   1.841   7.646 -2.5268 -1.0625  1.1394
 4196SOL     OW24046   4.632   0.135   6.491  0.8846 -0.5721  0.0097
 4196SOL    HW124047   4.717   0.135   6.534  0.4051  2.3861  0.9572
 4196SOL    HW224048   4.605   0.227   6.481 -2.4677 -1.7154 -1.4116
 4197SOL     OW24049   4.702   0.675   9.710  0.2588 -0.0199 -0.3292
 4197SOL    HW124050   4.709   0.594   9.659  1.6537 -0.9434  1.3320
 4197SOL    HW224051   0.054   0.660   9.763  0.1562  1.2800  0.1761
 4198SOL     OW24052   3.870   3.352  16.964 -0.1536  0.2271  0.0813
 4198SOL    HW124053   3.920   3.344  17.045 -2.4424 -0.9404  1.3866
 4198SOL    HW224054   3.888   3.442  16.937 -1.5406  1.4795  3.3233
 4199SOL     OW24055   1.352   0.072   7.278  0.0945  0.6196  0.0236
 4199SOL    HW124056   1.264   0.072   7.241  0.4868 -1.0207 -0.8885
 4199SOL    HW224057   1.333   0.119   7.359 -0.9928  0.1108  0.0607
 4200SOL     OW24058   1.547   1.373  15.274 -0.3661 -0.1742 -0.0650
 4200SOL    HW124059   1.538   1.289  15.229  0.1069 -1.2875  1.9221
 4200SOL    HW224060   1.627   1.355  15.324  0.9060  3.4385 -0.8131
 4201SOL     OW24061   4.514   0.782  17.695  0.6042 -0.0543 -0.0035
 4201SOL    HW124062   4.605   0.783   0.019  0.3948  0.3329  0.6004
 4201SOL    HW224063   4.487   0.696   0.021  0.4039 -0.1012 -0.2894
 4202SOL     OW24064   4.448   2.643  14.514 -0.2437  0.3457 -0.0806
 4202SOL    HW124065   4.388   2.693  14.569  0.0253  0.9891 -0.3656
 4202SOL    HW224066   4.490   2.594  14.585 -0.6464  1.6624  1.0773
 4203SOL     OW24067   1.110   0.012   8.412 -0.5224  0.4059  0.5229
 4203SOL    HW124068   1.167   4.669   8.446 -0.6008  0.2436  0.3214
 4203SOL    HW224069   1.033   4.689   8.383  1.2193 -2.4252  0.7059
 4204SOL     OW24070   2.215   0.016   5.318  0.0695  0.4835  0.7231
 4204SOL    HW124071   2.195   4.652   5.294 -0.3858  1.1370 -1.3854
 4204SOL    HW224072   2.145   0.039   5.379 -1.9691 -3.2504 -0.2004
 4205SOL     OW24073   2.430   3.161  17.126 -0.5746  0.0249 -0.3638
 4205SOL    HW124074   2.450   3.229  17.191  0.6927 -0.3443 -0.3633
 4205SOL    HW224075   2.516   3.137  17.092 -0.5618 -0.8958  0.3236
 4206SOL     OW24076   4.218   0.204   2.349  0.4278  0.0009  0.2895
 4206SOL    HW124077   4.274   0.282   2.350  1.9126 -1.0718  0.6511
 4206SOL    HW224078   4.151   0.239   2.408 -0.0789 -1.1454  0.3963
 4207SOL     OW24079   3.323   0.320  16.293  0.1932  0.0767 -0.2207
 4207SOL    HW124080   3.390   0.331  16.360 -1.2580  0.6152  1.1494
 4207SOL    HW224081   3.317   0.411  16.266 -0.8926 -0.1686 -0.8143
 4208SOL     OW24082   0.876   2.827   4.871 -0.5825  0.1705  0.0719
 4208SOL    HW124083   0.942   2.890   4.900 -0.7022 -0.8938  2.6542
 4208SOL    HW224084   0.832   2.876   4.802 -2.0788  0.1421  0.9992
 4209SOL     OW24085   1.634   2.596   8.362  0.5122  0.3442 -0.4381
 4209SOL    HW124086   1.565   2.565   8.303 -1.8245 -0.4019  2.7242
 4209SOL    HW224087   1.675   2.516   8.395 -0.0303  0.3623  0.2615
 4210SOL     OW24088   1.502   1.681   9.850  0.1199 -0.3885  0.3046
 4210SOL    HW124089   1.560   1.653   9.779  0.1844  0.3006  0.0845
 4210SOL    HW224090   1.424   1.718   9.808 -0.2159 -2.0459 -0.5522
 4211SOL     OW24091   1.103   4.266   9.222  0.5565  0.2249  0.8647
 4211SOL    HW124092   1.076   4.174   9.220 -0.6665  0.6316 -1.3720
 4211SOL    HW224093   1.026   4.321   9.206  0.0466 -0.9412 -0.7523
 4212SOL     OW24094   3.111   2.498  14.700  0.2963 -0.1067 -0.1387
 4212SOL    HW124095   3.082   2.534  14.784  0.8823 -0.3877  0.1777
 4212SOL    HW224096   3.152   2.418  14.730 -1.9643 -1.1859  0.0792
 4213SOL     OW24097   2.983   4.692   4.730 -0.0323 -0.2636 -0.1943
 4213SOL    HW124098   3.040   4.618   4.750 -1.0141 -1.6377 -2.5061
 4213SOL    HW224099   2.959   4.684   4.638  3.2033 -2.4091 -0.8153
 4214SOL     OW24100   2.279   3.194   3.367  0.2471  0.3716 -0.2417
 4214SOL    HW124101   2.221   3.246   3.423  2.2674 -0.8066  2.9272
 4214SOL    HW224102   2.223   3.125   3.331 -0.7034  0.3899  1.2089
 4215SOL     OW24103   3.128   0.186   5.541 -0.8102  0.0089 -0.4728
 4215SOL    HW124104   3.056   0.124   5.533 -1.4115  0.9346 -2.2184
 4215SOL    HW224105   3.165   0.159   5.625 -0.1686 -1.0951 -1.1210
 4216SOL     OW24106   0.784   3.832   6.152  0.1093 -0.2282  0.0613
 4216SOL    HW124107   0.793   3.741   6.123 -0.7850 -0.1370 -0.5046
 4216SOL    HW224108   0.836   3.824   6.232 -3.4351 -0.1311  2.3572
 4217SOL     OW24109   2.484   1.184   5.936  0.4198 -0.4985  0.2390
 4217SOL    HW124110   2.456   1.252   5.876 -0.3823 -2.3246 -1.4695
 4217SOL    HW224111   2.418   1.199   6.004  1.1919 -0.3554  0.9440
 4218SOL     OW24112   0.053   2.409   0.426 -0.0455  0.0098 -0.7608
 4218SOL    HW124113   0.054   2.322   0.386  2.1244 -0.5746  0.5512
 4218SOL    HW224114   0.114   2.395   0.498 -0.7050  1.8066  0.1313
 4219SOL     OW24115   1.085   1.265   3.395  0.3828  0.0775  0.4372
 4219SOL    HW124116   1.114   1.300   3.311  1.4330  0.4200  0.9366
 4219SOL    HW224117   0.996   1.252   3.363  0.1244  1.1987  0.6823
 4220SOL     OW24118   0.321   2.881   7.294 -0.1952  0.4343 -0.0713
 4220SOL    HW124119   0.251   2.941   7.320 -2.6557 -1.6113 -1.8547
 4220SOL    HW224120   0.345   2.912   7.207 -1.8242 -0.0598 -0.6991
 4221SOL     OW24121   0.052   3.000   6.358 -0.0586 -0.5398 -0.1924
 4221SOL    HW124122   0.074   3.072   6.417  1.5430  0.8672 -2.4791
 4221SOL    HW224123   0.081   3.029   6.271  1.2047 -0.7872  0.1542
 4222SOL     OW24124   3.973   0.030  13.793  0.3235 -0.1777  0.2511
 4222SOL    HW124125   3.956   0.062  13.705 -0.0828 -0.4662  0.2241
 4222SOL    HW224126   4.024   0.103  13.829 -0.4209  0.7414 -0.5761
 4223SOL     OW24127   3.090   2.494  12.661  0.0257  0.7341  0.8496
 4223SOL    HW124128   3.021   2.544  12.616 -0.9403  0.8666  2.4796
 4223SOL    HW224129   3.161   2.521  12.603  0.5011  0.6252  1.3752
 4224SOL     OW24130   1.499   2.002   9.536  0.6125 -0.0318 -0.0761
 4224SOL    HW124131   1.525   1.913   9.514  1.0505  0.7027 -2.6112
 4224SOL    HW224132   1.409   2.003   9.569  0.9871 -2.1168  1.0126
 4225SOL     OW24133   4.111   0.264  17.405  0.3720  0.1777  0.1315
 4225SOL    HW124134   4.082   0.173  17.410 -0.6816  0.4198 -1.5935
 4225SOL    HW224135   4.106   0.302  17.493  2.8488  2.5951 -0.7633
 4226SOL     OW24136   3.705   1.136   4.369  0.2813  0.1566  0.0691
 4226SOL    HW124137   3.746   1.059   4.329  0.1187  0.3168 -0.4134
 4226SOL    HW224138   3.667   1.095   4.447 -0.5741 -0.5314 -0.7056
 4227SOL     OW24139   2.462   1.979   5.249 -0.2535  0.4729 -0.4342
 4227SOL    HW124140   2.537   1.924   5.274  1.2051  1.9856 -1.4756
 4227SOL    HW224141   2.393   1.962   5.313  0.2736 -0.5684 -0.1347
 4228SOL     OW24142   2.213   1.521   5.753  0.0885 -0.6464  0.2062
 4228SOL    HW124143   2.284   1.555   5.699  0.0477  1.6030  1.6047
 4228SOL    HW224144   2.141   1.580   5.730  0.8621 -0.1400 -0.9199
 4229SOL     OW24145   0.419   3.150   7.942 -0.1661  0.3222 -0.3521
 4229SOL    HW124146   0.395   3.059   7.929  1.0362 -0.1049  0.4697
 4229SOL    HW224147   0.484   3.160   7.872 -1.5286  0.7329 -1.5717
 4230SOL     OW24148   1.597   2.440   9.928 -0.3889  0.2145 -0.2820
 4230SOL    HW124149   1.678   2.484   9.955 -0.0151  1.4647 -3.4892
 4230SOL    HW224150   1.627   2.361   9.883  0.6679 -0.0685  0.9195
 4231SOL     OW24151   4.200   1.149  17.100  0.4736  0.0547 -0.9041
 4231SOL    HW124152   4.155   1.078  17.054  1.3392 -0.5867 -0.7608
 4231SOL    HW224153   4.166   1.218  17.043 -1.7780  0.9360  1.5313
 4232SOL     OW24154   2.366   4.693   5.626 -0.7702  0.3079 -0.2704
 4232SOL    HW124155   2.372   0.047   5.575  1.7710  0.1196 -0.2800
 4232SOL    HW224156   2.276   4.669   5.646 -0.8080 -0.1322 -0.9688
 4233SOL     OW24157   3.399   2.472   1.309  0.0396  0.3127 -0.2284
 4233SOL    HW124158   3.413   2.485   1.403  1.1348 -0.8719 -0.2373
 4233SOL    HW224159   3.409   2.378   1.301 -0.6932  0.2937 -0.9371
 4234SOL     OW24160   1.702   1.134   1.458 -0.3266 -0.2311 -0.2689
 4234SOL    HW124161   1.739   1.201   1.401 -1.2598 -0.5944 -1.2858
 4234SOL    HW224162   1.757   1.057   1.441  1.1794  0.2560  2.4308
 4235SOL     OW24163   2.642   1.197   1.423  0.1464 -0.4435 -0.0992
 4235SOL    HW124164   2.663   1.137   1.494  1.2267  0.0681  0.0091
 4235SOL    HW224165   2.721   1.251   1.423  0.0360 -0.2731 -2.8518
 4236SOL     OW24166   4.694   1.060   7.538 -0.6745 -0.3629 -0.2245
 4236SOL    HW124167   4.709   0.990   7.602 -0.5065 -2.0162 -2.0637
 4236SOL    HW224168   4.665   1.131   7.595  1.6990 -0.0441  0.5634
 4237SOL     OW24169   2.205   2.437   2.330 -0.2243 -0.6696 -0.5411
 4237SOL    HW124170   2.195   2.514   2.385 -0.0109 -1.3646  0.4799
 4237SOL    HW224171   2.181   2.362   2.386 -0.9685  0.2197  0.3280
 4238SOL     OW24172   0.223   3.296   9.171 -0.4551  0.4994 -0.4363
 4238SOL    HW124173   0.210   3.378   9.218 -2.0072  0.0279 -0.0343
 4238SOL    HW224174   0.199   3.241   9.245 -0.6522  2.0220  0.6223
 4239SOL     OW24175   1.424   0.717  17.408 -0.1272  0.4970  0.2719
 4239SOL    HW124176   1.334   0.686  17.408 -0.0941  0.4016  2.8964
 4239SOL    HW224177   1.455   0.692  17.495 -0.7631 -0.7686  0.1400
 4240SOL     OW24178   2.061   0.379  13.376  0.3404 -0.3848 -0.0081
 4240SOL    HW124179   2.001   0.304  13.383  1.5604 -1.2569  1.2677
 4240SOL    HW224180   2.019   0.445  13.432 -0.5565 -1.1263  0.2024
 4241SOL     OW24181   3.957   2.467   1.742 -0.2717 -0.9745 -0.6430
 4241SOL    HW124182   4.029   2.443   1.800  1.9969  2.9406 -1.8254
 4241SOL    HW224183   3.926   2.544   1.789 -0.9291 -2.1910  0.9012
 4242SOL     OW24184   2.317   0.697   6.316  0.2390 -0.2878 -0.7056
 4242SOL    HW124185   2.329   0.608   6.349  1.3319 -0.2710 -1.0447
 4242SOL    HW224186   2.229   0.730   6.334  0.4433 -0.5659  0.8166
 4243SOL     OW24187   2.905   2.163   8.127 -0.4217 -0.6143 -0.6243
 4243SOL    HW124188   2.880   2.176   8.219  2.2237 -0.7253  0.1294
 4243SOL    HW224189   2.899   2.256   8.103 -1.9259 -1.3166 -2.8770
 4244SOL     OW24190   2.982   1.917   8.830 -0.1992 -0.0014  0.1627
 4244SOL    HW124191   2.913   1.983   8.838 -1.1004 -0.8392 -0.8631
 4244SOL    HW224192   2.977   1.878   8.917 -2.0124  0.5226  0.2953
 4245SOL     OW24193   4.152   1.133   4.829 -0.1492 -0.1652  0.5127
 4245SOL    HW124194   4.242   1.122   4.860  0.6654  1.8185 -1.0768
 4245SOL    HW224195   4.107   1.065   4.879  1.1753 -1.6028 -0.2771
 4246SOL     OW24196   2.179   0.195  15.374 -0.1121  0.0459  0.8892
 4246SOL    HW124197   2.251   0.257  15.371 -1.3520  1.4691  0.5510
 4246SOL    HW224198   2.140   0.201  15.286 -0.0844 -2.9166  0.6670
 4247SOL     OW24199   1.403   3.258   7.061 -0.0486 -0.0731  0.4470
 4247SOL    HW124200   1.334   3.291   7.118  0.1806 -1.4751  1.5575
 4247SOL    HW224201   1.390   3.316   6.987 -0.0876  2.0714  2.1342
 4248SOL     OW24202   0.518   2.484   7.345  0.5650 -0.4142  0.3794
 4248SOL    HW124203   0.523   2.568   7.391 -2.1437  0.6167 -1.2546
 4248SOL    HW224204   0.481   2.521   7.265 -0.4549 -3.0144 -0.3308
 4249SOL     OW24205   1.195   0.385   2.935  0.6954  0.4280 -0.1270
 4249SOL    HW124206   1.126   0.396   2.870 -1.0280 -3.8941  0.9836
 4249SOL    HW224207   1.151   0.412   3.016 -2.1826  1.2746 -1.9652
 4250SOL     OW24208   2.711   2.459   1.926 -0.3359  0.5140 -0.0244
 4250SOL    HW124209   2.711   2.365   1.904  0.4995  0.2982  0.9262
 4250SOL    HW224210   2.629   2.471   1.975 -0.8803  0.3465 -0.8938
 4251SOL     OW24211   3.975   1.256   3.335 -0.3973  0.1326 -0.5585
 4251SOL    HW124212   3.881   1.240   3.339 -0.5963  1.1265 -1.4567
 4251SOL    HW224213   3.983   1.310   3.257  1.2673  0.0442 -0.4670
 4252SOL     OW24214   0.719   3.875   8.683 -0.0826 -0.2336 -0.4788
 4252SOL    HW124215   0.694   3.798   8.733 -1.1568  2.0649  2.5371
 4252SOL    HW224216   0.761   3.925   8.754  1.2602 -2.2279  0.1455
 4253SOL     OW24217   2.104   2.278   2.518  0.3369 -0.0978  0.7520
 4253SOL    HW124218   2.073   2.347   2.577  0.9445  0.8058  0.0336
 4253SOL    HW224219   2.032   2.244   2.465  0.6856 -1.1492  0.9516
 4254SOL     OW24220   1.070   1.946   1.188  0.1674 -0.9295 -0.2308
 4254SOL    HW124221   1.125   2.005   1.137 -0.2426 -0.1819  0.1871
 4254SOL    HW224222   0.989   1.948   1.136  0.6536  1.0655 -0.9198
 4255SOL     OW24223   4.415   0.378   8.845  0.5810  0.1873 -0.3301
 4255SOL    HW124224   4.506   0.392   8.872  0.6819 -0.0950 -0.5251
 4255SOL    HW224225   4.402   0.284   8.832  0.5230  0.8759 -5.3545
 4256SOL     OW24226   3.527   2.166   4.904  0.2461  0.1196 -0.1813
 4256SOL    HW124227   3.549   2.232   4.839  0.0809  3.5243  3.2298
 4256SOL    HW224228   3.614   2.135   4.929 -0.3747 -0.1753  1.6151
 4257SOL     OW24229   2.998   4.628   5.550 -0.0462 -0.1949 -0.4996
 4257SOL    HW124230   3.036   4.554   5.598 -0.2699 -0.2801 -0.4547
 4257SOL    HW224231   3.012   4.588   5.464 -0.0716  0.3583 -0.7633
 4258SOL     OW24232   4.423   2.907  15.180 -0.6235 -0.6086  0.2067
 4258SOL    HW124233   4.455   2.958  15.105  0.1867 -0.8138  0.4187
 4258SOL    HW224234   4.493   2.842  15.184 -1.0324 -1.1489 -1.4238
 4259SOL     OW24235   2.052   3.086   4.172  0.0357  0.2601 -0.4328
 4259SOL    HW124236   2.056   2.993   4.194  0.4134  0.3770 -0.0194
 4259SOL    HW224237   2.145   3.100   4.156  0.0109  0.4663 -0.3950
 4260SOL     OW24238   1.352   3.904   0.169  0.5784 -0.3249  0.1177
 4260SOL    HW124239   1.447   3.899   0.165  0.5136 -0.2542 -1.4347
 4260SOL    HW224240   1.337   3.893   0.264 -1.0009  3.3559  0.2981
 4261SOL     OW24241   1.147   2.621   3.178  0.0655 -0.8623  0.2409
 4261SOL    HW124242   1.103   2.538   3.163  0.0510 -0.4906 -1.7747
 4261SOL    HW224243   1.213   2.588   3.240 -0.5588 -1.6568  0.4693
 4262SOL     OW24244   3.266   1.109   0.903 -0.1531  0.4386  0.0951
 4262SOL    HW124245   3.227   1.195   0.915 -1.0472 -0.1184  1.0851
 4262SOL    HW224246   3.260   1.077   0.993  0.0845 -0.0826 -0.0706
 4263SOL     OW24247   0.624   2.489  15.865  0.0534 -0.0449 -0.0702
 4263SOL    HW124248   0.613   2.584  15.868  1.6631  0.1082  0.4577
 4263SOL    HW224249   0.651   2.483  15.773  1.4585 -1.7529  0.4659
 4264SOL     OW24250   2.067   3.897   9.877 -0.0078 -0.4463  0.8274
 4264SOL    HW124251   2.123   3.820   9.872  1.6299  0.9006 -1.4384
 4264SOL    HW224252   2.137   3.961   9.868  0.0804 -0.6232  0.2622
 4265SOL     OW24253   3.751   2.724  15.321 -0.1393  0.2078  0.6362
 4265SOL    HW124254   3.738   2.631  15.340 -1.4345  0.2019 -0.2565
 4265SOL    HW224255   3.832   2.720  15.270 -1.3984  0.1764 -1.3607
 4266SOL     OW24256   0.027   2.280  12.437  0.3056  0.4082  0.1019
 4266SOL    HW124257   4.680   2.341  12.446 -0.7542 -1.1568  1.8298
 4266SOL    HW224258   0.091   2.341  12.473 -1.9958  0.8426  3.4497
 4267SOL     OW24259   3.974   0.690   4.191 -0.3538  0.5172  0.0388
 4267SOL    HW124260   3.972   0.617   4.253  1.3425 -1.3426 -2.0735
 4267SOL    HW224261   4.070   0.691   4.180 -0.1607 -1.7711  1.5019
 4268SOL     OW24262   0.996   0.082   9.927  0.0733 -0.1785  0.1351
 4268SOL    HW124263   1.020   0.016   9.991  0.5542 -1.0196 -0.9147
 4268SOL    HW224264   0.913   0.056   9.887  0.3265 -0.9160  0.0876
 4269SOL     OW24265   1.314   2.628   1.730  0.5379  0.7701 -0.2146
 4269SOL    HW124266   1.285   2.646   1.640  1.1545  3.8191  0.2145
 4269SOL    HW224267   1.364   2.708   1.746 -2.1254  2.5757 -0.9369
 4270SOL     OW24268   1.132   0.118   9.030 -0.4797  0.8358 -0.6160
 4270SOL    HW124269   1.066   0.187   9.019 -1.3835 -0.0680 -0.8659
 4270SOL    HW224270   1.216   0.153   9.000  1.6337 -3.4226  0.4399
 4271SOL     OW24271   2.599   4.401   1.905  0.2493  0.2826  0.1233
 4271SOL    HW124272   2.635   4.423   1.991  0.9257 -1.0524  0.1849
 4271SOL    HW224273   2.577   4.484   1.862 -1.6833 -0.3322 -0.0930
 4272SOL     OW24274   3.827   2.392   1.508  0.0611 -0.3401 -0.6364
 4272SOL    HW124275   3.790   2.478   1.488 -1.6346 -0.8061  0.5020
 4272SOL    HW224276   3.871   2.416   1.590 -1.3701 -0.3053  0.1086
 4273SOL     OW24277   3.514   2.776  11.677  0.2745  0.6215 -0.0227
 4273SOL    HW124278   3.582   2.802  11.615  1.6742  1.4401  1.8537
 4273SOL    HW224279   3.553   2.700  11.719 -1.1746 -0.6589 -0.9573
 4274SOL     OW24280   0.909   1.136   8.139  0.3347 -0.1058 -0.5931
 4274SOL    HW124281   0.820   1.115   8.110  1.4005 -0.5694 -3.5486
 4274SOL    HW224282   0.903   1.225   8.172  1.5812 -1.4448  3.2663
 4275SOL     OW24283   0.996   4.608   8.736  0.0180 -0.8608 -0.1936
 4275SOL    HW124284   0.945   4.681   8.700 -2.6055 -2.0740  1.1061
 4275SOL    HW224285   1.064   4.604   8.668  0.1250  1.1078 -0.2215
 4276SOL     OW24286   3.831   3.924   2.293  0.1901  0.3698 -0.0707
 4276SOL    HW124287   3.834   4.018   2.273  1.8313  0.1573 -0.7783
 4276SOL    HW224288   3.912   3.904   2.246 -0.7258  0.8621 -1.8651
 4277SOL     OW24289   3.708   2.958  15.447 -0.4640 -0.3828  0.4220
 4277SOL    HW124290   3.741   2.888  15.391 -2.2429  1.0709 -2.4527
 4277SOL    HW224291   3.639   3.006  15.400  0.1077 -2.1346 -2.2120
 4278SOL     OW24292   0.883   2.723  17.245 -0.3752  0.9332 -0.1191
 4278SOL    HW124293   0.941   2.771  17.304  2.3138 -0.7283 -1.4269
 4278SOL    HW224294   0.822   2.684  17.308 -0.8289  2.4421  0.3624
 4279SOL     OW24295   3.796   0.542   7.451  0.1197 -0.6454  0.3267
 4279SOL    HW124296   3.803   0.448   7.435 -2.8957 -0.7942 -0.0309
 4279SOL    HW224297   3.854   0.563   7.525 -0.0809 -2.0876  0.8942
 4280SOL     OW24298   3.622   1.943   5.832 -0.3094 -0.1561 -0.2131
 4280SOL    HW124299   3.670   1.877   5.783  1.1646  1.0391 -0.3713
 4280SOL    HW224300   3.558   1.889   5.880 -0.1737  0.0784  0.2368
 4281SOL     OW24301   3.892   1.977   5.491  0.4095 -0.4732 -0.5431
 4281SOL    HW124302   3.798   1.990   5.478  0.0602 -2.0974  0.3709
 4281SOL    HW224303   3.917   1.931   5.411 -2.1550 -0.7367 -1.1842
 4282SOL     OW24304   1.977   3.895  15.183 -0.3080  0.1783  0.3154
 4282SOL    HW124305   1.951   3.813  15.142 -2.6753  1.3262 -0.4527
 4282SOL    HW224306   2.057   3.865  15.226  0.2504  1.5331  0.2341
 4283SOL     OW24307   3.129   3.906   7.011  0.0316 -0.3708 -0.4481
 4283SOL    HW124308   3.149   3.815   7.031 -0.9413 -0.3830  0.4817
 4283SOL    HW224309   3.067   3.898   6.938 -0.4761  1.4377 -0.2323
 4284SOL     OW24310   1.835   0.584   1.444  0.5369 -0.6210 -0.1188
 4284SOL    HW124311   1.897   0.526   1.399 -0.6430 -1.1849 -1.0057
 4284SOL    HW224312   1.891   0.608   1.517 -0.6350 -1.6452  1.0984
 4285SOL     OW24313   4.461   3.007  12.130 -0.3170  0.0538 -0.3668
 4285SOL    HW124314   4.456   2.969  12.042 -0.6726  0.5578 -0.5698
 4285SOL    HW224315   4.423   2.939  12.186 -1.0130  1.8851  1.4047
 4286SOL     OW24316   2.793   4.122  15.428  0.0127 -0.1039 -0.6436
 4286SOL    HW124317   2.835   4.052  15.478  0.6591  0.6965 -0.0669
 4286SOL    HW224318   2.732   4.074  15.372 -0.5191  1.6417 -1.5698
 4287SOL     OW24319   2.453   2.432   7.268  0.1591 -0.5266 -0.1554
 4287SOL    HW124320   2.438   2.442   7.174 -0.3583  1.2392  0.1090
 4287SOL    HW224321   2.546   2.414   7.263  0.1454 -0.4508 -0.7868
 4288SOL     OW24322   0.872   0.469  15.743  0.5849  0.0437 -0.0894
 4288SOL    HW124323   0.816   0.425  15.807  0.3924  0.6936  0.1970
 4288SOL    HW224324   0.876   0.551  15.792  0.7422  0.0721 -0.1484
 4289SOL     OW24325   1.090   3.723   2.094 -0.7704  0.0766  0.3817
 4289SOL    HW124326   1.012   3.743   2.042  0.0747 -1.5882 -1.5256
 4289SOL    HW224327   1.125   3.652   2.041 -1.0642  1.4969 -1.7161
 4290SOL     OW24328   1.405   4.236  12.398  0.0156 -0.0904 -0.4664
 4290SOL    HW124329   1.408   4.310  12.458 -1.7350 -0.5548  0.2049
 4290SOL    HW224330   1.490   4.192  12.404 -1.0074 -2.1956 -1.4474
 4291SOL     OW24331   0.832   3.345   7.092  0.2179 -0.2066  0.8681
 4291SOL    HW124332   0.793   3.322   7.176 -2.8907  2.0581  0.0605
 4291SOL    HW224333   0.900   3.278   7.084  0.2022 -0.3258  1.6937
 4292SOL     OW24334   1.967   0.517   5.263 -0.4396 -0.0739  0.0072
 4292SOL    HW124335   1.985   0.427   5.234  0.9266  0.1125  0.2537
 4292SOL    HW224336   1.891   0.546   5.214 -0.9808  2.0410  2.1128
 4293SOL     OW24337   3.332   1.610  16.981  0.2121 -0.1082  0.6321
 4293SOL    HW124338   3.285   1.528  16.967 -0.1175 -0.0039  1.1516
 4293SOL    HW224339   3.422   1.578  16.991  0.2210 -0.1251  0.5043
 4294SOL     OW24340   2.778   1.858  10.228  0.1781 -0.9054 -0.4475
 4294SOL    HW124341   2.858   1.818  10.194 -0.7834  0.1103 -3.8618
 4294SOL    HW224342   2.734   1.886  10.148 -0.5650  0.0002  0.2658
 4295SOL     OW24343   3.691   3.643   9.996  0.3923  0.3385 -0.0777
 4295SOL    HW124344   3.649   3.601   9.921 -1.2430 -0.3235  1.2050
 4295SOL    HW224345   3.616   3.683  10.041  0.7175  0.6135  0.2162
 4296SOL     OW24346   0.722   2.494   8.261 -0.0357 -0.5383 -0.1069
 4296SOL    HW124347   0.805   2.530   8.293 -0.3013  0.4098 -0.4809
 4296SOL    HW224348   0.664   2.566   8.286  0.8378  0.1266  0.0252
 4297SOL     OW24349   0.318   4.013   4.306 -0.3965 -0.2487 -0.3612
 4297SOL    HW124350   0.295   4.097   4.266  1.0814  1.1260  1.7231
 4297SOL    HW224351   0.385   3.995   4.240 -0.4249  1.8253 -0.9676
 4298SOL     OW24352   4.347   3.481   8.406 -0.1404  0.0248 -0.0581
 4298SOL    HW124353   4.335   3.386   8.414  0.6586 -0.0312  0.4850
 4298SOL    HW224354   4.393   3.504   8.487 -0.6583 -1.2202  0.5976
 4299SOL     OW24355   3.033   2.453   4.865  0.1564 -0.1104  0.0977
 4299SOL    HW124356   3.065   2.522   4.924 -0.1885 -0.0159  0.1753
 4299SOL    HW224357   3.115   2.404   4.869  1.3668  1.8885 -0.0729
 4300SOL     OW24358   1.588   1.882   4.844  0.8144 -0.0834  0.3100
 4300SOL    HW124359   1.547   1.889   4.758 -1.0880  1.6613  1.3509
 4300SOL    HW224360   1.634   1.798   4.837  2.1966  0.6918  0.2634
 4301SOL     OW24361   3.134   0.420   2.739 -0.7066  0.2194  0.1914
 4301SOL    HW124362   3.165   0.415   2.648 -0.5462 -1.0198  0.3174
 4301SOL    HW224363   3.071   0.348   2.740 -0.6312  0.1504  0.0262
 4302SOL     OW24364   2.956   2.519   2.018 -0.1521 -0.8823 -0.2882
 4302SOL    HW124365   2.874   2.477   1.993  0.6255 -1.5472 -1.7315
 4302SOL    HW224366   2.959   2.587   1.950 -0.3673 -1.0051 -0.4202
 4303SOL     OW24367   1.483   2.687   4.947  0.1749  0.0536  0.1344
 4303SOL    HW124368   1.523   2.749   5.008 -1.8772  1.1459  0.3672
 4303SOL    HW224369   1.554   2.624   4.937 -0.8185 -0.6907 -2.1362
 4304SOL     OW24370   4.697   3.244   2.662 -0.2716 -0.4411  0.0243
 4304SOL    HW124371   4.685   3.267   2.570  1.7126 -0.0035 -0.1254
 4304SOL    HW224372   4.606   3.249   2.691 -1.5773 -0.7737 -4.0225
 4305SOL     OW24373   4.183   4.473  14.792 -0.2815 -0.5010 -0.2118
 4305SOL    HW124374   4.090   4.463  14.809 -0.1530  1.1361  1.5023
 4305SOL    HW224375   4.199   4.565  14.816  1.0032 -0.7064 -0.2591
 4306SOL     OW24376   1.513   0.676  10.595  0.1593  0.4464  0.4762
 4306SOL    HW124377   1.601   0.710  10.614  0.0938  1.9187 -1.8676
 4306SOL    HW224378   1.463   0.755  10.614  0.0037  0.2719  0.8002
 4307SOL     OW24379   2.946   1.264   1.314 -0.1996 -0.6966  0.2454
 4307SOL    HW124380   3.001   1.343   1.313 -1.2794  0.0039 -2.6576
 4307SOL    HW224381   3.000   1.229   1.385 -1.3521 -0.5437  1.1947
 4308SOL     OW24382   2.649   0.940   3.366  0.1930  0.2090 -0.2524
 4308SOL    HW124383   2.624   1.032   3.356  2.0766  0.8602  1.0687
 4308SOL    HW224384   2.669   0.937   3.459  0.2911  2.7477 -0.1914
 4309SOL     OW24385   0.841   3.390   4.982  0.2209 -0.4812 -0.0193
 4309SOL    HW124386   0.781   3.315   4.986  0.6820 -0.7866  1.1053
 4309SOL    HW224387   0.922   3.374   4.933  0.3027  1.5804 -0.5317
 4310SOL     OW24388   4.466   0.786   6.522  0.2816  0.0025  0.2103
 4310SOL    HW124389   4.507   0.773   6.436 -1.4022  0.6288 -0.6862
 4310SOL    HW224390   4.379   0.763   6.491  0.3718  0.6829 -0.5558
 4311SOL     OW24391   2.060   3.084   5.407  0.0467 -0.1409  0.0320
 4311SOL    HW124392   2.105   3.021   5.464 -0.6570 -2.1136 -1.6098
 4311SOL    HW224393   2.131   3.144   5.383 -1.5306  1.8769  0.4081
 4312SOL     OW24394   4.647   4.065   4.177 -0.5465  0.2740 -0.0062
 4312SOL    HW124395   4.671   4.154   4.151  1.1840 -0.3708 -0.6301
 4312SOL    HW224396   4.585   4.040   4.108 -1.5886  1.4512  0.5183
 4313SOL     OW24397   0.671   4.719   5.236  0.4483  0.2807  0.6571
 4313SOL    HW124398   0.623   4.660   5.177  1.3794 -1.3792  1.5572
 4313SOL    HW224399   0.642   0.076   5.198 -1.6464 -1.0925 -0.7719
 4314SOL     OW24400   1.800   2.447   0.233  0.2692  0.3155 -0.0969
 4314SOL    HW124401   1.806   2.353   0.215  2.2477  0.3552  0.3771
 4314SOL    HW224402   1.838   2.477   0.151  1.0605 -1.2980 -0.3188
 4315SOL     OW24403   0.964   2.934  11.817 -0.5701  0.2895 -0.1701
 4315SOL    HW124404   0.954   2.928  11.912  1.6020 -0.5744  0.0056
 4315SOL    HW224405   1.006   3.020  11.816  0.0948 -0.0091  1.8169
 4316SOL     OW24406   0.394   1.764  17.470  0.5581  0.2562 -0.3821
 4316SOL    HW124407   0.425   1.675  17.452 -1.3721 -0.3973 -0.4860
 4316SOL    HW224408   0.319   1.749  17.528  2.6265 -1.0874  1.9075
 4317SOL     OW24409   3.986   4.502  15.774 -0.2741  0.6061 -0.3130
 4317SOL    HW124410   4.080   4.518  15.773 -0.4321  1.5050 -0.7910
 4317SOL    HW224411   3.957   4.586  15.739  1.3040  0.7536 -1.2244
 4318SOL     OW24412   2.507   1.848   3.211  0.1602  0.1938  0.4167
 4318SOL    HW124413   2.531   1.940   3.198 -1.8851  0.7427  0.5449
 4318SOL    HW224414   2.413   1.858   3.199  0.2490  0.6881  0.1114
 4319SOL     OW24415   2.989   0.696   6.657  0.5580  0.4210  0.1473
 4319SOL    HW124416   2.928   0.678   6.729  0.8492 -0.1595  0.2500
 4319SOL    HW224417   3.055   0.753   6.697 -0.4271  2.0645 -0.5575
 4320SOL     OW24418   3.192   3.873   2.171 -0.2638 -0.3633 -0.2111
 4320SOL    HW124419   3.123   3.822   2.214 -1.2963 -0.3165 -1.7775
 4320SOL    HW224420   3.261   3.867   2.236  0.7613 -0.7514 -1.3265
 4321SOL     OW24421   4.266   2.581  15.020  0.7110  0.9268  0.4152
 4321SOL    HW124422   4.248   2.583  14.926  0.2245  0.0515  0.4856
 4321SOL    HW224423   4.276   2.487  15.032 -0.2197  0.3640 -3.0397
 4322SOL     OW24424   4.219   1.931  16.616 -0.1692  0.7351 -0.4791
 4322SOL    HW124425   4.167   1.904  16.692 -0.9748 -1.1446 -1.7124
 4322SOL    HW224426   4.285   1.862  16.622 -1.5502 -0.5512 -0.0331
 4323SOL     OW24427   0.612   3.875   1.869 -0.6179 -0.5849 -0.2602
 4323SOL    HW124428   0.655   3.925   1.799  1.7396 -1.6267  0.4603
 4323SOL    HW224429   0.526   3.871   1.827 -0.0269  3.2207 -1.7950
 4324SOL     OW24430   0.981   2.154   1.974  0.0774  0.1158 -0.3897
 4324SOL    HW124431   0.996   2.129   1.883 -3.2343 -0.8739 -0.6849
 4324SOL    HW224432   1.002   2.248   1.976 -0.5184  0.2121  2.0440
 4325SOL     OW24433   0.027   3.610   2.084 -0.4029  0.5260  0.3483
 4325SOL    HW124434   0.111   3.580   2.118 -0.0698 -0.9050 -1.7257
 4325SOL    HW224435   0.061   3.679   2.028  1.7648 -0.4482  0.4715
 4326SOL     OW24436   0.508   0.480   1.603 -0.1176 -0.4162  0.1762
 4326SOL    HW124437   0.568   0.532   1.657 -0.8873  0.3110  0.3259
 4326SOL    HW224438   0.478   0.550   1.545 -1.2894 -1.3812 -0.3572
 4327SOL     OW24439   4.390   3.521   5.588  0.0649  0.1391 -0.1745
 4327SOL    HW124440   4.376   3.533   5.682 -0.9076 -0.8379 -0.1924
 4327SOL    HW224441   4.408   3.614   5.573  1.8862 -0.0293  0.9245
 4328SOL     OW24442   3.547   1.845  17.035  0.1995 -0.1113 -0.3320
 4328SOL    HW124443   3.583   1.764  17.071 -1.0648 -0.3282  0.4199
 4328SOL    HW224444   3.487   1.813  16.968  0.7160 -0.2169 -0.7485
 4329SOL     OW24445   4.415   4.625   1.580 -0.4973  0.3425 -0.0748
 4329SOL    HW124446   4.367   4.625   1.497 -0.7277 -0.9135  0.0701
 4329SOL    HW224447   4.343   4.640   1.640 -0.8290  0.4921 -0.5063
 4330SOL     OW24448   0.652   3.472  11.538 -0.0907 -0.1315  0.4656
 4330SOL    HW124449   0.596   3.502  11.610 -1.1408  2.0159 -1.2528
 4330SOL    HW224450   0.707   3.409  11.584 -0.1262 -1.4795 -1.3205
 4331SOL     OW24451   0.509   0.363  12.837 -0.1070 -0.3830  0.1970
 4331SOL    HW124452   0.419   0.335  12.854  0.4190 -2.1587 -0.0357
 4331SOL    HW224453   0.557   0.281  12.836  0.0426 -0.2896 -0.3420
 4332SOL     OW24454   4.095   4.625   4.213  0.1533 -0.2713 -0.2418
 4332SOL    HW124455   4.106   4.697   4.152  2.4412 -1.1797 -0.9005
 4332SOL    HW224456   4.168   4.573   4.181  1.7234  1.1493  1.0402
 4333SOL     OW24457   4.012   0.095   8.657  0.8286  0.3510  0.1080
 4333SOL    HW124458   3.926   0.128   8.685  1.9785  2.5790  0.9858
 4333SOL    HW224459   4.059   0.118   8.738  0.0743  0.8674  0.4020
 4334SOL     OW24460   3.702   4.345   4.774  0.5815  0.7367  0.0486
 4334SOL    HW124461   3.688   4.252   4.789 -1.8517  1.1427  0.3677
 4334SOL    HW224462   3.796   4.350   4.760  0.5784  1.7669  0.3933
 4335SOL     OW24463   0.856   1.586  17.566  0.7011  0.0178  0.0778
 4335SOL    HW124464   0.889   1.605  17.654  1.0397  0.8397 -0.2297
 4335SOL    HW224465   0.793   1.658  17.558 -0.6787 -1.0017  1.4987
 4336SOL     OW24466   0.493   1.062   0.041  0.1106 -0.7504 -0.2982
 4336SOL    HW124467   0.574   1.105   0.068  0.9476 -2.7408  0.4051
 4336SOL    HW224468   0.431   1.132   0.061  0.2899 -0.2647 -1.4040
 4337SOL     OW24469   1.091   0.072  13.556  0.1393 -0.2538 -0.6925
 4337SOL    HW124470   1.115   0.026  13.637  0.1033 -0.7124 -0.9439
 4337SOL    HW224471   1.074   4.720  13.504 -0.4957 -0.3086 -0.4111
 4338SOL     OW24472   0.557   1.898  11.757 -0.2155 -0.0306 -0.2040
 4338SOL    HW124473   0.481   1.902  11.815  0.5009  2.5111  0.5706
 4338SOL    HW224474   0.620   1.852  11.813 -0.0469 -0.7208 -0.9743
 4339SOL     OW24475   2.571   0.937  16.815  0.3276  0.5283 -0.1545
 4339SOL    HW124476   2.522   0.966  16.891  1.4724  0.4697  0.6133
 4339SOL    HW224477   2.512   0.968  16.747 -0.0351  0.0730 -0.0458
 4340SOL     OW24478   4.377   1.733  14.549  0.1140  0.0742  0.4898
 4340SOL    HW124479   4.458   1.780  14.529  0.0657 -0.4851 -1.0476
 4340SOL    HW224480   4.316   1.805  14.530 -1.9104 -1.7974 -0.1652
 4341SOL     OW24481   3.079   2.088   9.312 -0.4319 -0.4563  0.4495
 4341SOL    HW124482   3.014   2.021   9.329  0.8260 -1.8049 -0.0580
 4341SOL    HW224483   3.161   2.037   9.312  1.1285  2.0192 -1.5668
 4342SOL     OW24484   4.135   4.506  11.079  0.3978 -0.0728 -0.1844
 4342SOL    HW124485   4.070   4.536  11.143  1.6565  0.8902  0.6411
 4342SOL    HW224486   4.185   4.587  11.070  0.5564 -0.1806 -0.2619
 4343SOL     OW24487   2.323   1.404   4.766 -0.1253  0.0082  0.0806
 4343SOL    HW124488   2.242   1.450   4.743  0.1484  1.0303  1.1745
 4343SOL    HW224489   2.291   1.319   4.737 -0.2010  0.2512 -0.5449
 4344SOL     OW24490   3.780   4.359  11.682 -0.6197  0.5679  0.3059
 4344SOL    HW124491   3.786   4.422  11.611  0.9453 -0.5840 -0.5782
 4344SOL    HW224492   3.686   4.363  11.698 -1.0741 -3.7204 -1.3127
 4345SOL     OW24493   2.585   2.172   1.393 -0.5603  0.3782 -0.3525
 4345SOL    HW124494   2.500   2.185   1.351 -0.6292  2.2554  0.3216
 4345SOL    HW224495   2.631   2.255   1.376 -0.7053  0.4519 -0.3836
 4346SOL     OW24496   0.161   3.175   6.544  0.5292  0.1454  0.1577
 4346SOL    HW124497   0.175   3.269   6.530 -1.1599  0.5265  1.0626
 4346SOL    HW224498   0.242   3.166   6.595  1.2329 -2.3014 -1.4003
 4347SOL     OW24499   3.879   1.558   4.278  0.2913  0.9419 -0.3137
 4347SOL    HW124500   3.844   1.526   4.196  0.8837  0.5289 -0.4073
 4347SOL    HW224501   3.876   1.473   4.321  1.3404  0.5214 -1.0617
 4348SOL     OW24502   1.010   3.672   5.160 -0.3814  0.7599  0.2259
 4348SOL    HW124503   0.994   3.758   5.122  0.5651  1.3095  1.0605
 4348SOL    HW224504   1.099   3.685   5.193  0.4489 -0.3788 -1.5646
 4349SOL     OW24505   0.944   1.738   6.387  0.3758  0.3856 -0.0870
 4349SOL    HW124506   1.021   1.778   6.428  0.7684 -2.8581  2.3810
 4349SOL    HW224507   0.888   1.815   6.380 -1.3018 -0.7952  0.4182
 4350SOL     OW24508   0.070   1.952   3.839  0.1592 -0.2292 -0.3695
 4350SOL    HW124509   0.147   1.995   3.875 -2.2980  3.3774  0.5030
 4350SOL    HW224510   0.022   1.944   3.922 -1.1411  2.1941 -0.9170
 4351SOL     OW24511   0.434   0.671   3.406 -0.1006 -0.0072 -0.0300
 4351SOL    HW124512   0.419   0.607   3.475 -2.4815  0.1051 -0.4379
 4351SOL    HW224513   0.512   0.641   3.361  0.5936  3.0612 -0.8492
 4352SOL     OW24514   1.375   1.014   3.483 -0.0055  0.4923 -0.2102
 4352SOL    HW124515   1.405   1.101   3.459 -0.3375  0.5355 -0.4694
 4352SOL    HW224516   1.451   0.983   3.532 -0.3941  0.0704  0.1302
 4353SOL     OW24517   4.110   1.766  12.499 -0.0272 -0.1241  0.1130
 4353SOL    HW124518   4.023   1.806  12.491  0.1252 -0.0380 -1.1685
 4353SOL    HW224519   4.144   1.807  12.578  1.8090  0.3477 -0.9028
 4354SOL     OW24520   0.603   3.395  13.643  0.3742  0.0652  0.0359
 4354SOL    HW124521   0.690   3.435  13.640  0.5112 -0.3570 -1.5569
 4354SOL    HW224522   0.546   3.463  13.678 -0.8011 -1.2211  0.6459
 4355SOL     OW24523   0.319   2.333   7.480  0.1254  0.1857 -0.4158
 4355SOL    HW124524   0.396   2.368   7.436 -0.0518 -0.4439 -1.2167
 4355SOL    HW224525   0.351   2.250   7.514  2.4680  1.4521  0.4624
 4356SOL     OW24526   1.671   0.018  11.609 -0.0900 -0.4374  0.5027
 4356SOL    HW124527   1.710   0.050  11.690  0.0046  2.6501 -0.7697
 4356SOL    HW224528   1.605   4.680  11.634 -2.6738  1.8426 -0.3488
 4357SOL     OW24529   3.430   1.030   9.258  0.4571  0.7059  0.9175
 4357SOL    HW124530   3.494   1.098   9.239  0.4424  0.2375 -0.8077
 4357SOL    HW224531   3.407   1.056   9.347 -0.6269  0.4929  0.6988
 4358SOL     OW24532   1.975   0.386   2.057 -0.3750 -0.1356  1.0524
 4358SOL    HW124533   1.988   0.473   2.018 -2.2887 -0.6400 -0.7467
 4358SOL    HW224534   2.036   0.323   2.018  1.1134  2.5148 -0.9393
 4359SOL     OW24535   1.836   1.246   4.621  0.1928 -0.4194  0.1507
 4359SOL    HW124536   1.792   1.330   4.632  0.2919 -0.2205 -0.9899
 4359SOL    HW224537   1.929   1.255   4.642  0.1150  0.5602  0.0697
 4360SOL     OW24538   2.723   2.912   5.852  0.0529 -0.6833  0.3529
 4360SOL    HW124539   2.802   2.893   5.800  0.5462  0.6483  0.6141
 4360SOL    HW224540   2.656   2.850   5.824 -0.6322  0.0749  0.3146
 4361SOL     OW24541   0.273   2.073   6.940 -0.0542  0.1993  0.5788
 4361SOL    HW124542   0.219   1.994   6.949 -0.5117  0.5283  0.6815
 4361SOL    HW224543   0.211   2.128   6.892  2.0862  2.2451  0.1803
 4362SOL     OW24544   4.472   0.574   5.399  0.0053  0.2847  0.2402
 4362SOL    HW124545   4.521   0.656   5.398  2.7101 -1.3216  1.5601
 4362SOL    HW224546   4.541   0.515   5.428  0.3149 -0.0156 -1.0986
 4363SOL     OW24547   3.965   3.501   3.037  0.2417  0.1300 -0.3612
 4363SOL    HW124548   3.901   3.536   3.099  0.6180  0.4755 -0.1637
 4363SOL    HW224549   3.954   3.556   2.959 -0.8164  0.4335 -0.0029
 4364SOL     OW24550   3.815   3.714   4.397 -0.4150  0.7108 -0.4778
 4364SOL    HW124551   3.766   3.795   4.412  1.4859  1.4680  1.5676
 4364SOL    HW224552   3.799   3.692   4.489  1.0432 -0.2231 -0.4481
 4365SOL     OW24553   4.047   2.986   4.119 -0.6957  0.1465  0.2101
 4365SOL    HW124554   4.008   2.950   4.039  0.0661  1.1007 -0.5913
 4365SOL    HW224555   3.985   3.050   4.154  0.3417  1.2660 -0.0027
 4366SOL     OW24556   0.881   4.586   4.549  0.8538  0.0786  0.3271
 4366SOL    HW124557   0.971   4.601   4.520  0.5698 -0.5795 -0.9012
 4366SOL    HW224558   0.862   4.668   4.594  0.4636  0.9036 -1.3650
 4367SOL     OW24559   2.112   0.085   8.115 -0.1165 -0.5283 -0.2492
 4367SOL    HW124560   2.090   0.163   8.064 -0.0418 -1.2648 -1.4225
 4367SOL    HW224561   2.024   0.056   8.141  0.8938 -0.9083  2.7659
 4368SOL     OW24562   1.848   1.563  13.539  0.7888 -0.0412  0.3714
 4368SOL    HW124563   1.765   1.546  13.495 -0.1455  1.9643  1.3375
 4368SOL    HW224564   1.829   1.636  13.598  0.9376  0.8519 -0.6820
 4369SOL     OW24565   3.525   2.743   0.871 -0.0100 -0.1171 -0.0760
 4369SOL    HW124566   3.618   2.724   0.889  0.4204  1.8969 -0.1721
 4369SOL    HW224567   3.474   2.693   0.935 -0.1123  0.2756  0.1459
 4370SOL     OW24568   3.474   1.261   4.654  0.4670  0.3723  0.2859
 4370SOL    HW124569   3.391   1.252   4.700  0.3161  1.0594  0.1338
 4370SOL    HW224570   3.502   1.169   4.648  1.4559  0.6990 -0.1218
 4371SOL     OW24571   2.437   4.281   5.273  0.4564 -0.5508  0.8653
 4371SOL    HW124572   2.361   4.279   5.215  1.7754  1.0231 -0.8996
 4371SOL    HW224573   2.475   4.368   5.267 -1.5383  0.2214 -0.6018
 4372SOL     OW24574   3.101   1.808  13.191 -0.1501 -0.2298  0.2179
 4372SOL    HW124575   3.007   1.792  13.199 -0.1233 -0.8982 -0.8504
 4372SOL    HW224576   3.127   1.739  13.130 -0.6265 -0.7837  0.6392
 4373SOL     OW24577   0.343   1.831   2.733  0.3144  0.0749 -0.1624
 4373SOL    HW124578   0.287   1.824   2.656  1.4515 -1.3430 -0.8708
 4373SOL    HW224579   0.293   1.784   2.800 -1.0305  2.3953  0.4399
 4374SOL     OW24580   1.844   2.123   8.104 -0.3701  0.2197  0.5262
 4374SOL    HW124581   1.865   2.040   8.146  3.2360 -0.5158 -2.6868
 4374SOL    HW224582   1.901   2.112   8.028  1.1874 -0.7041  1.8367
 4375SOL     OW24583   2.082   2.108  11.268 -0.0069 -0.2171 -0.3101
 4375SOL    HW124584   2.164   2.059  11.273 -0.4963 -0.8651  1.2410
 4375SOL    HW224585   2.031   2.057  11.206  0.0173  1.3454 -1.6415
 4376SOL     OW24586   3.966   4.048   0.985  0.1426 -0.4285 -0.2063
 4376SOL    HW124587   3.960   4.137   1.018  0.3536  0.5308 -2.7677
 4376SOL    HW224588   3.947   4.054   0.892  0.5482  1.7822 -0.1444
 4377SOL     OW24589   0.425   1.362  16.390 -0.1362 -0.4390  0.0668
 4377SOL    HW124590   0.382   1.281  16.364 -0.2165 -0.1538 -0.7036
 4377SOL    HW224591   0.518   1.348  16.371 -0.4300 -2.0341 -0.1577
 4378SOL     OW24592   2.654   4.006   2.337  0.0486  0.0442  0.6883
 4378SOL    HW124593   2.646   3.949   2.260  0.4616 -0.6527  1.1715
 4378SOL    HW224594   2.722   4.057   2.293 -0.0513  1.1290  1.7925
 4379SOL     OW24595   1.296   4.101  13.864 -0.6146 -0.2680 -0.4957
 4379SOL    HW124596   1.308   4.164  13.793 -1.1716 -2.1438 -2.2357
 4379SOL    HW224597   1.232   4.148  13.918  2.1377 -0.8898  3.3379
 4380SOL     OW24598   1.074   2.640   6.491  0.2159  0.2634  0.2665
 4380SOL    HW124599   1.117   2.572   6.440  2.1668 -1.0060  3.6509
 4380SOL    HW224600   1.154   2.680   6.524 -0.2488  0.2261  1.4227
 4381SOL     OW24601   2.870   3.002   1.213  0.7462  0.3972  0.5083
 4381SOL    HW124602   2.929   2.943   1.166 -0.9321 -0.1032 -0.9936
 4381SOL    HW224603   2.887   2.987   1.306 -0.2537  0.0908  0.6447
 4382SOL     OW24604   4.028   2.018  12.202  0.6159  0.0226 -1.2330
 4382SOL    HW124605   4.122   2.001  12.215  0.1573 -1.9718 -0.5013
 4382SOL    HW224606   4.007   2.048  12.291 -1.9081 -0.4002 -1.7042
 4383SOL     OW24607   3.503   4.688   1.263  0.5945 -0.1689 -0.2421
 4383SOL    HW124608   3.459   4.611   1.298 -1.0671 -0.4237 -2.9016
 4383SOL    HW224609   3.593   4.656   1.262 -0.1663 -2.3164  1.3319
 4384SOL     OW24610   0.829   3.807   4.811  0.2932  0.1682 -0.1396
 4384SOL    HW124611   0.771   3.739   4.845 -1.0044  1.9726  1.1968
 4384SOL    HW224612   0.854   3.768   4.727 -3.3566 -1.3826 -0.4963
 4385SOL     OW24613   3.837   0.740   7.782  0.1206  0.4009  0.0561
 4385SOL    HW124614   3.901   0.759   7.851 -0.8794  0.3714  0.9877
 4385SOL    HW224615   3.863   0.816   7.731 -1.3325  1.5504  1.0174
 4386SOL     OW24616   4.327   0.499   9.075 -0.6327 -0.4835 -0.1772
 4386SOL    HW124617   4.358   0.457   8.995  0.2476 -0.7748  0.3216
 4386SOL    HW224618   4.269   0.565   9.038 -0.7936 -1.8861 -2.3669
 4387SOL     OW24619   4.047   2.735  13.112  0.2514  0.2755  0.5466
 4387SOL    HW124620   4.057   2.791  13.189 -0.0707  0.0454  0.7562
 4387SOL    HW224621   3.958   2.755  13.083  0.6751  0.8750 -0.3374
 4388SOL     OW24622   4.184   1.088   2.763 -0.3205  0.2325  0.1774
 4388SOL    HW124623   4.186   1.065   2.856 -2.3442  0.1828  0.2276
 4388SOL    HW224624   4.274   1.099   2.734 -0.4645  0.5854 -0.1462
 4389SOL     OW24625   1.176   0.333   4.967  0.5517  0.3271  0.0646
 4389SOL    HW124626   1.087   0.357   4.940  0.9512 -0.0962 -1.6235
 4389SOL    HW224627   1.215   0.321   4.881  2.0841  2.3106  0.4803
 4390SOL     OW24628   2.025   3.914   0.036  0.4728  0.1536 -0.0393
 4390SOL    HW124629   2.018   3.960  17.659  0.1117  0.5198  0.1871
 4390SOL    HW224630   1.958   3.962   0.085  1.0588  1.2911 -0.3416
 4391SOL     OW24631   0.027   4.398   3.459  0.1270  0.3752  0.2546
 4391SOL    HW124632   4.715   4.310   3.450  0.5403  0.2344 -0.1734
 4391SOL    HW224633   4.706   4.427   3.536 -1.0197  0.7848 -0.5989
 4392SOL     OW24634   2.375   2.332   1.029  0.4712 -0.3053  0.2405
 4392SOL    HW124635   2.455   2.385   1.026  0.9787 -1.0280  1.2845
 4392SOL    HW224636   2.309   2.387   0.986  0.3767 -0.0520  0.7137
 4393SOL     OW24637   4.602   0.886   3.922  0.0217 -0.5991 -0.0596
 4393SOL    HW124638   4.662   0.861   3.852 -0.4893 -0.2214 -0.6226
 4393SOL    HW224639   4.559   0.963   3.886  0.2928 -0.8834 -0.9813
 4394SOL     OW24640   4.033   0.587  12.822  0.5583  0.1116 -0.9702
 4394SOL    HW124641   3.990   0.634  12.751 -1.5903  0.3517  0.4739
 4394SOL    HW224642   4.007   0.648  12.891  0.5689 -0.1482 -0.7335
 4395SOL     OW24643   0.334   3.325   2.683 -0.6465 -0.0261  0.0009
 4395SOL    HW124644   0.330   3.274   2.602  0.5128 -1.8208  1.0859
 4395SOL    HW224645   0.429   3.322   2.698 -1.0909 -1.1150  2.5245
 4396SOL     OW24646   2.982   2.769   2.276 -0.4135  0.2788  0.4701
 4396SOL    HW124647   2.974   2.860   2.248  3.2609  0.2808 -0.5782
 4396SOL    HW224648   3.047   2.787   2.344 -0.5972 -2.2171  1.3265
 4397SOL     OW24649   3.995   0.739  13.682  0.0318 -0.7075  0.2089
 4397SOL    HW124650   3.918   0.727  13.627  0.5482 -0.7836 -0.4976
 4397SOL    HW224651   3.981   0.825  13.721  2.2326 -0.8650  1.3488
 4398SOL     OW24652   4.487   0.568   2.984  0.1288  0.1841  0.2023
 4398SOL    HW124653   4.424   0.514   3.030  1.6010 -1.5482  0.1693
 4398SOL    HW224654   4.495   0.515   2.904  0.0530 -0.9826  0.9769
 4399SOL     OW24655   2.786   0.326   8.078 -0.3303 -0.0320  0.1073
 4399SOL    HW124656   2.804   0.288   8.164  0.6640  0.9720  0.3378
 4399SOL    HW224657   2.701   0.364   8.097  1.1123  1.7820  2.9240
 4400SOL     OW24658   1.383   4.633   4.058 -0.1555  0.2172  0.3162
 4400SOL    HW124659   1.415   4.605   3.972 -0.9857 -1.1814  0.4652
 4400SOL    HW224660   1.320   4.701   4.033 -1.1611 -0.8386 -0.0341
 4401SOL     OW24661   3.834   4.271  15.731  0.2123  0.7092 -0.4609
 4401SOL    HW124662   3.873   4.356  15.748 -0.1610  0.6220  0.8151
 4401SOL    HW224663   3.817   4.234  15.817 -1.0924 -0.6045 -1.2719
 4402SOL     OW24664   0.062   2.609   3.706 -0.3797  0.0771 -0.3887
 4402SOL    HW124665   4.698   2.620   3.733 -0.8602 -0.3927 -1.8301
 4402SOL    HW224666   0.078   2.704   3.708 -0.4627  0.0740  0.9967
 4403SOL     OW24667   0.627   0.193   2.133 -0.0251 -0.8373 -0.8337
 4403SOL    HW124668   0.619   0.139   2.054 -1.2576 -1.9922  0.0779
 4403SOL    HW224669   0.563   0.261   2.111 -0.7517 -1.0483  0.5932
 4404SOL     OW24670   2.101   2.276  13.236 -0.3940  0.0155 -0.0376
 4404SOL    HW124671   2.021   2.240  13.199  0.3397 -1.1773 -0.4459
 4404SOL    HW224672   2.108   2.342  13.167  0.6402 -0.0697 -0.0122
 4405SOL     OW24673   1.066   2.746   0.264  0.4681 -0.1630 -0.0532
 4405SOL    HW124674   1.097   2.833   0.239 -2.6111  0.7398 -0.7332
 4405SOL    HW224675   1.054   2.748   0.359  1.4812 -0.4366  0.0782
 4406SOL     OW24676   2.396   2.664   1.054 -0.1079 -0.2776  0.3302
 4406SOL    HW124677   2.476   2.613   1.050 -0.7425 -1.2445 -0.0050
 4406SOL    HW224678   2.393   2.712   0.971  0.1304 -0.3629  0.2736
 4407SOL     OW24679   3.238   0.640  12.182 -0.1840 -0.1960 -0.0095
 4407SOL    HW124680   3.158   0.676  12.144 -0.7991  0.0018  1.4775
 4407SOL    HW224681   3.290   0.690  12.119 -1.0962 -1.7392 -1.9867
 4408SOL     OW24682   4.426   1.362  11.838  0.0205 -0.4610  0.0991
 4408SOL    HW124683   4.518   1.386  11.848 -0.0050  0.1726 -1.1528
 4408SOL    HW224684   4.438   1.267  11.835 -2.2285 -0.6729 -2.0138
 4409SOL     OW24685   4.270   1.977   0.276  0.2565 -0.2890 -0.3712
 4409SOL    HW124686   4.179   1.963   0.304 -0.1628  1.6920 -0.7751
 4409SOL    HW224687   4.258   2.004   0.185 -1.0300  0.4276  0.0107
 4410SOL     OW24688   4.403   3.423  11.483  0.5402  0.0284  0.1694
 4410SOL    HW124689   4.451   3.371  11.548 -0.3731 -0.6511  0.3138
 4410SOL    HW224690   4.404   3.505  11.531 -1.5072  0.3147 -0.2760
 4411SOL     OW24691   3.919   2.200   3.443  0.1170  0.0137  0.7245
 4411SOL    HW124692   3.850   2.159   3.494 -1.9287  1.9118 -0.5306
 4411SOL    HW224693   3.996   2.190   3.498  1.9967 -2.2583 -2.2995
 4412SOL     OW24694   0.053   1.206   3.717  0.2484 -0.0230 -0.2345
 4412SOL    HW124695   0.051   1.120   3.674 -3.1088 -0.0634  0.0129
 4412SOL    HW224696   0.027   1.263   3.644  2.4259  1.1041 -0.1272
 4413SOL     OW24697   3.077   2.135  17.195  0.8130 -0.5239  0.4158
 4413SOL    HW124698   3.142   2.101  17.256  2.0333  1.4621  0.2156
 4413SOL    HW224699   3.019   2.060  17.180  0.7263 -0.7892  2.1091
 4414SOL     OW24700   2.715   4.024   0.176  0.2578 -0.5178 -0.2010
 4414SOL    HW124701   2.686   4.009   0.087  1.2209  2.1727 -0.9802
 4414SOL    HW224702   2.671   3.954   0.224 -0.2500 -1.0316 -1.4166
 4415SOL     OW24703   4.050   3.746   5.000  0.0672 -0.0823 -0.3379
 4415SOL    HW124704   4.091   3.660   5.005  1.5880  0.6120 -0.9660
 4415SOL    HW224705   3.973   3.738   5.056  2.6666 -0.8003  3.1848
 4416SOL     OW24706   1.182   2.183   6.587 -0.5007 -0.1111 -0.9317
 4416SOL    HW124707   1.263   2.161   6.633 -0.2068 -0.7508 -1.7531
 4416SOL    HW224708   1.109   2.188   6.649 -0.6721 -1.2103 -1.0452
 4417SOL     OW24709   3.842   3.352   2.456  0.2677  0.3842  0.0903
 4417SOL    HW124710   3.936   3.342   2.472  0.4088  0.4507 -0.6846
 4417SOL    HW224711   3.837   3.436   2.410 -1.2534  1.0035  1.3834
 4418SOL     OW24712   1.004   1.453   6.906  0.5981  0.9922 -0.1259
 4418SOL    HW124713   0.914   1.422   6.900  1.0179 -0.1979 -0.2049
 4418SOL    HW224714   0.994   1.519   6.975  0.5117  2.2528 -1.3515
 4419SOL     OW24715   3.342   3.750   2.734 -0.4417 -0.0666 -0.4881
 4419SOL    HW124716   3.296   3.709   2.807 -0.7662 -0.2225 -0.7803
 4419SOL    HW224717   3.292   3.741   2.652  1.2751 -1.1567 -1.3951
 4420SOL     OW24718   0.755   0.757   7.766  0.5157 -0.3836  0.0879
 4420SOL    HW124719   0.823   0.750   7.698  0.6614  0.2582  0.1626
 4420SOL    HW224720   0.750   0.851   7.781 -1.3174 -0.5303  0.3501
 4421SOL     OW24721   2.728   4.020  14.883  0.2315 -0.3647  0.0529
 4421SOL    HW124722   2.823   4.031  14.879  0.4116 -1.8089  0.3598
 4421SOL    HW224723   2.727   3.934  14.924 -0.5934 -0.6784 -0.6596
 4422SOL     OW24724   3.040   0.902  11.555  0.3053 -0.0171  0.4970
 4422SOL    HW124725   3.031   0.883  11.648  0.3617  2.3069  0.9934
 4422SOL    HW224726   3.029   0.996  11.542 -2.2247 -0.3793 -0.0141
 4423SOL     OW24727   2.397   2.521   6.221 -1.0557  0.7909 -0.2463
 4423SOL    HW124728   2.471   2.581   6.231 -1.9877  1.3425  3.7119
 4423SOL    HW224729   2.405   2.461   6.295 -1.7261  3.0710  1.7006
 4424SOL     OW24730   1.407   3.242   4.894 -0.4360 -0.5402 -0.1059
 4424SOL    HW124731   1.337   3.277   4.950  1.8920  1.6680  1.4355
 4424SOL    HW224732   1.478   3.234   4.958  0.9771 -2.0810 -1.8704
 4425SOL     OW24733   1.350   1.942   8.622  0.0307 -0.2682  0.0233
 4425SOL    HW124734   1.442   1.940   8.647  0.3145  0.8726 -0.9242
 4425SOL    HW224735   1.351   1.977   8.533 -0.7937  2.4176  1.0579
 4426SOL     OW24736   3.544   3.954  11.061 -0.0846 -0.2146  0.3528
 4426SOL    HW124737   3.462   3.912  11.086 -1.2975  1.0196 -1.5984
 4426SOL    HW224738   3.537   3.954  10.966  1.3088 -1.1211  0.2519
 4427SOL     OW24739   1.344   4.526   5.975  0.1640  0.0158 -0.2365
 4427SOL    HW124740   1.344   4.576   5.893  1.6572 -0.3896 -0.4808
 4427SOL    HW224741   1.275   4.567   6.028 -0.8166  1.4158 -2.5737
 4428SOL     OW24742   0.440   3.574   6.054  0.2785 -0.0956  0.0751
 4428SOL    HW124743   0.389   3.632   6.110  1.3997  1.5610 -0.6252
 4428SOL    HW224744   0.423   3.611   5.967 -1.5545  0.7586  0.7997
 4429SOL     OW24745   2.136   4.649  14.310  0.0463  0.1858  0.2055
 4429SOL    HW124746   2.142   4.724  14.369 -2.0452 -0.1564  0.8420
 4429SOL    HW224747   2.050   4.661  14.269  1.3098 -2.2416 -3.1575
 4430SOL     OW24748   4.419   4.694   6.413  0.2244  0.4492 -0.1858
 4430SOL    HW124749   4.507   0.004   6.408 -0.4456  2.0185 -0.5547
 4430SOL    HW224750   4.434   4.600   6.402  1.0391  0.5398  0.1357
 4431SOL     OW24751   2.730   2.241  12.873 -0.2860 -0.3105  0.7097
 4431SOL    HW124752   2.750   2.169  12.934  3.5332 -1.4963 -1.9548
 4431SOL    HW224753   2.816   2.281  12.867 -0.8704  0.8472  0.1449
 4432SOL     OW24754   4.445   1.411  14.132  0.0329  0.5123  0.1444
 4432SOL    HW124755   4.402   1.326  14.122  1.6881 -0.3421  0.3287
 4432SOL    HW224756   4.531   1.385  14.164  0.5037  0.2682 -1.3406
 4433SOL     OW24757   3.582   0.483   4.831  0.2628  0.1229 -0.0639
 4433SOL    HW124758   3.560   0.568   4.793 -1.3750 -0.7730 -1.1333
 4433SOL    HW224759   3.561   0.508   4.921 -0.1661  0.1477 -0.1694
 4434SOL     OW24760   3.084   4.652  16.557  0.1854 -0.4674  0.1213
 4434SOL    HW124761   3.113   0.009  16.522  0.3830 -0.8456 -0.6225
 4434SOL    HW224762   3.020   4.677  16.624  0.1406 -1.4147  0.4317
 4435SOL     OW24763   3.517   1.594   4.054  0.1955  0.6549 -0.1795
 4435SOL    HW124764   3.509   1.688   4.070 -3.9784  0.0579  1.3617
 4435SOL    HW224765   3.451   1.565   4.118  1.0147  1.2829  0.9526
 4436SOL     OW24766   2.375   3.397   1.572  0.5664 -0.2730  0.0021
 4436SOL    HW124767   2.426   3.349   1.637 -0.3671 -0.2452  0.7507
 4436SOL    HW224768   2.413   3.383   1.486  2.4981  0.0282  0.8152
 4437SOL     OW24769   1.235   4.117   1.209 -0.3035 -0.4729 -0.5619
 4437SOL    HW124770   1.226   4.205   1.245  2.2951 -0.9305  1.2287
 4437SOL    HW224771   1.288   4.132   1.131  2.3497  1.2218  1.5802
 4438SOL     OW24772   1.922   1.673  11.383 -0.4666 -0.0562 -0.5368
 4438SOL    HW124773   1.945   1.662  11.290 -1.1430 -0.0954 -0.7011
 4438SOL    HW224774   1.830   1.647  11.379 -0.1628 -1.2853  0.5917
 4439SOL     OW24775   4.110   0.106   4.884  0.3307 -0.4879  0.1057
 4439SOL    HW124776   4.059   0.029   4.860  0.3518 -0.2096 -0.8336
 4439SOL    HW224777   4.193   0.092   4.838  1.4259  1.2369  1.5443
 4440SOL     OW24778   1.005   0.572   5.729  0.0341 -0.2668  0.3131
 4440SOL    HW124779   0.948   0.498   5.748  1.0633 -1.0637  0.2783
 4440SOL    HW224780   0.943   0.634   5.691 -0.5851 -0.5667  0.8418
 4441SOL     OW24781   4.214   1.896   3.273  0.1806  0.1116  0.1254
 4441SOL    HW124782   4.147   1.954   3.234  1.0149 -0.2364 -1.8387
 4441SOL    HW224783   4.207   1.927   3.363  0.1068  1.2672 -0.2751
 4442SOL     OW24784   3.894   1.224   0.026  0.3381  0.7464  1.1057
 4442SOL    HW124785   3.864   1.134   0.033 -1.0643  1.0586 -0.8423
 4442SOL    HW224786   3.980   1.197  17.700  0.5545  1.3345  1.1831
 4443SOL     OW24787   1.816   2.245   1.966  0.6371 -0.3881 -0.3134
 4443SOL    HW124788   1.866   2.209   2.039  1.6278  3.1509  0.7362
 4443SOL    HW224789   1.755   2.298   2.018  2.1332 -0.5709  1.5865
 4444SOL     OW24790   0.072   1.817   5.083 -0.2926 -0.2843  0.0836
 4444SOL    HW124791   0.063   1.746   5.020  0.8901 -0.0344 -0.3636
 4444SOL    HW224792   4.706   1.830   5.102 -0.5890 -1.6030 -0.4705
 4445SOL     OW24793   1.655   3.671   9.296  0.2936  0.5114  0.5520
 4445SOL    HW124794   1.715   3.730   9.249 -0.3636 -0.3542 -1.3668
 4445SOL    HW224795   1.705   3.664   9.377  0.1427 -0.9834  0.5035
 4446SOL     OW24796   2.074   2.844   5.776 -0.3291 -0.1287 -0.2009
 4446SOL    HW124797   2.119   2.805   5.701  0.9871  1.3020 -0.1426
 4446SOL    HW224798   2.129   2.813   5.848  0.5496  1.2131 -0.3009
 4447SOL     OW24799   0.224   1.261  16.920 -0.0665  0.1294 -0.2725
 4447SOL    HW124800   0.208   1.356  16.920 -0.7138  0.0226  1.0061
 4447SOL    HW224801   0.275   1.252  16.840 -0.1710  1.1586 -0.4527
 4448SOL     OW24802   3.469   3.785   4.932 -0.3275  0.0514  0.1711
 4448SOL    HW124803   3.388   3.832   4.952  1.4214  1.8379  2.9503
 4448SOL    HW224804   3.511   3.844   4.869  2.4095 -1.9819  0.0962
 4449SOL     OW24805   0.739   1.892   0.353  0.1059  0.3597  0.1743
 4449SOL    HW124806   0.675   1.832   0.314  0.0092 -0.7140  1.9702
 4449SOL    HW224807   0.719   1.887   0.447  1.9744 -0.5237  0.5216
 4450SOL     OW24808   1.233   2.893  10.087 -0.4068  0.1428 -0.2634
 4450SOL    HW124809   1.305   2.844  10.127 -0.7942 -0.1673  0.0552
 4450SOL    HW224810   1.246   2.857   9.999 -1.4051  0.2721 -0.4664
 4451SOL     OW24811   2.199   0.308   7.175 -0.2015  0.2395  0.5778
 4451SOL    HW124812   2.252   0.261   7.111  1.4641  1.6379  0.9218
 4451SOL    HW224813   2.231   0.398   7.167 -0.6540  0.4831  1.4840
 4452SOL     OW24814   4.043   3.343   4.257 -0.1087 -0.4280  0.4738
 4452SOL    HW124815   4.047   3.267   4.316  1.7965 -1.2454 -0.7166
 4452SOL    HW224816   4.106   3.398   4.302 -0.9086  0.4753  0.4868
 4453SOL     OW24817   0.542   3.162   3.299 -0.0278  0.4645  0.0552
 4453SOL    HW124818   0.598   3.166   3.221 -0.4942 -0.4255 -0.3332
 4453SOL    HW224819   0.449   3.153   3.275 -0.3950  1.9415  0.9914
 4454SOL     OW24820   0.660   2.475   0.613  0.4282 -0.0348 -0.0624
 4454SOL    HW124821   0.713   2.541   0.569  1.0693 -0.3149  0.2873
 4454SOL    HW224822   0.576   2.521   0.612  0.3877 -0.0817  0.9998
 4455SOL     OW24823   3.827   0.669  11.506 -0.2459 -0.0785 -0.0460
 4455SOL    HW124824   3.857   0.578  11.516  1.7163  0.5923 -0.0110
 4455SOL    HW224825   3.912   0.712  11.516  0.4516 -1.0869 -1.5674
 4456SOL     OW24826   1.072   4.234   7.009 -0.2894 -0.4135 -0.1415
 4456SOL    HW124827   1.049   4.298   7.076  0.6084  1.7577 -1.9248
 4456SOL    HW224828   1.145   4.275   6.963 -1.5180  0.7395 -1.0538
 4457SOL     OW24829   3.849   2.348   7.436  0.3792 -0.0510 -0.0819
 4457SOL    HW124830   3.830   2.257   7.416  1.3574 -0.8737  2.6130
 4457SOL    HW224831   3.944   2.343   7.447  0.0514  0.5480  3.1453
 4458SOL     OW24832   4.407   1.377   8.696  0.0147 -0.2565 -0.4406
 4458SOL    HW124833   4.361   1.349   8.775  1.1648 -0.8242  0.0379
 4458SOL    HW224834   4.452   1.452   8.734  1.0038 -2.1612  2.2225
 4459SOL     OW24835   2.422   2.097   0.887 -0.3638  0.3160 -0.1347
 4459SOL    HW124836   2.380   2.053   0.961 -1.9032 -0.0513 -1.2456
 4459SOL    HW224837   2.414   2.185   0.926 -0.6728  0.1312  0.2183
 4460SOL     OW24838   3.801   0.420   2.138 -0.1275  0.1751 -0.1050
 4460SOL    HW124839   3.711   0.391   2.152 -0.1564  1.4549  2.2886
 4460SOL    HW224840   3.817   0.476   2.213 -2.1999  1.5344 -0.6971
 4461SOL     OW24841   3.951   3.361   6.591 -0.3139  0.0806 -0.8946
 4461SOL    HW124842   3.906   3.288   6.633 -0.3113  0.4612 -0.2240
 4461SOL    HW224843   3.919   3.437   6.639  1.4631 -0.4775  1.2018
 4462SOL     OW24844   4.650   1.010   0.750  0.0794  0.5141  0.5474
 4462SOL    HW124845   4.723   0.974   0.700 -1.2840 -0.3810 -0.8281
 4462SOL    HW224846   4.592   0.958   0.694  3.4604 -0.3856 -2.1048
 4463SOL     OW24847   2.813   0.885   1.800  0.9842  0.5305  0.6215
 4463SOL    HW124848   2.845   0.893   1.890 -0.2193 -0.3315  1.1183
 4463SOL    HW224849   2.831   0.794   1.777 -0.7837  0.2523  0.3871
 4464SOL     OW24850   4.301   4.117   6.107 -0.1656 -0.4776 -0.2383
 4464SOL    HW124851   4.338   4.133   6.020 -2.7142 -0.7452 -1.3525
 4464SOL    HW224852   4.222   4.168   6.091 -0.6095 -1.0290  0.2041
 4465SOL     OW24853   2.430   0.184   1.191  0.3335  0.5029 -0.6250
 4465SOL    HW124854   2.496   0.249   1.214 -0.9834  1.6953 -0.2109
 4465SOL    HW224855   2.358   0.238   1.159 -0.6656  0.0954  0.9506
 4466SOL     OW24856   3.026   1.652   8.347 -0.2964 -0.1248  0.3826
 4466SOL    HW124857   3.033   1.674   8.440 -0.1886  0.6684  0.1853
 4466SOL    HW224858   2.947   1.697   8.318  1.2328  2.4477  0.2656
 4467SOL     OW24859   4.509   1.810   9.746  0.0818  0.5484 -0.2378
 4467SOL    HW124860   4.522   1.776   9.657 -0.5046  1.1889 -0.5682
 4467SOL    HW224861   4.538   1.738   9.802  1.4601 -0.5718 -2.3694
 4468SOL     OW24862   3.363   3.679   0.829  0.1623  0.1211  0.1406
 4468SOL    HW124863   3.395   3.617   0.764  1.1251 -0.3541  1.0823
 4468SOL    HW224864   3.327   3.746   0.771 -0.4487 -0.8780 -0.6273
 4469SOL     OW24865   2.027   2.880   4.668 -0.1217 -0.3964 -0.3180
 4469SOL    HW124866   2.066   2.958   4.628 -1.8461  0.4143 -0.4197
 4469SOL    HW224867   1.975   2.852   4.593  0.0618  1.9958 -1.3200
 4470SOL     OW24868   2.591   0.108   1.580 -0.0262 -0.7340  0.3939
 4470SOL    HW124869   2.635   0.181   1.537  0.0031 -1.1684 -0.3254
 4470SOL    HW224870   2.565   0.048   1.509 -1.7172  0.5960 -0.0961
 4471SOL     OW24871   3.441   4.128   7.821  0.4178  0.3320 -0.4741
 4471SOL    HW124872   3.362   4.107   7.771 -1.4827  1.0902  2.1951
 4471SOL    HW224873   3.449   4.221   7.800  0.3415  0.7379  1.3127
 4472SOL     OW24874   4.597   1.477  16.179 -0.0283 -0.0427 -0.3302
 4472SOL    HW124875   4.620   1.517  16.263 -1.5650 -1.0276  0.5566
 4472SOL    HW224876   4.527   1.414  16.197 -1.1576  0.3492 -3.3255
 4473SOL     OW24877   1.533   1.662   3.063  0.1086  0.2050 -0.5850
 4473SOL    HW124878   1.547   1.637   2.972 -0.3824  0.4073 -0.7166
 4473SOL    HW224879   1.611   1.712   3.086  0.9992 -1.3972 -0.1568
 4474SOL     OW24880   0.507   2.683   7.842 -0.1927  0.3826 -0.0992
 4474SOL    HW124881   0.455   2.733   7.779 -0.4666 -2.0611 -1.8070
 4474SOL    HW224882   0.579   2.744   7.855  1.8735 -2.1288  0.2347
 4475SOL     OW24883   1.261   2.823   5.255 -0.1584  0.1122 -0.2424
 4475SOL    HW124884   1.177   2.862   5.230  0.4993 -0.1309 -2.8857
 4475SOL    HW224885   1.225   2.776   5.330 -0.3937  1.7664  0.6746
 4476SOL     OW24886   4.199   1.666  13.029  0.1306 -0.7044 -0.0841
 4476SOL    HW124887   4.194   1.761  13.027  1.2586 -0.6757 -1.2501
 4476SOL    HW224888   4.106   1.645  13.032  0.0139 -0.4101 -1.4892
 4477SOL     OW24889   4.594   0.097  12.272 -0.4851  0.7928 -0.0913
 4477SOL    HW124890   4.678   0.142  12.261 -1.8054  3.4425  0.6248
 4477SOL    HW224891   4.568   0.136  12.356 -1.0942 -2.1157  1.0642
 4478SOL     OW24892   0.884   4.464  14.565  0.3422 -0.2748  0.2445
 4478SOL    HW124893   0.976   4.483  14.580  0.1472 -0.7021  1.9690
 4478SOL    HW224894   0.852   4.403  14.631  0.4223 -1.3120 -0.6761
 4479SOL     OW24895   0.223   0.284  17.661 -0.9511  0.3232  0.0817
 4479SOL    HW124896   0.170   0.217  17.619  3.3557 -3.1577  0.2350
 4479SOL    HW224897   0.158   0.355  17.663 -0.3612  0.8023  2.4225
 4480SOL     OW24898   2.343   0.521   1.778 -0.9592  0.2366 -0.2640
 4480SOL    HW124899   2.330   0.529   1.684 -0.6829  2.9127 -0.0728
 4480SOL    HW224900   2.375   0.431   1.776  0.7077  0.7810  1.9521
 4481SOL     OW24901   2.078   3.463   2.202  0.3944  0.2928 -0.4689
 4481SOL    HW124902   2.111   3.552   2.215 -1.3603  0.9132 -0.2621
 4481SOL    HW224903   2.160   3.415   2.193  0.0233 -0.5692  0.8466
 4482SOL     OW24904   3.858   3.596   3.678 -0.7703  0.3710 -0.2064
 4482SOL    HW124905   3.857   3.541   3.756  0.9724 -1.0549 -1.1702
 4482SOL    HW224906   3.898   3.679   3.703  2.3654 -1.0692 -0.3898
 4483SOL     OW24907   1.124   2.193   5.331 -0.2819  0.5675  0.1571
 4483SOL    HW124908   1.103   2.274   5.284 -0.1346 -0.3337 -1.4582
 4483SOL    HW224909   1.195   2.226   5.386  3.1184 -1.4296 -3.0314
 4484SOL     OW24910   2.183   3.577   1.611  0.0876  0.2735  0.3363
 4484SOL    HW124911   2.246   3.525   1.561  0.8114  0.5212  0.9827
 4484SOL    HW224912   2.190   3.527   1.692 -0.3060  1.3772  1.0549
 4485SOL     OW24913   4.454   1.064   2.645 -0.1758  0.0942  0.2005
 4485SOL    HW124914   4.485   1.033   2.560 -0.5722  2.4635 -0.8320
 4485SOL    HW224915   4.471   1.158   2.656 -0.5416 -0.0155  1.7586
 4486SOL     OW24916   3.721   2.420   2.263 -0.6600 -0.2128 -0.2290
 4486SOL    HW124917   3.679   2.428   2.349  0.6923  3.3321  0.1147
 4486SOL    HW224918   3.739   2.326   2.260  2.2198  0.4459 -3.0776
 4487SOL     OW24919   3.159   4.132   3.171 -0.4274  0.7721  0.0627
 4487SOL    HW124920   3.180   4.044   3.202 -1.8295  0.3191 -0.2627
 4487SOL    HW224921   3.068   4.143   3.199  0.7367  0.8877  3.7638
 4488SOL     OW24922   2.568   2.624  14.632 -0.3276 -0.3799  0.5130
 4488SOL    HW124923   2.616   2.698  14.670 -3.0695  0.4761  2.2734
 4488SOL    HW224924   2.637   2.585  14.578  2.5064  1.8499  2.5046
 4489SOL     OW24925   1.273   4.693   4.829  0.0814  0.1416 -0.0356
 4489SOL    HW124926   1.220   4.668   4.906  0.2807 -0.2898 -0.0414
 4489SOL    HW224927   1.236   0.051   4.802 -0.4533  1.0009  3.3246
 4490SOL     OW24928   1.327   1.599   7.224  0.2326  0.0527  0.2821
 4490SOL    HW124929   1.278   1.532   7.272 -1.1191  0.0035 -1.1683
 4490SOL    HW224930   1.391   1.625   7.290 -0.0469  2.6929 -0.5031
 4491SOL     OW24931   3.797   0.548   9.180 -0.1313  0.0291 -0.4821
 4491SOL    HW124932   3.827   0.463   9.211  1.4858  1.1702  1.1479
 4491SOL    HW224933   3.828   0.549   9.090 -0.3924  0.1965 -0.5690
 4492SOL     OW24934   2.709   1.322   8.290  0.1642  0.1979  0.0321
 4492SOL    HW124935   2.724   1.228   8.305  1.4406  0.7776  2.4039
 4492SOL    HW224936   2.796   1.362   8.298  0.7578 -1.2477  0.9842
 4493SOL     OW24937   0.356   1.328  12.131 -0.3418  0.3529 -0.5540
 4493SOL    HW124938   0.408   1.317  12.052  0.3925  0.2139 -0.0553
 4493SOL    HW224939   0.304   1.248  12.128 -1.7636  1.2290  0.7954
 4494SOL     OW24940   2.376   2.566   3.905  0.1831  0.1048  0.2781
 4494SOL    HW124941   2.410   2.621   3.834  0.0591 -1.1923 -0.7982
 4494SOL    HW224942   2.313   2.513   3.856  1.7457 -1.9938  0.5506
 4495SOL     OW24943   0.342   3.480   1.033 -0.0413  0.2686 -0.1226
 4495SOL    HW124944   0.346   3.448   0.943 -2.9943  1.0840 -0.5490
 4495SOL    HW224945   0.248   3.492   1.051 -0.6575  0.1350 -3.3457
 4496SOL     OW24946   2.016   3.537  11.831  0.2824  0.5909 -0.2331
 4496SOL    HW124947   2.092   3.595  11.829 -0.1457  1.1882  1.0262
 4496SOL    HW224948   1.994   3.543  11.924  0.1567 -2.5850 -0.0467
 4497SOL     OW24949   3.266   1.093   1.463  0.1110 -0.3087 -0.1244
 4497SOL    HW124950   3.223   1.026   1.516  0.4239  0.0621  0.6001
 4497SOL    HW224951   3.348   1.106   1.512  0.1202 -0.5162 -0.0851
 4498SOL     OW24952   0.947   2.639   3.695  0.1648  0.0338  0.4243
 4498SOL    HW124953   0.980   2.581   3.626  0.7751 -0.7271  1.3506
 4498SOL    HW224954   1.028   2.665   3.740  0.7881 -0.3790 -0.4604
 4499SOL     OW24955   0.406   3.825  11.075  0.4228  0.1086 -1.0135
 4499SOL    HW124956   0.364   3.903  11.111 -0.5955 -0.3736 -1.1763
 4499SOL    HW224957   0.338   3.759  11.087 -0.1601  0.9704  0.4117
 4500SOL     OW24958   1.463   4.245  11.523 -0.1646  0.2169  0.1406
 4500SOL    HW124959   1.544   4.295  11.529 -0.4464  0.7736 -0.7101
 4500SOL    HW224960   1.385   4.299  11.507  0.6284  0.8778 -1.5436
 4501SOL     OW24961   3.614   2.503   7.457 -0.2757 -0.5540 -0.1401
 4501SOL    HW124962   3.602   2.422   7.408  1.3000  0.5641 -2.3909
 4501SOL    HW224963   3.705   2.490   7.482  0.5244  0.7962 -2.2849
 4502SOL     OW24964   4.326   4.474   4.120 -0.5466  0.0451  0.0445
 4502SOL    HW124965   4.405   4.472   4.175 -0.5379 -1.6853 -0.0280
 4502SOL    HW224966   4.337   4.393   4.070  0.1767  0.6443 -0.7652
 4503SOL     OW24967   2.966   4.361   6.866 -0.7321 -0.1111 -0.2676
 4503SOL    HW124968   2.910   4.299   6.821  0.4992 -3.1241  2.3824
 4503SOL    HW224969   3.039   4.367   6.804 -1.4934 -1.0322 -1.2526
 4504SOL     OW24970   0.972   2.129   6.293 -0.0435 -0.6760 -0.1926
 4504SOL    HW124971   0.993   2.091   6.379 -1.1183  3.2098  1.8015
 4504SOL    HW224972   1.057   2.166   6.266 -0.3852  0.7846  0.6838
 4505SOL     OW24973   0.052   2.721   2.357 -0.2012 -0.3352  0.5665
 4505SOL    HW124974   0.067   2.686   2.445  0.2804 -1.1884  0.1390
 4505SOL    HW224975   0.096   2.652   2.308 -1.0069  0.8169 -1.8128
 4506SOL     OW24976   2.503   4.442   1.504 -0.2492 -0.0540  0.3580
 4506SOL    HW124977   2.493   4.369   1.566  1.9738  1.2627  2.3011
 4506SOL    HW224978   2.413   4.469   1.490 -0.5606 -0.8148  0.8907
 4507SOL     OW24979   2.310   0.251   8.815 -0.0252 -0.6046  0.5747
 4507SOL    HW124980   2.215   0.256   8.824 -0.1681  1.0304 -1.6395
 4507SOL    HW224981   2.318   0.218   8.725 -0.4036  0.1268  0.2647
 4508SOL     OW24982   0.435   3.280  12.493 -0.2224  0.2788 -0.1732
 4508SOL    HW124983   0.342   3.261  12.487 -0.6733  2.1834  0.6095
 4508SOL    HW224984   0.471   3.231  12.567  0.9915  0.4449 -0.6559
 4509SOL     OW24985   0.466   1.528  16.792  0.6889  0.1281 -0.0660
 4509SOL    HW124986   0.463   1.540  16.887  0.3614  0.4607 -0.1185
 4509SOL    HW224987   0.467   1.613  16.748 -0.0587 -1.0173 -2.2644
 4510SOL     OW24988   0.549   0.349   8.271  0.1060  0.3326 -0.0271
 4510SOL    HW124989   0.458   0.341   8.244 -0.9149  0.2614  3.3853
 4510SOL    HW224990   0.541   0.398   8.353  1.0446  0.3883  0.0309
 4511SOL     OW24991   3.476   1.425   8.460 -0.4076  0.0301  0.3532
 4511SOL    HW124992   3.434   1.440   8.545 -1.9960 -0.5131 -0.3282
 4511SOL    HW224993   3.519   1.340   8.475  1.6089  0.8624 -0.7268
 4512SOL     OW24994   2.570   2.333   8.902  0.3005  0.3362 -0.0336
 4512SOL    HW124995   2.613   2.280   8.834  0.7937 -0.4075  0.8529
 4512SOL    HW224996   2.501   2.360   8.842  1.9991 -0.1848 -2.2660
 4513SOL     OW24997   3.002   2.248   5.392 -0.7947  0.6407  0.2909
 4513SOL    HW124998   3.083   2.289   5.364 -0.4799  0.3939  0.8390
 4513SOL    HW224999   3.006   2.158   5.361 -2.8826  0.5040  0.4227
 4514SOL     OW25000   4.390   3.111   1.357 -0.3947  0.0240 -0.3285
 4514SOL    HW125001   4.396   3.084   1.449  0.6448  1.7218  0.1113
 4514SOL    HW225002   4.353   3.199   1.364  0.0589  0.1428  0.6105
 4515SOL     OW25003   0.503   4.031   6.767  0.2971  0.6236  0.0222
 4515SOL    HW125004   0.597   4.047   6.770  0.9530 -3.4688  1.1849
 4515SOL    HW225005   0.464   4.119   6.763  1.4170  1.0102 -2.1269
 4516SOL     OW25006   1.108   2.352   8.624  0.1912 -0.1494  0.4014
 4516SOL    HW125007   1.012   2.355   8.628  0.0608 -1.1478 -1.6829
 4516SOL    HW225008   1.117   2.438   8.584  2.3740 -0.0996  1.0236
 4517SOL     OW25009   2.971   1.259   3.707  0.6057 -0.2131 -0.1963
 4517SOL    HW125010   2.986   1.169   3.735  0.8807  0.1220  0.7373
 4517SOL    HW225011   2.904   1.242   3.640 -0.4359 -0.0952  0.8111
 4518SOL     OW25012   1.378   4.361   0.827  0.3133 -0.1313 -0.0772
 4518SOL    HW125013   1.356   4.301   0.899 -0.1658  1.0270  0.7471
 4518SOL    HW225014   1.469   4.341   0.804  0.6283  1.6265 -0.3420
 4519SOL     OW25015   4.111   1.056  11.800 -0.0547 -0.2465  1.0443
 4519SOL    HW125016   4.201   1.090  11.802 -0.7468  1.6928 -0.6926
 4519SOL    HW225017   4.058   1.131  11.826  0.3852  0.4782 -0.1218
 4520SOL     OW25018   2.344   0.938  16.637  0.0553 -0.2514  0.5245
 4520SOL    HW125019   2.255   0.926  16.668  0.6832 -0.8563  2.1191
 4520SOL    HW225020   2.328   1.009  16.575  0.7711 -0.6120 -0.0880
 4521SOL     OW25021   4.699   2.702   4.505  0.1109 -0.6050  0.4594
 4521SOL    HW125022   0.009   2.784   4.539  1.3726  0.0514 -2.5211
 4521SOL    HW225023   4.608   2.701   4.535 -0.0989  1.3603 -0.1358
 4522SOL     OW25024   4.036   3.707   5.651  0.5985  0.4595  0.1066
 4522SOL    HW125025   4.083   3.741   5.728 -2.3900  0.8504  1.7528
 4522SOL    HW225026   3.985   3.785   5.627 -0.2771 -0.7169 -1.8143
 4523SOL     OW25027   2.493   1.154   7.385 -0.3263  0.6586  0.5915
 4523SOL    HW125028   2.437   1.222   7.347 -1.8552  1.4221  4.1828
 4523SOL    HW225029   2.565   1.202   7.426  1.1537 -0.1496 -1.0991
 4524SOL     OW25030   3.182   4.547  16.131 -0.3025  0.2409 -0.6310
 4524SOL    HW125031   3.206   4.640  16.133  2.4720 -0.4664 -1.8572
 4524SOL    HW225032   3.254   4.505  16.178  0.2051  2.9861  1.0178
 4525SOL     OW25033   0.791   4.709   9.763 -0.4380  1.1601  0.7750
 4525SOL    HW125034   0.841   4.696   9.682 -0.6150 -1.1462  1.0374
 4525SOL    HW225035   0.782   4.621   9.800 -1.6482  0.7045 -0.6364
 4526SOL     OW25036   2.287   3.007   9.365  0.1456  0.0528  0.9605
 4526SOL    HW125037   2.291   2.944   9.438 -0.5757  1.2619  2.0370
 4526SOL    HW225038   2.251   3.084   9.408  2.1186  1.4995 -0.0133
 4527SOL     OW25039   2.184   3.701   1.065  0.4922  0.3839  0.2828
 4527SOL    HW125040   2.143   3.763   1.004 -1.6754  0.2605  1.6082
 4527SOL    HW225041   2.151   3.741   1.146  2.2715  0.7566  0.8164
 4528SOL     OW25042   1.678   2.442   5.547  0.1323  0.4215 -0.5265
 4528SOL    HW125043   1.716   2.454   5.459  0.8783  0.1199 -0.2455
 4528SOL    HW225044   1.756   2.417   5.597 -0.4227 -1.2776 -0.5312
 4529SOL     OW25045   4.389   0.571   4.913 -0.4700 -0.2311 -0.1658
 4529SOL    HW125046   4.318   0.508   4.918 -0.5877 -0.1511 -0.8231
 4529SOL    HW225047   4.391   0.600   4.822  0.0935  0.3582  0.0385
 4530SOL     OW25048   3.559   4.053   6.540  0.1983 -0.0694 -0.6714
 4530SOL    HW125049   3.649   4.036   6.512  0.3741  0.1382 -0.2439
 4530SOL    HW225050   3.512   3.974   6.512  1.0789 -1.0797  0.7066
 4531SOL     OW25051   2.941   0.159   7.492  0.0019  0.3636 -0.3891
 4531SOL    HW125052   3.034   0.151   7.469  0.2337  0.3573  0.5665
 4531SOL    HW225053   2.935   0.069   7.523 -1.7670 -0.0595 -1.9443
 4532SOL     OW25054   3.022   2.859   0.492 -0.0105  0.2787 -0.1580
 4532SOL    HW125055   2.960   2.931   0.502  0.5934  1.1320 -2.6155
 4532SOL    HW225056   3.102   2.906   0.469  1.0413 -1.0856  0.6809
 4533SOL     OW25057   0.834   0.091   1.684 -0.6707 -0.1480  0.4208
 4533SOL    HW125058   0.900   0.085   1.615  0.1069 -0.8260  1.2307
 4533SOL    HW225059   0.755   0.055   1.645 -0.1710 -0.9257  0.1279
 4534SOL     OW25060   3.711   4.588  10.099 -0.0135  0.3591 -0.3019
 4534SOL    HW125061   3.674   4.675  10.113  0.0576  0.5419 -1.3262
 4534SOL    HW225062   3.803   4.613  10.096  0.7557 -2.9237 -3.8688
 4535SOL     OW25063   3.768   2.086   0.203 -0.8006  0.0022  0.3081
 4535SOL    HW125064   3.704   2.118   0.266 -1.2750  0.0762 -0.2051
 4535SOL    HW225065   3.784   2.171   0.161 -0.6656 -0.3666 -0.3830
 4536SOL     OW25066   1.613   2.047   4.099 -0.3574  0.0681  0.3927
 4536SOL    HW125067   1.586   1.981   4.163  1.3265 -0.3785  0.6462
 4536SOL    HW225068   1.560   2.025   4.023  0.1006  1.2002 -0.2558
 4537SOL     OW25069   4.477   0.640  16.319 -0.0634  0.7342  0.0263
 4537SOL    HW125070   4.549   0.654  16.259  1.8004 -0.6994  1.9303
 4537SOL    HW225071   4.410   0.674  16.259 -0.3778  0.9675  0.5054
 4538SOL     OW25072   2.483   1.562   1.565  0.0326 -0.4737  0.3061
 4538SOL    HW125073   2.494   1.534   1.656  0.2212 -0.8624  0.1645
 4538SOL    HW225074   2.476   1.656   1.584  1.1069 -0.1549 -0.9362
 4539SOL     OW25075   3.844   4.546   5.115 -0.8871 -0.4080 -0.4654
 4539SOL    HW125076   3.769   4.587   5.072 -1.2966 -0.7702 -0.0887
 4539SOL    HW225077   3.914   4.560   5.050 -0.1024 -1.2274  0.2038
 4540SOL     OW25078   4.717   4.590  11.808 -0.0271 -0.1387  0.0848
 4540SOL    HW125079   4.692   4.499  11.787 -3.7120  0.8804 -0.0085
 4540SOL    HW225080   0.069   4.557  11.852  0.4831 -0.2994 -0.9482
 4541SOL     OW25081   2.589   3.241  14.036  0.0439  0.6325 -0.2177
 4541SOL    HW125082   2.677   3.214  14.010 -1.1553 -0.2602 -3.3434
 4541SOL    HW225083   2.601   3.325  14.080 -0.3524  1.9341 -2.5931
 4542SOL     OW25084   3.403   3.660  15.351  0.7804  0.3191 -0.4731
 4542SOL    HW125085   3.455   3.681  15.428 -1.5206  0.4275  1.0640
 4542SOL    HW225086   3.466   3.678  15.282  1.5947 -1.0352 -0.0830
 4543SOL     OW25087   3.324   4.697   8.518 -0.5769 -0.1178  0.0557
 4543SOL    HW125088   3.370   4.613   8.516  1.2848  0.8805  0.0250
 4543SOL    HW225089   3.369   0.011   8.444 -0.0198 -0.3508  0.2646
 4544SOL     OW25090   1.646   3.814   5.802 -0.0062 -0.2527  0.1385
 4544SOL    HW125091   1.722   3.873   5.807  0.4835 -0.8130 -0.7445
 4544SOL    HW225092   1.632   3.791   5.894 -0.0771 -2.1441 -0.3446
 4545SOL     OW25093   2.936   0.352   2.564  0.5058  0.1153  0.3113
 4545SOL    HW125094   3.024   0.366   2.529  0.9758 -0.8223  1.0987
 4545SOL    HW225095   2.886   0.429   2.536  2.8025  1.9614  1.2734
 4546SOL     OW25096   4.426   4.037   3.192 -0.1036 -0.6989 -0.3037
 4546SOL    HW125097   4.483   4.098   3.240 -0.1909 -0.0319 -1.0439
 4546SOL    HW225098   4.345   4.088   3.191  0.1437 -0.3733 -2.6283
 4547SOL     OW25099   3.734   0.693  12.130 -0.2745 -0.4238 -0.0764
 4547SOL    HW125100   3.673   0.758  12.096 -2.8412 -2.4912  0.6693
 4547SOL    HW225101   3.726   0.701  12.225  1.4343  0.0438  0.0407
 4548SOL     OW25102   1.833   4.713   9.704  0.3201 -0.4487 -0.7455
 4548SOL    HW125103   1.790   4.657   9.639 -1.0404 -2.0586  1.5885
 4548SOL    HW225104   1.914   4.662   9.701 -0.5514 -1.8044 -0.7182
 4549SOL     OW25105   2.443   3.275   5.490  0.4083 -0.3732  0.0483
 4549SOL    HW125106   2.384   3.243   5.558 -1.4316 -0.2871 -1.5215
 4549SOL    HW225107   2.498   3.325   5.551  0.1619  0.3582 -0.3303
 4550SOL     OW25108   1.032   1.924   4.148 -0.1035  0.7908 -0.2388
 4550SOL    HW125109   1.006   1.895   4.236  1.5942  1.1982  0.3908
 4550SOL    HW225110   1.029   1.841   4.100  0.0394 -0.1288  1.3461
 4551SOL     OW25111   0.802   1.143   3.592  0.8579 -0.4250  0.2434
 4551SOL    HW125112   0.832   1.126   3.681 -0.4754  1.8614  1.1003
 4551SOL    HW225113   0.789   1.051   3.567 -0.6354 -0.2068  0.2109
 4552SOL     OW25114   4.427   1.994  16.850 -0.5185  0.1676  0.1885
 4552SOL    HW125115   4.366   1.977  16.921 -2.2345  0.7915 -1.1506
 4552SOL    HW225116   4.424   1.910  16.804 -2.9649  1.2643 -1.6518
 4553SOL     OW25117   3.966   3.808   9.593  0.9946  0.4681 -0.1366
 4553SOL    HW125118   3.873   3.799   9.616  0.6574 -1.0992 -2.0944
 4553SOL    HW225119   3.983   3.867   9.666 -0.6938  1.3185 -0.4408
 4554SOL     OW25120   2.012   2.058  12.417  0.0070 -0.0802  0.8108
 4554SOL    HW125121   1.949   2.074  12.347  0.5011 -1.1520  0.1380
 4554SOL    HW225122   2.098   2.089  12.389  0.2990 -1.6757 -0.0008
 4555SOL     OW25123   1.795   3.172   7.965  0.4287  0.4534  0.1736
 4555SOL    HW125124   1.855   3.127   7.906 -1.6613 -1.1007 -0.7716
 4555SOL    HW225125   1.711   3.145   7.929  0.3840 -0.0803  0.6691
 4556SOL     OW25126   4.576   2.894   2.342 -0.2188  0.6327  0.2720
 4556SOL    HW125127   4.631   2.823   2.308  0.6097  0.1490  2.6404
 4556SOL    HW225128   4.493   2.853   2.366 -0.6616  0.9790 -0.6860
 4557SOL     OW25129   3.217   0.559   7.120  0.5312  0.5731 -0.1687
 4557SOL    HW125130   3.229   0.654   7.120 -2.2959  0.9503  0.3776
 4557SOL    HW225131   3.237   0.520   7.035 -1.0615 -0.7074  0.0340
 4558SOL     OW25132   1.759   4.168   3.539 -0.2086  1.0948  0.4527
 4558SOL    HW125133   1.824   4.133   3.477  0.7284  0.4759  1.7717
 4558SOL    HW225134   1.727   4.248   3.497 -0.1566  1.0162  0.2635
 4559SOL     OW25135   0.005   1.770   4.647 -0.5536 -0.2081 -0.3647
 4559SOL    HW125136   4.713   1.862   4.661 -2.1231 -0.6693  0.6296
 4559SOL    HW225137   0.097   1.769   4.620 -1.0910  1.7424 -2.2105
 4560SOL     OW25138   3.120   3.763   8.305 -0.0522 -0.0771 -0.0964
 4560SOL    HW125139   3.088   3.775   8.216  0.8160  1.9267 -0.1290
 4560SOL    HW225140   3.109   3.855   8.327 -1.6945 -0.3859  0.3895
 4561SOL     OW25141   0.224   3.950   7.609 -1.1914  0.2693  0.4071
 4561SOL    HW125142   0.315   3.974   7.627 -1.3961  1.7938 -0.5839
 4561SOL    HW225143   0.235   3.861   7.576  0.6304  0.8930 -0.6479
 4562SOL     OW25144   2.378   4.291   8.182 -0.3135 -0.1172  0.5860
 4562SOL    HW125145   2.377   4.327   8.093 -2.0464 -2.9847 -0.5362
 4562SOL    HW225146   2.412   4.202   8.169  0.8885  0.1996  1.6255
 4563SOL     OW25147   0.300   1.129   6.699  0.6025 -0.3211 -0.0226
 4563SOL    HW125148   0.285   1.153   6.791 -0.2913  1.6494 -0.6715
 4563SOL    HW225149   0.252   1.202   6.660  2.3796  0.6743 -0.3474
 4564SOL     OW25150   2.858   4.416  11.746 -0.1287  0.1180 -0.0538
 4564SOL    HW125151   2.888   4.438  11.834  1.0761  1.8111 -0.9001
 4564SOL    HW225152   2.913   4.470  11.690 -0.8239  0.4594 -0.4163
 4565SOL     OW25153   1.194   3.050   4.613  0.4994 -0.8158  0.1754
 4565SOL    HW125154   1.277   3.025   4.655  1.4561  2.3178  0.1478
 4565SOL    HW225155   1.153   2.964   4.611  2.8016 -1.9775  2.3177
 4566SOL     OW25156   0.955   3.019   4.475 -0.0530  0.5532  0.0655
 4566SOL    HW125157   1.044   3.048   4.496  0.8637 -0.5997 -2.2463
 4566SOL    HW225158   0.971   2.947   4.414 -2.6309  0.0970 -0.0735
 4567SOL     OW25159   4.337   0.112  15.676  0.7271 -0.2151  0.4350
 4567SOL    HW125160   4.348   0.167  15.599 -2.6819 -0.1090 -0.0034
 4567SOL    HW225161   4.430   0.094  15.688  0.4467 -1.2869  1.0029
 4568SOL     OW25162   3.033   3.217   3.704  0.2007 -0.0942 -0.0824
 4568SOL    HW125163   2.955   3.187   3.658 -0.5162 -1.7776  2.2191
 4568SOL    HW225164   3.078   3.134   3.720  0.9499  0.3200 -0.0427
 4569SOL     OW25165   2.495   1.876  12.387  0.5574  0.5415  0.2332
 4569SOL    HW125166   2.473   1.794  12.430  0.1658  0.9111  0.7461
 4569SOL    HW225167   2.586   1.897  12.407  0.2375 -0.1426  2.5096
 4570SOL     OW25168   1.313   3.993  17.404  0.8581 -0.2769 -0.3033
 4570SOL    HW125169   1.255   3.962  17.474  1.7317  0.9758  0.9829
 4570SOL    HW225170   1.352   3.909  17.381 -0.6002 -0.5875 -1.6626
 4571SOL     OW25171   2.437   2.434   5.738 -0.3430  0.0963  0.8521
 4571SOL    HW125172   2.471   2.344   5.732 -0.9447 -0.1428  1.0652
 4571SOL    HW225173   2.406   2.433   5.828 -0.2764 -2.8196  0.8465
 4572SOL     OW25174   4.615   3.263   7.335  0.0352  0.0404  0.1341
 4572SOL    HW125175   4.692   3.308   7.369  1.6009 -1.0690 -1.9318
 4572SOL    HW225176   4.597   3.322   7.262 -0.3543 -0.2714 -0.0237
 4573SOL     OW25177   3.969   0.134   3.449 -0.3287 -0.1605  0.1178
 4573SOL    HW125178   4.035   0.064   3.452  0.0429  0.2305  0.8091
 4573SOL    HW225179   4.009   0.204   3.499 -1.8042  0.3082  0.6606
 4574SOL     OW25180   1.913   1.779  14.480  0.4744 -0.2703 -0.5526
 4574SOL    HW125181   1.830   1.736  14.501 -0.5499  2.0022  0.1411
 4574SOL    HW225182   1.971   1.726  14.534  0.4695  1.9712  1.6579
 4575SOL     OW25183   3.129   0.016   7.086  0.2153 -0.3097 -0.2018
 4575SOL    HW125184   3.036   0.034   7.098  0.0843 -0.1022 -1.6455
 4575SOL    HW225185   3.175   0.097   7.069 -1.6456  0.8291  0.2210
 4576SOL     OW25186   2.125   0.655   5.046  0.2686  0.4850  0.0982
 4576SOL    HW125187   2.038   0.654   5.085  0.1022 -0.5696 -0.3005
 4576SOL    HW225188   2.144   0.566   5.016 -2.2660 -0.1995  0.5541
 4577SOL     OW25189   4.513   2.494   0.426 -0.4426 -0.0582 -0.0278
 4577SOL    HW125190   4.468   2.414   0.451  0.9291 -0.9274 -0.2933
 4577SOL    HW225191   4.605   2.467   0.417 -0.0934  1.4332 -1.0081
 4578SOL     OW25192   3.106   3.960   4.759 -0.1050 -0.6568 -0.4022
 4578SOL    HW125193   3.173   3.945   4.691 -1.5506 -0.0361 -1.9509
 4578SOL    HW225194   3.156   3.967   4.841 -1.0384  0.2950  0.0801
 4579SOL     OW25195   0.162   0.709   4.439 -1.1624  0.1210 -0.0615
 4579SOL    HW125196   0.246   0.749   4.462 -0.4926 -1.5961  0.4746
 4579SOL    HW225197   0.190   0.626   4.401 -0.0074  1.3967 -1.9864
 4580SOL     OW25198   3.673   4.203   2.797  0.2803 -0.2869 -0.0436
 4580SOL    HW125199   3.748   4.145   2.814  1.1707  1.0855  0.7191
 4580SOL    HW225200   3.732   4.277   2.783 -0.5632  0.5259  0.7873
 4581SOL     OW25201   2.385   3.842   4.877 -0.0409  0.1803 -0.4249
 4581SOL    HW125202   2.420   3.796   4.954  0.2815 -2.9361 -2.4430
 4581SOL    HW225203   2.463   3.871   4.829  0.5848  5.1570  3.5453
 4582SOL     OW25204   0.993   3.150  16.253 -0.8066 -0.2159 -0.2406
 4582SOL    HW125205   1.086   3.162  16.272 -0.4668 -2.5408 -0.4981
 4582SOL    HW225206   0.988   3.059  16.282  0.0618  0.1951  1.1844
 4583SOL     OW25207   1.396   1.952   7.438 -0.9448 -0.2419 -0.2530
 4583SOL    HW125208   1.402   1.918   7.349  0.8518 -0.3544 -0.0897
 4583SOL    HW225209   1.484   1.987   7.426 -1.5926  0.3779 -3.1008
 4584SOL     OW25210   1.113   2.186  10.001 -0.7004 -0.0104 -0.1452
 4584SOL    HW125211   1.129   2.093  10.018  1.2227  0.4214  0.4105
 4584SOL    HW225212   1.091   2.183   9.908 -1.1357  0.3516 -0.0549
 4585SOL     OW25213   1.180   3.948  17.654 -0.2555 -0.6845  0.3041
 4585SOL    HW125214   1.108   3.891  17.680 -1.9536  0.6018 -1.5892
 4585SOL    HW225215   1.241   3.942   0.021  1.4107 -0.6382 -1.0466
 4586SOL     OW25216   4.514   1.929  10.606 -0.8418  0.2835 -0.1351
 4586SOL    HW125217   4.492   1.883  10.687 -3.1536  3.0984  0.8189
 4586SOL    HW225218   4.501   1.855  10.547  2.4365 -0.2594 -0.1839
 4587SOL     OW25219   2.065   2.079   4.781 -0.2755  0.0190  0.5414
 4587SOL    HW125220   2.062   2.170   4.750  0.3565  0.5285  1.9894
 4587SOL    HW225221   1.979   2.073   4.820 -0.2252 -0.3023  0.6030
 4588SOL     OW25222   3.296   1.783  17.211  0.2421  0.1346  0.4798
 4588SOL    HW125223   3.237   1.792  17.136 -0.5238  0.8969  1.1744
 4588SOL    HW225224   3.318   1.690  17.199  0.5857  0.2411  0.2761
 4589SOL     OW25225   2.389   3.249   7.681 -0.0904  0.4303  0.3164
 4589SOL    HW125226   2.308   3.228   7.636 -0.0249 -0.4659  0.6197
 4589SOL    HW225227   2.363   3.335   7.714  1.0516  0.0949  2.1105
 4590SOL     OW25228   0.693   2.760   6.230 -0.6425  0.2572  0.1216
 4590SOL    HW125229   0.685   2.810   6.149 -0.1812  0.5057  0.2288
 4590SOL    HW225230   0.657   2.672   6.218 -3.3345  1.3836  0.0605
 4591SOL     OW25231   3.384   4.371  10.603 -0.3343  0.5743 -0.9422
 4591SOL    HW125232   3.412   4.358  10.694 -2.3965  0.5796 -0.3046
 4591SOL    HW225233   3.290   4.353  10.598  0.0704 -1.5256 -0.9563
 4592SOL     OW25234   3.395   3.409   5.479 -0.0015  0.5767 -0.0089
 4592SOL    HW125235   3.304   3.395   5.451  1.2715 -1.3984 -3.1428
 4592SOL    HW225236   3.392   3.347   5.552 -0.4036 -1.5223 -1.8156
 4593SOL     OW25237   1.216   1.390   6.224  0.0297  0.2052 -0.0088
 4593SOL    HW125238   1.135   1.361   6.182 -0.5810 -0.0706  1.3530
 4593SOL    HW225239   1.226   1.330   6.298  2.7447  0.7333  0.0549
 4594SOL     OW25240   4.624   1.574  16.432  0.3241 -0.2564 -0.1316
 4594SOL    HW125241   4.634   1.667  16.453  1.2588  0.1089 -2.2274
 4594SOL    HW225242   4.543   1.554  16.479  1.2771 -1.1437  1.1166
 4595SOL     OW25243   4.366   1.457  16.581  0.0220  0.1122  0.0663
 4595SOL    HW125244   4.284   1.418  16.551 -0.1227  3.3806 -3.7422
 4595SOL    HW225245   4.369   1.431  16.673 -0.9881  2.7397  0.8102
 4596SOL     OW25246   4.538   4.404  12.795  0.1187  0.1477 -0.0528
 4596SOL    HW125247   4.524   4.478  12.736 -3.2785  1.0579  1.8856
 4596SOL    HW225248   4.472   4.424  12.862 -0.3202 -1.3241 -0.0611
 4597SOL     OW25249   0.634   3.732   2.306 -0.0523 -0.1557  0.3569
 4597SOL    HW125250   0.612   3.807   2.361  0.0298  0.4366 -0.4197
 4597SOL    HW225251   0.580   3.662   2.344 -1.6492  1.2616  0.7129
 4598SOL     OW25252   3.071   2.856   5.011 -0.0564 -0.4340 -0.1803
 4598SOL    HW125253   3.001   2.857   5.076  0.5936  2.3788  0.4752
 4598SOL    HW225254   3.018   2.869   4.933 -0.8579 -2.0912  0.1016
 4599SOL     OW25255   4.255   0.942  14.645 -0.5455 -0.3724  0.2237
 4599SOL    HW125256   4.263   0.961  14.738 -1.3905  1.6397 -0.1229
 4599SOL    HW225257   4.235   1.030  14.613 -1.9300 -0.1816  1.6358
 4600SOL     OW25258   1.498   3.067  11.073 -0.8098 -0.5268  0.1892
 4600SOL    HW125259   1.513   3.153  11.112  0.7285 -0.4192 -0.6522
 4600SOL    HW225260   1.570   3.017  11.113  1.4942 -0.0884 -3.3744
 4601SOL     OW25261   2.195   2.639   6.941 -0.5802 -0.5671 -0.0241
 4601SOL    HW125262   2.176   2.560   6.891 -1.8540 -1.8277  2.4476
 4601SOL    HW225263   2.197   2.704   6.871  3.3245 -0.6908  0.0175
 4602SOL     OW25264   4.477   0.953   1.889 -0.2427 -0.2453  0.6087
 4602SOL    HW125265   4.525   0.986   1.812  1.1735 -2.7116  0.4275
 4602SOL    HW225266   4.501   0.860   1.889 -1.5404 -0.5762  1.2893
 4603SOL     OW25267   0.122   1.787   6.014  1.2055  0.0544  0.1529
 4603SOL    HW125268   0.113   1.695   5.990  1.7950  0.0088  0.1185
 4603SOL    HW225269   0.103   1.832   5.932 -1.0417  1.5536  1.4738
 4604SOL     OW25270   0.324   0.885   5.384  0.4183 -0.1022 -0.1001
 4604SOL    HW125271   0.261   0.945   5.344  0.5758  1.3289  1.7657
 4604SOL    HW225272   0.268   0.807   5.382  0.8396 -0.4131  0.3228
 4605SOL     OW25273   2.307   3.441   4.412  0.2164  0.2105 -0.0825
 4605SOL    HW125274   2.216   3.418   4.431  0.5808 -1.5245 -0.4198
 4605SOL    HW225275   2.317   3.523   4.460  2.3144 -0.2167  0.1982
 4606SOL     OW25276   0.381   4.708   7.661 -0.1652  0.2055  0.1642
 4606SOL    HW125277   0.463   0.024   7.634 -0.0052 -0.3591 -0.2292
 4606SOL    HW225278   0.373   0.022   7.748 -1.6324 -2.3714  1.2151
 4607SOL     OW25279   3.884   1.286   4.953  0.2332 -0.1097  0.0381
 4607SOL    HW125280   3.860   1.212   4.897  1.8244 -1.3567  1.0041
 4607SOL    HW225281   3.819   1.346   4.915 -0.2334  1.2796  3.0860
 4608SOL     OW25282   3.242   4.407   1.657 -0.2111  0.2141 -0.7793
 4608SOL    HW125283   3.210   4.367   1.576  0.1279 -0.1765 -0.7224
 4608SOL    HW225284   3.158   4.449   1.678 -0.1151  0.2510 -0.4690
 4609SOL     OW25285   3.406   0.351   5.714 -0.0554  0.1208 -0.5226
 4609SOL    HW125286   3.337   0.410   5.684  0.9838  1.6605  0.1453
 4609SOL    HW225287   3.360   0.270   5.736 -1.3952  1.5818  2.1664
 4610SOL     OW25288   3.559   3.853   4.210 -0.2236 -0.0705 -0.1362
 4610SOL    HW125289   3.612   3.888   4.138  0.5994 -1.3999 -0.1749
 4610SOL    HW225290   3.497   3.796   4.165 -1.3694  0.5926  0.5917
 4611SOL     OW25291   0.572   2.280  14.532  0.0966 -0.3368 -0.3219
 4611SOL    HW125292   0.569   2.219  14.459  2.7026  0.7016 -1.2794
 4611SOL    HW225293   0.631   2.236  14.593  1.1426  2.6404  0.8631
 4612SOL     OW25294   3.264   3.712   1.654  0.0306 -0.3972 -0.0892
 4612SOL    HW125295   3.205   3.743   1.723 -2.1986 -2.6048 -1.0092
 4612SOL    HW225296   3.274   3.793   1.604 -0.9383 -1.1909 -1.5598
 4613SOL     OW25297   4.184   4.696   9.615 -0.4018 -0.7050 -0.7464
 4613SOL    HW125298   4.169   0.027   9.690  0.7890 -1.2049 -0.1337
 4613SOL    HW225299   4.094   4.695   9.581 -1.3931 -0.3886  1.8666
 4614SOL     OW25300   3.792   2.456   2.594 -0.6175 -0.2256 -0.8999
 4614SOL    HW125301   3.868   2.423   2.547 -0.5666 -0.1461 -0.8735
 4614SOL    HW225302   3.740   2.379   2.617 -2.2639  1.1524  0.0498
 4615SOL     OW25303   0.298   3.644   7.094  0.1073  0.5825  0.0139
 4615SOL    HW125304   0.226   3.651   7.156 -1.5761 -3.7946 -1.3991
 4615SOL    HW225305   0.293   3.730   7.052 -0.8198  0.9257  0.8385
 4616SOL     OW25306   3.552   3.931   3.325 -0.2388  0.3296  0.1684
 4616SOL    HW125307   3.515   3.857   3.374  0.5973 -0.0250  0.2613
 4616SOL    HW225308   3.639   3.932   3.366 -0.4345  0.7862  0.5766
 4617SOL     OW25309   3.303   4.569   7.236 -0.0901 -0.1167 -0.2173
 4617SOL    HW125310   3.257   4.637   7.187 -2.2223 -2.5084 -1.5442
 4617SOL    HW225311   3.302   4.492   7.179  0.2758  0.0543 -0.4530
 4618SOL     OW25312   3.149   2.809   7.156 -0.0377  0.0968  0.2548
 4618SOL    HW125313   3.222   2.749   7.172  1.2380  2.0101  1.6149
 4618SOL    HW225314   3.146   2.793   7.062 -0.1175  0.5746  0.1772
 4619SOL     OW25315   4.277   0.591   8.381  1.1480  0.3317  0.5821
 4619SOL    HW125316   4.192   0.611   8.420 -0.1323  0.3955 -2.2356
 4619SOL    HW225317   4.329   0.546   8.448 -0.9129 -0.6341  1.5189
 4620SOL     OW25318   0.812   3.857   3.039  0.0834 -0.9570  0.5190
 4620SOL    HW125319   0.878   3.902   2.986  0.1603 -2.3610 -0.5897
 4620SOL    HW225320   0.873   3.797   3.081 -0.0152  0.6196  2.9004
 4621SOL     OW25321   3.093   1.828   2.581 -0.1171 -0.2852 -0.1317
 4621SOL    HW125322   3.143   1.752   2.610  0.3770  0.5056  1.0949
 4621SOL    HW225323   3.043   1.850   2.659 -1.6519 -0.2158 -1.1265
 4622SOL     OW25324   0.926   2.013  10.230 -0.0495 -0.2049  0.3557
 4622SOL    HW125325   0.994   1.980  10.171 -1.0075  1.4574 -1.6638
 4622SOL    HW225326   0.971   2.014  10.314 -0.4921 -0.2626  0.5927
 4623SOL     OW25327   2.680   2.083   0.494  0.1770 -0.9293 -0.0718
 4623SOL    HW125328   2.672   2.074   0.589  0.7043 -0.6322  0.0033
 4623SOL    HW225329   2.613   2.147   0.471  1.0635  0.1946  0.4790
 4624SOL     OW25330   3.371   2.342   2.899  0.0665 -0.1872  1.1448
 4624SOL    HW125331   3.300   2.288   2.864 -0.3726  0.7913  0.5194
 4624SOL    HW225332   3.397   2.388   2.819 -0.7893  0.0453  0.9963
 4625SOL     OW25333   2.916   1.119   7.492  0.3074 -0.1967 -0.3183
 4625SOL    HW125334   2.846   1.184   7.485 -0.3205 -0.7796  0.6509
 4625SOL    HW225335   2.875   1.051   7.545  0.7690  0.7353  1.2110
 4626SOL     OW25336   2.655   2.796   3.989  0.1218  0.2143 -0.3481
 4626SOL    HW125337   2.657   2.862   3.920 -1.5801  0.8972  0.2487
 4626SOL    HW225338   2.626   2.717   3.944  2.2374  0.1176 -1.5402
 4627SOL     OW25339   4.073   1.799   3.554  0.4123 -0.1206  0.0462
 4627SOL    HW125340   4.079   1.891   3.580  1.8818  0.0348 -0.8045
 4627SOL    HW225341   3.981   1.775   3.550  0.2569  0.8858 -2.3322
 4628SOL     OW25342   3.050   3.900  16.116  0.4008 -0.0040 -0.1909
 4628SOL    HW125343   3.053   3.975  16.175  0.9120 -0.1082 -0.0843
 4628SOL    HW225344   3.139   3.906  16.082  0.1791 -0.4719 -0.8609
 4629SOL     OW25345   0.593   4.069  12.772  0.1014  0.3930  0.0874
 4629SOL    HW125346   0.612   4.096  12.862  1.2747 -0.2959  0.0589
 4629SOL    HW225347   0.598   4.152  12.725  1.9749  1.2154  1.7249
 4630SOL     OW25348   2.219   0.393   4.994 -0.0738  0.0248  0.0691
 4630SOL    HW125349   2.265   0.337   5.057 -0.7229 -1.4190 -0.7173
 4630SOL    HW225350   2.156   0.334   4.953 -1.2640  0.1728  1.7192
 4631SOL     OW25351   3.127   1.957  13.412  0.5592  0.3214 -0.1285
 4631SOL    HW125352   3.126   1.917  13.326  0.1443 -2.1690  1.0523
 4631SOL    HW225353   3.202   1.908  13.444  0.2267  0.8340  1.4476
 4632SOL     OW25354   3.529   1.746   2.968 -0.4590 -0.3867 -0.3124
 4632SOL    HW125355   3.490   1.688   2.903 -1.4622 -0.2960  0.2034
 4632SOL    HW225356   3.502   1.833   2.938  3.0202  0.4957 -0.8677
 4633SOL     OW25357   3.185   3.550  11.169 -0.4037  0.3044  0.1349
 4633SOL    HW125358   3.132   3.542  11.090 -1.2828  1.8839  0.5622
 4633SOL    HW225359   3.136   3.508  11.240  1.3178 -3.0159 -0.6246
 4634SOL     OW25360   3.554   3.220   3.331 -0.2050 -0.8128 -0.3065
 4634SOL    HW125361   3.501   3.181   3.400 -0.9815  1.3467  0.3292
 4634SOL    HW225362   3.623   3.155   3.316 -0.2164 -1.4067  2.2038
 4635SOL     OW25363   0.275   2.377  14.281 -0.2945  0.1826  0.3949
 4635SOL    HW125364   0.346   2.409  14.225 -0.6661 -0.1937 -0.2848
 4635SOL    HW225365   0.284   2.282  14.270 -1.3458  0.0949  0.3619
 4636SOL     OW25366   3.296   1.636   1.460  0.1530 -0.0369 -0.3458
 4636SOL    HW125367   3.379   1.684   1.461  0.1159  0.0323 -0.7255
 4636SOL    HW225368   3.327   1.546   1.472  0.4182  0.0931 -0.0372
 4637SOL     OW25369   2.909   4.629   7.587  0.5466 -0.3423 -0.3015
 4637SOL    HW125370   2.868   4.572   7.521  1.3683  0.7090 -1.7012
 4637SOL    HW225371   2.993   4.585   7.578  1.4210  1.0715  1.0051
 4638SOL     OW25372   3.563   1.656   4.802 -0.2030 -0.2549 -0.2951
 4638SOL    HW125373   3.506   1.680   4.875  0.9063 -1.5457  1.0169
 4638SOL    HW225374   3.582   1.741   4.763  1.0758 -1.7285 -2.9359
 4639SOL     OW25375   1.268   4.107   8.314 -0.2965  0.5163 -0.2709
 4639SOL    HW125376   1.228   4.061   8.387  0.6834  1.1676  0.6752
 4639SOL    HW225377   1.225   4.192   8.319  0.8695  0.9864  1.6425
 4640SOL     OW25378   3.127   4.028   6.347  0.2996 -0.4787  0.2622
 4640SOL    HW125379   3.111   4.032   6.442  1.2552  3.5165  0.2564
 4640SOL    HW225380   3.042   4.060   6.317 -0.5266  1.2452  4.3414
 4641SOL     OW25381   2.300   4.052   0.038  0.0481  0.3767 -0.0260
 4641SOL    HW125382   2.264   4.119  17.688 -0.5295 -1.3827 -1.7414
 4641SOL    HW225383   2.276   4.076   0.128 -1.3283 -2.3486  0.3320
 4642SOL     OW25384   1.783   1.542   6.274  0.3545  0.3901  0.3882
 4642SOL    HW125385   1.767   1.607   6.206 -0.5234 -0.2496 -0.0189
 4642SOL    HW225386   1.840   1.490   6.217 -1.8372 -1.6389  0.0028
 4643SOL     OW25387   2.325   4.550  14.127 -0.4349 -0.1559 -0.8062
 4643SOL    HW125388   2.266   4.602  14.182  0.2135 -0.0655 -0.1880
 4643SOL    HW225389   2.347   4.481  14.190  1.8687  0.4056 -0.9768
 4644SOL     OW25390   3.755   2.101  11.331 -0.3482 -0.5202 -0.3509
 4644SOL    HW125391   3.822   2.036  11.308 -1.0095 -2.0060  1.9828
 4644SOL    HW225392   3.760   2.156  11.252 -0.1577  2.1841  1.5296
 4645SOL     OW25393   2.840   3.064   0.477 -0.0480 -0.2993 -0.4689
 4645SOL    HW125394   2.788   3.085   0.555  0.5481  0.4770 -0.2801
 4645SOL    HW225395   2.841   3.149   0.433 -0.2772 -0.1059 -0.1037
 4646SOL     OW25396   3.390   2.847   3.077  0.7605  0.5503  0.2315
 4646SOL    HW125397   3.481   2.865   3.051  1.0836 -2.5660 -0.7673
 4646SOL    HW225398   3.349   2.791   3.011  2.0464 -0.1802  0.0436
 4647SOL     OW25399   0.273   2.168   9.172 -0.2587 -0.3032 -0.6159
 4647SOL    HW125400   0.323   2.193   9.249  0.2768 -0.7527 -0.8140
 4647SOL    HW225401   0.274   2.250   9.123  1.5331 -0.5275 -0.9536
 4648SOL     OW25402   2.504   0.581   8.539 -0.3823  0.0883 -0.0648
 4648SOL    HW125403   2.588   0.534   8.538  0.0944  0.9780 -1.1692
 4648SOL    HW225404   2.515   0.618   8.626 -4.2003  2.3239 -0.5924
 4649SOL     OW25405   0.286   2.880   2.585 -0.0990  0.0455  0.2018
 4649SOL    HW125406   0.200   2.920   2.571 -0.2680 -0.5312 -0.4182
 4649SOL    HW225407   0.268   2.837   2.668  1.0964  0.5657  0.7257
 4650SOL     OW25408   1.013   2.489   5.518 -0.3839 -0.2103  0.1707
 4650SOL    HW125409   1.011   2.418   5.581 -2.4167 -1.1754 -0.9940
 4650SOL    HW225410   0.987   2.445   5.437  2.1277 -0.9159 -0.2464
 4651SOL     OW25411   1.811   3.536  10.695 -0.0252  0.0147 -0.8490
 4651SOL    HW125412   1.872   3.586  10.641 -0.7552  0.7218 -1.0182
 4651SOL    HW225413   1.785   3.591  10.769 -0.5010  0.2764 -1.2117
 4652SOL     OW25414   0.605   4.002  10.957  0.4714 -0.6898  0.4263
 4652SOL    HW125415   0.642   4.059  11.024  0.2739 -2.6784  2.2141
 4652SOL    HW225416   0.556   3.940  11.011  2.3318 -0.8487  1.9236
 4653SOL     OW25417   2.307   0.377   9.671  0.3860 -0.3617  0.6691
 4653SOL    HW125418   2.398   0.396   9.651 -0.1369 -0.1079 -1.4369
 4653SOL    HW225419   2.299   0.440   9.743  2.1391  0.8531 -0.2207
 4654SOL     OW25420   4.127   1.723  11.820 -0.1441  0.0105  0.1480
 4654SOL    HW125421   4.079   1.775  11.885  0.3027  0.8874 -0.2378
 4654SOL    HW225422   4.191   1.676  11.873  0.9494  1.0296 -0.2965
 4655SOL     OW25423   1.390   0.993   0.742  0.3025 -0.1776 -0.1612
 4655SOL    HW125424   1.332   1.065   0.767  1.0557 -0.0634  1.2924
 4655SOL    HW225425   1.373   0.931   0.813 -0.1745  0.2391  0.0917
 4656SOL     OW25426   1.214   3.865   3.468  0.3178  0.3416 -0.7092
 4656SOL    HW125427   1.140   3.826   3.422 -2.1026  2.9976  0.9770
 4656SOL    HW225428   1.178   3.954   3.471 -0.2225  0.0351  2.0119
 4657SOL     OW25429   1.796   1.857   8.354 -0.0498 -0.1236  0.1926
 4657SOL    HW125430   1.724   1.887   8.299  1.8374  0.5530 -1.9085
 4657SOL    HW225431   1.867   1.861   8.290 -0.2309 -0.4781 -0.0295
 4658SOL     OW25432   2.616   3.103  10.886  0.0555  0.6607 -0.0173
 4658SOL    HW125433   2.652   3.131  10.971 -1.0505  1.8490  0.0628
 4658SOL    HW225434   2.607   3.188  10.842 -0.5277  1.2416  1.2118
 4659SOL     OW25435   3.218   3.625  17.214 -0.0543 -0.2376  0.8304
 4659SOL    HW125436   3.171   3.680  17.152  1.0322  0.2567  0.4578
 4659SOL    HW225437   3.191   3.658  17.300 -0.2209 -1.1646  1.1334
 4660SOL     OW25438   4.113   2.760  11.325  0.3063  0.0718 -0.2096
 4660SOL    HW125439   4.178   2.776  11.257  0.7422 -1.5274 -0.1570
 4660SOL    HW225440   4.147   2.813  11.397  2.3474 -0.6182 -0.6763
 4661SOL     OW25441   3.615   2.119   2.219 -0.1650 -0.1000 -0.2889
 4661SOL    HW125442   3.587   2.037   2.259  4.1635 -1.3311  0.2029
 4661SOL    HW225443   3.535   2.169   2.233 -0.4685 -0.7149  0.1772
 4662SOL     OW25444   1.163   1.221   5.192 -0.5132 -0.3611  0.2409
 4662SOL    HW125445   1.182   1.198   5.283  0.2160 -2.2213 -0.3837
 4662SOL    HW225446   1.204   1.149   5.145 -2.3199 -1.2794  0.0626
 4663SOL     OW25447   0.392   0.129   1.256  0.0296  0.5262  0.1851
 4663SOL    HW125448   0.386   0.048   1.307  1.1432  0.1940 -0.2044
 4663SOL    HW225449   0.416   0.200   1.315  2.2863  0.3194 -0.4768
 4664SOL     OW25450   1.701   4.699   5.611  0.0687 -0.1655  0.1676
 4664SOL    HW125451   1.761   0.023   5.556  1.6499 -2.4660 -0.2319
 4664SOL    HW225452   1.621   4.704   5.558  1.1129 -4.5571 -1.8653
 4665SOL     OW25453   4.437   3.434   5.989 -0.0690 -0.5621 -0.1534
 4665SOL    HW125454   4.443   3.486   6.069 -1.5550  0.7131 -0.8836
 4665SOL    HW225455   4.412   3.502   5.926 -1.1366 -0.5570  0.2863
 4666SOL     OW25456   0.075   3.323   7.523 -0.2930  0.4871 -0.3119
 4666SOL    HW125457   0.087   3.229   7.537 -2.0962  0.6136  1.9762
 4666SOL    HW225458   0.157   3.366   7.546  0.7585 -1.3830 -0.5822
 4667SOL     OW25459   0.909   0.733   2.515  0.3155 -0.1009 -0.4585
 4667SOL    HW125460   0.945   0.720   2.427  1.1577 -0.6349 -0.0389
 4667SOL    HW225461   0.913   0.647   2.556  1.6956  0.4882  0.6478
 4668SOL     OW25462   2.432   0.542   6.717  0.3131 -0.2648  0.7138
 4668SOL    HW125463   2.370   0.613   6.701 -0.7021 -1.1644  0.7111
 4668SOL    HW225464   2.379   0.482   6.769 -0.0902  1.2084  1.9891
 4669SOL     OW25465   4.243   1.007  14.913  0.2865  0.2993  0.0232
 4669SOL    HW125466   4.272   1.098  14.902  2.9043 -0.7612 -1.9211
 4669SOL    HW225467   4.286   0.999  14.998  1.2834  0.6318 -0.4376
 4670SOL     OW25468   1.054   0.961   1.335 -0.6531  0.1111 -0.0285
 4670SOL    HW125469   1.055   1.018   1.258 -1.0230  0.3166  0.1205
 4670SOL    HW225470   1.130   0.986   1.388 -0.0235  1.2648 -1.4768
 4671SOL     OW25471   1.258   3.655   6.341 -0.0165 -0.1865  0.1750
 4671SOL    HW125472   1.345   3.692   6.333  1.0489 -2.6933  0.1502
 4671SOL    HW225473   1.214   3.736   6.366 -0.6328 -0.5839  0.3864
 4672SOL     OW25474   4.120   0.261   7.123 -0.3939 -0.8949 -0.4429
 4672SOL    HW125475   4.195   0.254   7.065 -0.2539  0.2164 -0.4069
 4672SOL    HW225476   4.159   0.278   7.209 -1.2012 -2.6743  0.2795
 4673SOL     OW25477   2.003   4.482   6.843 -0.0743  0.2760  0.0989
 4673SOL    HW125478   1.930   4.509   6.899 -0.3366  1.8313 -1.0069
 4673SOL    HW225479   2.074   4.448   6.897  1.7625 -1.9326 -3.6740
 4674SOL     OW25480   1.066   2.686  15.934  0.4765 -0.1645  0.4069
 4674SOL    HW125481   1.139   2.738  15.900  1.6113 -1.5778  0.6924
 4674SOL    HW225482   1.013   2.698  15.856  0.0585  0.9495  0.8623
 4675SOL     OW25483   3.434   0.967   4.003 -0.0337  0.2307 -0.6217
 4675SOL    HW125484   3.383   0.971   3.922  0.4396  3.5862 -0.7497
 4675SOL    HW225485   3.366   1.007   4.058 -0.3501  0.5981 -1.2811
 4676SOL     OW25486   1.843   4.390   1.819  0.6478 -0.5068  0.2448
 4676SOL    HW125487   1.925   4.369   1.864  0.6270 -1.5420 -0.1947
 4676SOL    HW225488   1.830   4.310   1.768 -2.5479 -0.4847  1.0596
 4677SOL     OW25489   3.430   0.395   1.335 -0.5473 -0.2398  0.4563
 4677SOL    HW125490   3.509   0.362   1.291 -0.2590 -1.5954  1.9963
 4677SOL    HW225491   3.417   0.312   1.381 -2.3810 -0.8199 -1.1122
 4678SOL     OW25492   0.973   3.369  10.497  0.2057  0.1991 -0.0195
 4678SOL    HW125493   0.919   3.393  10.572 -2.8364 -1.6701 -1.6424
 4678SOL    HW225494   1.048   3.426  10.513 -0.1685  0.5603  0.4255
 4679SOL     OW25495   1.180   2.687   7.402 -0.3446 -0.5147  0.3012
 4679SOL    HW125496   1.210   2.596   7.406 -1.0657 -0.8503 -1.8071
 4679SOL    HW225497   1.128   2.696   7.321 -0.6860 -0.5804  0.5112
 4680SOL     OW25498   1.388   4.157   2.982 -0.8752 -0.4811 -0.2881
 4680SOL    HW125499   1.411   4.156   3.074 -0.0401 -1.7972 -0.5207
 4680SOL    HW225500   1.451   4.219   2.946 -1.9370  2.0445  2.2520
 4681SOL     OW25501   3.164   2.055   8.248 -0.1387  0.1237  1.2762
 4681SOL    HW125502   3.087   2.072   8.194 -0.1475  1.9346  1.8320
 4681SOL    HW225503   3.156   1.960   8.248 -0.4002  0.1468  0.1057
 4682SOL     OW25504   3.264   4.370   8.930  0.3672 -0.7724  0.0051
 4682SOL    HW125505   3.317   4.412   8.862 -1.4844  0.3725 -0.7048
 4682SOL    HW225506   3.328   4.301   8.947 -0.9919 -2.3888 -1.5149
 4683SOL     OW25507   3.889   2.488   5.772  0.2097 -0.2444 -0.9430
 4683SOL    HW125508   3.935   2.514   5.692 -2.7358 -0.1733 -2.5770
 4683SOL    HW225509   3.868   2.574   5.807  2.4315  0.1003 -0.4399
 4684SOL     OW25510   0.486   1.824   2.469 -0.2189  0.3115 -0.0823
 4684SOL    HW125511   0.498   1.876   2.548 -0.6966 -1.5794  1.2258
 4684SOL    HW225512   0.457   1.890   2.406  3.1193  2.3818  0.5312
 4685SOL     OW25513   2.679   1.702   9.008 -0.0274  0.2911 -0.5495
 4685SOL    HW125514   2.768   1.665   9.007 -1.0604 -2.1246 -1.5582
 4685SOL    HW225515   2.634   1.663   8.934  0.3284  0.7046 -0.9840
 4686SOL     OW25516   0.434   3.456  11.141 -0.2127  0.5295  0.2942
 4686SOL    HW125517   0.367   3.422  11.082 -0.4269  0.1142  0.7759
 4686SOL    HW225518   0.381   3.526  11.179 -1.2656 -0.4181  0.5877
 4687SOL     OW25519   0.473   2.294  11.588 -0.5864  0.2066  0.0034
 4687SOL    HW125520   0.402   2.357  11.576 -0.6621  0.4315  1.6034
 4687SOL    HW225521   0.469   2.287  11.683  0.2652  0.8255  0.0903
 4688SOL     OW25522   2.763   0.327   1.514 -0.1291  0.0838 -0.5323
 4688SOL    HW125523   2.825   0.291   1.577 -1.0408  1.4139  1.1369
 4688SOL    HW225524   2.814   0.394   1.470 -1.1886  0.4161 -1.2525
 4689SOL     OW25525   3.616   4.088   4.914  0.3067 -0.0571  0.6894
 4689SOL    HW125526   3.541   4.146   4.918 -0.2236 -0.7474  0.7565
 4689SOL    HW225527   3.626   4.059   5.004 -0.5853 -2.4716  0.0091
 4690SOL     OW25528   3.838   2.270   4.101 -0.1353 -0.2279 -0.1913
 4690SOL    HW125529   3.918   2.292   4.052  1.6339 -0.9303  2.4068
 4690SOL    HW225530   3.873   2.188   4.134 -0.0437 -0.8396 -1.7716
 4691SOL     OW25531   4.015   0.215  16.587  0.0596 -0.4270 -0.2610
 4691SOL    HW125532   4.101   0.174  16.593  0.5600  0.8699  1.6415
 4691SOL    HW225533   3.982   0.185  16.503 -2.7743  1.5293  0.1381
 4692SOL     OW25534   1.823   1.901   4.553 -0.1759  0.9179 -0.0813
 4692SOL    HW125535   1.901   1.953   4.535 -1.1988  1.2719 -3.5722
 4692SOL    HW225536   1.747   1.959   4.546 -0.0381  0.9918 -0.9273
 4693SOL     OW25537   3.078   2.776   4.649  0.0066  0.2803  0.5149
 4693SOL    HW125538   3.113   2.860   4.620 -0.5477  0.7897  1.3207
 4693SOL    HW225539   3.032   2.801   4.729 -0.9083  2.1669 -0.6045
 4694SOL     OW25540   3.414   3.142   3.091  1.0502 -0.5592  0.4998
 4694SOL    HW125541   3.484   3.138   3.156  0.5117 -0.9713  1.0431
 4694SOL    HW225542   3.410   3.051   3.060  0.9502 -1.1864  2.3608
 4695SOL     OW25543   4.081   0.407   8.203 -0.0091 -0.3101 -0.4979
 4695SOL    HW125544   4.141   0.393   8.276 -3.1693 -0.6758  1.9882
 4695SOL    HW225545   4.142   0.431   8.132  1.1598 -0.5555  0.4283
 4696SOL     OW25546   0.055   1.394   5.436  0.0717  0.1177  0.0120
 4696SOL    HW125547   0.112   1.324   5.465 -0.4757  0.0761  0.9906
 4696SOL    HW225548   0.021   1.436   5.516 -1.5125 -0.8618 -0.1543
 4697SOL     OW25549   3.936   1.516  15.416 -0.1517  0.1829  0.3727
 4697SOL    HW125550   3.886   1.481  15.342 -0.0234 -0.5038  0.6120
 4697SOL    HW225551   3.946   1.449  15.483 -0.8685 -0.6120 -0.3179
 4698SOL     OW25552   2.761   2.307   5.289  0.2086 -0.3845  0.0700
 4698SOL    HW125553   2.771   2.342   5.200 -0.1259  0.6841  0.4482
 4698SOL    HW225554   2.851   2.305   5.321  0.2976  2.1658  0.0072
 4699SOL     OW25555   3.454   4.170   2.344 -0.0360  0.5231 -0.2619
 4699SOL    HW125556   3.520   4.145   2.280 -0.8426  1.5269 -1.5148
 4699SOL    HW225557   3.497   4.141   2.423  1.1516 -1.2759 -1.5846
 4700SOL     OW25558   2.859   2.450   1.589 -0.1299 -0.1463  0.4780
 4700SOL    HW125559   2.941   2.404   1.571 -0.1154  0.5609 -1.2920
 4700SOL    HW225560   2.888   2.533   1.627 -1.2215  1.0525 -1.3486
 4701SOL     OW25561   2.097   3.326  16.072 -0.5110  0.1965  0.2013
 4701SOL    HW125562   2.143   3.307  16.153  0.2061 -1.5184 -0.5954
 4701SOL    HW225563   2.014   3.278  16.081 -0.7255  0.5381  0.0652
 4702SOL     OW25564   1.722   4.024  12.686 -0.3665 -0.0680 -0.2618
 4702SOL    HW125565   1.802   3.996  12.730  0.9023  1.9260 -1.3025
 4702SOL    HW225566   1.660   3.962  12.724 -0.9517  0.5182 -0.2599
 4703SOL     OW25567   2.881   3.424   8.217 -0.3540 -0.3486 -0.8584
 4703SOL    HW125568   2.882   3.515   8.186  2.9673 -0.6524 -1.6432
 4703SOL    HW225569   2.883   3.369   8.139 -0.1717 -3.1217  1.1145
 4704SOL     OW25570   2.116   0.366   3.663  0.0486 -0.5720 -0.1907
 4704SOL    HW125571   2.151   0.360   3.751  0.9226  4.1756 -0.2038
 4704SOL    HW225572   2.025   0.336   3.672 -0.1719  0.5648  1.3744
 4705SOL     OW25573   2.954   0.989   2.811 -0.3382 -0.3077  0.3225
 4705SOL    HW125574   2.974   0.921   2.874  0.4101 -0.3840  0.0070
 4705SOL    HW225575   2.941   0.938   2.731 -1.4309  0.6793 -0.1234
 4706SOL     OW25576   0.892   2.523   6.956 -0.3602  0.1070 -0.2963
 4706SOL    HW125577   0.951   2.451   6.931 -0.3736 -0.1353  0.3539
 4706SOL    HW225578   0.853   2.544   6.872  0.4169 -0.6742 -0.8592
 4707SOL     OW25579   3.272   3.942   7.557  0.3480  0.3170  0.2876
 4707SOL    HW125580   3.286   3.916   7.466 -0.0378  0.6666  0.1249
 4707SOL    HW225581   3.273   4.038   7.554  3.7930  0.2268 -1.2362
 4708SOL     OW25582   1.999   3.961   3.665  0.0168  0.2878  0.1810
 4708SOL    HW125583   1.938   3.927   3.600 -0.1570  0.2050  0.3870
 4708SOL    HW225584   1.968   3.927   3.749 -1.0564  0.6048 -0.0862
 4709SOL     OW25585   4.665   0.752   3.660  0.0663  0.1551  0.1725
 4709SOL    HW125586   4.610   0.724   3.587  1.9276  0.2509 -1.2698
 4709SOL    HW225587   4.726   0.679   3.654  1.5247  1.3062  0.9018
 4710SOL     OW25588   2.884   2.334  13.665 -0.7072 -1.1677 -0.1477
 4710SOL    HW125589   2.796   2.316  13.632 -1.4141 -1.2117  1.8072
 4710SOL    HW225590   2.881   2.287  13.748  0.5185 -1.3218 -0.1940
 4711SOL     OW25591   3.008   2.246   8.721 -0.0604 -0.3469 -0.1663
 4711SOL    HW125592   3.051   2.237   8.636 -0.4786 -1.9334 -0.2064
 4711SOL    HW225593   2.991   2.155   8.745  2.5670 -1.3337 -2.0101
 4712SOL     OW25594   4.646   0.071   6.795  0.4280 -0.3458 -0.1716
 4712SOL    HW125595   4.715   0.056   6.730 -2.3587 -2.9403 -2.5640
 4712SOL    HW225596   4.672   0.153   6.837 -0.8945  0.5322 -1.0673
 4713SOL     OW25597   3.893   1.415  16.369 -0.6581  0.1772 -0.2979
 4713SOL    HW125598   3.852   1.399  16.284 -0.7752  1.0673 -0.4074
 4713SOL    HW225599   3.846   1.497  16.383  1.1943  1.2850 -0.5330
 4714SOL     OW25600   1.174   1.124   4.323 -0.2950 -0.1348 -0.4351
 4714SOL    HW125601   1.197   1.166   4.406  0.1914 -1.1875 -0.0340
 4714SOL    HW225602   1.179   1.201   4.266 -0.1928 -0.1593 -0.4595
 4715SOL     OW25603   1.945   2.597   1.111  0.3667 -0.5305 -0.2558
 4715SOL    HW125604   1.915   2.514   1.075 -0.7453 -0.3398  0.2315
 4715SOL    HW225605   1.877   2.620   1.174 -0.4389  0.1807 -1.3817
 4716SOL     OW25606   0.558   3.472   8.808 -0.0098 -0.1333 -0.2956
 4716SOL    HW125607   0.624   3.410   8.778 -1.6436 -0.6850 -2.7623
 4716SOL    HW225608   0.495   3.409   8.841 -1.3563  2.0025  1.2247
 4717SOL     OW25609   4.468   2.341   2.311  0.5539  0.4178  0.3331
 4717SOL    HW125610   4.455   2.264   2.256  1.4875  0.2837  0.2860
 4717SOL    HW225611   4.486   2.405   2.242 -2.2920  0.6265 -0.1822
 4718SOL     OW25612   0.191   1.513   5.977  0.1945 -0.3290  0.1890
 4718SOL    HW125613   0.179   1.524   5.883  2.2525  1.0365  0.0919
 4718SOL    HW225614   0.203   1.418   5.980 -0.7626 -0.4860 -1.1080
 4719SOL     OW25615   3.595   3.394  15.535  0.1076 -0.5865  0.2184
 4719SOL    HW125616   3.614   3.337  15.609  0.5225 -1.3193 -0.4432
 4719SOL    HW225617   3.581   3.477  15.579  0.2851 -1.3510  1.6966
 4720SOL     OW25618   1.552   4.726  11.332 -0.2805 -0.3320 -0.1658
 4720SOL    HW125619   1.508   4.653  11.375  1.2431  0.6696  3.1370
 4720SOL    HW225620   1.634   0.003  11.381 -0.0889  0.2810 -0.5224
 4721SOL     OW25621   4.343   2.827  12.266  0.4805 -0.2401  0.0380
 4721SOL    HW125622   4.408   2.768  12.304  1.7959  2.0129  1.3280
 4721SOL    HW225623   4.290   2.762  12.221  1.2053 -0.0546 -1.1037
 4722SOL     OW25624   0.325   1.448  13.662 -0.4183  0.3167  0.0689
 4722SOL    HW125625   0.410   1.407  13.646 -1.5057 -2.4005  1.3826
 4722SOL    HW225626   0.348   1.531  13.706 -1.1524  0.1162  0.8272
 4723SOL     OW25627   0.374   2.376  14.808 -0.2231 -0.5914 -0.1255
 4723SOL    HW125628   0.332   2.431  14.741 -1.2474  0.0164  1.0267
 4723SOL    HW225629   0.463   2.410  14.796 -0.8125  1.8493  2.4937
 4724SOL     OW25630   2.454   0.541   5.538 -0.0071 -0.0088 -0.0125
 4724SOL    HW125631   2.482   0.465   5.486  0.9893 -0.4043  1.0797
 4724SOL    HW225632   2.507   0.535   5.618  0.1824 -1.4031 -0.2333
 4725SOL     OW25633   0.745   0.237   4.095 -0.1241  0.0034 -0.4031
 4725SOL    HW125634   0.749   0.308   4.159  1.3665 -1.0111  0.6644
 4725SOL    HW225635   0.659   0.202   4.116 -0.5984  1.8923  0.8155
 4726SOL     OW25636   2.638   3.478   6.612  0.4973  0.0910 -0.1711
 4726SOL    HW125637   2.598   3.541   6.552 -2.0483 -0.1458  1.2928
 4726SOL    HW225638   2.573   3.468   6.681  1.3654  0.4673  0.6952
 4727SOL     OW25639   1.238   1.081   3.047 -0.2438 -0.1585  0.2843
 4727SOL    HW125640   1.231   1.167   3.089  0.4799 -0.4907  1.0867
 4727SOL    HW225641   1.195   1.026   3.112  2.0997 -2.2473  0.0652
 4728SOL     OW25642   1.173   4.565   7.221 -0.7972 -0.5786 -0.3423
 4728SOL    HW125643   1.133   4.652   7.225  2.3007  0.8127  0.3354
 4728SOL    HW225644   1.213   4.551   7.307 -0.1875  0.4133 -0.4690
 4729SOL     OW25645   0.198   0.809  15.542 -0.4047  0.2507 -0.2393
 4729SOL    HW125646   0.128   0.870  15.566 -1.6649 -1.4163  0.3167
 4729SOL    HW225647   0.268   0.874  15.535 -1.5441  1.6098  0.9978
 4730SOL     OW25648   2.269   2.421  10.283 -0.3285 -0.1875  0.3689
 4730SOL    HW125649   2.329   2.492  10.262 -0.5558  0.2006  1.0357
 4730SOL    HW225650   2.326   2.350  10.312  0.7402  0.2867 -0.6027
 4731SOL     OW25651   3.240   2.264  14.752 -0.0972 -0.3406 -0.2682
 4731SOL    HW125652   3.292   2.184  14.745 -1.2333 -1.0427 -0.5661
 4731SOL    HW225653   3.176   2.236  14.816 -1.4768  0.4604 -1.3025
 4732SOL     OW25654   1.069   2.388  14.857 -0.5879  0.5878 -0.0037
 4732SOL    HW125655   1.000   2.366  14.919 -0.4894 -0.2480 -0.1899
 4732SOL    HW225656   1.057   2.482  14.865  2.3150  1.1345 -2.1776
 4733SOL     OW25657   1.184   3.611  10.865  0.2624 -0.1851 -0.1442
 4733SOL    HW125658   1.186   3.581  10.774  1.8087  0.4313 -0.3075
 4733SOL    HW225659   1.114   3.558  10.905 -0.3796  0.5681 -0.2697
 4734SOL     OW25660   1.681   3.324   7.124  0.0468 -0.2016  0.1350
 4734SOL    HW125661   1.627   3.402   7.109  1.1453 -0.2402 -3.9533
 4734SOL    HW225662   1.618   3.273   7.175  1.1309 -1.0779  0.6006
 4735SOL     OW25663   1.390   2.132  16.046  0.3647 -0.0964 -0.3234
 4735SOL    HW125664   1.357   2.200  16.105  1.6091 -0.1124  0.3893
 4735SOL    HW225665   1.307   2.095  16.016 -0.7557  1.4220  0.8485
 4736SOL     OW25666   1.271   1.678   7.894  0.4835 -0.2699  0.0063
 4736SOL    HW125667   1.333   1.715   7.958  1.3784 -2.6390  0.4978
 4736SOL    HW225668   1.204   1.744   7.910  0.0440 -0.7690  0.1955
 4737SOL     OW25669   2.725   0.720   8.765  0.2658  0.1778 -0.5215
 4737SOL    HW125670   2.711   0.659   8.692  1.0628  0.0835 -0.6013
 4737SOL    HW225671   2.738   0.665   8.843  1.1120 -0.9082 -1.4104
 4738SOL     OW25672   2.847   3.072   7.699 -0.3226  0.0407  0.0114
 4738SOL    HW125673   2.806   3.114   7.774  1.7620  2.1847 -0.0419
 4738SOL    HW225674   2.781   3.007   7.674 -0.7380  0.0303  1.1430
 4739SOL     OW25675   3.230   1.005   6.680 -0.1802 -0.3101  0.9799
 4739SOL    HW125676   3.200   0.927   6.727 -0.3283 -0.1143  1.2083
 4739SOL    HW225677   3.319   1.017   6.713  0.1408 -2.9769  1.0601
 4740SOL     OW25678   3.736   3.279   8.321 -0.3683 -0.3684 -0.5095
 4740SOL    HW125679   3.696   3.193   8.314 -0.2164 -0.3667 -1.3823
 4740SOL    HW225680   3.717   3.320   8.237  0.1702  0.2372 -0.3435
 4741SOL     OW25681   0.932   0.744  15.556  0.1871 -0.3070  0.1056
 4741SOL    HW125682   1.003   0.694  15.517 -0.4272  0.5497 -2.1068
 4741SOL    HW225683   0.977   0.786  15.629 -0.5600 -1.9795  1.5246
 4742SOL     OW25684   4.492   1.592   5.195 -0.4823 -0.1110  0.5162
 4742SOL    HW125685   4.542   1.613   5.274 -1.7120  1.1231  0.9684
 4742SOL    HW225686   4.447   1.677   5.190  1.5934  0.9866  0.5981
 4743SOL     OW25687   4.687   3.937   2.903  0.3096  0.6020 -0.5015
 4743SOL    HW125688   4.714   3.862   2.956  1.4613  0.9023 -0.6816
 4743SOL    HW225689   4.595   3.939   2.931  0.4247 -1.7009  0.0554
 4744SOL     OW25690   4.666   1.076   9.504 -0.2345  0.9229  0.1495
 4744SOL    HW125691   4.588   1.064   9.558  1.5439  0.8180  2.6814
 4744SOL    HW225692   4.659   1.163   9.467  1.8795  0.5621 -1.1130
 4745SOL     OW25693   3.531   1.312  13.679  0.1467  0.2802  0.6414
 4745SOL    HW125694   3.496   1.242  13.735 -2.8925  2.1792  1.1323
 4745SOL    HW225695   3.448   1.327  13.633  1.4941  0.9489 -1.5447
 4746SOL     OW25696   2.768   2.781   1.991 -0.0748 -0.2729  0.4608
 4746SOL    HW125697   2.722   2.745   2.068 -1.5435 -0.0980 -0.3392
 4746SOL    HW225698   2.832   2.838   2.034  1.6611 -1.8619 -0.0186
 4747SOL     OW25699   0.293   0.403   6.605  0.0190  0.4938  0.3699
 4747SOL    HW125700   0.326   0.401   6.515  0.7691  2.5033  0.6108
 4747SOL    HW225701   0.349   0.477   6.627 -2.1497  2.9161 -2.2124
 4748SOL     OW25702   4.570   4.243   1.709  0.0635  0.6521  0.1561
 4748SOL    HW125703   4.504   4.281   1.651 -0.7614 -1.8482 -0.5118
 4748SOL    HW225704   4.638   4.311   1.712  2.6211 -1.8131 -1.8718
 4749SOL     OW25705   4.333   4.268   2.870  0.2827 -0.9821  0.3418
 4749SOL    HW125706   4.240   4.290   2.872  0.7552  0.9411  0.7128
 4749SOL    HW225707   4.380   4.342   2.907  1.0658 -0.8051 -1.0006
 4750SOL     OW25708   2.475   2.586   7.529 -0.7086  0.2661 -0.1496
 4750SOL    HW125709   2.463   2.548   7.442  0.8287 -0.8104  0.0998
 4750SOL    HW225710   2.566   2.614   7.519 -0.5854 -0.1139 -0.1107
 4751SOL     OW25711   3.870   0.726  13.341 -0.2614 -0.3925 -0.2427
 4751SOL    HW125712   3.795   0.736  13.400  1.4632  3.1515  1.3634
 4751SOL    HW225713   3.898   0.816  13.326  1.0470 -0.8581 -0.5110
 4752SOL     OW25714   3.194   1.187  15.506 -0.3236 -0.3518  0.1577
 4752SOL    HW125715   3.200   1.279  15.480  2.7713 -0.3158  1.0880
 4752SOL    HW225716   3.100   1.169  15.512 -0.0795 -1.7284 -0.0706
 4753SOL     OW25717   2.559   0.768  15.181 -0.3735 -0.1189 -0.1522
 4753SOL    HW125718   2.604   0.698  15.228 -3.9670 -2.5567 -0.3054
 4753SOL    HW225719   2.543   0.830  15.252 -0.9488  0.5232 -0.8401
 4754SOL     OW25720   3.425   3.467   2.617 -0.2256 -0.1631 -0.0254
 4754SOL    HW125721   3.409   3.406   2.689  3.0891  0.0017  0.8483
 4754SOL    HW225722   3.342   3.510   2.596  0.7144  1.0238 -1.3270
 4755SOL     OW25723   3.018   1.963   7.489  0.0745 -0.2747 -0.2624
 4755SOL    HW125724   2.993   2.052   7.514  3.5566  0.7084 -0.2398
 4755SOL    HW225725   3.114   1.960   7.487  0.2133  1.8715  3.1386
 4756SOL     OW25726   0.971   4.452   3.747 -0.0640  0.3502  0.5512
 4756SOL    HW125727   0.893   4.412   3.786 -0.0905  0.8444  1.0031
 4756SOL    HW225728   0.942   4.539   3.722  1.6075  1.3840  2.3060
 4757SOL     OW25729   2.971   3.978   4.049 -0.2704 -0.2927 -0.9291
 4757SOL    HW125730   2.953   3.939   3.964 -3.6546 -2.3267  0.6894
 4757SOL    HW225731   2.944   3.911   4.112 -0.3782 -0.0184 -0.6786
 4758SOL     OW25732   2.016   4.288   0.063 -0.4766 -0.0018 -0.7046
 4758SOL    HW125733   2.099   4.285   0.016 -0.7514 -2.0763 -1.0534
 4758SOL    HW225734   1.963   4.285  17.691  0.1516  0.9355 -1.1588
 4759SOL     OW25735   4.108   0.630   8.966 -0.1873  0.1659  0.3558
 4759SOL    HW125736   4.017   0.601   8.962 -0.0706 -0.0757 -0.6506
 4759SOL    HW225737   4.099   0.700   8.901  0.2546  0.8546  1.0418
 4760SOL     OW25738   0.697   3.262   8.680  0.3294 -0.1216  0.0054
 4760SOL    HW125739   0.754   3.197   8.720  1.5310  0.2761 -1.0669
 4760SOL    HW225740   0.636   3.206   8.632  0.7411 -0.3219 -0.2891
 4761SOL     OW25741   0.901   0.648   6.788  0.9496 -0.1727  0.0707
 4761SOL    HW125742   0.862   0.732   6.809  2.8016  0.8964 -0.7748
 4761SOL    HW225743   0.846   0.624   6.714 -1.0884 -1.5456  2.0321
 4762SOL     OW25744   4.131   1.444  11.718  0.4179 -0.3188 -0.1816
 4762SOL    HW125745   4.202   1.386  11.745  0.0584 -1.0219 -0.7522
 4762SOL    HW225746   4.174   1.529  11.727  0.5655 -0.4382  0.2605
 4763SOL     OW25747   4.703   0.116   1.791 -0.9121  0.2580 -0.1172
 4763SOL    HW125748   4.612   0.093   1.811 -1.4962  2.5664 -0.1450
 4763SOL    HW225749   0.001   0.024   1.781  2.1209  0.9777  0.6443
 4764SOL     OW25750   0.760   1.386   4.675  0.2566  0.0430  0.2092
 4764SOL    HW125751   0.819   1.339   4.616 -0.5562  0.2880 -0.8062
 4764SOL    HW225752   0.743   1.323   4.745  0.4242  0.4573  0.6202
 4765SOL     OW25753   3.935   2.151   6.492  0.2843 -0.4040  0.3657
 4765SOL    HW125754   3.985   2.069   6.500  3.1103  1.3257  0.4370
 4765SOL    HW225755   3.992   2.211   6.444 -1.8904 -0.0848 -1.8279
 4766SOL     OW25756   2.345   0.355  12.297  0.3738  0.1128  0.0503
 4766SOL    HW125757   2.349   0.375  12.391  0.9582 -0.4573  0.1493
 4766SOL    HW225758   2.438   0.338  12.280 -0.0672 -0.9046 -1.3797
 4767SOL     OW25759   3.889   2.249  12.056  0.4896  0.1245  0.6584
 4767SOL    HW125760   3.929   2.192  12.120  0.0800 -0.5634  0.3010
 4767SOL    HW225761   3.796   2.227  12.068  0.2264  0.2359 -1.1506
 4768SOL     OW25762   4.404   1.296   5.084  0.8633  0.2990  0.1742
 4768SOL    HW125763   4.368   1.246   5.010  0.9674  0.1979  0.1920
 4768SOL    HW225764   4.414   1.223   5.146  1.5800  1.3853  1.3211
 4769SOL     OW25765   3.822   4.393   4.188 -0.7542 -0.4896 -0.1718
 4769SOL    HW125766   3.812   4.489   4.188  1.6268 -0.2457  1.2041
 4769SOL    HW225767   3.844   4.381   4.096  0.2877 -0.5047  0.0892
 4770SOL     OW25768   1.099   4.722  16.079  0.4526 -0.5219  0.0162
 4770SOL    HW125769   1.045   4.644  16.095  3.2257 -2.0905  1.6509
 4770SOL    HW225770   1.098   4.717  15.983  1.7941  0.6814 -0.0611
 4771SOL     OW25771   1.743   3.068   3.373  0.4725  0.3949  0.4726
 4771SOL    HW125772   1.651   3.057   3.352  1.2388 -0.4558 -2.4716
 4771SOL    HW225773   1.738   3.126   3.449 -2.7903 -0.4398  0.8848
 4772SOL     OW25774   4.019   4.288   4.380  0.2014 -0.2349 -0.4233
 4772SOL    HW125775   3.951   4.338   4.336  0.1839  0.1861  0.0814
 4772SOL    HW225776   4.076   4.355   4.417 -1.4170  0.4978  0.7402
 4773SOL     OW25777   1.440   0.486  12.882  0.5014 -0.0969 -0.1398
 4773SOL    HW125778   1.507   0.520  12.823  0.4439 -0.2942 -0.3190
 4773SOL    HW225779   1.493   0.500  12.960  0.3712 -1.1799  0.1401
 4774SOL     OW25780   1.356   1.869  16.410  0.2416 -0.9258  0.2554
 4774SOL    HW125781   1.409   1.791  16.428  0.4284 -0.5671  1.2496
 4774SOL    HW225782   1.279   1.853  16.465 -2.0977 -1.1437 -3.0708
 4775SOL     OW25783   0.576   0.379  17.337  0.6187 -0.0981  0.0899
 4775SOL    HW125784   0.535   0.458  17.302  3.8866  0.7260 -1.8359
 4775SOL    HW225785   0.519   0.366  17.413 -1.7995  0.2669 -1.6446
 4776SOL     OW25786   2.841   4.082   2.163 -0.3245 -0.0556  0.0680
 4776SOL    HW125787   2.773   4.105   2.100  0.2389 -1.6618 -1.1143
 4776SOL    HW225788   2.902   4.152   2.139  1.2297 -1.4716 -0.1303
 4777SOL     OW25789   3.287   1.115   6.958  0.2442 -0.1919  0.4622
 4777SOL    HW125790   3.329   1.047   7.010 -0.0460 -1.3157 -0.7574
 4777SOL    HW225791   3.198   1.080   6.963 -0.1700  0.6317 -1.1230
 4778SOL     OW25792   1.138   1.020   5.969  0.1106  0.0200  0.3450
 4778SOL    HW125793   1.209   1.084   5.958 -0.1932  0.4242  0.7525
 4778SOL    HW225794   1.061   1.075   5.955 -0.2406 -0.4822  0.3344
 4779SOL     OW25795   2.838   2.142  15.206 -0.3624 -0.0244  0.4267
 4779SOL    HW125796   2.911   2.178  15.257  0.2071 -0.2710 -0.2317
 4779SOL    HW225797   2.853   2.049  15.221 -1.4897 -0.2540  0.1507
 4780SOL     OW25798   1.367   4.470   5.117  0.1604 -0.1504 -0.1412
 4780SOL    HW125799   1.445   4.437   5.072  0.4240 -0.9079  0.8723
 4780SOL    HW225800   1.359   4.412   5.192 -2.3654 -0.2143 -0.4781
 4781SOL     OW25801   4.032   3.307   5.314  0.4860  0.1984  0.0729
 4781SOL    HW125802   4.109   3.303   5.258  1.5375  0.8965  1.4800
 4781SOL    HW225803   4.022   3.402   5.309  1.6065  0.2209 -1.7959
 4782SOL     OW25804   1.335   4.670   6.422 -0.0898 -0.5749  0.4445
 4782SOL    HW125805   1.388   4.686   6.500 -1.4553 -0.2094  1.3020
 4782SOL    HW225806   1.283   4.594   6.450 -0.8481 -0.3191 -0.2605
 4783SOL     OW25807   1.550   1.738   6.905 -0.0498 -0.0429 -0.5934
 4783SOL    HW125808   1.604   1.758   6.829  0.7919 -0.0914 -0.0077
 4783SOL    HW225809   1.620   1.708   6.962 -2.3497 -1.3512  1.5554
 4784SOL     OW25810   2.613   1.261   5.207 -0.5748  0.5585  0.2674
 4784SOL    HW125811   2.656   1.346   5.192 -2.7449  1.7989  1.0063
 4784SOL    HW225812   2.616   1.256   5.302 -1.6411 -3.1847  0.0982
 4785SOL     OW25813   1.051   4.162   5.713 -0.9938 -0.1029 -0.3648
 4785SOL    HW125814   1.026   4.240   5.762 -1.9611 -0.0583 -0.9247
 4785SOL    HW225815   0.971   4.114   5.691 -1.0264 -0.2192  0.0076
 4786SOL     OW25816   2.111   3.278   2.482  0.3935  0.1958  0.2272
 4786SOL    HW125817   2.110   3.359   2.432 -2.0746  0.8788  1.3898
 4786SOL    HW225818   2.196   3.237   2.464 -0.2620 -1.2025  0.2995
 4787SOL     OW25819   4.083   2.919   0.931 -0.1876 -0.0462 -0.2198
 4787SOL    HW125820   4.127   2.963   1.004 -0.4141  0.3391 -0.3206
 4787SOL    HW225821   4.073   2.982   0.860  2.7488  0.6686  0.0138
 4788SOL     OW25822   0.082   2.830  13.805  0.2739 -0.5779  0.2357
 4788SOL    HW125823   0.168   2.843  13.766  0.2061  0.0246  0.2966
 4788SOL    HW225824   0.057   2.909  13.852 -0.7116 -0.2773 -0.7686
 4789SOL     OW25825   4.500   4.157   7.119 -0.5048  0.1254  0.1777
 4789SOL    HW125826   4.522   4.094   7.052  0.8787  1.8456 -0.9776
 4789SOL    HW225827   4.582   4.206   7.120  1.2744 -2.8719  1.6298
 4790SOL     OW25828   2.740   1.730   3.258 -0.1063  0.1040 -0.3429
 4790SOL    HW125829   2.651   1.764   3.249 -0.6309 -0.6623  2.0780
 4790SOL    HW225830   2.791   1.808   3.236  0.4357 -0.0428  0.4115
 4791SOL     OW25831   2.591   2.783  11.822  0.0439  0.1553 -0.1584
 4791SOL    HW125832   2.652   2.764  11.893 -0.2035 -1.6958 -0.4404
 4791SOL    HW225833   2.616   2.872  11.799 -3.2559  0.5094 -2.3770
 4792SOL     OW25834   1.185   0.233  10.017  0.4375 -0.3775  0.0180
 4792SOL    HW125835   1.235   0.245   9.937 -0.7955  0.5508 -0.6227
 4792SOL    HW225836   1.119   0.175   9.980 -0.1013 -0.4123  1.0085
 4793SOL     OW25837   1.425   2.206   7.565  0.0701 -0.0930 -0.1418
 4793SOL    HW125838   1.519   2.190   7.563  0.0621 -0.0716 -0.7314
 4793SOL    HW225839   1.383   2.122   7.546 -0.9944  0.3901  0.0531
 4794SOL     OW25840   1.062   2.061   3.413  0.4785 -0.2791 -0.3446
 4794SOL    HW125841   1.035   1.970   3.397  0.1442 -0.1425 -0.5559
 4794SOL    HW225842   1.149   2.055   3.452 -0.0068  0.8906  0.9086
 4795SOL     OW25843   3.552   1.250  11.016 -0.6282  0.2402  0.5203
 4795SOL    HW125844   3.510   1.301  10.947 -2.5111  2.1386  3.0758
 4795SOL    HW225845   3.543   1.160  10.984  0.6318  0.9245 -1.7396
 4796SOL     OW25846   4.192   4.294   8.147 -0.7846 -0.2259 -0.3110
 4796SOL    HW125847   4.154   4.381   8.159 -1.4412 -0.6750  0.8694
 4796SOL    HW225848   4.224   4.271   8.234 -0.9326  0.1989 -0.1447
 4797SOL     OW25849   2.917   1.330   7.759 -0.5675 -0.0127 -0.0729
 4797SOL    HW125850   2.948   1.295   7.843 -1.5896  1.1243  0.7655
 4797SOL    HW225851   2.965   1.275   7.696  0.1255 -0.5196  0.9008
 4798SOL     OW25852   0.802   3.472   9.093  0.2715  0.4072 -0.2220
 4798SOL    HW125853   0.796   3.402   9.157 -1.6984  2.8287  2.2449
 4798SOL    HW225854   0.790   3.551   9.147  0.4558  0.5752 -0.4240
 4799SOL     OW25855   2.200   3.883   9.269  0.6585 -0.0296  0.0505
 4799SOL    HW125856   2.290   3.860   9.246  0.0878 -1.9704 -0.2448
 4799SOL    HW225857   2.198   3.842   9.356 -0.0841  2.4975  1.2255
 4800SOL     OW25858   1.427   4.672   0.586  0.3134 -0.1811  0.1155
 4800SOL    HW125859   1.404   0.030   0.547 -0.0030 -1.5558 -2.7368
 4800SOL    HW225860   1.516   4.660   0.552  1.4478  0.4477  2.9211
 4801SOL     OW25861   0.982   1.002   8.439  0.2881 -0.1607  0.0438
 4801SOL    HW125862   0.997   1.085   8.484 -1.4625  0.1142  0.1111
 4801SOL    HW225863   0.993   1.035   8.349  0.2640  1.1657  0.5176
 4802SOL     OW25864   4.010   3.623  12.221  0.0592 -0.0984  0.2782
 4802SOL    HW125865   4.103   3.600  12.218 -0.2324 -1.3023  0.5878
 4802SOL    HW225866   4.002   3.717  12.205 -0.4707  0.1910  2.2907
 4803SOL     OW25867   3.315   1.656  16.719  0.6110  0.4866  0.6613
 4803SOL    HW125868   3.351   1.571  16.695  0.5794  0.1374  1.8294
 4803SOL    HW225869   3.315   1.650  16.815  1.2516 -0.0786  0.6289
 4804SOL     OW25870   4.696   1.606   9.087  0.2054  0.1424  0.1739
 4804SOL    HW125871   0.035   1.598   9.018  2.0652  2.5380  1.6581
 4804SOL    HW225872   0.029   1.591   9.161  1.2739 -2.7209 -1.2594
 4805SOL     OW25873   4.586   1.727   6.672 -0.3857 -0.3085 -0.3762
 4805SOL    HW125874   4.623   1.714   6.585 -0.2683 -1.3118 -0.1776
 4805SOL    HW225875   4.625   1.657   6.725 -0.4365  0.6635  0.9363
 4806SOL     OW25876   3.108   0.184   2.055 -0.5124 -0.1302 -0.1241
 4806SOL    HW125877   3.088   0.262   2.003  1.0348  0.7602  0.6395
 4806SOL    HW225878   3.033   0.124   2.061 -2.4559  2.2734 -0.4218
 4807SOL     OW25879   0.633   0.700   8.329 -0.3695  0.1196  0.3378
 4807SOL    HW125880   0.543   0.722   8.305 -1.0508 -2.9806 -0.0385
 4807SOL    HW225881   0.685   0.740   8.259 -2.3552 -1.1756 -1.8660
 4808SOL     OW25882   2.130   3.490  14.838 -0.2294  0.2455  0.2136
 4808SOL    HW125883   2.098   3.477  14.927 -1.2554 -2.7987 -0.6196
 4808SOL    HW225884   2.050   3.495  14.786 -0.4518 -1.7217  0.3831
 4809SOL     OW25885   4.644   4.193  11.101 -0.1524  0.0310 -0.3310
 4809SOL    HW125886   4.684   4.123  11.050 -0.9841 -0.0907 -0.8170
 4809SOL    HW225887   4.575   4.146  11.148  1.9540 -1.9261  0.8404
 4810SOL     OW25888   3.730   2.776  13.399 -0.4162 -0.2878 -0.1277
 4810SOL    HW125889   3.757   2.688  13.376 -0.4430 -1.0409  2.7811
 4810SOL    HW225890   3.783   2.794  13.476  0.5819 -0.1874 -0.8484
 4811SOL     OW25891   4.454   3.422   0.455  0.2162  0.7065  0.2891
 4811SOL    HW125892   4.455   3.490   0.388  0.4377 -1.0809 -1.5208
 4811SOL    HW225893   4.492   3.347   0.409  0.7593 -0.6376  2.9430
 4812SOL     OW25894   2.442   0.532   4.276  0.1791 -0.5753 -0.2950
 4812SOL    HW125895   2.530   0.555   4.248  0.7245  1.5590  3.1993
 4812SOL    HW225896   2.412   0.495   4.193 -1.2939  1.1424 -0.5113
 4813SOL     OW25897   1.236   0.514   6.277 -0.2104 -0.4024 -0.2760
 4813SOL    HW125898   1.160   0.490   6.330  0.7275  2.0211  2.1159
 4813SOL    HW225899   1.207   0.479   6.192  0.3954  0.9792 -1.0565
 4814SOL     OW25900   2.942   2.855   4.046 -0.3845  0.6275 -0.8010
 4814SOL    HW125901   2.921   2.923   4.110 -0.5240  0.1196 -0.3006
 4814SOL    HW225902   2.855   2.823   4.020 -0.2717  0.2287 -0.6970
 4815SOL     OW25903   4.556   3.176   5.753 -0.0531 -0.3408  0.3235
 4815SOL    HW125904   4.551   3.254   5.698 -0.9865  1.0294  2.3226
 4815SOL    HW225905   4.477   3.134   5.722  0.5640 -1.0138 -0.3257
 4816SOL     OW25906   4.165   1.445   5.328 -0.4636  0.3251  0.2557
 4816SOL    HW125907   4.193   1.529   5.365  2.7200 -0.8293  0.3964
 4816SOL    HW225908   4.078   1.469   5.296 -2.2948 -1.0716  4.1443
 4817SOL     OW25909   3.701   2.754  10.214  0.2952  0.0532  0.0221
 4817SOL    HW125910   3.770   2.779  10.153  1.3720 -1.0398  0.7806
 4817SOL    HW225911   3.746   2.730  10.295  0.2641  0.7126  0.2292
 4818SOL     OW25912   1.414   4.467   0.397 -0.3648  0.1687 -0.8372
 4818SOL    HW125913   1.415   4.528   0.471 -3.0150  0.2487 -0.8473
 4818SOL    HW225914   1.488   4.494   0.344  1.6532 -0.7121  1.5051
 4819SOL     OW25915   3.961   3.729  17.595  0.1430 -0.1687 -0.4374
 4819SOL    HW125916   4.052   3.755  17.609  0.6679 -1.5562 -1.2829
 4819SOL    HW225917   3.913   3.761  17.672  1.5080  0.3489  0.2001
 4820SOL     OW25918   4.124   0.281   2.970 -0.5708 -0.0717  0.2850
 4820SOL    HW125919   4.097   0.189   2.972 -5.1531  1.2416 -0.7444
 4820SOL    HW225920   4.144   0.286   2.877  0.1492 -0.8914  0.3927
 4821SOL     OW25921   1.081   3.304   8.034 -0.1781  0.5313  0.1861
 4821SOL    HW125922   1.014   3.372   8.040 -1.7754 -0.8121 -2.7431
 4821SOL    HW225923   1.161   3.350   8.059  0.7895 -1.2671  0.3397
 4822SOL     OW25924   3.384   0.738   1.703 -0.0722  0.7699 -0.5456
 4822SOL    HW125925   3.447   0.782   1.646  2.1271  0.4017  1.6452
 4822SOL    HW225926   3.366   0.648   1.674  0.8247  0.2536  0.5326
 4823SOL     OW25927   3.343   2.432   4.910  0.3095  0.0805  1.0434
 4823SOL    HW125928   3.429   2.419   4.950  0.8370 -1.9666 -0.6967
 4823SOL    HW225929   3.370   2.403   4.822 -1.7424  0.2651  0.3543
 4824SOL     OW25930   1.846   1.525   7.495  0.3655 -0.0700 -0.1610
 4824SOL    HW125931   1.885   1.537   7.408 -0.6271 -0.8165 -0.7158
 4824SOL    HW225932   1.809   1.611   7.513  2.3943  0.6056  0.7202
 4825SOL     OW25933   3.247   1.184   3.490  0.1197  0.1854 -0.1280
 4825SOL    HW125934   3.163   1.138   3.486  1.1615 -1.6625 -1.1108
 4825SOL    HW225935   3.267   1.163   3.398 -0.6182  1.9689 -0.6982
 4826SOL     OW25936   0.242   2.908   5.804  0.1085 -0.2406  0.7029
 4826SOL    HW125937   0.146   2.906   5.812  0.2992  2.6701  3.9161
 4826SOL    HW225938   0.250   2.845   5.733  0.1461  0.7197 -0.1379
 4827SOL     OW25939   0.083   0.096   4.847 -0.2816 -0.3681  0.0489
 4827SOL    HW125940   0.017   0.084   4.915 -0.6658  0.7435 -0.1295
 4827SOL    HW225941   0.133   0.015   4.860 -1.1770 -1.1621 -1.4473
 4828SOL     OW25942   0.606   2.516   5.540 -0.1471 -0.0179  0.4577
 4828SOL    HW125943   0.613   2.448   5.472 -1.9564 -0.8982  1.1442
 4828SOL    HW225944   0.526   2.488   5.584 -0.1882 -0.9280 -0.1950
 4829SOL     OW25945   4.679   3.316   6.007  0.2620  0.2047  0.1524
 4829SOL    HW125946   4.599   3.366   5.989  0.8033  0.0523 -2.6552
 4829SOL    HW225947   4.689   3.280   5.919  1.6971  0.6711  0.1238
 4830SOL     OW25948   1.197   2.909   6.263 -0.4844 -0.1512  0.3426
 4830SOL    HW125949   1.109   2.876   6.245  1.0537 -3.9738 -0.2133
 4830SOL    HW225950   1.215   2.946   6.176  0.1362  0.7698  0.8614
 4831SOL     OW25951   1.303   4.324  13.677 -0.2968 -0.0724 -0.8657
 4831SOL    HW125952   1.346   4.261  13.619 -1.1844 -0.6614 -0.8834
 4831SOL    HW225953   1.358   4.402  13.672  1.1968 -1.1732 -1.4246
 4832SOL     OW25954   4.284   3.914  15.775  0.2633  0.1153  0.5045
 4832SOL    HW125955   4.229   3.971  15.828 -0.3029  0.4396 -0.4284
 4832SOL    HW225956   4.269   3.944  15.685 -1.0367  0.5534  0.8664
 4833SOL     OW25957   2.128   1.042   4.212 -0.0687  0.3951  0.5413
 4833SOL    HW125958   2.222   1.053   4.204 -0.3054  2.9033  1.1906
 4833SOL    HW225959   2.122   0.948   4.222 -0.4975  0.5649  1.8458
 4834SOL     OW25960   1.160   4.215  14.057  0.0097  0.4990  0.2275
 4834SOL    HW125961   1.098   4.268  14.107 -0.8159 -1.1751  0.9724
 4834SOL    HW225962   1.137   4.133  14.100  0.0411  0.8734  0.9622
 4835SOL     OW25963   1.688   0.679   3.763 -0.5137 -0.3991 -0.5883
 4835SOL    HW125964   1.661   0.612   3.699 -2.8468 -0.7506  0.7587
 4835SOL    HW225965   1.704   0.626   3.841  1.6455  2.0401  0.5957
 4836SOL     OW25966   1.826   1.421   7.895  0.1678  0.1774 -0.0879
 4836SOL    HW125967   1.773   1.392   7.970 -0.7002  0.3811 -0.6176
 4836SOL    HW225968   1.811   1.359   7.824 -0.1013 -1.0887  1.0601
 4837SOL     OW25969   2.661   2.185   6.361 -0.6107  0.3325  0.0603
 4837SOL    HW125970   2.722   2.142   6.422  0.3515  0.4831 -0.7830
 4837SOL    HW225971   2.712   2.171   6.281 -2.9030 -0.3076 -1.2889
 4838SOL     OW25972   2.913   2.257   5.713 -0.5853  0.4822  0.7039
 4838SOL    HW125973   2.909   2.341   5.667 -1.4999 -0.1080 -0.2956
 4838SOL    HW225974   2.911   2.290   5.803 -0.4940 -1.2626  1.3434
 4839SOL     OW25975   3.177   1.717   5.714  0.3830 -0.5268 -0.2450
 4839SOL    HW125976   3.265   1.678   5.707  0.2106 -1.3255  1.9170
 4839SOL    HW225977   3.156   1.698   5.806  0.9130  1.8705  0.3840
 4840SOL     OW25978   4.525   0.288   9.257 -0.9682 -0.0974  0.1000
 4840SOL    HW125979   4.502   0.209   9.209 -1.4182  0.2867 -0.3161
 4840SOL    HW225980   4.548   0.336   9.177 -0.9506  0.1856  0.2760
 4841SOL     OW25981   3.969   0.167   5.385  0.4365 -0.2635 -0.4582
 4841SOL    HW125982   3.913   0.244   5.392 -0.3000 -0.7993 -0.3712
 4841SOL    HW225983   4.004   0.184   5.298  0.8516  1.3502  0.0365
 4842SOL     OW25984   2.846   3.009  15.732  0.2683 -0.5227  0.2423
 4842SOL    HW125985   2.936   2.979  15.737  1.1211  1.8320 -1.1952
 4842SOL    HW225986   2.815   2.951  15.662 -0.4101 -0.9300  0.8835
 4843SOL     OW25987   1.934   3.576  12.088  0.9107  0.0284  0.7353
 4843SOL    HW125988   1.980   3.537  12.162 -1.0880 -1.2203  1.3072
 4843SOL    HW225989   1.933   3.667  12.117 -0.7907  0.2630 -0.0623
 4844SOL     OW25990   1.102   3.300   5.426 -0.3187  0.8386  0.2236
 4844SOL    HW125991   1.104   3.206   5.407  0.7106  0.9171 -0.0562
 4844SOL    HW225992   1.038   3.339   5.365 -1.5226 -1.6030 -0.0684
 4845SOL     OW25993   1.638   4.255   0.745 -0.3903  0.3369 -0.6024
 4845SOL    HW125994   1.634   4.182   0.806 -1.5505  1.5837  0.7959
 4845SOL    HW225995   1.711   4.224   0.690  1.2732 -1.2386  2.5257
 4846SOL     OW25996   1.997   2.898   7.118 -0.3840 -0.0523  0.5607
 4846SOL    HW125997   2.031   2.986   7.099 -2.1493 -0.0158 -2.4452
 4846SOL    HW225998   2.001   2.870   7.026  0.1941  2.5163 -0.2241
 4847SOL     OW25999   1.465   1.524   3.374  0.2099 -0.0576  0.0486
 4847SOL    HW126000   1.479   1.502   3.282 -0.3419  0.3260 -0.1268
 4847SOL    HW226001   1.398   1.593   3.365  0.2331 -0.2947 -1.9101
 4848SOL     OW26002   4.579   1.924   0.445  0.1574  0.4052 -0.3741
 4848SOL    HW126003   4.664   1.906   0.406 -0.3166  0.5125 -1.4597
 4848SOL    HW226004   4.522   1.911   0.369  0.7509 -0.1624 -0.7188
 4849SOL     OW26005   3.987   1.377  16.033  0.2289  0.2516 -0.6477
 4849SOL    HW126006   4.014   1.460  16.072  0.9073  0.1902 -0.9854
 4849SOL    HW226007   3.896   1.361  16.061  0.6070  0.6364  0.8279
 4850SOL     OW26008   3.006   4.445  15.937  0.3711 -0.3977 -0.6328
 4850SOL    HW126009   2.944   4.519  15.932  1.5706  0.5679 -1.3198
 4850SOL    HW226010   3.059   4.467  16.013 -0.1225 -1.1199 -0.0862
 4851SOL     OW26011   0.220   1.498   3.840  0.1587  0.5824 -0.2370
 4851SOL    HW126012   0.218   1.451   3.923  0.6438  0.8642 -0.0680
 4851SOL    HW226013   0.152   1.459   3.784  1.1501 -1.4024 -0.0778
 4852SOL     OW26014   4.709   1.376   8.380  0.1815  0.3305  0.0862
 4852SOL    HW126015   4.705   1.303   8.441 -1.5097 -1.0135 -1.6254
 4852SOL    HW226016   0.049   1.423   8.430  0.4511  2.5023 -2.3153
 4853SOL     OW26017   2.091   1.538  13.661 -0.2049 -0.2780 -0.5046
 4853SOL    HW126018   2.026   1.560  13.594 -0.6462 -1.0405 -0.3165
 4853SOL    HW226019   2.064   1.452  13.693 -0.9754  0.5280  1.0000
 4854SOL     OW26020   2.517   1.563   7.286  0.1822  0.3082  0.7922
 4854SOL    HW126021   2.472   1.646   7.302 -0.3183  0.3712 -0.8586
 4854SOL    HW226022   2.557   1.554   7.372  1.0196  1.7338  0.5461
 4855SOL     OW26023   4.430   0.827   2.944  0.0711 -0.2195 -0.4075
 4855SOL    HW126024   4.468   0.843   2.857 -0.0989 -0.7248 -0.5721
 4855SOL    HW226025   4.471   0.743   2.965  0.9911 -0.2643 -2.3149
 4856SOL     OW26026   3.430   1.874   7.725  0.3669  0.0452  0.1456
 4856SOL    HW126027   3.432   1.913   7.812  1.2257  1.4794 -0.5139
 4856SOL    HW226028   3.416   1.781   7.743  0.5108  0.0681  0.3729
 4857SOL     OW26029   0.475   2.079   4.545 -0.3390  0.5318 -0.3357
 4857SOL    HW126030   0.466   2.011   4.478  0.6725 -0.4735  0.5487
 4857SOL    HW226031   0.408   2.140   4.514  0.1153  1.2116  0.0225
 4858SOL     OW26032   4.108   4.016   4.986 -0.3779  0.2913  0.0258
 4858SOL    HW126033   4.064   4.008   5.071 -0.0395  2.5751  0.4198
 4858SOL    HW226034   4.122   3.924   4.964 -4.5427 -0.4704  0.5456
 4859SOL     OW26035   3.970   3.009  13.469  0.0517  0.0918 -0.5446
 4859SOL    HW126036   3.948   3.102  13.467  0.2218  0.1461  0.1662
 4859SOL    HW226037   4.062   3.012  13.496 -1.1343  0.2362  3.5052
 4860SOL     OW26038   2.534   3.686   2.573  0.1634  0.1242  0.6794
 4860SOL    HW126039   2.511   3.600   2.607  0.6836 -0.7136 -1.0512
 4860SOL    HW226040   2.587   3.719   2.646  0.2479  0.5288  0.4412
 4861SOL     OW26041   3.051   0.273   3.702  0.7313 -0.3483  0.5272
 4861SOL    HW126042   3.001   0.313   3.774 -1.5389 -0.7451 -0.8322
 4861SOL    HW226043   3.142   0.278   3.731 -0.1659 -0.4184  3.4081
 4862SOL     OW26044   1.593   3.341   5.943 -0.0681  0.0082 -0.0849
 4862SOL    HW126045   1.686   3.362   5.942  0.5146 -2.4532  1.5612
 4862SOL    HW226046   1.560   3.389   5.867 -0.1736 -1.1739 -0.7860
 4863SOL     OW26047   2.510   3.531   0.885 -0.6385  0.2619  0.0594
 4863SOL    HW126048   2.554   3.448   0.869  0.9233  1.2641 -0.7592
 4863SOL    HW226049   2.484   3.520   0.977 -0.5557  0.3163  0.0889
 4864SOL     OW26050   0.164   3.001  13.209 -0.1264  0.2289 -0.0835
 4864SOL    HW126051   0.187   2.910  13.228  0.1139 -0.1815 -2.3441
 4864SOL    HW226052   0.101   2.984  13.139 -3.1208  0.5744  2.5354
 4865SOL     OW26053   0.636   0.501   3.344 -0.0210 -0.4743 -0.0573
 4865SOL    HW126054   0.728   0.496   3.318  0.4557  2.8042  1.0280
 4865SOL    HW226055   0.599   0.441   3.278  0.3972  0.8107 -1.4775
 4866SOL     OW26056   1.769   2.241  14.252  0.1485  0.6804  0.6974
 4866SOL    HW126057   1.681   2.221  14.221  1.0311 -3.5492  1.0243
 4866SOL    HW226058   1.825   2.226  14.176 -0.2365  0.3025  0.4910
 4867SOL     OW26059   3.439   2.773   3.492  0.4621  0.1610 -0.4939
 4867SOL    HW126060   3.389   2.696   3.516  0.4124  0.2440 -0.3338
 4867SOL    HW226061   3.523   2.738   3.460 -0.2193 -1.9571  0.0698
 4868SOL     OW26062   3.776   1.588   2.690 -0.5873  0.9559 -0.3719
 4868SOL    HW126063   3.757   1.570   2.598  0.6656  1.2679 -0.7022
 4868SOL    HW226064   3.872   1.580   2.686 -0.4024  2.1449  1.6757
 4869SOL     OW26065   2.802   3.789   7.984 -0.2715  0.4881  0.2796
 4869SOL    HW126066   2.724   3.744   8.018 -1.5689  0.1075 -3.1564
 4869SOL    HW226067   2.864   3.718   7.998  0.1362  1.5256  3.5894
 4870SOL     OW26068   2.348   1.158   3.280  0.3505  0.4721 -0.5089
 4870SOL    HW126069   2.365   1.252   3.279  1.8479  0.2153 -0.1182
 4870SOL    HW226070   2.387   1.143   3.366  1.5115  0.6450 -1.0028
 4871SOL     OW26071   0.817   4.023   5.929  0.7932  0.4220  0.0854
 4871SOL    HW126072   0.850   3.986   6.010  0.2348 -0.2048  0.0316
 4871SOL    HW226073   0.776   4.103   5.961 -0.3440 -0.8586  1.8443
 4872SOL     OW26074   0.952   2.172   0.425  0.4611 -0.2434  0.3022
 4872SOL    HW126075   0.970   2.178   0.519  0.7044 -1.2532  0.3230
 4872SOL    HW226076   0.933   2.263   0.402 -1.4720 -0.4920  0.9235
 4873SOL     OW26077   3.523   0.576   2.206 -0.4426 -1.0160  0.0812
 4873SOL    HW126078   3.497   0.502   2.260 -0.1517 -1.0657  0.1520
 4873SOL    HW226079   3.513   0.537   2.119 -0.2512 -0.9275  0.0187
 4874SOL     OW26080   0.543   2.206   0.869  0.3719  0.1989  0.4005
 4874SOL    HW126081   0.447   2.206   0.876  0.3994  0.9318  0.7032
 4874SOL    HW226082   0.546   2.157   0.787 -0.9733  0.0927  0.4143
 4875SOL     OW26083   2.897   3.586   5.952  0.5710 -0.0194  0.5412
 4875SOL    HW126084   2.988   3.564   5.971 -0.2084  0.5293  5.1060
 4875SOL    HW226085   2.872   3.524   5.883 -0.7139  0.9127  0.1613
 4876SOL     OW26086   2.366   0.744   6.974 -0.1151  0.0716  0.0322
 4876SOL    HW126087   2.370   0.835   7.003 -0.3126  0.5874 -1.5548
 4876SOL    HW226088   2.326   0.696   7.047  2.2791  0.5431  1.6429
 4877SOL     OW26089   2.236   3.455   4.120  0.2001 -0.3276 -0.0752
 4877SOL    HW126090   2.242   3.415   4.207  0.5345 -1.9834 -0.8555
 4877SOL    HW226091   2.156   3.507   4.132  0.7562  0.2321  1.2759
 4878SOL     OW26092   3.231   3.883   4.030 -0.3149 -0.1189 -0.3731
 4878SOL    HW126093   3.151   3.935   4.024 -0.1633  0.5548  3.4597
 4878SOL    HW226094   3.267   3.896   4.118 -3.0011 -0.8441  0.8361
 4879SOL     OW26095   1.676   4.036   4.034  0.4283  0.0158  0.3510
 4879SOL    HW126096   1.584   4.007   4.037  0.6440 -0.8970 -2.4605
 4879SOL    HW226097   1.709   3.987   3.959 -1.8778  0.8270 -1.1988
 4880SOL     OW26098   2.162   4.359   8.661 -0.3822  0.6522 -0.0521
 4880SOL    HW126099   2.189   4.270   8.682 -1.1352  0.6600  0.9835
 4880SOL    HW226100   2.217   4.406   8.724 -0.2048  0.4445 -0.0566
 4881SOL     OW26101   0.513   3.082  16.505  0.1055 -0.7280  0.2396
 4881SOL    HW126102   0.521   2.997  16.548 -0.6375 -0.2248  1.3827
 4881SOL    HW226103   0.443   3.061  16.444  0.0172 -0.2039  0.1612
 4882SOL     OW26104   2.484   3.479   5.253 -0.2439  0.5533  0.0660
 4882SOL    HW126105   2.458   3.392   5.284  2.1182 -0.3467 -0.4061
 4882SOL    HW226106   2.578   3.462   5.243 -0.9959 -2.2248 -2.3478
 4883SOL     OW26107   0.528   2.738   8.321 -0.7917 -0.2448 -0.6689
 4883SOL    HW126108   0.494   2.712   8.406 -0.5460  1.0170 -0.1887
 4883SOL    HW226109   0.552   2.827   8.347  1.5206 -0.4950 -1.9737
 4884SOL     OW26110   0.762   0.127  15.046  0.5077 -0.1650  0.0624
 4884SOL    HW126111   0.803   0.188  15.107 -2.3820  0.7270  1.1365
 4884SOL    HW226112   0.763   0.045  15.095  0.3901  1.1192  2.2376
 4885SOL     OW26113   3.649   0.413   5.912 -0.3621 -0.3650  0.4986
 4885SOL    HW126114   3.668   0.435   5.821  0.8275  0.4161  0.9338
 4885SOL    HW226115   3.736   0.381   5.938 -0.3258 -1.1124 -0.5413
 4886SOL     OW26116   0.615   1.789  14.888 -0.0405  0.2842  0.2413
 4886SOL    HW126117   0.595   1.702  14.922 -0.1916 -0.8583 -2.7852
 4886SOL    HW226118   0.708   1.781  14.866  0.0905 -0.6171  1.1139
 4887SOL     OW26119   3.548   2.126  13.246  0.2874 -0.3800  0.3054
 4887SOL    HW126120   3.535   2.032  13.254  1.1710 -0.6012 -0.8220
 4887SOL    HW226121   3.469   2.150  13.295 -0.1881  1.7939 -1.5128
 4888SOL     OW26122   2.233   2.430   6.485 -0.2066 -0.3166  0.0323
 4888SOL    HW126123   2.214   2.415   6.577  3.0784 -0.0264  0.7383
 4888SOL    HW226124   2.141   2.428   6.459  0.2563 -0.7107 -1.5839
 4889SOL     OW26125   4.345   0.249   6.968  0.2532  0.0987 -0.0377
 4889SOL    HW126126   4.399   0.170   6.977  0.1443  0.1333  0.8969
 4889SOL    HW226127   4.386   0.294   6.894  2.2704 -1.8390 -0.1098
 4890SOL     OW26128   1.301   1.673   4.894 -0.3706  0.0261  0.4505
 4890SOL    HW126129   1.298   1.684   4.799  0.0518  0.2275  0.4608
 4890SOL    HW226130   1.234   1.607   4.912 -2.3627  1.9071 -0.0096
 4891SOL     OW26131   0.532   2.314   5.294 -0.5997  0.3659 -0.3026
 4891SOL    HW126132   0.472   2.306   5.368  0.0115 -2.8258 -0.1428
 4891SOL    HW226133   0.516   2.224   5.264 -2.5243  0.3575  0.7309
 4892SOL     OW26134   4.363   4.652   0.836  0.0999  0.3936  0.6177
 4892SOL    HW126135   4.383   4.592   0.764  2.6380  2.3272 -0.3018
 4892SOL    HW226136   4.378   0.003   0.783 -0.9253  1.2195  1.5631
 4893SOL     OW26137   4.351   1.920   2.312 -0.3596  0.3532  0.0624
 4893SOL    HW126138   4.424   1.862   2.332 -0.4619 -0.1793 -1.0855
 4893SOL    HW226139   4.395   1.993   2.267 -0.8622  0.1956 -0.6903
 4894SOL     OW26140   3.706   2.213  14.599  0.0626 -0.6369  0.8333
 4894SOL    HW126141   3.700   2.135  14.543 -2.6653 -0.1952  0.5145
 4894SOL    HW226142   3.702   2.275  14.526  0.6146 -0.7883  0.6672
 4895SOL     OW26143   4.360   2.783   8.297 -0.1616 -0.3541 -0.1912
 4895SOL    HW126144   4.406   2.747   8.221  0.3730 -0.2119  0.0602
 4895SOL    HW226145   4.400   2.868   8.312 -4.2418  0.9886  3.1168
 4896SOL     OW26146   2.451   0.632  13.035 -0.5822 -0.4196 -0.2137
 4896SOL    HW126147   2.476   0.679  13.114 -1.0737 -2.0683  0.9343
 4896SOL    HW226148   2.524   0.647  12.975  0.1625 -2.3340  0.2053
 4897SOL     OW26149   3.281   0.536   1.497  0.0723 -0.2351  0.2112
 4897SOL    HW126150   3.287   0.478   1.572 -0.8448 -0.8428 -0.1857
 4897SOL    HW226151   3.333   0.497   1.427 -2.1109 -0.7252 -1.1513
 4898SOL     OW26152   0.304   0.665   4.144  0.3618  0.4639  0.0230
 4898SOL    HW126153   0.313   0.732   4.075 -1.6305  0.5642 -0.1405
 4898SOL    HW226154   0.219   0.629   4.117  0.0719  0.9673  0.2582
 4899SOL     OW26155   4.131   1.412   6.936 -0.1258  0.3979  0.0423
 4899SOL    HW126156   4.166   1.498   6.959  0.5126 -0.2322  1.4558
 4899SOL    HW226157   4.073   1.428   6.862  1.5225 -0.1003 -1.3586
 4900SOL     OW26158   4.258   0.597   0.854  0.4539 -0.3435  0.3056
 4900SOL    HW126159   4.264   0.686   0.888  0.8066 -0.7402  1.2614
 4900SOL    HW226160   4.321   0.600   0.782  0.3645  2.1336  0.3369
 4901SOL     OW26161   1.104   1.927  10.072 -0.3178 -0.9262 -0.0065
 4901SOL    HW126162   1.120   1.872   9.995  0.1719  0.8460 -1.1725
 4901SOL    HW226163   1.158   1.877  10.133  1.5103  0.8894 -0.1395
 4902SOL     OW26164   3.084   1.494   1.326 -0.8043  0.9320  0.3636
 4902SOL    HW126165   3.086   1.529   1.238 -0.5204 -3.0030 -1.2090
 4902SOL    HW226166   3.165   1.515   1.372 -0.5227  0.8832 -0.1162
 4903SOL     OW26167   2.143   0.220   2.415 -0.1308  0.2329 -0.4670
 4903SOL    HW126168   2.127   0.141   2.467  1.6323 -0.0946 -0.4374
 4903SOL    HW226169   2.142   0.188   2.325 -0.1619  1.1212 -0.7851
 4904SOL     OW26170   0.966   2.088   4.591 -0.1490 -0.5268 -0.3405
 4904SOL    HW126171   0.908   2.125   4.657 -0.7838 -0.2384 -1.0626
 4904SOL    HW226172   0.981   2.163   4.532 -0.4614  0.8467  1.3354
 4905SOL     OW26173   3.899   1.839  14.804  0.4388 -0.0418  0.3165
 4905SOL    HW126174   3.892   1.858  14.710  0.8250 -3.2276 -0.3796
 4905SOL    HW226175   3.944   1.917  14.835 -0.4932 -0.8222  3.5997
 4906SOL     OW26176   2.846   3.123   8.771  0.5283  0.5167  0.9031
 4906SOL    HW126177   2.824   3.031   8.760  3.5053 -0.1204  0.2220
 4906SOL    HW226178   2.782   3.157   8.833  0.0925  1.9886 -0.3590
 4907SOL     OW26179   3.920   1.564   9.649 -0.0013  0.2806  0.1724
 4907SOL    HW126180   3.973   1.607   9.716 -0.0553  0.1448  0.3000
 4907SOL    HW226181   3.974   1.571   9.570  0.8203  2.4690  0.9199
 4908SOL     OW26182   3.583   0.844   5.291 -0.0977  0.0295 -0.5988
 4908SOL    HW126183   3.492   0.860   5.315 -0.4153 -1.1681 -0.9658
 4908SOL    HW226184   3.607   0.811   5.377  1.9467  3.2498  0.0206
 4909SOL     OW26185   4.702   2.306   4.821 -0.9735 -0.2577 -0.4561
 4909SOL    HW126186   0.026   2.232   4.787  0.5763  0.9779 -0.8278
 4909SOL    HW226187   0.041   2.375   4.818 -0.3670 -0.8322 -0.5574
 4910SOL     OW26188   4.456   0.827   7.120  0.1103  0.3715 -0.0530
 4910SOL    HW126189   4.445   0.796   7.030  2.9666 -3.2188  0.8197
 4910SOL    HW226190   4.381   0.796   7.171  0.7171  0.4474  0.8945
 4911SOL     OW26191   2.184   2.168   6.828 -0.0027  0.4016  0.3337
 4911SOL    HW126192   2.247   2.097   6.818 -0.5174  0.3073 -2.1151
 4911SOL    HW226193   2.160   2.150   6.919 -1.9823  0.1664 -0.2434
 4912SOL     OW26194   1.726   0.445  13.322  0.0464 -0.5970  0.0200
 4912SOL    HW126195   1.779   0.488  13.389 -1.9586  0.9925  0.6090
 4912SOL    HW226196   1.658   0.402  13.374 -0.6021  0.1235 -0.2273
 4913SOL     OW26197   4.176   1.274   7.375  0.6361 -0.6040 -0.6311
 4913SOL    HW126198   4.259   1.296   7.332 -0.0719 -0.7105 -2.0483
 4913SOL    HW226199   4.196   1.289   7.468  0.2867  0.4570 -0.7326
 4914SOL     OW26200   1.576   3.114   5.097 -0.3373 -0.4711  0.1836
 4914SOL    HW126201   1.589   3.021   5.113  0.5751 -0.1419  1.3694
 4914SOL    HW226202   1.631   3.136   5.173 -0.7808  2.0665 -0.2310
 4915SOL     OW26203   0.947   4.441   3.108 -0.1170  0.3971  0.2447
 4915SOL    HW126204   0.855   4.415   3.112  0.4038 -1.7183 -0.8723
 4915SOL    HW226205   0.980   4.361   3.065 -1.4008 -0.4731  0.8642
 4916SOL     OW26206   1.563   3.089  12.237 -0.4273 -0.0430  0.2690
 4916SOL    HW126207   1.477   3.059  12.266 -0.6960 -0.9023 -1.4140
 4916SOL    HW226208   1.596   3.135  12.315 -0.3167 -2.1883  1.4812
 4917SOL     OW26209   2.356   0.789   5.039 -0.3446  0.6329 -0.1966
 4917SOL    HW126210   2.264   0.778   5.016  0.1126 -0.6120 -1.4366
 4917SOL    HW226211   2.361   0.777   5.134 -2.3653  0.3581 -0.1295
 4918SOL     OW26212   1.669   0.809  15.449  0.4240  0.0567 -0.1449
 4918SOL    HW126213   1.589   0.773  15.409 -0.1329 -0.0814  1.1079
 4918SOL    HW226214   1.712   0.839  15.368  1.9330 -0.0995  0.6128
 4919SOL     OW26215   1.861   3.864   8.225  0.0949  0.5107 -0.0222
 4919SOL    HW126216   1.843   3.774   8.253 -0.9643  0.6662 -0.2053
 4919SOL    HW226217   1.886   3.896   8.312  2.8575  0.7902 -0.9003
 4920SOL     OW26218   2.003   1.394   7.010  0.0540  0.3968 -1.2710
 4920SOL    HW126219   2.069   1.453   6.972  0.5871 -0.3233 -1.4547
 4920SOL    HW226220   1.944   1.377   6.936 -2.3001 -0.4762  0.8066
 4921SOL     OW26221   0.023   1.842  15.140  0.3520 -0.3493  0.2696
 4921SOL    HW126222   0.058   1.773  15.084 -1.4716 -0.1249 -1.1370
 4921SOL    HW226223   0.052   1.926  15.105 -1.5008  0.5531  0.8848
 4922SOL     OW26224   3.322   0.278   4.696 -0.3297 -0.2804 -0.1248
 4922SOL    HW126225   3.367   0.250   4.775 -1.9717 -0.1720  0.8532
 4922SOL    HW226226   3.231   0.281   4.727 -1.2387  1.2811 -2.9287
 4923SOL     OW26227   1.364   2.730   0.413  0.0457  0.3646 -0.1967
 4923SOL    HW126228   1.363   2.698   0.323 -2.6746  1.0046 -0.4080
 4923SOL    HW226229   1.325   2.816   0.393 -1.3554 -0.9391 -3.0691
 4924SOL     OW26230   3.861   2.008   3.859 -0.3932  0.1128 -0.2662
 4924SOL    HW126231   3.938   1.951   3.854 -0.8162 -0.5118  0.3872
 4924SOL    HW226232   3.815   1.969   3.784 -0.6919 -0.7794  0.3832
 4925SOL     OW26233   0.704   1.458   1.716  0.0788  0.5272 -0.1548
 4925SOL    HW126234   0.688   1.528   1.653  0.0352  1.0761  0.4621
 4925SOL    HW226235   0.781   1.487   1.765  0.7457 -2.2469  0.4005
 4926SOL     OW26236   2.822   3.951   7.747  0.0260 -0.4818  1.0715
 4926SOL    HW126237   2.823   3.896   7.825  1.7298 -1.3433  0.4348
 4926SOL    HW226238   2.761   4.024   7.759 -0.0890 -0.5471  0.8852
 4927SOL     OW26239   1.275   3.872  11.681 -0.1051  0.0120 -0.5774
 4927SOL    HW126240   1.307   3.853  11.769 -1.5415  0.1927 -0.0065
 4927SOL    HW226241   1.247   3.790  11.640 -0.6002  0.5705 -1.3589
 4928SOL     OW26242   0.738   3.161   3.102 -0.3653 -0.3440 -0.3226
 4928SOL    HW126243   0.730   3.220   3.027 -0.2211 -1.1157 -0.9350
 4928SOL    HW226244   0.713   3.074   3.071 -2.2382 -0.5650  1.7545
 4929SOL     OW26245   3.887   0.532   2.367 -0.7674 -0.0941  0.4622
 4929SOL    HW126246   3.923   0.581   2.440  2.1863  1.5689 -2.1266
 4929SOL    HW226247   3.854   0.453   2.411 -0.2948 -0.6682 -0.2250
 4930SOL     OW26248   2.512   1.227   1.207 -0.6062 -0.4747 -0.2535
 4930SOL    HW126249   2.426   1.243   1.248 -0.6325 -1.8514  0.2323
 4930SOL    HW226250   2.571   1.219   1.282 -1.2848  0.9049  0.4423
 4931SOL     OW26251   4.687   0.769   7.258  0.2334 -0.0453 -0.2833
 4931SOL    HW126252   4.606   0.772   7.207  0.1595 -0.5752 -0.1972
 4931SOL    HW226253   4.652   0.795   7.344 -1.6008  1.1464 -1.3763
 4932SOL     OW26254   3.530   1.788   1.453  0.0791 -0.6074 -0.7136
 4932SOL    HW126255   3.576   1.814   1.533  0.3031 -3.3714  0.0496
 4932SOL    HW226256   3.605   1.807   1.397 -1.0620 -0.3904 -2.1464
 4933SOL     OW26257   4.169   4.450   4.529  0.9850 -0.0855 -0.2498
 4933SOL    HW126258   4.228   4.508   4.482 -0.2020  0.3815 -1.1608
 4933SOL    HW226259   4.216   4.439   4.612 -0.4134  0.8945  0.6560
 4934SOL     OW26260   2.872   2.212   7.326 -0.7128 -0.2333  0.3861
 4934SOL    HW126261   2.826   2.163   7.395 -0.0919 -2.9500 -1.1326
 4934SOL    HW226262   2.964   2.213   7.352 -0.4964 -1.4916 -0.3431
 4935SOL     OW26263   2.556   0.103   7.094  0.3904 -0.5420  0.0143
 4935SOL    HW126264   2.634   0.100   7.039  0.4271 -0.8402  0.0805
 4935SOL    HW226265   2.520   0.189   7.072  0.2509 -0.2417  1.4098
 4936SOL     OW26266   4.144   0.701   5.841  0.1935 -0.3069 -0.1236
 4936SOL    HW126267   4.217   0.692   5.903  0.1690  3.3292  0.4548
 4936SOL    HW226268   4.183   0.650   5.771 -0.6600  0.5645 -1.2295
 4937SOL     OW26269   0.012   3.168   3.601 -0.0129  0.0922  0.2270
 4937SOL    HW126270   4.644   3.155   3.608 -0.0677  1.0615  1.2948
 4937SOL    HW226271   0.030   3.210   3.685  3.5033  0.4080 -0.6868
 4938SOL     OW26272   4.479   0.253   5.207 -0.9488 -0.0755  0.0452
 4938SOL    HW126273   4.472   0.345   5.181  0.6899  0.8067  2.7991
 4938SOL    HW226274   4.569   0.243   5.175 -0.3631  5.3371 -0.0071
 4939SOL     OW26275   0.874   0.774   1.667  0.2022  0.8436  0.2410
 4939SOL    HW126276   0.903   0.744   1.580  1.0924 -0.6444  1.0456
 4939SOL    HW226277   0.818   0.849   1.648  0.5224  1.7575  2.8773
 4940SOL     OW26278   3.161   2.479   8.104  0.0332 -0.2560 -0.0279
 4940SOL    HW126279   3.208   2.410   8.058  0.2679 -1.6870  2.3214
 4940SOL    HW226280   3.180   2.552   8.045 -0.7674 -1.4079 -1.6776
 4941SOL     OW26281   1.468   2.639   4.294 -0.3681  0.1672 -0.2132
 4941SOL    HW126282   1.496   2.730   4.298  0.3700 -0.0331 -0.8147
 4941SOL    HW226283   1.373   2.647   4.284 -0.4439 -2.5530 -1.5715
 4942SOL     OW26284   2.847   0.711   9.955  1.0687  0.3738 -0.7331
 4942SOL    HW126285   2.756   0.707   9.986  0.9481  0.5456 -1.0710
 4942SOL    HW226286   2.878   0.796   9.985 -0.1935  0.5239  0.1573
 4943SOL     OW26287   1.227   4.170   2.234  0.0645 -0.1898 -0.1760
 4943SOL    HW126288   1.153   4.176   2.294 -0.7150 -0.1977 -1.1423
 4943SOL    HW226289   1.199   4.095   2.181  0.5591 -1.9707  2.0966
 4944SOL     OW26290   4.677   0.857   4.523  0.3679  1.0274 -0.2425
 4944SOL    HW126291   4.624   0.840   4.446 -0.9227 -1.1937  1.1105
 4944SOL    HW226292   0.032   0.823   4.488  0.4291 -0.5559  1.4204
 4945SOL     OW26293   3.584   1.383   7.853  0.1841 -0.4214 -0.3524
 4945SOL    HW126294   3.566   1.445   7.782 -0.9712  0.0797  0.3764
 4945SOL    HW226295   3.679   1.391   7.858  0.1859  0.1152 -1.1505
 4946SOL     OW26296   3.170   2.636   9.701 -0.3884  0.2755 -0.1431
 4946SOL    HW126297   3.146   2.633   9.609  1.2303  2.6939 -0.6526
 4946SOL    HW226298   3.221   2.555   9.705 -0.7937  0.1093  1.5503
 4947SOL     OW26299   3.571   0.019   2.047 -0.6315  0.1668 -0.4924
 4947SOL    HW126300   3.592   4.665   2.001  0.6602  0.3573 -0.2577
 4947SOL    HW226301   3.520   4.724   2.125 -0.9025  0.2696 -0.6403
 4948SOL     OW26302   1.598   0.392   5.081 -0.3465  0.3642 -0.0069
 4948SOL    HW126303   1.680   0.376   5.034 -0.5268 -1.7318  0.4382
 4948SOL    HW226304   1.574   0.471   5.031  0.3092  1.5017  1.5056
 4949SOL     OW26305   0.429   0.771   0.123 -0.0039 -0.0077 -0.5048
 4949SOL    HW126306   0.456   0.681   0.141 -2.1262 -0.7881 -1.1891
 4949SOL    HW226307   0.491   0.796   0.055  0.2739  1.6004  0.3433
 4950SOL     OW26308   4.253   2.091   7.982  0.3008 -0.0711 -0.0290
 4950SOL    HW126309   4.178   2.143   8.010  0.4624  1.2377 -2.0535
 4950SOL    HW226310   4.267   2.128   7.895  0.1365  0.5121  0.1928
 4951SOL     OW26311   0.258   2.020   4.905 -0.1789 -0.1442 -0.3918
 4951SOL    HW126312   0.353   2.014   4.911 -0.3503 -0.1103  2.1963
 4951SOL    HW226313   0.250   2.074   4.984  0.4572 -0.0888 -0.3660
 4952SOL     OW26314   0.609   1.869   3.043  0.0692 -0.1230 -0.0825
 4952SOL    HW126315   0.661   1.943   3.077  2.3642 -0.4723 -2.9019
 4952SOL    HW226316   0.553   1.857   3.120 -0.1509 -3.0710 -0.7067
 4953SOL     OW26317   1.893   0.740   4.838 -0.8351  0.4260  0.0458
 4953SOL    HW126318   1.799   0.745   4.821 -0.9477 -2.0915 -0.1665
 4953SOL    HW226319   1.932   0.824   4.816 -0.0680  0.5631  1.9512
 4954SOL     OW26320   0.473   0.990   8.696 -0.5747  0.3291  0.4439
 4954SOL    HW126321   0.554   0.955   8.659  0.7812  1.5180  2.2841
 4954SOL    HW226322   0.503   1.028   8.779  0.3233  0.1733  0.1896
 4955SOL     OW26323   1.371   1.268   3.727  0.2049 -0.0855 -0.1585
 4955SOL    HW126324   1.409   1.278   3.640 -0.7559 -1.4366 -0.7110
 4955SOL    HW226325   1.401   1.182   3.757 -0.1478 -0.0989  0.1540
 4956SOL     OW26326   3.702   1.338   3.332  0.3100  0.9232 -0.7183
 4956SOL    HW126327   3.682   1.404   3.398 -0.6980 -1.5359  1.4348
 4956SOL    HW226328   3.690   1.384   3.249 -1.5240  0.9297 -0.4423
 4957SOL     OW26329   3.282   3.818   0.361 -0.5733 -0.2946  0.1147
 4957SOL    HW126330   3.317   3.844   0.446 -0.5891  0.9835 -0.2675
 4957SOL    HW226331   3.316   3.889   0.307  1.2148 -0.6527  0.7885
 4958SOL     OW26332   1.453   4.156   8.738 -0.0961  0.1522 -0.0617
 4958SOL    HW126333   1.389   4.111   8.682  1.1183 -0.5360 -0.8975
 4958SOL    HW226334   1.427   4.247   8.726 -4.5343 -0.8523  1.9255
 4959SOL     OW26335   1.743   0.133   7.351 -0.0104 -0.1673 -0.1594
 4959SOL    HW126336   1.749   0.075   7.427  0.9843  2.2411  1.6011
 4959SOL    HW226337   1.836   0.150   7.335 -0.2514  0.2639 -1.0613
 4960SOL     OW26338   0.859   3.264   8.250  0.0609  0.0086 -0.3452
 4960SOL    HW126339   0.899   3.349   8.228 -2.7512  1.7276  1.2128
 4960SOL    HW226340   0.932   3.210   8.282 -1.6287 -1.5270  0.9294
 4961SOL     OW26341   1.754   2.161   3.603 -0.4448 -0.3563  0.0661
 4961SOL    HW126342   1.717   2.140   3.517  1.3952  2.6843 -1.5031
 4961SOL    HW226343   1.831   2.104   3.604  0.1502  0.4668  0.8285
 4962SOL     OW26344   4.045   3.394   2.660  0.2823 -0.3284 -0.0062
 4962SOL    HW126345   3.991   3.468   2.691  0.7309  0.6268 -1.5152
 4962SOL    HW226346   4.054   3.335   2.735 -1.4693 -1.7753 -0.9442
 4963SOL     OW26347   2.804   1.349  10.698  0.1732 -0.2911 -0.1917
 4963SOL    HW126348   2.850   1.410  10.756  0.3975 -0.6109 -0.0341
 4963SOL    HW226349   2.755   1.300  10.765 -0.9419 -0.9011 -1.4473
 4964SOL     OW26350   0.908   1.738   4.630 -0.5910  0.6977  0.0973
 4964SOL    HW126351   0.835   1.693   4.671 -0.7486  0.4761 -0.4328
 4964SOL    HW226352   0.965   1.738   4.707 -0.3107 -0.1198 -0.1170
 4965SOL     OW26353   3.483   1.073   7.726  0.3390  0.6039  0.4100
 4965SOL    HW126354   3.483   0.978   7.727 -1.6374  0.5918 -0.4438
 4965SOL    HW226355   3.561   1.093   7.778  0.7000 -1.7748  0.7566
 4966SOL     OW26356   4.163   1.969   8.571 -0.9126 -0.8071 -0.7932
 4966SOL    HW126357   4.068   1.967   8.581 -1.1484  1.8289 -2.3384
 4966SOL    HW226358   4.164   1.921   8.488 -0.1001 -0.2796 -1.0865
 4967SOL     OW26359   1.392   0.258   3.194 -0.4918 -0.1317 -0.1528
 4967SOL    HW126360   1.420   0.166   3.190 -0.7214 -0.1608 -1.0083
 4967SOL    HW226361   1.345   0.275   3.113 -0.1172  1.3547 -0.0506
 4968SOL     OW26362   1.765   3.094   5.739  0.3571 -0.2246  0.3120
 4968SOL    HW126363   1.733   3.065   5.654  0.2782  0.1211  0.2245
 4968SOL    HW226364   1.847   3.136   5.714  0.4665 -0.5850  0.0779
 4969SOL     OW26365   4.366   0.819   3.496 -0.4099 -0.0227 -0.5480
 4969SOL    HW126366   4.315   0.871   3.434  0.5140  2.2424  0.6322
 4969SOL    HW226367   4.375   0.886   3.563  0.1679 -0.3969 -0.2475
 4970SOL     OW26368   0.956   0.482   2.085 -0.3025  0.2852  0.7390
 4970SOL    HW126369   0.983   0.466   1.995 -1.4711 -1.4984  0.7044
 4970SOL    HW226370   1.022   0.425   2.123  0.1600  1.1177  1.1885
 4971SOL     OW26371   3.153   3.441   1.211  0.7146 -0.1639  0.3094
 4971SOL    HW126372   3.071   3.392   1.212 -1.0088  2.6890 -0.1136
 4971SOL    HW226373   3.213   3.367   1.208  0.7378 -0.0508 -1.9570
 4972SOL     OW26374   1.057   0.552   1.255 -0.2587  0.4682 -0.0674
 4972SOL    HW126375   1.132   0.563   1.197 -0.6509  0.7643 -0.5143
 4972SOL    HW226376   1.093   0.492   1.321 -0.3864 -0.3600 -0.7607
 4973SOL     OW26377   0.554   3.355   2.186  0.2092  0.0689  0.4170
 4973SOL    HW126378   0.635   3.392   2.151 -0.0344  0.1892 -0.0016
 4973SOL    HW226379   0.494   3.394   2.123  0.9792  0.0082 -0.3590
 4974SOL     OW26380   2.116   1.519   7.596  0.4096 -0.2800  0.0206
 4974SOL    HW126381   2.025   1.508   7.568  0.6599 -2.3893  0.0219
 4974SOL    HW226382   2.139   1.602   7.554 -1.8912  1.2368  1.7325
 4975SOL     OW26383   4.409   4.334   1.518  0.5111  0.3186 -0.3217
 4975SOL    HW126384   4.430   4.427   1.527  0.5347  0.2694  0.1352
 4975SOL    HW226385   4.416   4.314   1.424 -2.0397  0.6485 -0.5891
 4976SOL     OW26386   0.760   2.444   6.502  0.1177 -0.6581  0.1106
 4976SOL    HW126387   0.688   2.398   6.548 -0.2221 -0.4286 -0.1937
 4976SOL    HW226388   0.719   2.481   6.424  1.3761 -1.4983 -0.9483
 4977SOL     OW26389   2.912   2.799   8.527 -0.1234 -0.2887  0.2871
 4977SOL    HW126390   2.848   2.733   8.554 -0.1177 -0.9326 -1.2350
 4977SOL    HW226391   2.983   2.743   8.497  0.8461  0.2079  1.6894
 4978SOL     OW26392   4.120   1.370  14.131  0.2759  0.4672  0.3717
 4978SOL    HW126393   4.067   1.387  14.053  1.6506  0.0905 -0.6523
 4978SOL    HW226394   4.063   1.326  14.195  0.5248 -0.8200 -0.2889
 4979SOL     OW26395   0.051   2.704  13.097 -0.3997 -0.3063 -0.4513
 4979SOL    HW126396   0.121   2.711  13.162 -1.8586 -0.9596  1.1656
 4979SOL    HW226397   4.714   2.657  13.150  1.7138 -1.6374  0.9125
 4980SOL     OW26398   0.483   4.000   5.115  0.3681 -0.1293  0.3150
 4980SOL    HW126399   0.473   3.969   5.025  0.7721 -2.3531  1.0192
 4980SOL    HW226400   0.575   3.974   5.119  0.0981 -1.3107 -1.2414
 4981SOL     OW26401   4.315   1.409  14.428  0.7606  0.0379 -0.4370
 4981SOL    HW126402   4.276   1.404  14.341  0.9189  0.2203 -0.5211
 4981SOL    HW226403   4.302   1.500  14.456  1.7184  0.1249 -0.2777
 4982SOL     OW26404   3.165   4.709   5.000 -0.3244 -0.5810  0.4850
 4982SOL    HW126405   3.234   4.710   4.934 -0.9869  0.3552 -0.1871
 4982SOL    HW226406   3.210   4.678   5.079  1.3051  0.6614  0.0274
 4983SOL     OW26407   0.647   1.772   0.823 -0.0646  0.1367  0.0388
 4983SOL    HW126408   0.683   1.836   0.762 -1.7881  1.7301  0.7128
 4983SOL    HW226409   0.703   1.697   0.806 -0.7981 -1.2074  3.5006
 4984SOL     OW26410   0.778   0.384   7.638 -0.1234  0.3144 -0.2573
 4984SOL    HW126411   0.792   0.398   7.732  2.3089  0.3131 -0.6346
 4984SOL    HW226412   0.702   0.437   7.613  0.3088  1.5081  0.9949
 4985SOL     OW26413   1.498   0.424   5.335 -0.4681 -0.2865  0.0505
 4985SOL    HW126414   1.534   0.411   5.247  0.4290 -0.4537  0.4389
 4985SOL    HW226415   1.424   0.366   5.321 -0.5342 -0.3133  0.5305
 4986SOL     OW26416   0.617   4.194  12.200 -0.0072 -0.5741 -0.1948
 4986SOL    HW126417   0.663   4.121  12.241 -0.6538 -0.3532  0.9210
 4986SOL    HW226418   0.607   4.146  12.117 -0.9671 -0.5352 -0.1052
 4987SOL     OW26419   2.207   4.550   3.117  0.2946  0.3709 -0.2423
 4987SOL    HW126420   2.178   4.546   3.026 -0.1944 -1.4131 -0.0172
 4987SOL    HW226421   2.145   4.613   3.154  0.9028  0.2501  0.9978
 4988SOL     OW26422   4.145   2.144   4.844 -0.2125  0.2726 -0.4363
 4988SOL    HW126423   4.103   2.201   4.780  2.0447  1.9975 -0.3511
 4988SOL    HW226424   4.225   2.118   4.799  0.0381  0.4260 -0.0855
 4989SOL     OW26425   3.790   4.280  16.007 -0.1862 -0.0102 -0.2758
 4989SOL    HW126426   3.783   4.329  16.089 -0.0978  2.2739 -1.6453
 4989SOL    HW226427   3.884   4.275  15.989  0.3022 -0.6525  2.4216
 4990SOL     OW26428   4.461   0.225   2.939 -0.1774  0.8547  0.0818
 4990SOL    HW126429   4.552   0.236   2.910 -0.5474 -1.0671 -1.8409
 4990SOL    HW226430   4.416   0.251   2.859  0.3301 -3.3451 -1.5849
 4991SOL     OW26431   0.511   2.848   6.757 -0.2335 -0.0148  0.3151
 4991SOL    HW126432   0.476   2.879   6.674 -0.2577 -1.4056 -0.1916
 4991SOL    HW226433   0.591   2.809   6.724 -0.3099  2.2864 -2.5574
 4992SOL     OW26434   1.825   1.334   1.758  0.2976  0.3499  0.0070
 4992SOL    HW126435   1.769   1.263   1.726 -0.5944  0.7400  0.7028
 4992SOL    HW226436   1.836   1.390   1.680  0.5965  0.3536  0.0528
 4993SOL     OW26437   3.137   0.726  16.240 -0.4246  0.3831  0.2287
 4993SOL    HW126438   3.082   0.653  16.269  1.6404 -1.6313 -0.9241
 4993SOL    HW226439   3.223   0.690  16.217 -0.5643 -0.6346  1.2989
 4994SOL     OW26440   3.335   0.506   8.217 -0.2019 -0.4508 -0.2222
 4994SOL    HW126441   3.416   0.549   8.193  0.7151 -2.0506 -0.0045
 4994SOL    HW226442   3.360   0.466   8.300 -0.3445  0.2749  0.1668
 4995SOL     OW26443   1.767   0.952   7.060 -0.3920 -0.3306 -0.1909
 4995SOL    HW126444   1.850   0.998   7.072 -1.0187  0.5529  0.8009
 4995SOL    HW226445   1.712   0.974   7.135 -1.3438  3.5573 -2.0467
 4996SOL     OW26446   3.061   1.020   3.769 -0.2335  0.0527  0.0730
 4996SOL    HW126447   3.044   0.978   3.684 -0.8886 -0.6808  0.5744
 4996SOL    HW226448   3.156   1.029   3.757  0.0558 -1.8806  1.0176
 4997SOL     OW26449   4.210   4.105   7.709 -0.0267  0.1800  0.3069
 4997SOL    HW126450   4.206   4.039   7.778 -0.4052  0.3013  0.4005
 4997SOL    HW226451   4.128   4.150   7.726 -1.2265 -1.9739  0.1826
 4998SOL     OW26452   3.141   1.469  12.237 -0.0232  0.3947  0.3368
 4998SOL    HW126453   3.158   1.446  12.146 -0.2996  0.8194  0.1729
 4998SOL    HW226454   3.213   1.528  12.261  0.7556 -0.4557  0.0465
 4999SOL     OW26455   4.080   0.025   7.354 -0.1667  1.2150  0.0912
 4999SOL    HW126456   4.168   4.726   7.383  0.0096  0.2898 -1.2827
 4999SOL    HW226457   4.081   0.004   7.261 -1.8418 -0.4884  0.4683
 5000SOL     OW26458   0.166   4.044  14.469  0.5687 -0.1321 -0.3405
 5000SOL    HW126459   0.173   3.965  14.416 -1.2434  0.0702 -0.8982
 5000SOL    HW226460   0.110   4.005  14.536  1.1553 -0.8508 -0.2757
 5001SOL     OW26461   3.359   4.716  10.792 -0.1023 -0.0123 -0.2807
 5001SOL    HW126462   3.362   0.076  10.752 -1.6879  0.2529  0.1747
 5001SOL    HW226463   3.324   4.678  10.712 -0.9555  0.6454 -0.2250
 5002SOL     OW26464   2.212   3.690   2.275  0.2242 -0.0747 -0.1254
 5002SOL    HW126465   2.221   3.785   2.285 -0.5369 -0.0187  0.0739
 5002SOL    HW226466   2.255   3.665   2.356  0.8353  0.3093 -0.3308
 5003SOL     OW26467   2.190   2.228   2.829 -0.3015  0.1417  0.4349
 5003SOL    HW126468   2.173   2.145   2.873 -0.5532 -0.1926 -0.3019
 5003SOL    HW226469   2.103   2.257   2.804 -0.2262  1.5113  1.7863
 5004SOL     OW26470   4.464   3.070  11.634  0.2592 -0.7222  0.6372
 5004SOL    HW126471   4.407   3.045  11.706  0.0264  0.2198  0.7851
 5004SOL    HW226472   4.445   2.997  11.576  0.3254  0.6864 -1.1829
 5005SOL     OW26473   1.196   2.933  12.778 -0.0565 -0.1918  0.0623
 5005SOL    HW126474   1.221   3.024  12.762 -0.4366 -0.3527 -1.4133
 5005SOL    HW226475   1.209   2.934  12.873 -0.1380  0.7430  0.0693
 5006SOL     OW26476   2.793   2.681   8.168  0.0300 -0.0196  0.2498
 5006SOL    HW126477   2.702   2.683   8.141  0.8443  1.8109 -2.3815
 5006SOL    HW226478   2.796   2.630   8.249  0.2684 -0.5901 -0.1151
 5007SOL     OW26479   2.225   1.072   5.432 -0.1055 -0.3356 -0.1028
 5007SOL    HW126480   2.238   1.011   5.359  2.2887  0.0872 -0.0481
 5007SOL    HW226481   2.223   1.008   5.503 -1.2734 -1.1985 -0.9125
 5008SOL     OW26482   4.012   1.878   4.469  0.5081  0.3388 -0.1305
 5008SOL    HW126483   3.969   1.948   4.520 -1.7813 -0.4089 -1.0274
 5008SOL    HW226484   4.104   1.905   4.465  1.0698 -1.6340 -0.3107
 5009SOL     OW26485   4.589   0.675  11.325 -0.0506 -0.1889 -0.0195
 5009SOL    HW126486   4.678   0.706  11.311  0.0171  0.2495  1.3842
 5009SOL    HW226487   4.570   0.717  11.409 -0.6431  0.0819 -0.2858
 5010SOL     OW26488   1.928   3.024  17.582 -0.2402  0.1512  0.1556
 5010SOL    HW126489   1.906   3.023  17.489 -1.9958 -0.6820  0.5633
 5010SOL    HW226490   2.023   3.032  17.582 -0.0601 -1.8959  3.2188
 5011SOL     OW26491   2.131   3.504   0.075 -0.2115 -0.0842 -0.0831
 5011SOL    HW126492   2.101   3.452   0.150 -1.7317  3.0092  1.4724
 5011SOL    HW226493   2.170   3.582   0.116  0.1700  0.4635 -1.4906
 5012SOL     OW26494   2.410   3.926   3.777  0.3390 -0.0370  0.0402
 5012SOL    HW126495   2.420   3.988   3.849  2.2785 -1.0494  0.6433
 5012SOL    HW226496   2.440   3.981   3.705 -0.5285  1.3426  0.7352
 5013SOL     OW26497   2.954   2.798   7.345 -0.9421  0.5505  0.0396
 5013SOL    HW126498   3.014   2.834   7.279  3.1343  1.5828  4.2722
 5013SOL    HW226499   3.006   2.791   7.425 -1.7735 -0.9203  0.4408
 5014SOL     OW26500   2.769   1.099  10.840 -0.1593  0.1066 -0.0181
 5014SOL    HW126501   2.693   1.142  10.880  0.5059  0.2185  1.1525
 5014SOL    HW226502   2.738   1.012  10.866  2.6502 -1.4652 -1.9099
 5015SOL     OW26503   4.207   2.979   4.546 -0.4074 -0.1571 -0.3253
 5015SOL    HW126504   4.132   2.958   4.490 -0.0852  0.0414 -0.8236
 5015SOL    HW226505   4.228   3.066   4.511  1.1565 -0.4893 -0.1991
 5016SOL     OW26506   1.809   3.728  12.488  0.4162  0.5207  0.4011
 5016SOL    HW126507   1.831   3.808  12.442  0.4682 -0.5010 -1.3416
 5016SOL    HW226508   1.854   3.738  12.572 -1.6866 -0.8854  1.6832
 5017SOL     OW26509   2.449   2.737   5.820 -0.6551 -0.3666 -0.0201
 5017SOL    HW126510   2.370   2.690   5.849 -0.5773 -1.0611 -0.9302
 5017SOL    HW226511   2.412   2.820   5.790  2.7321  0.6135 -1.4469
 5018SOL     OW26512   3.408   2.866   8.416 -0.0652 -0.3046 -0.1488
 5018SOL    HW126513   3.346   2.873   8.343  1.3801  0.4347 -1.3137
 5018SOL    HW226514   3.367   2.793   8.462  1.0709 -1.5706 -1.1486
 5019SOL     OW26515   2.399   3.518   8.016  0.1468  0.0637 -0.0745
 5019SOL    HW126516   2.416   3.568   7.936 -2.0832 -0.5188 -0.9214
 5019SOL    HW226517   2.345   3.570   8.076 -0.8055 -1.9277  0.7932
 5020SOL     OW26518   2.402   2.846   2.617 -0.3140 -0.1757  0.4318
 5020SOL    HW126519   2.458   2.794   2.675  1.7124  0.4849 -0.9329
 5020SOL    HW226520   2.325   2.862   2.671 -1.3433 -1.5619 -0.6436
 5021SOL     OW26521   3.393   0.322  15.635  0.3580  0.0373 -0.5155
 5021SOL    HW126522   3.299   0.304  15.639  0.2868  0.1582 -1.8026
 5021SOL    HW226523   3.418   0.230  15.626  0.0180 -0.0528 -0.5452
 5022SOL     OW26524   1.655   0.815   7.787  0.2569  0.9755  0.5250
 5022SOL    HW126525   1.715   0.888   7.769 -0.0656  0.9613 -0.6241
 5022SOL    HW226526   1.713   0.763   7.843 -0.1095  0.0057  0.0008
 5023SOL     OW26527   3.806   3.529   5.378 -0.0516 -0.4395  0.4763
 5023SOL    HW126528   3.738   3.470   5.345 -0.4331 -0.0360  0.5393
 5023SOL    HW226529   3.843   3.481   5.452 -0.2013  0.5338  1.1848
 5024SOL     OW26530   2.912   2.929   4.801 -0.4997 -0.4862  0.0850
 5024SOL    HW126531   2.825   2.889   4.791 -0.9989  0.1227  1.8503
 5024SOL    HW226532   2.930   2.974   4.718  0.6158 -0.3398  0.4183
 5025SOL     OW26533   4.587   3.784   3.950 -0.9260 -0.4023 -0.5022
 5025SOL    HW126534   4.550   3.741   4.026  0.1707  1.8098  1.2825
 5025SOL    HW226535   4.604   3.705   3.898 -3.0012 -1.0558 -0.1740
 5026SOL     OW26536   4.585   2.484   5.604 -0.7582  0.1290 -0.1967
 5026SOL    HW126537   4.637   2.458   5.680 -0.2475 -1.0237 -0.9413
 5026SOL    HW226538   4.611   2.576   5.594 -1.4319  0.1561 -1.6930
 5027SOL     OW26539   2.755   3.410  12.501  0.5947  0.4342 -0.7984
 5027SOL    HW126540   2.816   3.384  12.432  0.0733 -2.1439 -0.2694
 5027SOL    HW226541   2.736   3.493  12.457 -2.1916  0.7855  1.0985
 5028SOL     OW26542   1.979   2.988   3.025  0.0324 -0.2848  0.4049
 5028SOL    HW126543   1.940   3.075   3.033  0.7205  0.2814 -2.4711
 5028SOL    HW226544   1.901   2.933   3.031  0.0537 -0.6397 -2.4398
 5029SOL     OW26545   3.772   3.151   3.587 -0.6196  0.3311  0.3634
 5029SOL    HW126546   3.768   3.163   3.682  4.0374  0.2042  0.5943
 5029SOL    HW226547   3.840   3.211   3.557  0.9818 -1.3116  0.7097
 5030SOL     OW26548   2.087   1.827   0.600 -0.5393 -0.5644 -0.1097
 5030SOL    HW126549   2.130   1.904   0.636 -1.4936  0.0814 -0.3495
 5030SOL    HW226550   2.165   1.773   0.586 -1.1719 -0.6533 -3.2369
 5031SOL     OW26551   1.165   0.295   1.715  0.0274 -0.1976 -0.1879
 5031SOL    HW126552   1.144   0.372   1.767  2.5386  0.8260 -0.7305
 5031SOL    HW226553   1.218   0.248   1.779  2.4090 -0.0097 -2.0480
 5032SOL     OW26554   2.611   2.726  13.393 -0.1343 -0.0517 -0.2746
 5032SOL    HW126555   2.645   2.796  13.337  1.6032  0.3069  1.2264
 5032SOL    HW226556   2.519   2.717  13.369  0.4148 -0.4657 -2.1943
 5033SOL     OW26557   2.817   3.804   6.581  0.1954 -0.1562 -0.3264
 5033SOL    HW126558   2.861   3.767   6.504  1.0904  1.1220 -0.4271
 5033SOL    HW226559   2.723   3.796   6.564  0.4308  0.4894 -1.9376
 5034SOL     OW26560   3.368   2.203   5.574  0.4816 -0.1286 -0.3401
 5034SOL    HW126561   3.339   2.174   5.661  2.1811 -1.4664 -0.2275
 5034SOL    HW226562   3.365   2.298   5.576  0.6039 -0.1315 -0.0395
 5035SOL     OW26563   3.824   2.837  16.792  0.5449 -0.0861 -0.1216
 5035SOL    HW126564   3.915   2.837  16.763  0.3871  1.2452 -0.6182
 5035SOL    HW226565   3.785   2.868  16.710  0.0689 -1.6670 -0.4983
 5036SOL     OW26566   1.703   2.566   7.511 -0.5242  0.5020 -0.0572
 5036SOL    HW126567   1.649   2.554   7.589  0.0503 -1.5674  0.0127
 5036SOL    HW226568   1.750   2.647   7.529  3.5731 -1.8794  0.0319
 5037SOL     OW26569   4.143   0.994   5.828  0.2411 -0.1747  0.3967
 5037SOL    HW126570   4.132   1.046   5.748  1.2434  0.2786  0.5515
 5037SOL    HW226571   4.068   0.936   5.819  0.4508 -0.4727  0.5671
 5038SOL     OW26572   0.773   0.928   2.649  0.1689  0.0743  0.5231
 5038SOL    HW126573   0.695   0.935   2.594  0.8024  0.1936 -0.3631
 5038SOL    HW226574   0.806   0.841   2.629 -0.3253 -0.6373  2.8010
 5039SOL     OW26575   1.136   3.520   3.820  0.8927 -0.6248 -0.5354
 5039SOL    HW126576   1.137   3.526   3.915 -0.9532 -1.0810 -0.4876
 5039SOL    HW226577   1.221   3.477   3.806  0.5540 -1.5068  0.1220
 5040SOL     OW26578   2.471   3.722   2.970 -0.5032  0.1002  0.1014
 5040SOL    HW126579   2.536   3.670   2.923  0.8679  1.1282  0.8592
 5040SOL    HW226580   2.533   3.791   2.993 -0.6390  0.0663  0.5723
 5041SOL     OW26581   1.438   0.072   6.641 -0.9222  0.1802 -0.1238
 5041SOL    HW126582   1.381   0.129   6.694  1.1654  0.7860  1.4881
 5041SOL    HW226583   1.474   0.001   6.694 -2.2129 -0.7952 -0.5594
 5042SOL     OW26584   0.967   1.220   1.445  0.0684  0.2785 -0.7903
 5042SOL    HW126585   0.963   1.165   1.368 -6.0419 -0.6793  0.1847
 5042SOL    HW226586   0.877   1.210   1.477 -0.1501  1.1382 -1.1206
 5043SOL     OW26587   4.107   1.124  17.598  0.2874  0.2109 -0.3623
 5043SOL    HW126588   4.177   1.059  17.597  0.5327  0.4676  0.3186
 5043SOL    HW226589   4.122   1.172  17.516  1.4271  1.3108  0.4712
 5044SOL     OW26590   1.913   3.253  11.593  0.4696  0.0776 -0.0481
 5044SOL    HW126591   1.923   3.168  11.551 -1.8740 -0.5649  0.6902
 5044SOL    HW226592   1.900   3.224  11.683  2.5152  0.4735  0.3829
 5045SOL     OW26593   3.409   3.283   5.754  0.0656  0.4602 -0.1084
 5045SOL    HW126594   3.358   3.214   5.797  1.4247 -0.6739 -0.3122
 5045SOL    HW226595   3.479   3.235   5.709  1.2868  1.4621  0.7297
 5046SOL     OW26596   1.282   2.093   7.047  0.1920 -0.6048 -0.2917
 5046SOL    HW126597   1.342   2.162   7.077  0.1283 -0.8302  0.3523
 5046SOL    HW226598   1.330   2.023   7.092 -0.4806 -0.7858  0.1376
 5047SOL     OW26599   0.458   1.320   5.853 -0.3424 -0.3756 -0.1069
 5047SOL    HW126600   0.489   1.344   5.941 -1.8245  0.4414  0.1913
 5047SOL    HW226601   0.381   1.265   5.870  0.0415 -0.1941  2.2127
 5048SOL     OW26602   3.418   3.703   6.308 -0.4597 -0.3389 -0.3456
 5048SOL    HW126603   3.425   3.788   6.266  0.7059 -0.9063 -1.3189
 5048SOL    HW226604   3.461   3.653   6.238  0.9101 -0.7479  0.7912
 5049SOL     OW26605   2.507   3.869   7.596 -0.2106 -0.3780 -0.2735
 5049SOL    HW126606   2.523   3.945   7.540 -2.6208  0.0804 -0.3241
 5049SOL    HW226607   2.595   3.831   7.598  0.0582  0.1529 -1.8724
 5050SOL     OW26608   2.200   2.954  11.678 -0.2916  0.1339 -0.1027
 5050SOL    HW126609   2.252   2.879  11.649 -0.6718  0.7398 -2.3747
 5050SOL    HW226610   2.145   2.900  11.735 -2.2730 -0.1767 -2.2762
 5051SOL     OW26611   3.539   0.785   4.407  0.5196  0.3335  0.7523
 5051SOL    HW126612   3.444   0.786   4.397  0.6453 -0.5550 -0.6791
 5051SOL    HW226613   3.567   0.772   4.316 -3.2555 -3.6790  0.1899
 5052SOL     OW26614   2.192   2.281  10.536  0.3523 -0.6664  0.4711
 5052SOL    HW126615   2.262   2.346  10.543  0.8823 -0.9820 -2.0468
 5052SOL    HW226616   2.126   2.329  10.487  1.1105 -1.1738 -1.0400
 5053SOL     OW26617   1.780   0.046  13.640 -0.0642 -0.1431 -0.0699
 5053SOL    HW126618   1.730   4.704  13.595 -0.9298  0.4839 -0.0580
 5053SOL    HW226619   1.708   0.094  13.680  0.4524  0.5136  0.0638
 5054SOL     OW26620   4.067   0.991   6.088  0.1435  0.3107  0.9432
 5054SOL    HW126621   4.092   1.006   5.996  0.1594  1.0020  1.0601
 5054SOL    HW226622   4.060   0.896   6.089  3.1799  0.0900  0.0985
 5055SOL     OW26623   1.409   2.766   7.943  1.1564 -0.1924 -0.4723
 5055SOL    HW126624   1.370   2.679   7.953 -0.1433  0.4972  0.4014
 5055SOL    HW226625   1.341   2.819   7.985  1.2381  1.0588 -1.8750
 5056SOL     OW26626   0.368   2.868   1.718 -0.0639  0.0094  0.1354
 5056SOL    HW126627   0.354   2.802   1.650  1.1742 -0.4130  0.2928
 5056SOL    HW226628   0.288   2.855   1.769  0.8725 -0.7349  1.4313
 5057SOL     OW26629   1.380   4.096   2.694  0.2335 -0.2338  0.1626
 5057SOL    HW126630   1.373   4.183   2.654 -2.2342 -0.0270  0.9959
 5057SOL    HW226631   1.396   4.117   2.786  2.4344 -1.7612  0.1222
 5058SOL     OW26632   3.316   3.479   0.610 -0.1038  0.2442 -0.2148
 5058SOL    HW126633   3.261   3.529   0.550 -2.0263  0.0933  1.4200
 5058SOL    HW226634   3.273   3.394   0.606 -2.7155  1.5400  0.8194
 5059SOL     OW26635   0.269   1.247   9.972 -0.0744  0.4573  0.5527
 5059SOL    HW126636   0.226   1.163   9.958 -3.2713  2.0804  0.4262
 5059SOL    HW226637   0.253   1.269  10.063  2.2302 -0.7659  1.2349
 5060SOL     OW26638   1.067   1.276  10.296 -0.5750  0.4255  0.2526
 5060SOL    HW126639   1.021   1.299  10.216  1.7246 -0.2568 -1.2710
 5060SOL    HW226640   1.157   1.306  10.280  0.1410 -1.9121 -0.0787
 5061SOL     OW26641   3.622   3.637   9.487  0.4575  0.1287  0.5302
 5061SOL    HW126642   3.704   3.595   9.461  0.5876  0.4741  0.3712
 5061SOL    HW226643   3.616   3.631   9.582  0.7110  2.5486  0.6968
 5062SOL     OW26644   1.790   0.839  10.579  0.1162  0.2022 -0.2144
 5062SOL    HW126645   1.734   0.913  10.600 -0.9137 -0.8057  0.6308
 5062SOL    HW226646   1.816   0.811  10.667 -2.7037 -0.7536  0.3174
 5063SOL     OW26647   3.812   3.192   3.877  0.0539 -0.0297 -0.0886
 5063SOL    HW126648   3.811   3.288   3.879  0.0371 -0.0854  1.7699
 5063SOL    HW226649   3.861   3.165   3.954  0.6703  1.5989  0.0942
 5064SOL     OW26650   2.475   1.652   1.854  0.0863 -0.1838  0.2635
 5064SOL    HW126651   2.515   1.581   1.905 -1.3752 -2.3833 -1.6904
 5064SOL    HW226652   2.419   1.704   1.912 -1.0717 -0.0900 -0.9430
 5065SOL     OW26653   3.644   3.180   6.999  0.3475  0.4255  0.0855
 5065SOL    HW126654   3.738   3.159   6.998  0.2863  0.1055  1.2576
 5065SOL    HW226655   3.609   3.130   7.072  0.2942 -0.8561 -0.8029
 5066SOL     OW26656   1.753   1.459  14.740  0.2178  0.2412  0.0039
 5066SOL    HW126657   1.797   1.429  14.661  2.3432  2.0020  0.5159
 5066SOL    HW226658   1.817   1.521  14.775  0.5528  0.3412 -0.7926
 5067SOL     OW26659   2.662   0.455   2.266 -0.4241 -0.1129 -0.9737
 5067SOL    HW126660   2.571   0.455   2.234 -1.5063  4.7597  2.1041
 5067SOL    HW226661   2.680   0.362   2.258  0.4569 -0.0551  0.2714
 5068SOL     OW26662   2.461   4.351   2.728 -0.5194  0.0173  0.3532
 5068SOL    HW126663   2.500   4.371   2.813  1.5185 -0.0832 -0.5685
 5068SOL    HW226664   2.411   4.272   2.748 -0.2648  0.6106  3.4832
 5069SOL     OW26665   3.314   3.464   4.862 -0.3153 -0.2986  0.1971
 5069SOL    HW126666   3.405   3.456   4.892  0.4170  2.1395 -1.3633
 5069SOL    HW226667   3.279   3.386   4.906  1.1347 -1.5242 -0.8083
 5070SOL     OW26668   0.340   0.763   8.904 -0.0115  0.1725 -0.0951
 5070SOL    HW126669   0.425   0.783   8.866  0.1004  1.4413  0.8457
 5070SOL    HW226670   0.342   0.668   8.891 -2.2355  0.2297 -0.8828
 5071SOL     OW26671   0.651   2.505   0.969  0.3787  0.7014 -0.1608
 5071SOL    HW126672   0.640   2.416   0.934 -1.0498  0.3342  1.2008
 5071SOL    HW226673   0.572   2.552   0.942 -1.2232 -2.3515 -0.7219
 5072SOL     OW26674   3.626   4.674  17.024  0.5248  0.0388 -0.0883
 5072SOL    HW126675   3.561   4.608  17.001  0.9412 -0.4920  0.2690
 5072SOL    HW226676   3.591   4.714  17.104 -0.5084 -0.6408 -0.2043
 5073SOL     OW26677   3.720   3.379   8.079  0.4277  0.2077  0.3259
 5073SOL    HW126678   3.723   3.470   8.109  0.3292  1.1457 -2.4807
 5073SOL    HW226679   3.648   3.382   8.016  0.8338 -0.0772 -0.1493
 5074SOL     OW26680   2.140   4.429   0.285  0.3243 -0.0860 -0.2368
 5074SOL    HW126681   2.114   4.385   0.204  1.6527 -0.4461 -0.4699
 5074SOL    HW226682   2.215   4.481   0.256  0.2490  0.8696  1.2960
 5075SOL     OW26683   1.197   0.243   2.464  0.1107 -0.1982  0.0898
 5075SOL    HW126684   1.279   0.292   2.459  0.7722 -1.3744 -0.8521
 5075SOL    HW226685   1.180   0.224   2.371  0.6441 -1.0960  0.1774
 5076SOL     OW26686   3.411   2.628  10.277 -0.0039  0.1729 -0.4755
 5076SOL    HW126687   3.317   2.636  10.294  0.0540  0.9273 -0.4772
 5076SOL    HW226688   3.436   2.559  10.337  0.6503  0.5646 -0.3007
 5077SOL     OW26689   4.116   1.549   4.921  0.5068 -0.1440 -0.4138
 5077SOL    HW126690   4.079   1.548   4.833 -0.0094  0.0486 -0.1998
 5077SOL    HW226691   4.079   1.466   4.950  0.1851 -0.1033 -0.7091
 5078SOL     OW26692   0.607   1.152   6.839 -0.0756  0.1444 -0.3224
 5078SOL    HW126693   0.586   1.134   6.930 -1.1500  0.0940 -0.5834
 5078SOL    HW226694   0.665   1.227   6.855 -1.4433  1.6605 -2.4023
 5079SOL     OW26695   2.269   4.245   1.672  0.4504  0.1745  0.1498
 5079SOL    HW126696   2.268   4.230   1.577  0.8284 -1.7195  0.4314
 5079SOL    HW226697   2.232   4.166   1.712 -0.9723  1.1078  0.6959
 5080SOL     OW26698   3.799   2.320   0.088  0.4028 -0.3318 -0.2377
 5080SOL    HW126699   3.757   2.402   0.062 -1.3045 -0.8139  0.9761
 5080SOL    HW226700   3.880   2.327   0.039  0.6034 -0.3955  0.0865
 5081SOL     OW26701   0.367   0.832  11.147 -0.3544 -0.7830  0.3841
 5081SOL    HW126702   0.358   0.927  11.153 -2.3756 -0.8585 -1.2503
 5081SOL    HW226703   0.428   0.817  11.218  3.1853  0.2879 -2.4342
 5082SOL     OW26704   1.541   2.960  17.436 -0.0676  0.6572 -0.0509
 5082SOL    HW126705   1.454   2.934  17.403  0.0787 -2.0610  1.7277
 5082SOL    HW226706   1.508   3.032  17.488 -0.4889  0.0601  0.5115
 5083SOL     OW26707   2.397   3.711  13.249  0.1171 -0.0746  0.5737
 5083SOL    HW126708   2.347   3.631  13.235  0.1694 -0.0363  0.1630
 5083SOL    HW226709   2.470   3.673  13.299  0.2311 -1.5201 -0.7059
 5084SOL     OW26710   1.779   3.938   2.438 -0.3409 -0.5993 -0.4234
 5084SOL    HW126711   1.757   3.923   2.530 -3.2799 -0.6372 -1.1597
 5084SOL    HW226712   1.845   4.006   2.455 -2.0505  1.1337 -0.7993
 5085SOL     OW26713   3.775   1.857   2.886 -0.1210 -0.1628 -0.7781
 5085SOL    HW126714   3.786   1.764   2.868 -2.6092 -0.8447  1.2324
 5085SOL    HW226715   3.686   1.861   2.921 -0.2660  0.4268 -1.2125
 5086SOL     OW26716   1.420   1.677   2.537  0.2947  0.3141  0.2365
 5086SOL    HW126717   1.473   1.681   2.457 -0.6211 -1.0256 -0.4168
 5086SOL    HW226718   1.396   1.587   2.557  0.4834  0.5262  1.4358
 5087SOL     OW26719   1.660   1.039   5.429 -0.1198  0.4067 -0.5025
 5087SOL    HW126720   1.746   0.996   5.436  0.3443  1.4399  0.1102
 5087SOL    HW226721   1.604   0.980   5.478 -1.2458  2.3103  0.4777
 5088SOL     OW26722   2.627   1.723   5.991 -0.3338  0.0894  0.4027
 5088SOL    HW126723   2.544   1.766   5.971  1.5093  2.9480 -1.1356
 5088SOL    HW226724   2.689   1.783   5.949 -0.7481  0.3170  0.1122
 5089SOL     OW26725   3.899   1.517   5.282 -0.4204 -0.4259  0.1255
 5089SOL    HW126726   3.839   1.495   5.353  0.6257  0.5375  1.2954
 5089SOL    HW226727   3.840   1.516   5.207 -2.5203 -0.7146  1.7948
 5090SOL     OW26728   1.989   1.678   0.846 -0.1758  0.1203 -0.0801
 5090SOL    HW126729   2.015   1.714   0.761 -0.0662 -0.6348 -0.3720
 5090SOL    HW226730   2.000   1.583   0.846 -0.7127  0.0594  0.6085
 5091SOL     OW26731   3.078   3.995  15.759 -0.1215 -0.0492 -0.7484
 5091SOL    HW126732   3.018   4.070  15.756 -1.9632 -1.4929 -0.0013
 5091SOL    HW226733   3.020   3.920  15.748  0.1031 -0.4235  0.6806
 5092SOL     OW26734   3.579   4.358   5.023 -0.9886 -0.1808  0.4897
 5092SOL    HW126735   3.629   4.384   4.946 -0.5994 -0.0992  0.7697
 5092SOL    HW226736   3.502   4.310   4.992 -1.8237  0.8854  0.9233
 5093SOL     OW26737   1.349   0.144  15.219  0.1345 -0.2847 -0.0144
 5093SOL    HW126738   1.387   0.208  15.159  0.8602 -0.5819  0.1373
 5093SOL    HW226739   1.389   0.170  15.301 -1.6253 -0.6066  0.9541
 5094SOL     OW26740   0.106   0.936   6.332 -0.0160  0.3519 -1.0707
 5094SOL    HW126741   0.096   0.961   6.424 -2.0913 -0.3877 -1.1023
 5094SOL    HW226742   0.143   0.849   6.344  1.6219  1.4676  1.8842
 5095SOL     OW26743   1.629   3.131   3.614  0.3918 -0.2578 -0.0816
 5095SOL    HW126744   1.692   3.069   3.651 -1.8060 -1.4689  1.6574
 5095SOL    HW226745   1.544   3.087   3.626 -0.7106  2.2513  1.1326
 5096SOL     OW26746   1.043   0.308   3.692  0.3435  0.1261  0.0692
 5096SOL    HW126747   1.113   0.245   3.676 -2.6088 -3.1911  0.1972
 5096SOL    HW226748   1.077   0.388   3.652 -0.7050 -0.6686 -2.3892
 5097SOL     OW26749   0.091   3.444   3.562 -0.2241 -0.0156 -0.3857
 5097SOL    HW126750   0.025   3.394   3.513 -1.2024  1.5729 -0.6874
 5097SOL    HW226751   0.167   3.386   3.566  1.1057  1.7094 -1.0091
 5098SOL     OW26752   3.927   1.813   0.050 -0.8566  0.0373 -0.1544
 5098SOL    HW126753   3.890   1.757  17.690 -2.5151  1.6948 -0.6223
 5098SOL    HW226754   3.898   1.901   0.027  2.5007  1.4378  0.9558
 5099SOL     OW26755   2.566   1.997   4.978  0.3135 -0.5977 -0.4814
 5099SOL    HW126756   2.546   2.051   5.055  1.7422 -3.9554  2.2189
 5099SOL    HW226757   2.658   2.019   4.964 -0.0506  1.6081  0.4780
 5100SOL     OW26758   1.881   1.035  11.297 -0.3215  0.2241 -0.1793
 5100SOL    HW126759   1.816   1.067  11.234  0.1973  2.2933  0.3188
 5100SOL    HW226760   1.879   0.948  11.259  1.8359  0.2285 -0.3056
 5101SOL     OW26761   4.238   2.102   3.923 -0.0868  0.9800 -0.1937
 5101SOL    HW126762   4.210   2.013   3.944 -0.7677  0.6692 -2.4075
 5101SOL    HW226763   4.298   2.123   3.994 -0.6497  0.9085  0.3013
 5102SOL     OW26764   3.169   2.754   0.149  0.1068  0.2444  0.7488
 5102SOL    HW126765   3.104   2.725   0.085  4.1308 -2.3121 -2.1894
 5102SOL    HW226766   3.130   2.708   0.223  0.7895 -0.6357  0.5747
 5103SOL     OW26767   2.044   3.835  11.402  0.3445 -0.5870  0.2467
 5103SOL    HW126768   2.013   3.917  11.365  1.3547 -0.9970 -1.5280
 5103SOL    HW226769   1.975   3.823  11.467 -0.3764  2.3580 -0.0207
 5104SOL     OW26770   2.403   4.393  14.624 -0.2618 -0.2445 -0.2383
 5104SOL    HW126771   2.348   4.428  14.694  0.1758  1.0872 -0.5761
 5104SOL    HW226772   2.445   4.318  14.666 -0.9400 -0.7975 -0.5438
 5105SOL     OW26773   0.482   1.854  11.351 -0.0949 -0.3984 -0.1359
 5105SOL    HW126774   0.437   1.915  11.409 -0.5038 -0.9876  0.1600
 5105SOL    HW226775   0.539   1.908  11.296 -1.1189 -1.1342 -1.9331
 5106SOL     OW26776   3.246   1.026   9.500  0.2849 -0.0424  0.6512
 5106SOL    HW126777   3.169   1.052   9.551 -1.2196  1.1631 -2.1941
 5106SOL    HW226778   3.210   0.974   9.428  0.3172  1.3102 -0.3452
 5107SOL     OW26779   1.793   3.124   4.283  0.0481 -0.3569 -0.4544
 5107SOL    HW126780   1.774   3.214   4.257  1.5732 -0.2648 -1.2259
 5107SOL    HW226781   1.885   3.112   4.260  0.6790  3.1758  0.3418
 5108SOL     OW26782   3.996   4.156   5.497  0.0732  0.4237  0.4434
 5108SOL    HW126783   4.043   4.188   5.573  0.8767  1.3333 -0.4290
 5108SOL    HW226784   3.957   4.231   5.452 -2.0091 -1.1249 -0.3853
 5109SOL     OW26785   0.830   0.234  17.525 -0.5278 -0.7086  0.0117
 5109SOL    HW126786   0.847   0.140  17.529 -0.7185 -0.6372  2.4374
 5109SOL    HW226787   0.893   0.251  17.455  2.2235 -0.8107  2.4751
 5110SOL     OW26788   2.976   3.154   8.138  0.1238  0.0228 -0.3639
 5110SOL    HW126789   3.056   3.199   8.111 -0.1203  0.1533 -0.8642
 5110SOL    HW226790   2.985   3.172   8.232 -0.1828 -0.1448 -0.3029
 5111SOL     OW26791   1.138   4.383   2.549  0.2235  0.7746  0.4816
 5111SOL    HW126792   1.076   4.352   2.615  0.2109 -2.4323 -0.9839
 5111SOL    HW226793   1.127   4.477   2.556 -1.4664  0.6477 -0.5059
 5112SOL     OW26794   4.323   4.714  11.910 -0.3862  0.0221 -0.0950
 5112SOL    HW126795   4.388   4.690  11.976  0.0101  0.1587 -0.4354
 5112SOL    HW226796   4.254   4.651  11.932  0.2372 -0.9733 -0.9979
 5113SOL     OW26797   0.398   2.886   6.512 -0.0857 -0.2876 -0.5726
 5113SOL    HW126798   0.435   2.964   6.471  2.1414 -1.5332 -0.9155
 5113SOL    HW226799   0.354   2.844   6.438  3.1908 -0.4151 -2.4371
 5114SOL     OW26800   1.306   0.931   5.597 -0.1713  0.0288  0.0432
 5114SOL    HW126801   1.396   0.904   5.616 -0.8408 -2.0858  0.2131
 5114SOL    HW226802   1.269   0.844   5.580  0.7850 -0.6470  1.4224
 5115SOL     OW26803   3.002   2.418   5.922  0.2526  0.2983  0.2208
 5115SOL    HW126804   3.040   2.465   5.848  1.1638 -2.4423 -1.0390
 5115SOL    HW226805   3.078   2.368   5.952 -1.4153 -1.8631  0.8155
 5116SOL     OW26806   1.742   1.797   3.525  0.6199 -0.7712  0.4859
 5116SOL    HW126807   1.803   1.791   3.451 -0.3200  1.2917 -0.4727
 5116SOL    HW226808   1.754   1.880   3.571  1.7786 -0.6842  0.0254
 5117SOL     OW26809   3.824   3.054   2.717 -0.0324 -0.2277 -0.2747
 5117SOL    HW126810   3.909   3.074   2.677  0.9253  0.4810  2.1027
 5117SOL    HW226811   3.779   2.989   2.662 -0.1820 -0.5812  0.2578
 5118SOL     OW26812   2.336   0.498   5.996  0.4069  0.0668 -0.4347
 5118SOL    HW126813   2.324   0.496   5.901 -0.8430 -0.3298 -0.2742
 5118SOL    HW226814   2.431   0.494   6.004  0.2576 -1.1049  0.8913
 5119SOL     OW26815   2.280   0.957  12.431 -0.2697 -0.1003 -0.1685
 5119SOL    HW126816   2.345   0.886  12.432  2.5454  2.5111 -0.0746
 5119SOL    HW226817   2.199   0.920  12.467  0.5996 -1.2070  0.6638
 5120SOL     OW26818   0.932   3.741   9.664  0.5695  0.8495  0.2710
 5120SOL    HW126819   0.871   3.798   9.712 -0.7088  0.2677 -0.6865
 5120SOL    HW226820   0.909   3.652   9.692 -1.6819  2.3198  3.1723
 5121SOL     OW26821   1.840   3.248   2.566  0.1588 -0.3878  0.1932
 5121SOL    HW126822   1.838   3.281   2.476 -0.3496 -2.3408 -0.4900
 5121SOL    HW226823   1.935   3.258   2.563  0.2562 -1.4322 -0.0468
 5122SOL     OW26824   0.695   0.275   5.513  0.1541  0.5678 -0.0333
 5122SOL    HW126825   0.600   0.286   5.520  0.4233 -0.2560  5.3936
 5122SOL    HW226826   0.715   0.182   5.502  2.6975  1.2905 -1.4573
 5123SOL     OW26827   3.190   1.505  17.546  0.1443  0.3787  0.2842
 5123SOL    HW126828   3.247   1.473  17.615  1.0086 -0.3696 -0.7657
 5123SOL    HW226829   3.109   1.497  17.595  0.2490  2.7985  0.8423
 5124SOL     OW26830   4.408   4.478   6.772  0.5042 -0.2727 -0.0366
 5124SOL    HW126831   4.466   4.453   6.700 -1.4798 -1.0874 -1.3415
 5124SOL    HW226832   4.356   4.399   6.786 -0.8190  0.1426 -2.8141
 5125SOL     OW26833   0.132   4.533  15.392  0.4521  0.3544 -0.1262
 5125SOL    HW126834   0.039   4.512  15.402  0.4255  1.4272  1.9749
 5125SOL    HW226835   0.158   4.557  15.481 -1.3898  0.7087  0.3036
 5126SOL     OW26836   3.067   3.757   0.173 -0.4803  0.0709 -0.3318
 5126SOL    HW126837   3.015   3.784   0.249  1.3809  1.6827  0.3701
 5126SOL    HW226838   3.153   3.740   0.212  0.4652  0.3155 -2.2992
 5127SOL     OW26839   1.944   1.613  11.103 -0.1194 -0.4928  0.1768
 5127SOL    HW126840   1.905   1.555  11.037  0.7564 -1.5215  0.5656
 5127SOL    HW226841   2.038   1.605  11.086 -0.0992 -0.7386  0.3973
 5128SOL     OW26842   4.054   4.091  17.643  0.1351  0.3899  0.5119
 5128SOL    HW126843   4.010   4.122   0.015 -0.6194 -0.8081  0.5726
 5128SOL    HW226844   4.128   4.150  17.650  0.5389  0.0284 -0.7113
 5129SOL     OW26845   1.305   2.825  11.825  0.1232 -0.2772 -0.2279
 5129SOL    HW126846   1.362   2.801  11.899  1.0519 -2.4676 -1.6706
 5129SOL    HW226847   1.261   2.897  11.869 -0.5581 -0.7442 -0.1552
 5130SOL     OW26848   4.692   4.637   5.811  0.0295  0.1721 -0.3999
 5130SOL    HW126849   0.026   4.674   5.876  1.5336 -1.5726 -0.7972
 5130SOL    HW226850   4.688   4.543   5.828  0.9060  0.4936  1.6567
 5131SOL     OW26851   0.770   2.894  17.038 -0.5224  0.2976  0.5159
 5131SOL    HW126852   0.810   2.823  17.088 -0.9816 -0.0791  0.3566
 5131SOL    HW226853   0.678   2.868  17.053 -0.2992 -1.1773 -0.6497
 5132SOL     OW26854   1.056   0.508   8.269 -0.3677  0.5949 -0.1976
 5132SOL    HW126855   1.019   0.597   8.274  0.1585  0.7324  1.3943
 5132SOL    HW226856   0.976   0.458   8.284 -1.5063  2.4761  0.0164
 5133SOL     OW26857   1.680   2.237   8.427 -0.3490  0.4871 -0.1612
 5133SOL    HW126858   1.748   2.198   8.372 -2.0101 -0.3792 -1.6070
 5133SOL    HW226859   1.723   2.304   8.479  1.2136 -1.2092  0.7241
 5134SOL     OW26860   0.760   1.054   7.829 -0.1975  0.0946 -0.3216
 5134SOL    HW126861   0.839   1.078   7.780  0.8367  1.6495  2.0529
 5134SOL    HW226862   0.755   1.133   7.883  0.4660  1.7273 -2.6564
 5135SOL     OW26863   2.060   2.271   5.058  0.4521 -0.4471  0.2617
 5135SOL    HW126864   2.082   2.178   5.051 -0.5937 -0.7147  0.5717
 5135SOL    HW226865   2.128   2.292   5.121 -2.0334  2.2335  2.0322
 5136SOL     OW26866   1.191   0.531  12.794  0.4967 -0.5924  0.4331
 5136SOL    HW126867   1.153   0.466  12.853  0.2770 -0.1185  0.8116
 5136SOL    HW226868   1.282   0.528  12.825  0.3352  0.7879  1.0198
 5137SOL     OW26869   3.581   2.178   6.500  0.0764  0.2671  0.5154
 5137SOL    HW126870   3.574   2.258   6.448  0.9520  1.6306  2.4942
 5137SOL    HW226871   3.639   2.121   6.449 -0.1021  0.4157  0.1540
 5138SOL     OW26872   4.465   2.447   6.396 -0.4185  0.1889  0.2648
 5138SOL    HW126873   4.456   2.425   6.303 -0.3145 -1.1565  0.5709
 5138SOL    HW226874   4.500   2.363   6.426  1.3965  0.9261  0.1812
 5139SOL     OW26875   4.295   3.161   0.196 -0.4631  0.1484 -0.4230
 5139SOL    HW126876   4.380   3.117   0.196 -1.9520 -2.7741 -0.1859
 5139SOL    HW226877   4.232   3.102   0.154  1.7842 -1.5932 -1.3302
 5140SOL     OW26878   1.074   3.170  14.786 -0.0475 -0.5524  0.0787
 5140SOL    HW126879   1.088   3.262  14.762  3.1000 -1.4400 -1.4466
 5140SOL    HW226880   1.012   3.178  14.859  0.6590  0.4636  0.5782
 5141SOL     OW26881   4.130   4.075   6.668 -0.8892  0.1582  0.3717
 5141SOL    HW126882   4.225   4.085   6.667 -0.8507 -0.5810 -2.9002
 5141SOL    HW226883   4.109   3.982   6.669 -0.4699  0.0614  0.1831
 5142SOL     OW26884   0.696   2.406  16.147  0.1630  0.4107  0.3346
 5142SOL    HW126885   0.780   2.453  16.150  0.2193  0.3665 -0.6501
 5142SOL    HW226886   0.670   2.421  16.056  1.4246 -2.0960 -0.4418
 5143SOL     OW26887   3.242   0.822  11.308 -0.3226 -0.2280 -0.0718
 5143SOL    HW126888   3.220   0.729  11.308 -0.3697 -0.2202  4.1118
 5143SOL    HW226889   3.227   0.843  11.215 -2.6547 -1.4914  0.0116
 5144SOL     OW26890   2.439   3.103  14.193  0.4007 -0.6782  0.5422
 5144SOL    HW126891   2.469   3.023  14.150 -0.7882  0.0830 -1.6767
 5144SOL    HW226892   2.502   3.160  14.150 -2.0998  1.1948 -0.6178
 5145SOL     OW26893   0.949   0.932   6.159 -0.0430 -0.2035 -0.3117
 5145SOL    HW126894   0.999   0.888   6.229 -2.1493  0.6401  1.7231
 5145SOL    HW226895   1.017   0.979   6.110 -1.5947  1.9833 -0.3583
 5146SOL     OW26896   1.686   2.779   2.151 -0.7633  0.0518 -0.3584
 5146SOL    HW126897   1.644   2.720   2.088 -2.2326  0.1504  0.5467
 5146SOL    HW226898   1.696   2.861   2.102 -0.9387 -0.3897 -1.1336
 5147SOL     OW26899   0.618   1.269  17.045 -0.2908  0.5894  0.0359
 5147SOL    HW126900   0.594   1.273  17.137  0.3728  2.2051  0.1404
 5147SOL    HW226901   0.631   1.175  17.034 -0.8997  0.5779 -0.5888
 5148SOL     OW26902   0.878   3.930   8.258  0.1337 -0.5145 -0.4794
 5148SOL    HW126903   0.884   3.842   8.295  1.7006 -0.9889 -1.8639
 5148SOL    HW226904   0.799   3.964   8.301  0.4271  0.1236 -0.4389
 5149SOL     OW26905   3.500   2.601   8.058  0.6139  0.2041  0.0877
 5149SOL    HW126906   3.411   2.606   8.023  0.3000 -1.7907  0.5594
 5149SOL    HW226907   3.534   2.690   8.056 -0.7142  0.5906 -4.1677
 5150SOL     OW26908   4.313   3.963   2.914  0.0199  0.0803  0.1031
 5150SOL    HW126909   4.314   3.978   3.009 -1.7330 -2.6049  0.5275
 5150SOL    HW226910   4.302   4.053   2.882 -3.5226 -0.8169 -1.2715
 5151SOL     OW26911   4.262   3.312   7.062 -0.0511  0.2445 -0.2064
 5151SOL    HW126912   4.176   3.272   7.076 -0.2974  0.8155 -0.0669
 5151SOL    HW226913   4.262   3.327   6.967 -1.7553  1.0482 -0.0916
 5152SOL     OW26914   1.726   3.470   7.436  0.5400  0.5002 -0.2382
 5152SOL    HW126915   1.779   3.533   7.484  1.6774  0.4664 -1.4599
 5152SOL    HW226916   1.680   3.440   7.514  1.3336 -0.6526 -0.2084
 5153SOL     OW26917   1.112   3.311   2.802  0.1671  0.2931 -0.4627
 5153SOL    HW126918   1.171   3.236   2.808 -0.6476 -0.4398 -1.6822
 5153SOL    HW226919   1.138   3.345   2.717  0.6602  2.5768  0.6007
 5154SOL     OW26920   4.004   4.300   8.958  0.2924 -0.1469 -0.1994
 5154SOL    HW126921   4.032   4.380   9.001 -0.1461  0.5448 -1.1942
 5154SOL    HW226922   4.037   4.238   9.023 -0.4257  0.2604  0.5685
 5155SOL     OW26923   4.126   4.287   5.747 -0.1770 -0.0195 -0.2731
 5155SOL    HW126924   4.108   4.364   5.693  1.8161  1.1428  0.7202
 5155SOL    HW226925   4.206   4.264   5.702  1.2345  4.2143  0.1055
 5156SOL     OW26926   2.577   2.573   4.498  0.1693 -0.2596  0.2676
 5156SOL    HW126927   2.564   2.557   4.405 -1.4933  1.3852  0.2135
 5156SOL    HW226928   2.669   2.548   4.498  0.3856  0.5701  2.5674
 5157SOL     OW26929   2.926   1.328  13.054 -0.3655 -0.1395  0.8139
 5157SOL    HW126930   2.988   1.400  13.063 -0.9478  0.5194 -0.5549
 5157SOL    HW226931   2.943   1.288  12.969 -0.1415 -2.5281  1.9652
 5158SOL     OW26932   2.625   0.563  12.655 -0.3075 -0.4839  0.6839
 5158SOL    HW126933   2.615   0.523  12.741  0.7543 -3.4840 -0.5571
 5158SOL    HW226934   2.718   0.585  12.662 -0.5841  0.4761  1.2428
 5159SOL     OW26935   0.287   4.152   1.102  0.0860 -0.0182  0.2860
 5159SOL    HW126936   0.357   4.173   1.040  1.0070 -0.9716  1.0006
 5159SOL    HW226937   0.273   4.063   1.069 -0.8536  0.0904  0.3903
 5160SOL     OW26938   2.664   3.063   1.746  0.1704  0.7704  0.4744
 5160SOL    HW126939   2.672   3.144   1.695 -0.1163  0.5827  0.1324
 5160SOL    HW226940   2.747   3.021   1.725  0.7364  1.4389  1.3718
 5161SOL     OW26941   3.195   3.117   6.495 -0.3815  0.0889  0.3079
 5161SOL    HW126942   3.169   3.192   6.441 -1.1091 -0.8610 -0.6590
 5161SOL    HW226943   3.205   3.144   6.586  1.3731 -0.6311  0.3303
 5162SOL     OW26944   1.811   4.106   4.852  0.4806  0.0708  0.3595
 5162SOL    HW126945   1.801   4.166   4.926 -0.1262 -1.2474  1.3549
 5162SOL    HW226946   1.722   4.115   4.819  0.2099  0.6007  1.2525
 5163SOL     OW26947   1.574   2.955   9.780 -0.7445  0.3466  0.7128
 5163SOL    HW126948   1.613   2.868   9.790 -2.0447 -0.2296  0.6766
 5163SOL    HW226949   1.554   2.981   9.869 -1.0182 -2.2931  1.4113
 5164SOL     OW26950   1.234   3.502   2.567  0.1431  0.0745 -0.6721
 5164SOL    HW126951   1.291   3.535   2.636  0.6882  2.3883 -2.2588
 5164SOL    HW226952   1.157   3.559   2.576  0.6028  0.3625  1.3452
 5165SOL     OW26953   0.721   1.610   2.944  0.4224  0.3317  0.6695
 5165SOL    HW126954   0.659   1.595   3.015  0.7456  3.0919  1.5478
 5165SOL    HW226955   0.679   1.696   2.939 -0.9963 -0.3679  0.7779
 5166SOL     OW26956   4.527   1.348   5.975  0.2467 -0.0636 -0.4133
 5166SOL    HW126957   4.499   1.261   6.005  0.4208  0.5512  1.5634
 5166SOL    HW226958   4.582   1.326   5.901 -0.2948 -1.3319 -0.4351
 5167SOL     OW26959   1.086   3.778   7.211  0.0486  0.0208  0.5617
 5167SOL    HW126960   1.034   3.802   7.135 -1.2070 -1.0038  1.0978
 5167SOL    HW226961   1.149   3.851   7.208 -2.8633  2.5672  1.8356
 5168SOL     OW26962   0.939   4.112   4.606 -0.0347 -0.0759  0.2036
 5168SOL    HW126963   0.941   4.047   4.536  2.0450 -1.0164  1.1350
 5168SOL    HW226964   0.964   4.189   4.556 -0.4138 -0.5593 -0.7433
 5169SOL     OW26965   2.238   1.233   5.735 -0.4240 -0.1386  0.1536
 5169SOL    HW126966   2.250   1.328   5.734  0.0373 -0.2289 -2.8648
 5169SOL    HW226967   2.194   1.221   5.819 -1.7848 -2.1693 -0.8688
 5170SOL     OW26968   1.420   2.012   9.920  0.4105 -0.7046 -0.3712
 5170SOL    HW126969   1.501   1.983   9.964  0.9520 -1.0044 -1.5648
 5170SOL    HW226970   1.357   1.950   9.957 -0.7485  1.0185  0.5071
 5171SOL     OW26971   0.259   4.624  13.078 -0.5157  0.1272 -0.1414
 5171SOL    HW126972   0.306   4.708  13.077  0.5457 -0.4244  2.3776
 5171SOL    HW226973   0.218   4.629  12.992  0.5249  2.6671 -0.5074
 5172SOL     OW26974   2.439   0.206   5.813 -0.0155  0.2185 -0.1295
 5172SOL    HW126975   2.375   0.270   5.781 -1.2128  0.2596  2.3359
 5172SOL    HW226976   2.449   0.155   5.733  0.5671  1.4669 -0.8496
 5173SOL     OW26977   4.360   4.142   1.047 -0.0130  0.2380 -0.0877
 5173SOL    HW126978   4.304   4.201   0.998 -0.2951  0.4430  0.4846
 5173SOL    HW226979   4.315   4.125   1.130 -0.7395  1.3854 -0.2609
 5174SOL     OW26980   1.412   2.917   5.496  0.0651  0.1524 -0.0363
 5174SOL    HW126981   1.370   2.887   5.577  1.5654  2.6805  1.6545
 5174SOL    HW226982   1.338   2.931   5.436 -0.3601 -0.7532  0.2700
 5175SOL     OW26983   3.396   0.518   0.070  0.2181  0.4077  0.3209
 5175SOL    HW126984   3.346   0.437   0.083  2.0311 -0.7254  0.3468
 5175SOL    HW226985   3.464   0.473   0.020 -0.3899 -0.5667  0.3720
 5176SOL     OW26986   3.832   3.615   7.890  0.1282  0.3600 -0.0103
 5176SOL    HW126987   3.837   3.707   7.862 -1.3396  0.4391 -0.0240
 5176SOL    HW226988   3.795   3.627   7.978  1.3480  1.8865  0.3037
 5177SOL     OW26989   2.417   3.170   1.841  0.0779  0.2544  0.0282
 5177SOL    HW126990   2.362   3.113   1.787 -1.4967  1.3022  0.5146
 5177SOL    HW226991   2.502   3.149   1.802  0.5959  0.3755  1.1231
 5178SOL     OW26992   0.241   2.759   1.447 -0.7237  0.1947 -0.2456
 5178SOL    HW126993   0.265   2.844   1.410  1.4468  0.1685  1.1339
 5178SOL    HW226994   0.261   2.706   1.370  1.3492 -2.4370  2.1178
 5179SOL     OW26995   4.149   0.525   2.123 -0.1215 -0.3299  0.2783
 5179SOL    HW126996   4.121   0.610   2.157  1.1294  0.0417  0.3731
 5179SOL    HW226997   4.086   0.472   2.171  0.5525 -2.0850 -0.7716
 5180SOL     OW26998   3.612   0.386   0.472  0.6310  0.2433  0.1573
 5180SOL    HW126999   3.657   0.469   0.458  0.0077  0.5031 -0.3281
 5180SOL    HW227000   3.670   0.330   0.419 -0.4102  0.7419 -1.5117
 5181SOL     OW27001   3.260   0.437  11.837 -0.1917  0.1017  0.2784
 5181SOL    HW127002   3.249   0.407  11.747 -1.0154  0.8802  0.1178
 5181SOL    HW227003   3.286   0.527  11.816 -0.9017  1.0423  3.4311
 5182SOL     OW27004   0.494   2.823  12.445 -0.1757  0.0311  0.3521
 5182SOL    HW127005   0.573   2.852  12.491  0.6866 -0.1935 -0.9732
 5182SOL    HW227006   0.492   2.729  12.463 -2.6251 -0.2590 -1.3594
 5183SOL     OW27007   1.523   2.343   0.702 -0.3971 -0.2951 -0.7640
 5183SOL    HW127008   1.515   2.423   0.650 -1.4641 -0.2589 -0.5328
 5183SOL    HW227009   1.434   2.321   0.729  0.1487 -1.2238  0.2608
 5184SOL     OW27010   2.980   2.936  16.751 -0.3637  0.1888 -0.3522
 5184SOL    HW127011   2.903   2.897  16.708  1.1071  1.0818 -3.8385
 5184SOL    HW227012   3.032   2.955  16.673 -1.0377 -1.1245 -1.1248
 5185SOL     OW27013   0.938   1.761   3.097 -0.2183  0.2577  0.1754
 5185SOL    HW127014   0.899   1.777   3.011 -2.0236  1.6174  1.2589
 5185SOL    HW227015   1.020   1.716   3.075  0.4386  1.1731  0.7853
 5186SOL     OW27016   3.474   0.074   8.304  0.3526 -0.3788  0.4194
 5186SOL    HW127017   3.546   0.030   8.259 -0.4117 -1.2526  0.0624
 5186SOL    HW227018   3.525   0.131   8.362  0.9219 -0.7270  0.2526
 5187SOL     OW27019   1.990   2.083  16.847  0.1859  0.0964  0.5258
 5187SOL    HW127020   2.062   2.122  16.796  2.6953 -2.9868  1.7008
 5187SOL    HW227021   1.998   1.991  16.823  0.5691  0.3373 -0.2750
 5188SOL     OW27022   2.457   0.000  10.514 -0.3237  0.0285 -0.4776
 5188SOL    HW127023   2.372   4.690  10.490  0.0734 -1.2028 -0.0114
 5188SOL    HW227024   2.448   0.016  10.608 -0.7562  1.9790 -0.8582
 5189SOL     OW27025   1.656   0.525   3.987  0.4291  0.1761  0.3323
 5189SOL    HW127026   1.712   0.461   4.030  2.0715  1.3067 -0.1549
 5189SOL    HW227027   1.665   0.598   4.048  0.0580  1.2722 -0.9168
 5190SOL     OW27028   1.586   0.911   4.321 -0.2131 -0.5396  0.4797
 5190SOL    HW127029   1.614   0.946   4.405  0.2814 -0.2050  0.1813
 5190SOL    HW227030   1.520   0.978   4.306 -0.1696 -0.5321  0.3222
 5191SOL     OW27031   4.344   0.011   7.785  0.0200  0.1066 -0.4871
 5191SOL    HW127032   4.367   4.685   7.862 -1.7491  1.4545  0.9733
 5191SOL    HW227033   4.415   4.723   7.723  0.7228  0.2401  0.2792
 5192SOL     OW27034   3.951   0.773  12.642 -0.0877 -0.0550  0.2435
 5192SOL    HW127035   4.021   0.819  12.596 -2.7141  3.9089  0.1899
 5192SOL    HW227036   3.910   0.840  12.697  0.6990 -0.6671  1.5684
 5193SOL     OW27037   2.120   3.497  15.845  0.1941 -0.3322  0.3370
 5193SOL    HW127038   2.203   3.535  15.874 -0.0728  1.3463 -1.1426
 5193SOL    HW227039   2.102   3.436  15.917  3.5995 -0.9381  0.6572
 5194SOL     OW27040   1.379   1.693  10.933 -0.6661 -0.3121 -0.0610
 5194SOL    HW127041   1.450   1.711  10.872 -2.2895 -0.0609 -1.9161
 5194SOL    HW227042   1.307   1.707  10.871 -1.7379 -1.0340  1.0163
 5195SOL     OW27043   3.511   3.604  16.270 -0.1726 -0.8129 -0.0906
 5195SOL    HW127044   3.581   3.659  16.234  1.4765 -2.9423 -0.1438
 5195SOL    HW227045   3.488   3.543  16.200 -0.7157 -0.5617 -0.1288
 5196SOL     OW27046   3.837   2.439   0.445  0.1315  0.3289 -0.6003
 5196SOL    HW127047   3.787   2.369   0.404 -0.1670 -1.5109  2.9413
 5196SOL    HW227048   3.875   2.480   0.367  1.2144 -2.3832 -1.5101
 5197SOL     OW27049   3.749   3.233   5.655  0.2353 -0.1248 -0.1135
 5197SOL    HW127050   3.758   3.325   5.632 -1.3974  0.3439  1.1219
 5197SOL    HW227051   3.724   3.235   5.747  0.0386 -2.2379 -0.1252
 5198SOL     OW27052   0.610   1.544   2.676 -0.0730  0.3885 -0.2209
 5198SOL    HW127053   0.658   1.569   2.755  0.8922  2.1409 -1.3642
 5198SOL    HW227054   0.642   1.454   2.666  1.3726  0.8511  0.2592
 5199SOL     OW27055   3.148   0.884   1.178  0.4576 -1.1667 -0.2132
 5199SOL    HW127056   3.146   0.858   1.269  3.3434  2.2166  0.8178
 5199SOL    HW227057   3.209   0.957   1.188  0.2809 -0.9785 -0.4761
 5200SOL     OW27058   2.313   1.476   5.104  0.3742 -0.2807 -0.2117
 5200SOL    HW127059   2.367   1.497   5.027  1.0707 -1.5317 -0.0590
 5200SOL    HW227060   2.228   1.472   5.061  1.8597 -1.3545 -3.0914
 5201SOL     OW27061   0.162   2.234   5.875 -0.5354 -0.1964  0.1730
 5201SOL    HW127062   0.248   2.194   5.887  0.4546  1.9503  0.2690
 5201SOL    HW227063   0.140   2.275   5.958  2.7267  0.0509  0.8940
 5202SOL     OW27064   4.621   0.270   3.780  0.1920 -0.2926  0.3874
 5202SOL    HW127065   4.642   0.196   3.837  0.8182  0.5666  1.2607
 5202SOL    HW227066   4.642   0.229   3.695 -2.8703  1.2774 -1.1404
 5203SOL     OW27067   1.029   2.679   7.175 -0.0447 -0.2718 -0.1025
 5203SOL    HW127068   0.965   2.701   7.107 -0.3879 -2.8393 -0.5901
 5203SOL    HW227069   1.098   2.631   7.129  1.9113  0.9178  1.5933
 5204SOL     OW27070   3.116   4.508   5.313 -0.0224 -0.5843 -0.1736
 5204SOL    HW127071   3.170   4.429   5.302 -0.0688 -0.7531  0.8620
 5204SOL    HW227072   3.193   4.564   5.300 -1.2757  0.8598 -1.3506
 5205SOL     OW27073   1.525   3.708   5.593 -0.4815 -0.3384 -0.4191
 5205SOL    HW127074   1.493   3.789   5.554  0.2379  0.3849  0.5038
 5205SOL    HW227075   1.570   3.740   5.671 -1.6891  1.7359 -0.5626
 5206SOL     OW27076   2.104   2.002   3.857  0.6105  0.0822  0.1298
 5206SOL    HW127077   2.024   1.983   3.905  0.0006 -0.5744 -1.1401
 5206SOL    HW227078   2.075   2.045   3.776  0.5060  1.9830  1.1620
 5207SOL     OW27079   2.417   3.079   9.620  0.1791 -0.3424 -0.4748
 5207SOL    HW127080   2.502   3.092   9.577  1.2189  1.4454  2.0779
 5207SOL    HW227081   2.363   3.140   9.570  1.4603  2.3436  1.4081
 5208SOL     OW27082   4.613   0.956   4.194  0.0381  0.5793  0.5897
 5208SOL    HW127083   4.575   0.870   4.212  0.1153  0.5381  0.5531
 5208SOL    HW227084   4.665   0.935   4.116 -0.2828  0.5869  0.3711
 5209SOL     OW27085   4.483   4.009   1.405  0.4290  0.9215  0.3651
 5209SOL    HW127086   4.505   3.916   1.416  1.2783  1.0041 -0.6174
 5209SOL    HW227087   4.571   4.045   1.416  0.8513  0.3590 -1.2455
 5210SOL     OW27088   2.588   2.300  15.118 -0.1660  0.2498 -0.0761
 5210SOL    HW127089   2.628   2.366  15.174  0.1975 -1.0762  1.2429
 5210SOL    HW227090   2.654   2.231  15.129 -0.3359 -0.2086 -1.8558
 5211SOL     OW27091   1.294   2.203   0.785 -0.3122  0.2056 -0.4311
 5211SOL    HW127092   1.350   2.131   0.816  0.2734  0.4847 -0.8316
 5211SOL    HW227093   1.284   2.185   0.691  0.8942 -1.9443 -0.1544
 5212SOL     OW27094   2.356   4.148   4.280 -0.3024 -0.6855  0.0849
 5212SOL    HW127095   2.378   4.208   4.351  0.1197 -2.1069  1.1567
 5212SOL    HW227096   2.266   4.174   4.262  0.5394  1.5921 -0.8506
 5213SOL     OW27097   1.718   0.852   1.446 -0.4921  0.3990  0.5742
 5213SOL    HW127098   1.731   0.757   1.440 -1.9950  0.2093  0.3333
 5213SOL    HW227099   1.672   0.866   1.529 -0.8355 -1.2913  0.6824
 5214SOL     OW27100   4.069   4.517   9.969  0.1779 -0.0241  0.1136
 5214SOL    HW127101   4.024   4.522  10.053 -0.3236 -0.3934 -0.1359
 5214SOL    HW227102   3.995   4.536   9.911  0.6435 -2.5731 -1.2838
 5215SOL     OW27103   0.641   3.857  13.625  0.8022 -0.5729  0.6163
 5215SOL    HW127104   0.549   3.878  13.609  0.6967 -0.7163  1.0558
 5215SOL    HW227105   0.633   3.766  13.652  0.8416 -0.2579  1.6927
 5216SOL     OW27106   3.798   2.258  11.101 -0.1742 -0.1144 -0.1274
 5216SOL    HW127107   3.841   2.203  11.036 -0.5328 -0.5322 -0.0113
 5216SOL    HW227108   3.716   2.280  11.058  1.0102 -1.3197 -2.9795
 5217SOL     OW27109   3.697   1.412   7.544  0.9195  0.1885  0.4169
 5217SOL    HW127110   3.609   1.377   7.555  0.1552  1.6014 -1.2431
 5217SOL    HW227111   3.751   1.335   7.563  0.6745  0.5535  2.6125
 5218SOL     OW27112   4.274   4.632   5.031 -0.7660 -0.5660  0.1202
 5218SOL    HW127113   4.357   4.619   4.984 -0.7738  0.1078 -0.0923
 5218SOL    HW227114   4.226   4.696   4.978 -1.3280  0.8930  2.3842
 5219SOL     OW27115   2.826   2.957   6.777 -0.8352  0.1002 -0.1200
 5219SOL    HW127116   2.766   2.897   6.820 -2.1512  1.6134  0.1913
 5219SOL    HW227117   2.910   2.912   6.783 -0.8710 -0.3222 -2.8063
 5220SOL     OW27118   3.962   0.886   1.535 -0.2823 -0.5123  0.3834
 5220SOL    HW127119   3.930   0.940   1.608  0.6680 -0.0592  0.4663
 5220SOL    HW227120   4.054   0.887   1.561 -0.7429  1.0814  1.9315
 5221SOL     OW27121   0.788   4.129   9.379 -0.9472 -0.0977  0.1659
 5221SOL    HW127122   0.798   4.042   9.341  0.7729  0.2366 -0.1501
 5221SOL    HW227123   0.816   4.179   9.302 -1.6597 -1.3884 -0.9268
 5222SOL     OW27124   4.008   3.238   7.100 -0.3304 -0.5230 -0.5047
 5222SOL    HW127125   3.970   3.183   7.032  0.0923 -1.3364 -0.0774
 5222SOL    HW227126   3.965   3.206   7.180 -2.1472  2.5200 -0.2656
 5223SOL     OW27127   2.459   0.369   4.685  0.0511  0.0672  0.5348
 5223SOL    HW127128   2.435   0.450   4.639  1.6494  0.2930  0.1061
 5223SOL    HW227129   2.444   0.402   4.773 -1.2006 -1.4573  0.8862
 5224SOL     OW27130   2.366   2.809   7.106 -0.4148  0.1957  0.3056
 5224SOL    HW127131   2.341   2.872   7.038  1.7183  1.2671  0.5013
 5224SOL    HW227132   2.311   2.733   7.086 -0.6531  0.8754 -1.5870
 5225SOL     OW27133   0.050   1.888  10.829  0.3586 -0.1275 -0.3944
 5225SOL    HW127134   4.710   1.945  10.868  0.6205 -0.2003  0.1508
 5225SOL    HW227135   0.082   1.955  10.769 -0.3806  1.1547  0.6375
 5226SOL     OW27136   2.379   0.426  17.282  0.4657 -0.3736 -0.5016
 5226SOL    HW127137   2.407   0.515  17.304 -0.4569  0.0238 -0.9495
 5226SOL    HW227138   2.381   0.386  17.369 -2.8134  0.5082 -0.0408
 5227SOL     OW27139   3.356   2.063   3.287 -0.4653 -0.1027 -0.3182
 5227SOL    HW127140   3.265   2.093   3.281 -1.0681 -2.1840 -1.3946
 5227SOL    HW227141   3.367   2.014   3.206  1.7955 -0.8310  0.4198
 5228SOL     OW27142   4.152   2.667   9.097 -0.4207  0.5679  0.1273
 5228SOL    HW127143   4.067   2.688   9.059 -0.7093  0.2347  0.5783
 5228SOL    HW227144   4.193   2.635   9.017 -1.6723 -0.4090 -0.1240
 5229SOL     OW27145   1.244   3.345   9.950 -0.2218 -0.3807  0.7887
 5229SOL    HW127146   1.150   3.360   9.959 -0.0733 -0.0748  1.8792
 5229SOL    HW227147   1.255   3.299  10.033  1.3115 -3.0586 -0.8843
 5230SOL     OW27148   2.340   0.239   6.660  0.8987  0.3864  0.3972
 5230SOL    HW127149   2.339   0.172   6.592 -0.6130  0.3599  0.4395
 5230SOL    HW227150   2.264   0.219   6.714  0.6892 -0.0075 -0.0465
 5231SOL     OW27151   2.569   2.592   0.474 -0.2281  0.6459 -0.3539
 5231SOL    HW127152   2.486   2.638   0.478 -0.1950  0.6904 -0.1671
 5231SOL    HW227153   2.628   2.665   0.460  0.8578 -0.3291 -0.8791
 5232SOL     OW27154   3.701   2.703   6.765 -0.5961 -0.6447  0.1404
 5232SOL    HW127155   3.793   2.722   6.784 -0.0457 -0.6411 -2.6094
 5232SOL    HW227156   3.714   2.683   6.673  1.0177 -0.7438  0.3807
 5233SOL     OW27157   1.341   0.704   0.663 -0.8401  0.2201 -0.0998
 5233SOL    HW127158   1.341   0.691   0.568  0.2702  3.5383 -0.5586
 5233SOL    HW227159   1.431   0.735   0.674  0.1536 -2.2071 -1.2064
 5234SOL     OW27160   0.866   4.316   8.131  0.3998  0.3596  0.1821
 5234SOL    HW127161   0.935   4.251   8.144 -0.6272 -0.8234 -0.2241
 5234SOL    HW227162   0.795   4.281   8.186 -0.2449  0.9227 -0.2858
 5235SOL     OW27163   1.281   0.671  12.143 -0.0487 -0.3709  0.4913
 5235SOL    HW127164   1.351   0.731  12.169 -0.5067  0.5699 -0.4424
 5235SOL    HW227165   1.211   0.735  12.137 -1.0209 -1.2815  1.9878
 5236SOL     OW27166   4.234   0.119   0.036 -0.3575  0.2947 -0.2910
 5236SOL    HW127167   4.326   0.145   0.039  0.0030 -0.7889 -2.0882
 5236SOL    HW227168   4.211   0.127  17.651  1.1120  1.3183 -0.5703
 5237SOL     OW27169   3.862   4.515   9.767  0.0754  0.4434 -0.0909
 5237SOL    HW127170   3.790   4.573   9.789 -1.8259 -2.3095  1.0177
 5237SOL    HW227171   3.828   4.478   9.686  0.9985  0.2279 -0.3913
 5238SOL     OW27172   3.026   0.385   4.522 -1.0850  0.0309 -0.3907
 5238SOL    HW127173   2.997   0.474   4.546  4.4209  1.5784  0.5673
 5238SOL    HW227174   3.002   0.334   4.599  1.5054 -0.6352 -0.0333
 5239SOL     OW27175   3.450   1.076  12.663  0.1650  0.2333  0.4305
 5239SOL    HW127176   3.429   1.037  12.748 -1.1941  1.6890  0.7655
 5239SOL    HW227177   3.430   1.166  12.688 -1.0562  0.3050 -0.7925
 5240SOL     OW27178   3.997   3.153  13.050  0.3874 -0.2008 -0.1501
 5240SOL    HW127179   4.062   3.175  13.117 -0.5966  1.4189  0.2579
 5240SOL    HW227180   3.975   3.060  13.060 -0.1859 -0.2363 -1.7808
 5241SOL     OW27181   3.475   1.154  17.465 -0.3419  0.2971  0.1081
 5241SOL    HW127182   3.386   1.122  17.481  0.2202 -1.2391  0.1958
 5241SOL    HW227183   3.500   1.175  17.555  0.3786 -0.3896  0.0675
 5242SOL     OW27184   3.156   2.662   3.763  0.2457 -0.1787  0.3325
 5242SOL    HW127185   3.215   2.606   3.713  1.2019  1.0825  0.0465
 5242SOL    HW227186   3.184   2.656   3.854 -2.8691 -0.1052  1.3113
 5243SOL     OW27187   1.970   4.670  15.769  0.7161 -0.3490 -0.4367
 5243SOL    HW127188   1.926   4.707  15.692  1.3453  1.7541  0.2302
 5243SOL    HW227189   1.913   4.593  15.774 -1.4730  1.2006 -1.3669
 5244SOL     OW27190   0.806   0.026   9.202  0.1759 -0.1235  0.4432
 5244SOL    HW127191   0.843   4.680   9.153 -2.2621 -1.6215  0.8361
 5244SOL    HW227192   0.809   0.087   9.128 -0.9769 -0.8764 -0.2074
 5245SOL     OW27193   3.420   1.136   7.242 -0.1936 -0.0628  0.0650
 5245SOL    HW127194   3.412   1.100   7.330 -1.4305  0.8238  0.3081
 5245SOL    HW227195   3.514   1.125   7.227  0.2813  0.2903  2.7777
 5246SOL     OW27196   1.811   2.981   3.767 -0.4611 -0.7595  0.3559
 5246SOL    HW127197   1.741   3.026   3.814  2.0943  3.0186  0.5697
 5246SOL    HW227198   1.856   2.934   3.837 -0.9500 -1.4887  0.1698
 5247SOL     OW27199   4.121   2.439   3.213 -0.7394 -0.0110  0.2937
 5247SOL    HW127200   4.174   2.518   3.207  0.8564 -1.1335 -0.4448
 5247SOL    HW227201   4.191   2.374   3.212 -0.1459  0.6503 -0.8095
 5248SOL     OW27202   0.120   0.220  12.299 -0.0468 -0.1359 -0.4232
 5248SOL    HW127203   0.135   0.253  12.210  0.9120  0.9022  0.1146
 5248SOL    HW227204   0.173   0.288  12.342 -0.0524  0.6815 -1.6971
 5249SOL     OW27205   0.391   2.021  16.035  0.2049 -0.7332 -0.2144
 5249SOL    HW127206   0.460   1.977  16.085 -0.0691 -1.0292 -0.1002
 5249SOL    HW227207   0.322   1.955  16.038  1.2514 -1.7988  0.3922
 5250SOL     OW27208   1.104   3.590  13.800 -0.2111 -0.2550 -0.2407
 5250SOL    HW127209   1.151   3.630  13.873 -2.0770 -0.0417  0.8267
 5250SOL    HW227210   1.086   3.658  13.735 -0.5216  0.1969  0.3188
 5251SOL     OW27211   3.198   1.196   5.756  0.0015  0.0222 -0.3586
 5251SOL    HW127212   3.277   1.195   5.811  1.9336 -2.2281 -3.1578
 5251SOL    HW227213   3.203   1.106   5.723  0.7196  0.7345 -2.1814
 5252SOL     OW27214   1.552   2.200   5.474 -0.4387  0.0731 -0.4914
 5252SOL    HW127215   1.616   2.269   5.452  1.6158 -1.9439 -0.7941
 5252SOL    HW227216   1.478   2.253   5.442  0.2922  1.2219 -0.2910
 5253SOL     OW27217   2.919   4.075  13.773  0.6166 -0.2122  0.0215
 5253SOL    HW127218   2.865   4.146  13.738  1.3997  0.1772 -0.3943
 5253SOL    HW227219   2.888   4.078  13.863  0.4449 -2.9006  0.0467
 5254SOL     OW27220   4.038   3.843   6.444  0.1823  0.1803  0.3795
 5254SOL    HW127221   3.981   3.795   6.384 -0.3542 -0.5045  1.4397
 5254SOL    HW227222   4.027   3.787   6.520  0.4593  1.0819  1.0848
 5255SOL     OW27223   2.875   2.680   3.735 -0.2650 -0.2788 -0.1885
 5255SOL    HW127224   2.969   2.683   3.717 -0.1969  1.6587  0.4158
 5255SOL    HW227225   2.862   2.587   3.751 -2.2815  0.1410  0.6582
 5256SOL     OW27226   1.138   0.628   6.936 -0.4616 -0.2803 -0.6574
 5256SOL    HW127227   1.194   0.628   6.858  1.4652 -0.5610  0.7231
 5256SOL    HW227228   1.059   0.609   6.885  0.7503  0.0342 -2.6443
 5257SOL     OW27229   0.055   3.619   8.252  0.0911  0.1693 -0.1374
 5257SOL    HW127230   4.704   3.565   8.264 -0.5189  0.6473 -1.9140
 5257SOL    HW227231   0.075   3.664   8.334  1.7116 -0.9759  0.0921
 5258SOL     OW27232   1.940   3.714   1.667 -0.2067 -0.2861  0.1663
 5258SOL    HW127233   1.879   3.649   1.703 -1.0856 -0.8765 -2.3580
 5258SOL    HW227234   2.017   3.667   1.635  0.5356  0.7566  0.4354
 5259SOL     OW27235   1.460   0.392   1.680 -0.4117  0.1372 -0.8292
 5259SOL    HW127236   1.450   0.297   1.675 -1.9150  0.2565 -0.0904
 5259SOL    HW227237   1.369   0.419   1.669  0.1697  2.5587  0.2459
 5260SOL     OW27238   1.840   4.677   2.003  0.7763  0.0567  0.3148
 5260SOL    HW127239   1.794   0.018   1.953 -0.3364 -0.0934  1.1390
 5260SOL    HW227240   1.876   0.005   2.074  0.2213  0.9122 -0.0566
 5261SOL     OW27241   2.941   2.131   3.012 -0.9859 -0.0455  0.2349
 5261SOL    HW127242   2.924   2.208   3.065 -0.2272 -0.9518  1.8014
 5261SOL    HW227243   2.884   2.155   2.939  1.1735  0.9961 -1.0940
 5262SOL     OW27244   1.311   1.565  15.820 -0.6291 -0.3356  0.0812
 5262SOL    HW127245   1.389   1.565  15.876 -0.4017 -0.0267 -0.2329
 5262SOL    HW227246   1.350   1.565  15.732 -1.2438 -0.3699 -0.1885
 5263SOL     OW27247   4.423   1.072   4.930 -0.0307  0.3684 -0.3539
 5263SOL    HW127248   4.500   1.109   4.887  0.2038  0.7554  0.3932
 5263SOL    HW227249   4.454   0.982   4.933  0.3032  0.4624 -0.9198
 5264SOL     OW27250   0.331   4.261   6.365 -0.1455 -0.0865  0.8699
 5264SOL    HW127251   0.258   4.314   6.335  0.1765  0.0474  0.3251
 5264SOL    HW227252   0.377   4.320   6.425  1.6233 -0.3103 -0.2521
 5265SOL     OW27253   3.861   3.338   0.736 -0.3090  0.6664  0.0062
 5265SOL    HW127254   3.931   3.399   0.759  0.7839 -1.1190  1.4279
 5265SOL    HW227255   3.799   3.392   0.688 -2.4791 -0.2576  1.7945
 5266SOL     OW27256   2.198   3.151   3.838  0.7240 -0.6278  0.5514
 5266SOL    HW127257   2.110   3.148   3.876  1.1236  1.6329  1.6833
 5266SOL    HW227258   2.217   3.244   3.849  0.8395 -0.8359  2.1182
 5267SOL     OW27259   0.303   3.912   6.972 -0.8204 -0.6994  0.4843
 5267SOL    HW127260   0.351   3.960   7.040 -0.2255  1.7717 -1.6596
 5267SOL    HW227261   0.364   3.914   6.899  0.0918 -1.4885  1.2301
 5268SOL     OW27262   2.799   3.364   3.797 -0.1867 -0.1276 -0.1669
 5268SOL    HW127263   2.889   3.333   3.789 -0.1926 -0.3741  0.7163
 5268SOL    HW227264   2.790   3.425   3.724  1.6088 -1.2624 -1.3092
 5269SOL     OW27265   2.733   0.129   6.881 -0.7076 -0.1593  0.8262
 5269SOL    HW127266   2.819   0.103   6.915  0.3734  0.6117 -1.3128
 5269SOL    HW227267   2.767   0.200   6.827 -1.2291 -0.4519  0.1083
 5270SOL     OW27268   0.398   2.243   1.932 -0.0675 -0.1284  0.0261
 5270SOL    HW127269   0.319   2.189   1.935 -0.0315 -0.2523 -1.1960
 5270SOL    HW227270   0.443   2.196   1.862 -0.8959 -0.1661 -0.4877
 5271SOL     OW27271   2.250   2.456   4.205  0.4581 -0.2417 -0.5978
 5271SOL    HW127272   2.304   2.399   4.260  0.9991 -0.1000 -0.9750
 5271SOL    HW227273   2.228   2.391   4.138 -0.7669 -0.2866 -0.1470
 5272SOL     OW27274   1.081   3.899  13.906  0.7617  0.3673 -0.3488
 5272SOL    HW127275   1.177   3.893  13.899  0.7112  1.7374 -2.2640
 5272SOL    HW227276   1.068   3.932  13.995 -2.2189  4.7188 -2.3906
 5273SOL     OW27277   1.103   1.532   4.517 -0.6864 -0.5310  0.2599
 5273SOL    HW127278   1.031   1.556   4.576 -1.5288  0.6424 -1.2546
 5273SOL    HW227279   1.057   1.502   4.439  1.7737  1.0711 -1.7853
 5274SOL     OW27280   0.193   0.055  10.258  0.0120  0.2254 -0.2312
 5274SOL    HW127281   0.136   0.004  10.316 -1.1214 -1.1999 -2.6140
 5274SOL    HW227282   0.127   0.109  10.215 -1.5910  0.2559  2.2525
 5275SOL     OW27283   3.414   1.470   4.481 -0.1842  0.1562 -0.1290
 5275SOL    HW127284   3.444   1.421   4.405  3.2812  1.0057  0.6927
 5275SOL    HW227285   3.450   1.420   4.554  0.8141  2.6027  1.0549
 5276SOL     OW27286   4.336   0.144   8.598 -0.3583  0.4841  0.5298
 5276SOL    HW127287   4.271   0.102   8.655 -1.3822  0.6820 -0.4880
 5276SOL    HW227288   4.412   0.159   8.654 -1.8715  2.4522  2.0694
 5277SOL     OW27289   3.444   0.110  15.957  0.2018  0.6241 -0.5699
 5277SOL    HW127290   3.505   0.037  15.968  1.1074  1.6882  1.5221
 5277SOL    HW227291   3.433   0.106  15.862 -0.3467  0.3589 -0.4942
 5278SOL     OW27292   2.701   0.097   5.366  0.4074 -0.3215 -0.5642
 5278SOL    HW127293   2.751   0.028   5.322  1.4681  1.0139 -1.4699
 5278SOL    HW227294   2.713   0.062   5.454 -0.1403  0.5984 -0.1250
 5279SOL     OW27295   2.760   3.817   4.407 -0.5171  0.1852  0.3583
 5279SOL    HW127296   2.726   3.898   4.369 -1.2988 -0.5100 -0.4483
 5279SOL    HW227297   2.681   3.769   4.433 -0.0747 -0.2667  0.8613
 5280SOL     OW27298   4.686   0.747  17.448  0.6488 -0.1244 -0.8362
 5280SOL    HW127299   4.658   0.787  17.366 -0.0364  1.3942  0.1422
 5280SOL    HW227300   4.606   0.736  17.499  0.3016  2.4779 -0.8165
 5281SOL     OW27301   1.113   0.701   4.195  0.4687 -0.1100 -0.3637
 5281SOL    HW127302   1.197   0.656   4.185  0.3722 -0.3703 -0.0143
 5281SOL    HW227303   1.091   0.723   4.105  0.7957 -2.1739 -0.9564
 5282SOL     OW27304   2.419   0.822   2.439  0.3516  0.0457  0.2252
 5282SOL    HW127305   2.432   0.781   2.525  1.7257 -0.6280 -0.2981
 5282SOL    HW227306   2.334   0.781   2.422 -0.1493  1.1890  0.0259
 5283SOL     OW27307   3.748   4.425   8.374 -0.1723  0.5504  0.6332
 5283SOL    HW127308   3.805   4.357   8.337 -2.0394 -0.2337 -0.8219
 5283SOL    HW227309   3.767   4.408   8.466 -1.4333 -0.4494  0.7272
 5284SOL     OW27310   1.706   2.719  10.255  0.2575  0.1720  0.3419
 5284SOL    HW127311   1.682   2.676  10.337 -0.8459  1.1724  0.5465
 5284SOL    HW227312   1.800   2.700  10.250  0.0890 -0.3487 -0.8329
 5285SOL     OW27313   0.727   4.669   3.905 -0.2219 -0.0426  0.3874
 5285SOL    HW127314   0.713   0.009   3.972 -1.9722  0.5215 -0.5478
 5285SOL    HW227315   0.812   4.698   3.873 -1.5179  0.7764 -2.2699
 5286SOL     OW27316   2.894   4.196   2.662 -0.0038  0.7016 -0.8933
 5286SOL    HW127317   2.941   4.232   2.737  0.5004 -0.0948 -0.8366
 5286SOL    HW227318   2.886   4.276   2.610 -0.6575  1.6416  0.6465
 5287SOL     OW27319   4.084   2.671   6.268 -0.5496 -0.3014 -0.2752
 5287SOL    HW127320   4.160   2.622   6.237  1.1800  1.5402  1.0195
 5287SOL    HW227321   4.070   2.734   6.197  3.8877  0.6209 -0.2932
 5288SOL     OW27322   2.701   4.058   5.072 -0.1842 -0.1608 -0.7345
 5288SOL    HW127323   2.611   4.065   5.041  0.1740 -1.8139 -2.1067
 5288SOL    HW227324   2.755   4.084   4.998 -0.1434  0.8204 -0.3690
 5289SOL     OW27325   2.202   2.663   5.944  0.3692 -0.1168 -0.0002
 5289SOL    HW127326   2.204   2.677   6.039  0.4166  0.7620 -0.1384
 5289SOL    HW227327   2.147   2.585   5.942 -1.6505  1.3331 -0.3332
 5290SOL     OW27328   2.790   0.433   8.901 -0.5616 -0.0145  0.3276
 5290SOL    HW127329   2.859   0.494   8.876 -1.2184  1.3418  1.8481
 5290SOL    HW227330   2.775   0.449   8.994  2.3457  0.2628  0.7433
 5291SOL     OW27331   3.350   2.434  13.298  0.0853 -0.3086  0.2789
 5291SOL    HW127332   3.340   2.343  13.326 -2.6535 -0.9581 -2.9246
 5291SOL    HW227333   3.303   2.483  13.366  0.6736 -0.5815  0.8917
 5292SOL     OW27334   3.250   4.435  11.305  0.3289  0.0772  0.0710
 5292SOL    HW127335   3.191   4.510  11.296  2.6539  1.8246 -0.5866
 5292SOL    HW227336   3.293   4.465  11.385  1.1340  0.8848 -0.6773
 5293SOL     OW27337   1.354   3.157  10.172  0.1922  0.5929 -0.6899
 5293SOL    HW127338   1.263   3.136  10.192  0.6119 -1.1737 -0.5997
 5293SOL    HW227339   1.382   3.233  10.222 -0.1710 -0.7053  1.4932
 5294SOL     OW27340   1.114   0.829   3.952 -0.0606 -0.5767  0.0725
 5294SOL    HW127341   1.089   0.917   3.982  0.4978  1.0139 -4.1175
 5294SOL    HW227342   1.063   0.833   3.871  1.1069 -0.1926 -0.6472
 5295SOL     OW27343   3.070   3.549  14.819  0.0887 -0.2438  0.3848
 5295SOL    HW127344   3.103   3.581  14.903  2.8823 -0.7571 -0.5279
 5295SOL    HW227345   3.121   3.471  14.797 -0.1365 -1.2645  3.4702
 5296SOL     OW27346   1.122   1.712  16.174  0.1871 -0.5474 -0.1345
 5296SOL    HW127347   1.039   1.707  16.221 -0.0245 -0.3755 -0.4857
 5296SOL    HW227348   1.169   1.635  16.206 -0.5829 -1.4638 -1.1813
 5297SOL     OW27349   2.721   2.690   7.453 -0.0726 -0.6039  0.2364
 5297SOL    HW127350   2.772   2.758   7.408  0.5920 -0.2261  1.5495
 5297SOL    HW227351   2.772   2.611   7.434  0.2188  0.2256 -2.5268
 5298SOL     OW27352   1.074   0.820   7.147 -0.0287  0.2017 -0.3345
 5298SOL    HW127353   1.040   0.891   7.092 -1.6000  0.1644  0.5841
 5298SOL    HW227354   1.109   0.757   7.084 -1.5584 -1.1600  0.1625
 5299SOL     OW27355   4.127   4.585  14.076 -0.3963 -0.1022 -0.5578
 5299SOL    HW127356   4.034   4.565  14.061 -0.5015 -0.1974  0.2282
 5299SOL    HW227357   4.124   4.602  14.170 -1.0109  1.2608 -0.8251
 5300SOL     OW27358   3.136   4.678   0.513 -0.3770  0.1716 -0.1054
 5300SOL    HW127359   3.229   4.661   0.531 -0.3030 -1.1242 -1.6756
 5300SOL    HW227360   3.122   0.032   0.562  0.7284 -0.5603  1.4131
 5301SOL     OW27361   2.088   4.653   2.457 -0.2985  0.1125  0.1636
 5301SOL    HW127362   2.025   4.636   2.386  0.4794 -0.7403 -0.3198
 5301SOL    HW227363   2.062   4.583   2.518 -1.0916 -0.6005 -0.9846
 5302SOL     OW27364   1.480   4.296   5.420  0.3181 -0.1538  0.4826
 5302SOL    HW127365   1.523   4.243   5.488 -0.1517 -2.0056 -0.6520
 5302SOL    HW227366   1.508   4.246   5.344  1.7346 -0.4149  1.1748
 5303SOL     OW27367   2.658   4.294   4.243  0.0565 -0.4840  0.0135
 5303SOL    HW127368   2.575   4.302   4.196  0.2627  0.2874 -0.2122
 5303SOL    HW227369   2.656   4.198   4.240  2.3458 -0.5061 -0.8109
 5304SOL     OW27370   3.785   0.282   2.988  0.0565  0.4810  0.4507
 5304SOL    HW127371   3.834   0.205   3.018  0.9677  0.1053 -2.0195
 5304SOL    HW227372   3.717   0.298   3.054 -1.2790 -1.1459 -0.5331
 5305SOL     OW27373   0.178   3.996   6.654  0.0565 -0.1450  0.4241
 5305SOL    HW127374   0.271   3.988   6.674 -0.3047  0.9420  2.5661
 5305SOL    HW227375   0.135   4.038   6.729 -2.2115 -4.7231  1.7433
 5306SOL     OW27376   4.000   2.027  16.154  0.2007 -0.2983 -0.4888
 5306SOL    HW127377   3.974   1.942  16.189 -1.2611  0.6473  0.6830
 5306SOL    HW227378   4.090   2.031  16.185 -0.0023  1.3890 -0.0971
 5307SOL     OW27379   1.549   3.941   6.629  0.0851  0.1097  0.5134
 5307SOL    HW127380   1.619   4.005   6.641  1.8613 -1.8865  0.7818
 5307SOL    HW227381   1.578   3.859   6.669 -1.0794  0.4875  2.0967
 5308SOL     OW27382   1.882   3.663  15.058  0.1536 -0.1414 -0.2036
 5308SOL    HW127383   1.968   3.621  15.070  0.0495 -0.3751 -0.2874
 5308SOL    HW227384   1.846   3.602  14.994  0.4848 -0.0429 -0.4860
 5309SOL     OW27385   3.303   3.524  12.107 -0.3325  0.3354  0.0466
 5309SOL    HW127386   3.333   3.465  12.037  0.2805  2.0700 -1.1436
 5309SOL    HW227387   3.268   3.588  12.045 -0.3805 -0.3282 -0.6150
 5310SOL     OW27388   4.209   1.150   4.196  0.1654 -0.2189 -0.1766
 5310SOL    HW127389   4.276   1.156   4.265  0.2456  0.1978 -0.2941
 5310SOL    HW227390   4.147   1.091   4.240 -1.3693  1.4551 -0.1120
 5311SOL     OW27391   1.067   4.635   4.001 -0.1791 -0.2767 -0.6565
 5311SOL    HW127392   1.039   4.582   3.927  1.9751  1.2080 -2.5394
 5311SOL    HW227393   1.060   4.723   3.963 -0.8568  0.5858  1.4656
 5312SOL     OW27394   1.773   1.652   3.974  0.1249  0.1507 -0.1196
 5312SOL    HW127395   1.804   1.566   4.000  3.1765  2.1721  3.0271
 5312SOL    HW227396   1.691   1.623   3.934  0.4533 -1.2621  0.2635
 5313SOL     OW27397   0.367   2.729   5.378 -0.5880  0.5239  0.2935
 5313SOL    HW127398   0.353   2.807   5.324 -1.6244  0.6396  0.7258
 5313SOL    HW227399   0.409   2.670   5.316  1.2990  1.8964  0.2704
 5314SOL     OW27400   4.477   3.445   7.174  0.9739  0.3251  0.0399
 5314SOL    HW127401   4.505   3.468   7.085 -0.9543  0.1510 -0.6175
 5314SOL    HW227402   4.393   3.403   7.154  1.8446 -1.3337 -0.1377
 5315SOL     OW27403   2.638   0.570   5.743 -0.3481 -0.0049  0.0592
 5315SOL    HW127404   2.666   0.514   5.816 -1.3371 -0.6016 -0.0123
 5315SOL    HW227405   2.597   0.643   5.789 -2.6564 -0.8589 -0.6160
 5316SOL     OW27406   1.056   2.264  11.479 -0.1434  0.2943 -0.1440
 5316SOL    HW127407   0.988   2.276  11.545 -0.1200 -0.5290  0.0297
 5316SOL    HW227408   1.016   2.189  11.434 -2.5089  1.4925 -0.0747
 5317SOL     OW27409   3.872   4.297   3.161 -0.3437 -0.4744  0.1279
 5317SOL    HW127410   3.843   4.300   3.252 -1.3050 -1.9029 -0.1260
 5317SOL    HW227411   3.884   4.203   3.149 -0.0209 -0.5152  0.7935
 5318SOL     OW27412   0.460   3.532   8.552 -0.2074  0.0203  0.4812
 5318SOL    HW127413   0.375   3.497   8.579 -0.3337 -2.0119 -2.5455
 5318SOL    HW227414   0.512   3.518   8.631 -0.8556 -0.7209  0.7742
 5319SOL     OW27415   2.534   1.905   6.530 -0.4094 -0.1021 -0.1479
 5319SOL    HW127416   2.451   1.943   6.561 -0.0792 -0.2427  0.9107
 5319SOL    HW227417   2.524   1.914   6.435  3.0745 -2.4782 -0.7373
 5320SOL     OW27418   1.908   2.203   0.450  0.2504  0.6554 -0.2248
 5320SOL    HW127419   1.837   2.165   0.502  0.4355  0.4438 -0.1221
 5320SOL    HW227420   1.864   2.282   0.420  0.3924  0.8727  0.1483
 5321SOL     OW27421   2.240   2.146   3.154  0.1929  0.6615 -0.4218
 5321SOL    HW127422   2.329   2.174   3.134  1.0844 -0.5547  1.8361
 5321SOL    HW227423   2.177   2.211   3.122  0.3171  0.1437 -1.7168
 5322SOL     OW27424   2.336   2.022   4.270 -0.0863 -0.4024  0.1604
 5322SOL    HW127425   2.407   1.958   4.262 -0.5704 -0.8448 -0.5761
 5322SOL    HW227426   2.256   1.971   4.273 -0.5910  0.5114  1.8761
 5323SOL     OW27427   1.624   4.471  10.680  0.1670  0.4307  0.3238
 5323SOL    HW127428   1.587   4.525  10.611  1.2263 -0.0251 -0.6041
 5323SOL    HW227429   1.552   4.457  10.741  0.3891 -0.9348  0.2759
 5324SOL     OW27430   2.920   3.278   1.218  0.0138 -0.6745  0.1201
 5324SOL    HW127431   2.893   3.186   1.219  1.4893 -1.1069  0.0342
 5324SOL    HW227432   2.915   3.294   1.313  1.9968 -0.6613  0.2199
 5325SOL     OW27433   3.040   0.944  16.310 -0.5647 -0.7838 -0.2975
 5325SOL    HW127434   3.037   0.998  16.230  4.0937 -0.6960 -0.4031
 5325SOL    HW227435   3.074   0.859  16.283 -0.3969 -1.1423  1.0582
 5326SOL     OW27436   0.529   1.404   3.546 -0.2318 -0.2352  0.0234
 5326SOL    HW127437   0.493   1.357   3.621  0.8451 -1.2494 -0.1032
 5326SOL    HW227438   0.527   1.334   3.481 -0.6486 -1.0586  0.9304
 5327SOL     OW27439   3.214   3.914   4.317  0.0105 -0.1582 -0.1731
 5327SOL    HW127440   3.279   3.955   4.375  0.9713 -0.0179 -1.3536
 5327SOL    HW227441   3.166   3.861   4.381  1.2951 -2.8190 -1.4304
 5328SOL     OW27442   0.466   1.818   4.074  1.0264  0.3153  0.1239
 5328SOL    HW127443   0.373   1.805   4.058  0.9193  0.8477  0.3186
 5328SOL    HW227444   0.496   1.752   4.013 -0.2873  0.5506 -0.7715
 5329SOL     OW27445   0.253   3.548   1.777 -0.0189 -0.0280  0.1085
 5329SOL    HW127446   0.268   3.580   1.689 -0.6931 -1.2503 -0.4548
 5329SOL    HW227447   0.303   3.467   1.762 -0.3371 -0.1451 -0.3024
 5330SOL     OW27448   0.098   4.622   5.303 -0.6212 -0.0184  0.3706
 5330SOL    HW127449   0.065   4.574   5.379 -0.7266 -0.3736  0.0991
 5330SOL    HW227450   0.190   4.598   5.297 -0.1375  1.3883  2.1148
 5331SOL     OW27451   3.056   3.395   6.874  0.4849  0.3117 -0.0669
 5331SOL    HW127452   3.066   3.412   6.780  0.0289 -1.6751 -0.4667
 5331SOL    HW227453   3.022   3.482   6.893 -1.8881 -0.8577  1.0698
 5332SOL     OW27454   3.400   4.587  13.476  0.0769  0.0298  0.4941
 5332SOL    HW127455   3.463   4.602  13.547 -1.1923 -0.0767  1.6593
 5332SOL    HW227456   3.324   4.571  13.532 -1.0360  0.3572 -0.9196
 5333SOL     OW27457   0.257   3.673   7.548  0.0661  0.0515 -0.5106
 5333SOL    HW127458   0.303   3.595   7.580 -2.1507 -0.8690  0.4496
 5333SOL    HW227459   0.165   3.647   7.549 -0.0723  0.5517 -0.4691
 5334SOL     OW27460   3.954   1.280  14.340 -0.1345 -0.3451 -0.3264
 5334SOL    HW127461   3.975   1.304  14.429  0.3057  0.6756 -0.7123
 5334SOL    HW227462   3.862   1.309  14.342 -0.8339 -2.4529 -1.3783
 5335SOL     OW27463   0.102   2.562  14.456  0.2531 -0.5575 -0.5744
 5335SOL    HW127464   0.194   2.535  14.447  0.5201  0.4048 -0.7138
 5335SOL    HW227465   0.094   2.550  14.551  0.3657 -1.6233 -0.6966
 5336SOL     OW27466   1.079   3.030   4.888  0.0796  0.2821 -1.1174
 5336SOL    HW127467   1.173   3.018   4.882  0.2541  0.6331  1.0379
 5336SOL    HW227468   1.063   3.089   4.814  2.1690  0.4983 -1.3966
 5337SOL     OW27469   4.146   2.933   7.627 -0.1011  0.5940 -0.3255
 5337SOL    HW127470   4.112   2.935   7.716  0.3364  1.6412 -0.1796
 5337SOL    HW227471   4.189   2.848   7.638  1.1988  1.3419  0.3947
 5338SOL     OW27472   0.053   2.868   0.515 -0.1186 -0.1685  0.3950
 5338SOL    HW127473   0.054   2.911   0.600 -4.0766 -0.8159  0.7896
 5338SOL    HW227474   0.103   2.932   0.464  0.1904 -1.0791 -0.4460
 5339SOL     OW27475   2.788   3.552   6.854 -0.0677  0.4853  0.2344
 5339SOL    HW127476   2.790   3.474   6.799 -0.7168  0.3419  0.4211
 5339SOL    HW227477   2.757   3.521   6.938  1.1426 -0.6578  0.2419
 5340SOL     OW27478   1.172   0.876   0.948  0.4582  0.3748 -0.7790
 5340SOL    HW127479   1.156   0.789   0.910  1.0849 -0.8650  1.7390
 5340SOL    HW227480   1.081   0.901   0.961  0.5050 -0.2941  0.8549
 5341SOL     OW27481   0.901   2.712   8.620  0.0692  0.2925  0.0992
 5341SOL    HW127482   0.955   2.674   8.551  0.1295 -0.8272  0.7607
 5341SOL    HW227483   0.883   2.641   8.682  1.7755 -1.0973 -0.9846
 5342SOL     OW27484   4.104   4.293   1.252 -0.0266  0.2130 -0.4689
 5342SOL    HW127485   4.031   4.290   1.190 -0.8021 -0.1607  0.4578
 5342SOL    HW227486   4.158   4.226   1.211 -1.2430 -0.7207 -0.5733
 5343SOL     OW27487   3.111   1.993   3.185 -0.4154 -0.4773  0.1805
 5343SOL    HW127488   3.052   2.052   3.137  1.5495  0.5125 -1.0010
 5343SOL    HW227489   3.137   1.935   3.114  2.3070 -0.9899  1.6043
 5344SOL     OW27490   0.574   4.352   8.224  0.3466  0.0556 -0.4143
 5344SOL    HW127491   0.507   4.395   8.276 -1.3876  0.0661 -2.6728
 5344SOL    HW227492   0.557   4.359   8.130 -2.1572 -1.0677 -0.0480
 5345SOL     OW27493   1.618   3.145   6.796  0.2922 -0.5364  0.8301
 5345SOL    HW127494   1.533   3.128   6.756  1.1457 -0.1207 -1.1934
 5345SOL    HW227495   1.588   3.140   6.886  0.0327 -2.4664  0.6410
 5346SOL     OW27496   3.256   4.697   7.559 -0.0965  0.4882  0.2373
 5346SOL    HW127497   3.253   0.026   7.480  2.3622 -0.6457 -0.6548
 5346SOL    HW227498   3.283   0.040   7.619  1.3470 -1.5488  1.9025
 5347SOL     OW27499   4.238   0.308   9.272 -0.2489  0.3898 -0.1709
 5347SOL    HW127500   4.275   0.388   9.237  0.1518 -0.4441 -1.6557
 5347SOL    HW227501   4.283   0.244   9.216 -0.1065 -0.3662  0.8025
 5348SOL     OW27502   0.973   2.333  17.207  0.5393 -0.3334 -0.2827
 5348SOL    HW127503   0.953   2.244  17.180  0.1604 -0.3867  0.1698
 5348SOL    HW227504   0.889   2.363  17.242  1.1710  1.0285  0.0997
 5349SOL     OW27505   2.448   4.129   1.174 -0.5015 -0.5351  0.7451
 5349SOL    HW127506   2.529   4.082   1.153 -0.2781  0.0192  0.3877
 5349SOL    HW227507   2.449   4.204   1.116 -2.5277 -1.4414 -0.4398
 5350SOL     OW27508   1.523   1.473  13.624  0.1157  0.3748  0.5032
 5350SOL    HW127509   1.522   1.378  13.634  2.8361  0.0303 -2.6565
 5350SOL    HW227510   1.430   1.496  13.624 -0.2763 -1.2440  0.6430
 5351SOL     OW27511   2.727   0.166   2.261 -0.0122 -0.1313 -0.0054
 5351SOL    HW127512   2.686   0.080   2.269 -0.6637  0.2400  0.6231
 5351SOL    HW227513   2.822   0.153   2.267 -0.0731 -0.2021  0.9375
 5352SOL     OW27514   1.502   3.615   7.856 -0.9719  0.0170  0.0065
 5352SOL    HW127515   1.411   3.632   7.831 -0.7987 -0.4164 -0.9331
 5352SOL    HW227516   1.484   3.603   7.949 -1.1308  0.7937  0.0805
 5353SOL     OW27517   3.294   1.163   8.224 -0.2538 -0.1331  0.4931
 5353SOL    HW127518   3.372   1.158   8.167 -0.8925 -1.1724 -0.2805
 5353SOL    HW227519   3.233   1.102   8.183 -1.5635  2.8299 -1.9304
 5354SOL     OW27520   4.191   0.414   6.302 -0.3078  0.1334  0.2945
 5354SOL    HW127521   4.140   0.393   6.224  1.8876 -2.8268 -0.3239
 5354SOL    HW227522   4.127   0.472   6.344 -0.4032 -0.0164  0.3564
 5355SOL     OW27523   2.640   0.404  11.396  0.3124  0.1776 -0.3108
 5355SOL    HW127524   2.723   0.396  11.443 -0.9991  0.0418  1.9460
 5355SOL    HW227525   2.660   0.476  11.336 -0.4178  1.1618  0.6337
 5356SOL     OW27526   1.579   3.605   4.255  0.1466  0.3255 -0.5415
 5356SOL    HW127527   1.646   3.672   4.266  0.1407  0.0411  1.1946
 5356SOL    HW227528   1.519   3.648   4.194 -0.9861  2.5005  2.1181
 5357SOL     OW27529   4.046   1.381   2.895 -0.6439  0.1299  0.1534
 5357SOL    HW127530   3.985   1.376   2.968 -1.1948 -0.3482 -0.3408
 5357SOL    HW227531   4.030   1.473   2.870 -1.5180  0.2040  0.9946
 5358SOL     OW27532   4.470   3.566   6.238  0.0132 -0.0031 -0.1760
 5358SOL    HW127533   4.528   3.640   6.254  1.1710 -0.8157 -0.5721
 5358SOL    HW227534   4.523   3.510   6.294  3.0919  1.1903 -1.8797
 5359SOL     OW27535   0.865   4.527   2.548  0.8123  0.1776  0.0724
 5359SOL    HW127536   0.873   4.432   2.548  4.2395  0.4624  0.6979
 5359SOL    HW227537   0.920   4.553   2.474 -0.3903  1.5155 -0.3678
 5360SOL     OW27538   4.708   4.616   9.526  0.3030  0.1378  0.8432
 5360SOL    HW127539   0.019   4.534   9.494 -2.6909 -1.1152  0.5967
 5360SOL    HW227540   4.615   4.604   9.542  0.3196 -2.3210 -0.9869
 5361SOL     OW27541   2.961   3.799  15.508 -0.3999  0.1820 -0.5056
 5361SOL    HW127542   2.898   3.765  15.445 -0.1203 -1.8644  0.3111
 5361SOL    HW227543   2.902   3.796  15.584  1.1680  1.7853  0.7966
 5362SOL     OW27544   2.046   0.319   9.945 -0.3694 -0.3695 -0.5155
 5362SOL    HW127545   2.043   0.343   9.853  1.3783 -0.0873 -0.5093
 5362SOL    HW227546   2.098   0.387   9.989 -0.8337 -0.5305  0.2860
 5363SOL     OW27547   1.766   0.960   1.923  0.0056 -0.7545 -0.2274
 5363SOL    HW127548   1.714   1.022   1.872 -1.3266  0.4796  2.5979
 5363SOL    HW227549   1.730   0.874   1.900  0.3906 -0.2864 -2.5650
 5364SOL     OW27550   1.658   1.706  11.280 -0.3339 -0.4720  0.1208
 5364SOL    HW127551   1.605   1.786  11.278 -0.6118 -0.6811 -1.5244
 5364SOL    HW227552   1.621   1.661  11.203  0.6170  0.7415 -1.0491
 5365SOL     OW27553   0.263   3.557  15.460  0.5344 -0.4101  0.2533
 5365SOL    HW127554   0.335   3.579  15.401  1.4784  3.5599  2.8359
 5365SOL    HW227555   0.248   3.639  15.508  0.6895  0.1856 -0.7155
 5366SOL     OW27556   3.294   3.007   7.928  0.4024 -0.0474 -0.6057
 5366SOL    HW127557   3.220   3.020   7.868 -0.5098 -0.8384  0.3742
 5366SOL    HW227558   3.347   2.954   7.868 -0.8678 -2.6755  0.6068
 5367SOL     OW27559   0.534   2.458   3.748  0.5412  0.1301 -0.3478
 5367SOL    HW127560   0.544   2.488   3.658  1.5076 -2.4200 -1.1097
 5367SOL    HW227561   0.624   2.428   3.765 -0.0605 -0.4104  1.9070
 5368SOL     OW27562   2.777   0.326   7.328 -0.0912 -0.0498  0.7987
 5368SOL    HW127563   2.823   0.284   7.400  1.5253 -0.4635 -0.4664
 5368SOL    HW227564   2.821   0.410   7.316 -1.5760  0.5541 -0.3741
 5369SOL     OW27565   3.287   1.039   3.238  0.0178  0.0208 -0.0539
 5369SOL    HW127566   3.289   1.062   3.145 -0.9400 -0.3822 -0.1687
 5369SOL    HW227567   3.215   0.977   3.248  1.7804 -2.0664 -0.3866
 5370SOL     OW27568   1.581   4.176   2.212  0.3322 -0.5282  0.0732
 5370SOL    HW127569   1.543   4.236   2.148  0.2004 -0.2914  0.3748
 5370SOL    HW227570   1.673   4.200   2.220 -0.3681  1.3036  2.4934
 5371SOL     OW27571   0.454   0.018   4.592  0.1835  0.4380 -0.1862
 5371SOL    HW127572   0.426   4.657   4.564  0.1495  0.6104 -0.6823
 5371SOL    HW227573   0.368   0.059   4.581 -0.1382 -0.1297  0.1511
 5372SOL     OW27574   0.825   0.650  15.916  0.0320  0.2454 -0.0606
 5372SOL    HW127575   0.879   0.727  15.900 -1.3332  1.2966  0.3700
 5372SOL    HW227576   0.864   0.619  15.997 -0.5739  3.7892  1.5866
 5373SOL     OW27577   3.363   0.584  17.486  0.2999  0.0974  0.2296
 5373SOL    HW127578   3.430   0.523  17.518  0.6653  0.7366  0.6737
 5373SOL    HW227579   3.312   0.580  17.567  2.8825 -3.1744  1.7078
 5374SOL     OW27580   1.166   2.356   1.585 -0.1696 -0.2945  0.2662
 5374SOL    HW127581   1.120   2.366   1.501  1.0150 -1.0056 -0.4700
 5374SOL    HW227582   1.251   2.351   1.541 -0.2777  3.7588 -0.3841
 5375SOL     OW27583   3.180   4.169   2.306  0.0025  0.4057 -0.1699
 5375SOL    HW127584   3.150   4.080   2.289 -0.3092  0.4105  0.3432
 5375SOL    HW227585   3.275   4.163   2.303 -0.0617 -0.4341 -0.6503
 5376SOL     OW27586   1.501   2.408   5.308  0.6213 -1.0257 -0.0601
 5376SOL    HW127587   1.521   2.502   5.311 -0.2407 -0.7832 -1.8734
 5376SOL    HW227588   1.482   2.387   5.217 -0.0065 -0.3364 -0.0864
 5377SOL     OW27589   3.163   2.207  16.862 -0.1177 -0.0883  0.5711
 5377SOL    HW127590   3.074   2.210  16.825  0.2990  0.2526 -0.4017
 5377SOL    HW227591   3.142   2.159  16.942  0.6554 -1.6614 -0.1636
 5378SOL     OW27592   0.828   0.174   8.968 -0.4240 -0.0699 -0.0500
 5378SOL    HW127593   0.824   0.128   8.884 -0.6632 -1.6446  0.8302
 5378SOL    HW227594   0.829   0.263   8.934 -0.5393 -0.9572 -2.3778
 5379SOL     OW27595   3.013   0.865   4.476  0.3807  0.1561 -0.7877
 5379SOL    HW127596   3.003   0.953   4.440 -0.2405  0.8321  1.0079
 5379SOL    HW227597   3.034   0.817   4.396  1.3193 -1.0487  0.1743
 5380SOL     OW27598   2.153   1.211   4.975 -0.3506  0.0011 -0.7580
 5380SOL    HW127599   2.091   1.187   5.044  1.4592 -0.1979  0.8007
 5380SOL    HW227600   2.153   1.304   4.994  0.5431 -0.3912  1.2240
 5381SOL     OW27601   0.191   3.067  13.582  0.0359  0.3391  0.1977
 5381SOL    HW127602   0.244   3.123  13.638 -2.3916  2.8295  0.0684
 5381SOL    HW227603   0.239   2.985  13.573  1.0568  1.0326 -0.6260
 5382SOL     OW27604   0.134   4.653   2.031  0.1266 -0.1810  0.3262
 5382SOL    HW127605   0.171   0.002   2.077  1.3907 -0.5808 -0.0302
 5382SOL    HW227606   0.147   4.588   2.100  1.3539  1.0448  1.2408
 5383SOL     OW27607   1.799   2.778   8.446  0.1510 -0.2202 -0.5293
 5383SOL    HW127608   1.729   2.715   8.434  0.3186 -0.7704  1.5426
 5383SOL    HW227609   1.772   2.838   8.376  0.7087 -0.7772 -1.2265
 5384SOL     OW27610   0.959   0.311   9.323 -0.2779 -0.0791 -0.1622
 5384SOL    HW127611   0.995   0.355   9.246 -0.5317 -0.4992 -0.5230
 5384SOL    HW227612   0.875   0.357   9.323  0.2323  0.8656  1.2461
 5385SOL     OW27613   3.620   3.338   5.305  0.6621  0.4379  0.0999
 5385SOL    HW127614   3.551   3.379   5.358 -0.1352 -1.0027  0.1782
 5385SOL    HW227615   3.569   3.284   5.244  1.3945 -0.0518 -0.0810
 5386SOL     OW27616   2.684   1.877   9.967  0.3540 -0.2273  0.8763
 5386SOL    HW127617   2.594   1.851   9.952  0.3554 -0.0490  0.5552
 5386SOL    HW227618   2.683   1.968   9.937  0.0170 -0.5983 -0.2443
 5387SOL     OW27619   0.163   3.532  11.453  0.3755  0.1851 -0.6082
 5387SOL    HW127620   0.168   3.580  11.536 -1.8950 -2.7123  1.1981
 5387SOL    HW227621   0.069   3.527  11.433  0.5354  0.9494 -1.5645
 5388SOL     OW27622   4.284   2.741   1.095  0.0670 -0.2355 -0.3945
 5388SOL    HW127623   4.236   2.786   1.025  1.2647 -1.1486 -1.7919
 5388SOL    HW227624   4.211   2.707   1.147  1.6231  0.2754  2.1114
 5389SOL     OW27625   3.533   1.867   3.411 -0.2293  0.0724 -0.6933
 5389SOL    HW127626   3.480   1.820   3.346  0.5575 -2.0889  0.2192
 5389SOL    HW227627   3.504   1.958   3.402 -1.8448 -0.5501 -1.8516
 5390SOL     OW27628   2.688   0.976   5.217 -0.0761  0.1622 -0.0373
 5390SOL    HW127629   2.713   0.969   5.309 -1.9652 -0.1127  0.4686
 5390SOL    HW227630   2.689   1.071   5.205 -2.5836  0.0290 -1.5335
 5391SOL     OW27631   1.525   1.507   7.927  0.0902 -0.1336  0.1894
 5391SOL    HW127632   1.490   1.499   8.015 -0.0377 -0.7077  0.0925
 5391SOL    HW227633   1.569   1.422   7.921  1.3570  0.3828  2.1549
 5392SOL     OW27634   1.075   4.148  10.903 -0.2057  0.2245 -0.1730
 5392SOL    HW127635   1.161   4.107  10.905  0.3069  1.3238  0.3866
 5392SOL    HW227636   1.011   4.095  10.950 -0.5620  2.0468  1.4302
 5393SOL     OW27637   2.182   3.967   5.787  0.6213  0.2989 -0.0064
 5393SOL    HW127638   2.165   3.898   5.723  1.6515  1.0903 -1.1273
 5393SOL    HW227639   2.095   3.982   5.824  0.3871  1.8325 -1.1707
 5394SOL     OW27640   0.426   0.056  12.588 -0.8670  0.0582  0.4018
 5394SOL    HW127641   0.363   0.102  12.644 -1.5064  0.7746 -0.9032
 5394SOL    HW227642   0.401   0.086  12.501 -3.4417 -0.0562  1.0982
 5395SOL     OW27643   3.613   1.867   7.141  0.0842  0.2233 -0.7306
 5395SOL    HW127644   3.565   1.840   7.219 -0.4694 -2.4936 -2.0215
 5395SOL    HW227645   3.573   1.805   7.079  0.2846  2.0418 -2.6900
 5396SOL     OW27646   2.115   4.522   3.655 -0.1560 -0.2785  0.0132
 5396SOL    HW127647   2.150   4.446   3.609  0.9149  0.1045  0.1851
 5396SOL    HW227648   2.026   4.526   3.619  0.0261 -1.1950 -0.5462
 5397SOL     OW27649   1.657   1.653  14.561  0.0325  0.0303 -0.2044
 5397SOL    HW127650   1.610   1.730  14.592 -1.3059 -0.8316 -0.0842
 5397SOL    HW227651   1.674   1.613  14.647 -1.7917 -0.2166  0.0395
 5398SOL     OW27652   2.615   3.717  17.630  0.2464  0.2283 -0.3721
 5398SOL    HW127653   2.662   3.682  17.554  2.1142 -2.0531  1.8343
 5398SOL    HW227654   2.625   3.648  17.696 -3.3687  1.0640  1.0611
 5399SOL     OW27655   1.026   3.117   7.090  0.1630 -0.1276  0.5299
 5399SOL    HW127656   1.092   3.087   7.029  2.3515  0.6170  2.5365
 5399SOL    HW227657   1.076   3.124   7.172  0.7054 -0.0685  0.1908
 5400SOL     OW27658   0.079   1.613   7.475  0.5221 -0.2524 -0.0779
 5400SOL    HW127659   0.045   1.527   7.451 -3.3402  1.5656 -1.0629
 5400SOL    HW227660   0.093   1.600   7.569  3.2933  0.8721 -0.3303
 5401SOL     OW27661   3.228   3.905   3.313 -0.3450  0.7299 -0.2246
 5401SOL    HW127662   3.321   3.915   3.334  0.0646  0.8163 -2.1635
 5401SOL    HW227663   3.211   3.813   3.293  0.8738  0.4470  0.0289
 5402SOL     OW27664   3.026   2.162   4.737 -0.1263 -0.2198  0.1585
 5402SOL    HW127665   3.112   2.123   4.721  0.3885  0.8226  0.4015
 5402SOL    HW227666   3.005   2.209   4.657 -0.9980  1.2250  1.2340
 5403SOL     OW27667   4.371   0.185   5.467 -0.5025  0.4835  0.2646
 5403SOL    HW127668   4.440   0.152   5.524 -0.9430  0.2889  0.6835
 5403SOL    HW227669   4.414   0.189   5.381  0.9453 -1.2506  0.8953
 5404SOL     OW27670   1.079   0.158   5.804 -0.6099  0.3693 -0.3829
 5404SOL    HW127671   1.090   0.136   5.712  0.5600  1.6918 -0.5601
 5404SOL    HW227672   1.156   0.215   5.813 -0.3818 -0.1357  0.8281
 5405SOL     OW27673   1.387   1.496   5.771  0.0847 -0.0688  0.4566
 5405SOL    HW127674   1.407   1.425   5.832  1.3129 -1.1058 -1.1399
 5405SOL    HW227675   1.294   1.508   5.786  0.0701  1.1825 -0.6454
 5406SOL     OW27676   1.318   2.422   9.900  0.6097 -0.3161  0.0343
 5406SOL    HW127677   1.287   2.455   9.984  1.0488  2.0088 -0.7064
 5406SOL    HW227678   1.413   2.431   9.904  0.5480 -0.1326  1.0055
 5407SOL     OW27679   2.150   4.033   7.643 -0.3244  0.3737  0.3168
 5407SOL    HW127680   2.071   4.016   7.695 -0.3667 -2.2336 -0.6364
 5407SOL    HW227681   2.113   4.079   7.567 -0.9582 -0.4000  0.1594
 5408SOL     OW27682   1.791   0.061   5.219 -0.2259  1.3521 -0.4002
 5408SOL    HW127683   1.698   0.083   5.218 -0.4979  0.2835  1.2849
 5408SOL    HW227684   1.809   0.070   5.125 -1.6891  2.3136 -0.5958
 5409SOL     OW27685   4.287   2.354   5.174  0.2212 -0.4657 -0.1642
 5409SOL    HW127686   4.296   2.391   5.086  0.6126 -1.1280 -0.4045
 5409SOL    HW227687   4.236   2.426   5.211 -0.1695 -1.1971  0.7235
 5410SOL     OW27688   0.375   0.078   5.359  0.2027 -0.0375  0.2538
 5410SOL    HW127689   0.413   0.116   5.280 -0.1945  0.0253  0.0934
 5410SOL    HW227690   0.359   4.716   5.327 -1.2662  1.0373 -1.9392
 5411SOL     OW27691   3.592   0.667   9.281 -0.0006  0.1793  0.1172
 5411SOL    HW127692   3.679   0.631   9.262  0.8628  1.8277  0.9560
 5411SOL    HW227693   3.548   0.592   9.320 -0.7699 -0.0630 -1.1930
 5412SOL     OW27694   3.942   2.038  12.752 -0.4305  0.1678  0.8696
 5412SOL    HW127695   4.016   2.017  12.808  0.3304 -0.3888 -0.3397
 5412SOL    HW227696   3.972   2.121  12.715 -1.3511  0.0577 -0.1431
 5413SOL     OW27697   3.368   1.658   2.236  0.4586  0.3217 -0.3145
 5413SOL    HW127698   3.283   1.645   2.195  1.1928 -0.9490 -1.4164
 5413SOL    HW227699   3.372   1.573   2.282  0.4540  0.3476 -0.2660
 5414SOL     OW27700   0.717   3.564   3.095  0.1815  0.5670  0.5055
 5414SOL    HW127701   0.622   3.561   3.106  0.0620 -1.9071 -1.0274
 5414SOL    HW227702   0.727   3.645   3.144  0.8593  1.4166 -1.0259
 5415SOL     OW27703   4.608   3.519  11.298  0.3094 -0.2186  0.4974
 5415SOL    HW127704   4.562   3.489  11.376 -1.1153 -1.5011 -0.8268
 5415SOL    HW227705   4.537   3.492  11.240  0.8812  1.8394 -1.1650
 5416SOL     OW27706   2.601   3.026   1.192 -0.1249  0.6574 -0.3827
 5416SOL    HW127707   2.697   3.026   1.193 -0.0663  1.4070 -3.4626
 5416SOL    HW227708   2.590   3.020   1.097  2.5395 -1.1869 -0.5767
 5417SOL     OW27709   4.358   2.006  15.268  0.3944  0.1135  0.3379
 5417SOL    HW127710   4.335   1.913  15.266 -2.1242  0.7225  1.2543
 5417SOL    HW227711   4.334   2.037  15.356  2.1944 -0.1791  0.9262
 5418SOL     OW27712   2.275   2.946   4.338 -0.1401 -0.4395  0.4842
 5418SOL    HW127713   2.234   2.877   4.391  1.2487 -1.2612  0.4871
 5418SOL    HW227714   2.332   2.894   4.281  2.0881  0.9567  1.4564
 5419SOL     OW27715   0.984   3.781   9.403 -0.6344  0.5036  0.6675
 5419SOL    HW127716   0.998   3.689   9.381 -1.9809  1.0802 -2.5420
 5419SOL    HW227717   0.971   3.768   9.497 -0.9430 -2.1032  0.2607
 5420SOL     OW27718   0.949   3.129  14.236 -0.0323  0.3967 -0.4819
 5420SOL    HW127719   0.971   3.038  14.257 -0.8178 -0.7451 -4.6708
 5420SOL    HW227720   0.930   3.118  14.143  0.1919 -1.3735 -0.3149
 5421SOL     OW27721   0.319   0.305  15.046 -0.1619  0.2557  0.1345
 5421SOL    HW127722   0.336   0.399  15.056 -1.0668  0.3389  0.8673
 5421SOL    HW227723   0.401   0.262  15.070  0.7830  1.2234 -1.3312
 5422SOL     OW27724   3.364   0.759  10.880  0.7483 -0.1276 -0.0769
 5422SOL    HW127725   3.340   0.691  10.816  2.5210  0.5100 -1.3966
 5422SOL    HW227726   3.292   0.819  10.860 -1.3548 -2.3382  0.7838
 5423SOL     OW27727   2.702   2.191   3.805  0.8584 -0.5293 -0.1485
 5423SOL    HW127728   2.660   2.138   3.737  0.6518 -0.8274  0.2117
 5423SOL    HW227729   2.623   2.227   3.846 -0.2234 -0.5431 -2.1970
 5424SOL     OW27730   3.946   3.885  12.148 -0.2055 -0.4794  0.1562
 5424SOL    HW127731   3.889   3.881  12.072  1.3152 -2.4543 -0.8906
 5424SOL    HW227732   3.900   3.955  12.195 -0.6494 -0.2408 -0.6271
 5425SOL     OW27733   3.811   2.793   7.750 -0.6672 -0.0723 -0.2413
 5425SOL    HW127734   3.733   2.769   7.701 -2.2554  5.2993 -0.3540
 5425SOL    HW227735   3.873   2.723   7.731 -1.4499 -1.0997  1.0326
 5426SOL     OW27736   3.535   1.657   8.138 -0.1637  0.0758  0.3621
 5426SOL    HW127737   3.452   1.656   8.186  1.2131 -2.1007  2.6700
 5426SOL    HW227738   3.574   1.740   8.165  0.8691  0.0119 -0.9344
 5427SOL     OW27739   0.458   1.648   7.632  0.5595  0.0860  0.6686
 5427SOL    HW127740   0.414   1.726   7.666 -0.7186 -0.5578  0.4823
 5427SOL    HW227741   0.463   1.593   7.710 -1.0665 -0.9464  0.0424
 5428SOL     OW27742   0.525   2.572   8.956 -0.0932 -0.0872  0.4109
 5428SOL    HW127743   0.589   2.543   9.021 -0.4757 -0.3812  0.6527
 5428SOL    HW227744   0.456   2.521   8.998  0.7569 -0.3632  1.4706
 5429SOL     OW27745   4.404   4.707   2.118  0.1103  0.0094 -0.3251
 5429SOL    HW127746   4.479   0.027   2.154 -0.7934  0.2709  1.2394
 5429SOL    HW227747   4.427   4.617   2.138  1.6599  0.8472  1.7389
 5430SOL     OW27748   1.530   1.646   3.633 -0.7236  0.1678 -0.5827
 5430SOL    HW127749   1.508   1.608   3.548  0.5295  0.3048 -0.9807
 5430SOL    HW227750   1.598   1.703   3.597 -0.8562  0.9184  0.3506
 5431SOL     OW27751   2.833   1.568   5.687  0.0823 -0.3518 -0.6152
 5431SOL    HW127752   2.869   1.514   5.757 -0.4987 -0.2244 -0.2169
 5431SOL    HW227753   2.880   1.529   5.613  0.2130  0.5525 -1.0117
 5432SOL     OW27754   0.067   0.357   7.966  0.5050  0.1183 -0.0224
 5432SOL    HW127755   0.059   0.296   7.892 -0.3697  1.5446 -1.1099
 5432SOL    HW227756   4.703   0.371   7.992  0.7773 -0.0285  1.0064
 5433SOL     OW27757   3.356   1.638   7.511 -0.4049 -0.0585 -0.4876
 5433SOL    HW127758   3.398   1.554   7.533  0.1036  0.5469  0.8789
 5433SOL    HW227759   3.267   1.614   7.487 -1.3129  0.6276  2.1246
 5434SOL     OW27760   1.039   0.321  14.604  0.6288  0.5731 -0.4239
 5434SOL    HW127761   1.021   0.281  14.689 -0.0261 -2.1106 -1.8256
 5434SOL    HW227762   0.995   0.406  14.605 -1.6503 -0.6035  1.0378
 5435SOL     OW27763   4.159   1.699   0.115  0.0594 -0.6066 -0.4653
 5435SOL    HW127764   4.110   1.778   0.139  0.2091 -0.4964 -0.5196
 5435SOL    HW227765   4.113   1.666   0.039 -0.0706  0.3574 -0.8069
 5436SOL     OW27766   3.830   2.127  13.246 -0.1246  0.3666 -0.5836
 5436SOL    HW127767   3.742   2.163  13.240  0.4363  1.4510 -2.5693
 5436SOL    HW227768   3.882   2.203  13.274  0.4818  0.1741 -1.1874
 5437SOL     OW27769   3.447   2.047   1.746 -0.6618 -1.0805 -0.5396
 5437SOL    HW127770   3.374   2.030   1.806 -0.8827 -2.2808 -1.1312
 5437SOL    HW227771   3.466   2.139   1.764 -0.3258 -1.0523 -1.0281
 5438SOL     OW27772   1.904   1.383   6.094 -0.4327 -0.1097  0.1275
 5438SOL    HW127773   1.932   1.440   6.023 -0.2727  0.0423  0.3159
 5438SOL    HW227774   1.898   1.300   6.047 -0.5738  0.7086 -1.2986
 5439SOL     OW27775   0.692   0.152   2.955  0.6596 -0.2372 -0.2898
 5439SOL    HW127776   0.749   0.162   2.880  2.1020  0.7355  0.9347
 5439SOL    HW227777   0.617   0.111   2.910  1.0413 -0.3732 -0.7964
 5440SOL     OW27778   3.726   4.564   3.011 -0.2615  0.0711 -0.1567
 5440SOL    HW127779   3.762   4.542   3.097 -1.4890 -2.2367 -0.2572
 5440SOL    HW227780   3.633   4.554   3.028 -0.3898  1.8710  0.1904
 5441SOL     OW27781   2.236   4.570   8.832 -0.2417 -0.2966 -0.3903
 5441SOL    HW127782   2.305   4.622   8.874 -0.0548 -1.1558  0.3675
 5441SOL    HW227783   2.194   4.526   8.906  1.4762  1.4023  1.5808
 5442SOL     OW27784   2.038   3.957   1.653  0.0377 -0.1088 -0.3442
 5442SOL    HW127785   2.002   3.868   1.653 -1.5439  0.5416 -1.2074
 5442SOL    HW227786   2.014   3.992   1.567 -1.5552  0.8648  0.5065
 5443SOL     OW27787   2.122   4.430   5.852  0.3849 -0.9591  0.0960
 5443SOL    HW127788   2.198   4.378   5.827 -0.7193 -1.0245 -3.1487
 5443SOL    HW227789   2.134   4.506   5.795 -2.8581 -1.2792 -1.0300
 5444SOL     OW27790   1.413   2.312  11.063  0.0650  0.1426 -0.4977
 5444SOL    HW127791   1.487   2.372  11.062  0.2512 -0.1125 -2.3537
 5444SOL    HW227792   1.353   2.347  11.129  3.2507 -1.0996  3.0666
 5445SOL     OW27793   1.021   2.203   2.429 -0.4425 -0.1221 -0.8566
 5445SOL    HW127794   1.032   2.289   2.389 -1.9764 -0.6023 -2.3145
 5445SOL    HW227795   1.022   2.159   2.344 -2.4078 -1.2402 -0.3055
 5446SOL     OW27796   4.081   0.808   1.924  0.2180 -0.5348  0.1583
 5446SOL    HW127797   4.161   0.850   1.956 -0.3892  0.0590  0.9313
 5446SOL    HW227798   4.114   0.723   1.896 -2.4201 -0.9003 -1.7843
 5447SOL     OW27799   1.545   1.268  10.933 -0.0598 -0.0579 -0.1627
 5447SOL    HW127800   1.504   1.259  10.847  0.2002  0.1999 -0.3139
 5447SOL    HW227801   1.471   1.247  10.991 -0.2469 -0.4525 -0.5468
 5448SOL     OW27802   2.731   4.559   6.001 -0.1623  0.1023  0.3970
 5448SOL    HW127803   2.675   4.539   5.926 -0.9830  2.0534  0.4736
 5448SOL    HW227804   2.704   4.489   6.061 -0.4423 -1.6212 -1.7403
 5449SOL     OW27805   1.747   3.728   7.838  0.1764 -0.0957  0.5458
 5449SOL    HW127806   1.656   3.700   7.831  1.0851 -3.2082  1.1000
 5449SOL    HW227807   1.759   3.757   7.748 -1.0556 -0.4798  0.2619
 5450SOL     OW27808   0.986   2.323   4.832 -0.1565  0.4324  0.0705
 5450SOL    HW127809   0.918   2.390   4.824 -1.3039 -0.6301  0.9811
 5450SOL    HW227810   0.941   2.249   4.873  0.6687 -0.7036 -1.1092
 5451SOL     OW27811   2.960   1.445   6.677  0.2250  0.4404 -0.9018
 5451SOL    HW127812   2.978   1.469   6.768 -0.0860  0.8028 -0.9329
 5451SOL    HW227813   2.941   1.352   6.680 -1.8517  0.9322  1.2234
 5452SOL     OW27814   3.050   2.145   1.901 -0.5054  0.1082 -0.5062
 5452SOL    HW127815   2.970   2.145   1.847 -1.4451 -0.5196  0.8704
 5452SOL    HW227816   3.093   2.064   1.873  0.1725 -0.0395  0.9865
 5453SOL     OW27817   4.103   1.623  11.360 -0.0774  0.1716 -0.4113
 5453SOL    HW127818   4.048   1.575  11.422  1.4222  0.2322  0.9650
 5453SOL    HW227819   4.182   1.642  11.409 -0.1839 -1.0948  0.2421
 5454SOL     OW27820   1.305   0.592   7.685  0.0502 -0.0351  0.0238
 5454SOL    HW127821   1.386   0.579   7.636 -0.2556  2.7477 -1.2203
 5454SOL    HW227822   1.308   0.514   7.740 -0.5586 -0.8447 -1.0901
 5455SOL     OW27823   0.922   4.323   4.425 -0.2550  0.2289  0.0737
 5455SOL    HW127824   0.909   4.395   4.486 -0.2979 -0.6105  1.0460
 5455SOL    HW227825   0.833   4.297   4.403 -0.0256  0.2117 -0.8437
 5456SOL     OW27826   0.421   1.888   3.677 -0.2182 -0.0854 -0.4444
 5456SOL    HW127827   0.342   1.867   3.726 -0.8380  5.4907  0.9278
 5456SOL    HW227828   0.458   1.960   3.729 -3.0196 -0.1510  1.6607
 5457SOL     OW27829   3.902   2.479   8.050 -0.1549 -0.2099  0.2649
 5457SOL    HW127830   3.814   2.494   8.083 -0.3730 -0.1350 -0.3566
 5457SOL    HW227831   3.958   2.556   8.065 -2.2128  1.4418 -0.4435
 5458SOL     OW27832   1.349   2.644   9.668 -0.0368 -0.1539 -0.2657
 5458SOL    HW127833   1.377   2.675   9.755  0.6901 -0.6135 -0.3310
 5458SOL    HW227834   1.364   2.549   9.674  2.7219  0.2450 -0.5193
 5459SOL     OW27835   2.474   2.253   2.848 -0.5066 -0.5832 -0.2506
 5459SOL    HW127836   2.481   2.345   2.825 -0.2193 -1.6297 -4.3941
 5459SOL    HW227837   2.378   2.247   2.847 -0.6636  1.7982  1.8951
 5460SOL     OW27838   1.030   1.671   5.332 -0.2807  0.4851  0.4704
 5460SOL    HW127839   1.045   1.606   5.263 -1.3040 -0.4859  1.1540
 5460SOL    HW227840   1.050   1.753   5.286 -0.6836  1.1221  1.4210
 5461SOL     OW27841   2.345   4.158   4.602  0.1675 -0.2359  0.4775
 5461SOL    HW127842   2.381   4.240   4.570 -1.6456  0.1797 -0.4895
 5461SOL    HW227843   2.427   4.110   4.596  1.4949  2.1750 -0.3402
 5462SOL     OW27844   4.484   2.349  12.360 -0.3311 -0.5124  0.3163
 5462SOL    HW127845   4.407   2.308  12.321 -1.1384  0.1765  1.2022
 5462SOL    HW227846   4.488   2.295  12.438 -1.0402 -1.0133  0.0044
 5463SOL     OW27847   3.053   1.651   0.790 -0.4931 -0.1106  0.2414
 5463SOL    HW127848   3.021   1.686   0.873  0.6779  1.5039  0.0010
 5463SOL    HW227849   3.091   1.730   0.754  0.6651  0.3047  2.3562
 5464SOL     OW27850   2.012   1.597   4.197  0.6229 -0.1005  0.2069
 5464SOL    HW127851   1.933   1.646   4.221 -0.7018 -1.2834 -1.7321
 5464SOL    HW227852   1.973   1.519   4.159 -2.3032  1.5220 -0.0975
 5465SOL     OW27853   0.540   2.052   1.760  0.4279 -0.2906 -0.9316
 5465SOL    HW127854   0.629   2.064   1.728  0.8047  1.0592  0.6451
 5465SOL    HW227855   0.498   2.005   1.688 -0.4482 -1.0332  0.0610
 5466SOL     OW27856   1.333   2.848   9.092  0.0813  0.2014  0.5964
 5466SOL    HW127857   1.323   2.940   9.065  0.6403  0.5879  1.7150
 5466SOL    HW227858   1.414   2.830   9.044  1.1319 -0.2097  2.5213
 5467SOL     OW27859   0.212   3.870   8.366  0.1727 -0.5483  0.2515
 5467SOL    HW127860   0.203   3.955   8.410 -1.5725  1.2145 -3.5466
 5467SOL    HW227861   0.189   3.815   8.442  1.4216 -0.6673  0.5315
 5468SOL     OW27862   1.248   3.838   4.803 -0.3459 -0.0088  0.2862
 5468SOL    HW127863   1.232   3.928   4.774  1.7059  0.0984 -0.5399
 5468SOL    HW227864   1.228   3.791   4.722  1.3899 -1.0911  0.4852
 5469SOL     OW27865   1.388   1.559   7.662  0.7381 -0.6588  0.4966
 5469SOL    HW127866   1.369   1.593   7.749  0.4674 -2.8414  1.2892
 5469SOL    HW227867   1.410   1.473   7.697  2.0222  0.7801  3.2013
 5470SOL     OW27868   2.841   3.379   6.454 -0.5568 -0.2203  0.4138
 5470SOL    HW127869   2.835   3.466   6.414  3.4837 -0.4491 -0.6691
 5470SOL    HW227870   2.774   3.396   6.520 -1.8354  0.9028 -1.1614
 5471SOL     OW27871   1.106   2.597  13.733  0.1990  0.0886  0.2664
 5471SOL    HW127872   1.199   2.618  13.745  0.3678 -0.7397  0.3959
 5471SOL    HW227873   1.089   2.522  13.791 -1.3017 -1.3812 -2.0795
 5472SOL     OW27874   2.458   0.032   0.690 -0.1078 -0.2304  0.1521
 5472SOL    HW127875   2.440   0.112   0.741 -1.1727 -0.0305 -0.5240
 5472SOL    HW227876   2.541   0.002   0.726 -0.1514 -0.1432  0.3287
 5473SOL     OW27877   0.294   0.817   0.744  0.0740 -0.4106 -0.3567
 5473SOL    HW127878   0.337   0.823   0.829  0.3782 -1.1514 -0.4650
 5473SOL    HW227879   0.251   0.732   0.739  0.3583 -0.5349 -0.6449
 5474SOL     OW27880   3.949   3.046   5.356  0.3288  0.1037 -0.2081
 5474SOL    HW127881   3.919   3.036   5.447 -0.0553  1.4721 -0.1986
 5474SOL    HW227882   4.005   3.123   5.347  0.4877  0.0501  0.3365
 5475SOL     OW27883   0.375   4.104   5.543  0.0725  0.4269  0.4918
 5475SOL    HW127884   0.419   4.050   5.477  0.3151  0.4669  0.6213
 5475SOL    HW227885   0.447   4.123   5.603  0.1742 -0.9425  0.8126
 5476SOL     OW27886   3.613   1.886  14.141 -0.2162 -0.0192  0.2657
 5476SOL    HW127887   3.642   1.854  14.056 -0.9777  1.2383 -0.4642
 5476SOL    HW227888   3.584   1.975  14.124  0.0812  0.1277  0.5205
 5477SOL     OW27889   3.971   0.232   2.049  0.2512 -0.4683  0.1457
 5477SOL    HW127890   3.976   0.281   1.967  0.1047  0.5603  0.7457
 5477SOL    HW227891   3.917   0.285   2.108  0.6176 -0.0043  0.0639
 5478SOL     OW27892   1.888   2.064   8.707 -0.3273  0.4476  0.2340
 5478SOL    HW127893   1.885   1.969   8.707 -2.3676  0.5130  0.1642
 5478SOL    HW227894   1.945   2.071   8.631 -2.1097 -0.9622 -1.2514
 5479SOL     OW27895   3.177   1.796   3.392  0.0210  0.4874  0.1655
 5479SOL    HW127896   3.178   1.878   3.342 -0.1201 -0.1547 -0.8724
 5479SOL    HW227897   3.229   1.738   3.337  1.3216  1.2285  0.6230
 5480SOL     OW27898   3.095   1.868   6.490 -0.4579 -0.3302  0.1038
 5480SOL    HW127899   3.063   1.796   6.436  1.7263 -2.5714  1.7858
 5480SOL    HW227900   3.102   1.833   6.579  0.7833 -0.8529 -0.1936
 5481SOL     OW27901   1.208   3.873  14.438  0.2293 -0.7806  0.0084
 5481SOL    HW127902   1.274   3.810  14.408  0.8883 -0.4940  0.8609
 5481SOL    HW227903   1.144   3.815  14.479 -0.3733 -0.1857 -0.1003
 5482SOL     OW27904   2.709   0.564   3.770  0.4140  0.4916 -0.5620
 5482SOL    HW127905   2.625   0.517   3.777 -0.5975  2.2981 -0.7239
 5482SOL    HW227906   2.712   0.618   3.849  1.5953 -1.8273  1.0086
 5483SOL     OW27907   0.878   0.372   2.953  0.3008 -0.3707  0.1723
 5483SOL    HW127908   0.926   0.358   2.871 -0.5152  0.5313 -0.4643
 5483SOL    HW227909   0.840   0.458   2.935  1.8432  0.0625 -1.0031
 5484SOL     OW27910   4.418   2.863  11.887 -0.1729 -0.4020 -0.0474
 5484SOL    HW127911   4.323   2.850  11.884 -0.2122  0.0944 -1.1404
 5484SOL    HW227912   4.453   2.778  11.860  0.4126  0.2989 -1.5295
 5485SOL     OW27913   4.014   4.514   7.475 -0.0853  0.2498  0.7017
 5485SOL    HW127914   4.020   4.600   7.433  1.6156  0.2968  1.0435
 5485SOL    HW227915   4.084   4.459   7.440 -0.2692  0.8563 -0.6261
 5486SOL     OW27916   3.577   3.831  13.327  0.0061 -0.1123  0.2689
 5486SOL    HW127917   3.645   3.803  13.265 -0.0619 -0.2418  0.2532
 5486SOL    HW227918   3.549   3.748  13.364  0.2948  0.3766  1.5944
 5487SOL     OW27919   0.414   2.028  17.524 -0.4186  0.2033  0.2774
 5487SOL    HW127920   0.319   2.017  17.525 -0.2099 -1.7537 -0.2092
 5487SOL    HW227921   0.439   1.948  17.477  1.2960  0.8892  0.0139
 5488SOL     OW27922   3.888   2.870   0.435  0.4134  0.3282 -0.0118
 5488SOL    HW127923   3.946   2.803   0.397 -1.9530 -1.6932 -0.1071
 5488SOL    HW227924   3.816   2.866   0.371  0.7442 -0.4115 -0.3455
 5489SOL     OW27925   3.321   2.573   0.573  0.1233 -0.5770  0.1185
 5489SOL    HW127926   3.235   2.591   0.610  0.5616 -3.3924  2.5122
 5489SOL    HW227927   3.336   2.640   0.507 -1.2064 -0.2029  0.2071
 5490SOL     OW27928   1.214   3.036   8.156 -0.0977 -0.0877  0.2221
 5490SOL    HW127929   1.172   3.110   8.112  1.1288  0.6574  0.3212
 5490SOL    HW227930   1.307   3.057   8.152 -0.3034  0.7563 -0.1776
 5491SOL     OW27931   2.065   0.022   7.795  0.5924  0.0357  0.0535
 5491SOL    HW127932   2.078   4.685   7.725 -0.8050  0.8399 -0.9460
 5491SOL    HW227933   1.976   4.722   7.814  0.6694 -1.7856 -2.1554
 5492SOL     OW27934   0.189   3.698  11.958  0.1173  0.1010  0.3007
 5492SOL    HW127935   0.203   3.655  12.042  2.9540  1.3485  0.4830
 5492SOL    HW227936   0.207   3.791  11.976  2.4885  0.3032 -3.1832
 5493SOL     OW27937   1.055   0.350   7.156 -0.2951  0.0756 -0.3822
 5493SOL    HW127938   0.997   0.385   7.088 -0.3371  0.1406 -0.3114
 5493SOL    HW227939   1.122   0.418   7.158 -1.4876  1.2467 -0.6398
 5494SOL     OW27940   4.312   1.881   8.908 -1.1128  0.6712  0.2530
 5494SOL    HW127941   4.389   1.863   8.962 -0.1373 -1.7924 -1.9184
 5494SOL    HW227942   4.319   1.803   8.851  0.3922 -0.9005  2.5972
 5495SOL     OW27943   2.015   1.096  10.121  0.1835 -0.2525  0.2522
 5495SOL    HW127944   2.014   1.180  10.167  0.8380  0.0596 -0.3206
 5495SOL    HW227945   1.925   1.069  10.142 -1.0762  1.8777 -2.4617
 5496SOL     OW27946   3.817   2.170  10.827  0.3782 -0.7686  0.5051
 5496SOL    HW127947   3.815   2.259  10.860  0.7527 -0.6171  0.1241
 5496SOL    HW227948   3.912   2.171  10.809  0.8125  0.9372  2.9519
 5497SOL     OW27949   0.374   2.914   0.441  0.1979 -0.1571 -0.6642
 5497SOL    HW127950   0.384   2.924   0.346 -2.8538  0.7443 -0.9157
 5497SOL    HW227951   0.341   3.002   0.461  0.1157 -0.6502  1.3031
 5498SOL     OW27952   3.004   3.183   5.770  0.0079 -0.2313  0.6168
 5498SOL    HW127953   3.077   3.180   5.831 -0.9508  0.4173  1.7995
 5498SOL    HW227954   3.033   3.141   5.689  0.9331  0.5829  0.5348
 5499SOL     OW27955   3.259   4.001   2.837  0.2581  0.0930  0.1837
 5499SOL    HW127956   3.301   3.940   2.775 -0.2775 -0.0469 -0.0431
 5499SOL    HW227957   3.238   4.074   2.779  1.2468 -0.9183 -1.4791
 5500SOL     OW27958   1.798   2.733   8.743 -0.2228 -0.2880  0.4941
 5500SOL    HW127959   1.813   2.737   8.649 -2.0750  0.6490  0.2440
 5500SOL    HW227960   1.754   2.649   8.756 -0.8395  0.2997  2.1850
 5501SOL     OW27961   3.879   0.499  15.574  0.1374 -0.5909  0.3287
 5501SOL    HW127962   3.822   0.434  15.616 -0.3775  0.0025  0.5489
 5501SOL    HW227963   3.910   0.450  15.498 -0.6890  1.2798 -1.2207
 5502SOL     OW27964   4.242   1.794   2.637  0.3121  0.4012 -0.3888
 5502SOL    HW127965   4.298   1.871   2.625 -3.2182  2.8162 -1.3892
 5502SOL    HW227966   4.286   1.732   2.579 -0.5763 -1.1335  0.5786
 5503SOL     OW27967   3.028   0.974   8.484  0.7222  0.1929 -0.3977
 5503SOL    HW127968   3.028   0.896   8.539 -1.3293  1.0571  0.8384
 5503SOL    HW227969   3.079   0.946   8.408 -2.3377 -4.7392 -0.6435
 5504SOL     OW27970   4.080   0.238   5.141  0.3071  0.1763  0.2896
 5504SOL    HW127971   4.153   0.297   5.160  0.2277  0.0851  0.8748
 5504SOL    HW227972   4.124   0.191   5.070 -1.7255 -0.1945 -0.7199
 5505SOL     OW27973   3.401   4.112   8.696  0.4246  0.2427 -0.4785
 5505SOL    HW127974   3.433   4.146   8.779 -2.7156 -0.2179  0.9154
 5505SOL    HW227975   3.462   4.163   8.642  1.7682 -0.2611  0.5532
 5506SOL     OW27976   3.421   1.845  13.745  0.5533 -0.0355 -0.3373
 5506SOL    HW127977   3.397   1.806  13.660 -0.4668  2.4114 -1.1754
 5506SOL    HW227978   3.443   1.935  13.722  0.0895  0.7560  2.4094
 5507SOL     OW27979   2.803   0.675   2.136  0.5670 -0.3218  0.2472
 5507SOL    HW127980   2.739   0.747   2.135  0.2226 -0.6237  1.3106
 5507SOL    HW227981   2.759   0.606   2.185  1.0275 -0.0997  0.9607
 5508SOL     OW27982   4.579   1.618   5.450  0.1211 -0.3959  0.2649
 5508SOL    HW127983   4.669   1.646   5.464  0.1163  0.0465 -0.6060
 5508SOL    HW227984   4.533   1.665   5.519  1.4155  0.8536  0.2713
 5509SOL     OW27985   4.518   2.293   8.146 -0.4958  0.8443  0.5691
 5509SOL    HW127986   4.586   2.246   8.098  0.7974  2.4224  0.8765
 5509SOL    HW227987   4.453   2.225   8.167  0.2253 -0.1843 -0.5492
 5510SOL     OW27988   4.213   3.464   6.253  0.4956  0.3181  0.0743
 5510SOL    HW127989   4.214   3.444   6.347  3.4108  1.0876  0.2113
 5510SOL    HW227990   4.308   3.476   6.243  0.6247 -2.2635 -1.5675
 5511SOL     OW27991   4.036   1.706   6.757 -0.0843 -0.0657  0.1007
 5511SOL    HW127992   4.012   1.619   6.724 -0.1902 -0.0304  0.0859
 5511SOL    HW227993   4.109   1.686   6.815 -0.5987 -0.1782  0.7113
 5512SOL     OW27994   3.254   0.525   6.838 -0.5644 -0.1786  0.1911
 5512SOL    HW127995   3.348   0.509   6.828 -0.1258  2.2609  0.4618
 5512SOL    HW227996   3.217   0.463   6.775  1.7356 -0.5455 -0.8224
 5513SOL     OW27997   2.094   1.334   7.837  0.2444 -0.4024  0.5143
 5513SOL    HW127998   2.023   1.364   7.894 -0.4851 -3.4237  1.1798
 5513SOL    HW227999   2.077   1.383   7.757  2.3778 -0.7076 -0.1360
 5514SOL     OW28000   2.275   2.024   8.487  0.1767  1.1440 -0.1504
 5514SOL    HW128001   2.348   1.962   8.487 -0.8624 -0.0732  0.2536
 5514SOL    HW228002   2.329   2.097   8.517 -1.6008  2.4170 -0.0576
 5515SOL     OW28003   1.543   1.021   6.122  0.0150  0.0376 -0.1173
 5515SOL    HW128004   1.553   1.078   6.045 -0.3501 -0.6525 -0.6726
 5515SOL    HW228005   1.463   1.056   6.162  0.1771 -0.2060  0.4198
 5516SOL     OW28006   3.072   1.422   4.703  0.5198 -0.3388  0.6737
 5516SOL    HW128007   2.984   1.422   4.742  0.2128 -1.1957 -0.0198
 5516SOL    HW228008   3.067   1.475   4.623 -1.7731 -0.5404  0.6806
 5517SOL     OW28009   4.365   1.127   7.929 -0.2460  0.3015 -0.4185
 5517SOL    HW128010   4.374   1.161   8.018 -0.7650  0.2118 -0.3311
 5517SOL    HW228011   4.273   1.136   7.906 -0.6118 -2.1501  0.0393
 5518SOL     OW28012   1.665   1.931  12.293  0.0198 -0.3217 -0.1983
 5518SOL    HW128013   1.610   1.875  12.239  0.2837 -0.7033 -0.0733
 5518SOL    HW228014   1.667   2.010  12.238 -2.4937  0.4051  0.7659
 5519SOL     OW28015   2.834   0.070   9.385 -0.4610 -0.0441  0.6149
 5519SOL    HW128016   2.808   0.003   9.322 -0.9950 -1.1355  2.0112
 5519SOL    HW228017   2.814   0.151   9.338  0.4720 -0.8990 -1.2419
 5520SOL     OW28018   3.296   3.930  15.998  0.1282  0.5461  0.2016
 5520SOL    HW128019   3.323   3.839  16.012  0.6744  0.3674 -2.1205
 5520SOL    HW228020   3.381   3.968  16.020  0.8269  0.2366 -1.9908
 5521SOL     OW28021   1.744   0.020   4.519  0.3933  0.2607  0.0634
 5521SOL    HW128022   1.801   0.005   4.595 -0.7169  1.4625  1.1284
 5521SOL    HW228023   1.765   4.675   4.459 -0.2062 -0.0302  0.1974
 5522SOL     OW28024   2.567   1.883   1.733  0.4671  0.2637 -0.1461
 5522SOL    HW128025   2.661   1.868   1.733  0.4185 -0.0591 -0.6911
 5522SOL    HW228026   2.535   1.810   1.787  0.7774  0.2162 -0.0248
 5523SOL     OW28027   3.104   3.235   9.232 -0.0756  0.1637  0.6047
 5523SOL    HW128028   3.197   3.220   9.246  0.0513 -0.0148 -0.3819
 5523SOL    HW228029   3.089   3.194   9.147 -0.2759 -3.4249  2.3927
 5524SOL     OW28030   4.675   3.667   6.881  0.3086 -0.6686  0.2555
 5524SOL    HW128031   4.611   3.734   6.906  3.4383  2.5405 -0.3982
 5524SOL    HW228032   0.009   3.714   6.825  0.5918 -2.1633 -0.7029
 5525SOL     OW28033   0.796   3.294   2.849 -0.0011  0.0913 -0.6208
 5525SOL    HW128034   0.876   3.304   2.797  0.7222  2.2189  0.8894
 5525SOL    HW228035   0.739   3.232   2.804  0.7545 -1.3994  0.4692
 5526SOL     OW28036   3.176   4.481   6.633  0.1843  0.0824 -0.1191
 5526SOL    HW128037   3.269   4.464   6.644 -0.3528 -0.7630  3.1261
 5526SOL    HW228038   3.150   4.516   6.718  0.1174 -0.1682 -0.0379
 5527SOL     OW28039   3.115   3.587   2.132 -0.2135  0.3219  0.2046
 5527SOL    HW128040   3.206   3.573   2.159 -0.9218 -0.8906  1.9149
 5527SOL    HW228041   3.056   3.558   2.201  1.2771  1.2921  1.8709
 5528SOL     OW28042   3.653   3.335  16.277  0.3408 -0.2262 -0.2259
 5528SOL    HW128043   3.586   3.347  16.209 -0.5997 -0.4984  0.6520
 5528SOL    HW228044   3.602   3.280  16.336  0.4824 -0.4648 -0.3256
 5529SOL     OW28045   4.609   1.531   4.281 -0.2584  0.2352 -0.3397
 5529SOL    HW128046   4.554   1.568   4.350  0.0192  0.0156 -0.0025
 5529SOL    HW228047   4.685   1.588   4.291 -0.8850  1.1340 -0.7031
 5530SOL     OW28048   2.046   2.268   9.552 -0.0251  0.7909 -0.2302
 5530SOL    HW128049   2.023   2.341   9.610 -0.5451 -0.2368  0.8537
 5530SOL    HW228050   2.076   2.317   9.475  1.1779 -0.6230 -0.6417
 5531SOL     OW28051   1.145   0.085   6.542 -0.1395 -0.5938 -0.3485
 5531SOL    HW128052   1.233   0.070   6.508  0.7496 -2.5597  2.7596
 5531SOL    HW228053   1.144   0.179   6.556 -1.3612 -0.6932  0.2404
 5532SOL     OW28054   3.059   1.438   4.193  0.4653 -0.2314 -0.0477
 5532SOL    HW128055   3.034   1.500   4.124 -1.4513 -1.4412 -0.4375
 5532SOL    HW228056   3.140   1.414   4.149  0.2830 -2.9018  1.1106
 5533SOL     OW28057   1.261   1.946   3.120 -0.0782 -0.3432 -0.0027
 5533SOL    HW128058   1.313   1.957   3.040  2.1228 -0.7345  1.3841
 5533SOL    HW228059   1.186   1.998   3.093  0.4309  0.8613  0.9092
 5534SOL     OW28060   0.918   4.295   2.710 -0.0417 -0.0703  0.3447
 5534SOL    HW128061   0.840   4.241   2.701 -0.9086  1.0180  1.4589
 5534SOL    HW228062   0.935   4.276   2.802 -0.2675  1.3008  0.6798
 5535SOL     OW28063   3.316   2.180  13.422  0.8483  0.0274  0.0819
 5535SOL    HW128064   3.256   2.251  13.448  2.2678  1.0262  0.6011
 5535SOL    HW228065   3.260   2.104  13.401 -0.5776  0.3988  2.5660
 5536SOL     OW28066   1.826   4.268   6.232 -0.4993 -0.4147  0.5208
 5536SOL    HW128067   1.825   4.304   6.143 -3.2601 -0.0445  0.7112
 5536SOL    HW228068   1.915   4.295   6.255  0.0919 -0.8433 -1.2709
 5537SOL     OW28069   1.300   0.289   9.759 -0.2053 -0.4025 -0.6514
 5537SOL    HW128070   1.337   0.298   9.671 -0.2742 -0.5449 -0.6963
 5537SOL    HW228071   1.316   0.378   9.790 -2.0209 -0.9961  2.0374
 5538SOL     OW28072   3.332   0.604   5.329 -0.2963  0.2407  0.1208
 5538SOL    HW128073   3.337   0.682   5.384 -1.2236  1.0241 -0.9231
 5538SOL    HW228074   3.283   0.540   5.380 -0.3003  0.4500  0.3784
 5539SOL     OW28075   3.824   1.058  17.100 -0.2890  0.3996  0.0948
 5539SOL    HW128076   3.742   1.061  17.050  0.5098 -2.1533 -1.3859
 5539SOL    HW228077   3.790   1.042  17.188 -1.9160  1.2913 -0.3646
 5540SOL     OW28078   4.608   1.128   5.283  0.6744  0.3457 -0.0771
 5540SOL    HW128079   4.541   1.182   5.324  1.4930 -2.2706  4.5905
 5540SOL    HW228080   4.547   1.061   5.253 -1.1209  1.4193  1.1491
 5541SOL     OW28081   3.292   1.957   7.519  0.0985  0.3179  0.1546
 5541SOL    HW128082   3.321   1.898   7.589 -1.2669  0.0045  0.4711
 5541SOL    HW228083   3.348   2.032   7.535 -1.4821  1.0097  2.4738
 5542SOL     OW28084   3.347   3.924   4.586  0.1734  0.2547  0.2835
 5542SOL    HW128085   3.339   3.834   4.618  1.3102 -0.2194 -0.7543
 5542SOL    HW228086   3.431   3.920   4.541 -0.4144 -0.5891 -0.7580
 5543SOL     OW28087   1.223   3.934   5.878 -0.0231  0.4180  0.2201
 5543SOL    HW128088   1.209   4.019   5.836  1.4997  0.2827 -0.5374
 5543SOL    HW228089   1.253   3.956   5.966 -0.0776  0.6148  0.1894
 5544SOL     OW28090   2.921   1.160   2.460 -0.2186 -0.0402 -0.2898
 5544SOL    HW128091   2.956   1.071   2.466 -1.0876 -0.2880  0.9940
 5544SOL    HW228092   2.929   1.160   2.364 -1.6143  1.2010 -0.4031
 5545SOL     OW28093   4.332   3.853  14.917 -0.2814 -0.1396  0.0843
 5545SOL    HW128094   4.354   3.785  14.981 -1.1495 -0.0541  0.4738
 5545SOL    HW228095   4.240   3.830  14.906 -0.2187 -1.5266  2.2204
 5546SOL     OW28096   0.984   0.579   6.428 -0.3730  0.1838  0.2554
 5546SOL    HW128097   0.957   0.549   6.341  0.4900  0.6569 -0.1831
 5546SOL    HW228098   0.902   0.605   6.469 -0.5482  2.1097 -1.3450
 5547SOL     OW28099   3.799   3.420   6.845  0.2242 -0.9682  0.0580
 5547SOL    HW128100   3.823   3.483   6.913  0.6562  1.2110 -2.1119
 5547SOL    HW228101   3.768   3.342   6.890  2.2676 -1.7675  0.1111
 5548SOL     OW28102   3.312   2.925  10.254  0.0648 -0.2635  0.0300
 5548SOL    HW128103   3.246   2.942  10.322  0.2902 -0.5796  0.3316
 5548SOL    HW228104   3.260   2.884  10.184 -2.1090  0.7803  1.0265
 5549SOL     OW28105   1.592   0.190  13.779 -0.2556 -0.1071  0.2852
 5549SOL    HW128106   1.662   0.248  13.809 -2.2013  0.4776  3.6339
 5549SOL    HW228107   1.565   0.243  13.704  1.0719 -0.1235 -0.2104
 5550SOL     OW28108   3.912   1.461   3.133 -0.8117 -0.0283 -0.3688
 5550SOL    HW128109   3.933   1.533   3.192 -0.1023  0.7385 -1.5502
 5550SOL    HW228110   3.825   1.485   3.103 -1.3231 -1.4977 -0.0619
 5551SOL     OW28111   2.009   4.464  11.772 -0.1542 -0.0981 -0.4513
 5551SOL    HW128112   1.966   4.540  11.730  0.4710  0.6566  0.2811
 5551SOL    HW228113   2.016   4.405  11.697 -1.9199  1.5643 -1.9610
 5552SOL     OW28114   1.491   4.561   3.818 -0.1985 -0.6429 -0.2064
 5552SOL    HW128115   1.567   4.600   3.861 -3.2627  1.8941  2.8515
 5552SOL    HW228116   1.535   4.486   3.778  1.6396  1.5549 -2.3682
 5553SOL     OW28117   4.620   1.886   4.348 -0.7616  0.1084 -0.1438
 5553SOL    HW128118   4.659   1.816   4.401  0.4400  0.8327 -0.0561
 5553SOL    HW228119   4.574   1.942   4.410 -1.0564  0.8142 -0.9979
 5554SOL     OW28120   0.956   3.084  10.400  0.7038  0.1143 -0.4010
 5554SOL    HW128121   0.942   3.168  10.445 -0.9441  0.0879 -0.8639
 5554SOL    HW228122   0.984   3.109  10.312  0.6223 -1.4864 -0.8678
 5555SOL     OW28123   0.364   2.961   4.499 -0.0896  0.1898  0.3126
 5555SOL    HW128124   0.427   2.892   4.520  0.2411  0.8900  1.6247
 5555SOL    HW228125   0.410   3.008   4.430  1.5561 -0.5351  0.9104
 5556SOL     OW28126   0.945   0.061   3.784  0.1489 -0.4557 -0.6012
 5556SOL    HW128127   0.968   0.154   3.795  0.7301 -0.3870 -2.4077
 5556SOL    HW228128   0.956   0.060   3.689 -0.4036  0.3917 -0.6759
 5557SOL     OW28129   2.006   3.258  11.858 -0.5955 -0.1171  0.0643
 5557SOL    HW128130   1.991   3.350  11.837 -0.7602 -0.0873  0.3077
 5557SOL    HW228131   2.084   3.239  11.806 -1.5778 -0.5145 -1.2452
 5558SOL     OW28132   1.671   2.424   7.117 -0.2479 -0.0976  0.6793
 5558SOL    HW128133   1.673   2.519   7.131 -1.2590 -0.3772  2.6373
 5558SOL    HW228134   1.698   2.390   7.202 -0.0621 -0.4239  0.4886
 5559SOL     OW28135   3.872   1.799  16.967  0.5398  0.4587 -0.4522
 5559SOL    HW128136   3.783   1.816  16.999  0.0219  0.7127 -2.0050
 5559SOL    HW228137   3.916   1.876  17.003 -0.2416  0.1691  1.1288
 5560SOL     OW28138   1.142   3.388  13.509 -0.1840 -0.0672 -0.2739
 5560SOL    HW128139   1.122   3.477  13.481 -0.5603 -0.2610 -0.6119
 5560SOL    HW228140   1.121   3.335  13.433  0.8770  0.2052 -0.7578
 5561SOL     OW28141   1.116   1.013   3.589  0.2872  0.2170 -0.1959
 5561SOL    HW128142   1.107   1.101   3.626  2.0053 -0.4102  1.7392
 5561SOL    HW228143   1.209   1.020   3.566  0.7707 -1.1581  1.2685
 5562SOL     OW28144   0.567   3.352   7.608 -0.3893  0.0333  0.4962
 5562SOL    HW128145   0.569   3.257   7.601 -1.5883  0.0612 -0.2143
 5562SOL    HW228146   0.635   3.360   7.675  0.8806  0.5942 -0.8629
 5563SOL     OW28147   0.778   3.993  12.355  0.1394 -0.0342  0.2549
 5563SOL    HW128148   0.712   3.925  12.368  0.9703 -0.8598  0.2127
 5563SOL    HW228149   0.855   3.949  12.391 -0.1090 -1.7229 -1.2899
 5564SOL     OW28150   4.725   1.492  15.107 -0.1258 -0.1460 -0.0443
 5564SOL    HW128151   0.041   1.559  15.054 -1.0128 -0.6231 -1.3571
 5564SOL    HW228152   4.641   1.491  15.061  0.0983  2.4512 -0.5290
 5565SOL     OW28153   2.745   0.731   3.207 -0.0402  0.1876  0.0779
 5565SOL    HW128154   2.704   0.812   3.238  0.2547  1.1653 -2.1158
 5565SOL    HW228155   2.690   0.670   3.258  1.2668 -0.6719  0.4588
 5566SOL     OW28156   3.132   3.642   1.014  0.1454  0.1399  0.1593
 5566SOL    HW128157   3.149   3.571   1.077 -1.4950 -1.9004 -1.6895
 5566SOL    HW228158   3.203   3.627   0.953  2.4869  2.1638  2.3629
 5567SOL     OW28159   3.545   2.708   4.560 -0.0479 -0.2542 -0.1343
 5567SOL    HW128160   3.459   2.669   4.539  0.7439 -2.1600  0.1324
 5567SOL    HW228161   3.514   2.775   4.620  0.8984  1.3919 -1.5038
 5568SOL     OW28162   1.112   2.932  11.372 -0.3328  0.0444  0.3458
 5568SOL    HW128163   1.111   2.898  11.461 -0.8724  2.9584  1.4511
 5568SOL    HW228164   1.206   2.949  11.363 -0.3901  0.6624  0.9126
 5569SOL     OW28165   3.780   2.610   3.952  0.2069 -0.5707 -0.4010
 5569SOL    HW128166   3.782   2.561   3.870  1.1282  2.3801 -2.1408
 5569SOL    HW228167   3.710   2.569   4.003 -0.4708  0.0248 -0.8485
 5570SOL     OW28168   4.603   3.085   3.096 -0.4067  0.8212 -0.1486
 5570SOL    HW128169   4.631   3.000   3.130 -2.5395 -0.9114 -2.7514
 5570SOL    HW228170   4.531   3.095   3.158 -1.8168  0.5155 -1.7670
 5571SOL     OW28171   3.713   1.906  17.473  0.1119  0.1118 -0.2399
 5571SOL    HW128172   3.707   1.816  17.504  0.4728  0.6664  1.4867
 5571SOL    HW228173   3.633   1.922  17.424 -1.1672 -1.3616  1.3875
 5572SOL     OW28174   1.177   2.508  17.136 -0.1578 -0.4456 -0.7994
 5572SOL    HW128175   1.201   2.562  17.211 -1.3883  0.1650 -0.8332
 5572SOL    HW228176   1.129   2.436  17.178  1.3734 -0.6011  0.6911
 5573SOL     OW28177   2.450   2.719   3.240  0.1498 -0.1373 -0.0314
 5573SOL    HW128178   2.528   2.688   3.286 -2.4114 -0.6000  3.9874
 5573SOL    HW228179   2.492   2.794   3.198  1.3201 -0.9807 -0.3907
 5574SOL     OW28180   2.404   4.210   7.524 -0.1916 -0.1574  0.0161
 5574SOL    HW128181   2.469   4.271   7.490  0.9698 -1.8639 -0.7971
 5574SOL    HW228182   2.433   4.128   7.484 -0.0129 -0.1448  0.1187
 5575SOL     OW28183   3.390   4.347  17.558 -0.2466 -0.0095 -0.5110
 5575SOL    HW128184   3.298   4.322  17.547  0.5815 -3.7291  1.3338
 5575SOL    HW228185   3.432   4.273  17.601 -0.0290  0.1846 -0.3900
 5576SOL     OW28186   1.899   4.113   0.236 -1.0492 -0.0734  0.1216
 5576SOL    HW128187   1.964   4.164   0.187  0.4958  1.1878  3.4505
 5576SOL    HW228188   1.846   4.190   0.257 -1.0620  0.2227 -0.9832
 5577SOL     OW28189   3.570   0.435   2.670 -0.4091 -0.2376 -0.1399
 5577SOL    HW128190   3.503   0.443   2.737 -1.7339 -0.7389 -1.3940
 5577SOL    HW228191   3.617   0.518   2.663 -0.2990 -0.3337 -0.5542
 5578SOL     OW28192   2.869   0.548   6.941  0.3483 -0.0870  0.0054
 5578SOL    HW128193   2.893   0.516   7.028 -0.6669 -0.3640  0.1924
 5578SOL    HW228194   2.787   0.591   6.964  0.2873 -0.5739  0.7016
 5579SOL     OW28195   0.277   2.159   0.875  0.1304 -0.2350 -0.9149
 5579SOL    HW128196   0.186   2.136   0.892  0.6987 -2.9171 -1.5890
 5579SOL    HW228197   0.262   2.166   0.781  0.5030 -0.4524 -0.9894
 5580SOL     OW28198   4.066   3.959   5.800 -0.1188 -0.4748  0.2878
 5580SOL    HW128199   4.021   4.026   5.852  3.4434 -0.7142  3.6810
 5580SOL    HW228200   4.157   3.986   5.809  0.5091 -1.9810 -1.6345
 5581SOL     OW28201   2.158   3.135   7.571 -0.1059  0.1285 -0.7349
 5581SOL    HW128202   2.182   3.046   7.543 -0.4696 -0.4756  0.8795
 5581SOL    HW228203   2.110   3.128   7.653  1.6003 -3.7182 -0.0716
 5582SOL     OW28204   0.129   0.156   6.591 -0.8783  0.2755 -0.1121
 5582SOL    HW128205   0.171   0.242   6.599 -1.3628  0.3431  1.8938
 5582SOL    HW228206   0.201   0.107   6.552 -0.2963  0.6234  0.5263
 5583SOL     OW28207   0.289   2.498   2.623 -0.2026 -0.3625  0.0589
 5583SOL    HW128208   0.339   2.462   2.550  1.2754  1.9555 -0.0708
 5583SOL    HW228209   0.347   2.575   2.621 -0.9215  0.1804  0.4686
 5584SOL     OW28210   2.032   4.016   2.043 -0.5365 -0.2010  0.3539
 5584SOL    HW128211   2.028   3.960   2.121  0.4899 -1.0969 -0.2312
 5584SOL    HW228212   2.102   3.978   1.990 -0.7014  0.8411 -0.5924
 5585SOL     OW28213   2.742   1.953   0.925  0.5126 -0.1258  0.2398
 5585SOL    HW128214   2.750   1.868   0.883 -1.0500 -0.4057  0.4890
 5585SOL    HW228215   2.816   2.004   0.891  0.3029  0.3408  0.4759
 5586SOL     OW28216   0.638   0.086   7.775 -0.1786 -0.0187 -0.0564
 5586SOL    HW128217   0.629   4.721   7.801 -1.3868 -0.3671 -1.6707
 5586SOL    HW228218   0.647   0.129   7.860 -0.2627  0.2755 -0.1962
 5587SOL     OW28219   3.325   3.543   8.105  0.9412  0.1924 -0.3848
 5587SOL    HW128220   3.305   3.549   8.199 -2.6237 -0.3419 -1.1098
 5587SOL    HW228221   3.351   3.635   8.093 -1.1645  0.5738 -1.9842
 5588SOL     OW28222   2.383   2.832   1.474  0.0346  0.5383 -0.3323
 5588SOL    HW128223   2.459   2.836   1.415 -1.3675  2.1970 -2.0134
 5588SOL    HW228224   2.360   2.739   1.470  0.2910  0.3907  1.6109
 5589SOL     OW28225   2.097   4.068  12.446 -0.0220 -0.6938  0.1200
 5589SOL    HW128226   2.028   4.052  12.382 -1.5496  3.4315  0.7176
 5589SOL    HW228227   2.132   4.149  12.409 -1.0701 -0.4161 -0.2806
 5590SOL     OW28228   2.699   0.321  17.275  0.1234 -0.1989 -0.2967
 5590SOL    HW128229   2.630   0.383  17.296 -0.4935 -1.2344  0.6767
 5590SOL    HW228230   2.704   0.345  17.182 -1.9626  3.0874  0.4701
 5591SOL     OW28231   3.831   3.550  17.437 -0.4591  0.2431 -0.5265
 5591SOL    HW128232   3.874   3.614  17.494  1.0318 -0.6125 -0.6910
 5591SOL    HW228233   3.775   3.508  17.502  1.7844 -0.9472  0.6433
 5592SOL     OW28234   2.640   0.793   8.056 -0.1110  0.6595  0.4043
 5592SOL    HW128235   2.566   0.832   8.103 -0.1325 -0.0838  0.9818
 5592SOL    HW228236   2.605   0.706   8.038  1.0675  0.1770  0.4733
 5593SOL     OW28237   3.629   2.027  14.402 -0.1705 -0.3886  0.8268
 5593SOL    HW128238   3.545   2.071  14.396 -0.2905 -1.0518 -2.7507
 5593SOL    HW228239   3.624   1.978  14.320  0.6040  0.9496 -0.0139
 5594SOL     OW28240   4.599   2.210  14.806 -0.0592  0.4099 -0.5451
 5594SOL    HW128241   4.621   2.277  14.871 -0.1944 -0.9028  0.8467
 5594SOL    HW228242   4.680   2.189  14.759  0.5875  1.0477  0.2867
 5595SOL     OW28243   3.911   1.854  11.097  0.4800 -0.7104 -0.4883
 5595SOL    HW128244   3.863   1.826  11.176 -0.9538  1.3511 -0.6532
 5595SOL    HW228245   3.963   1.776  11.078  0.4614 -0.7479 -0.3879
 5596SOL     OW28246   1.733   1.701   6.062  0.0702  0.3322  0.0386
 5596SOL    HW128247   1.746   1.715   5.968  0.4613 -0.6777 -0.0551
 5596SOL    HW228248   1.694   1.786   6.082  0.2028  0.4444 -0.1772
 5597SOL     OW28249   3.489   0.458   7.944 -0.5023  0.3126 -0.0132
 5597SOL    HW128250   3.512   0.551   7.946  0.7825 -0.0965  3.0229
 5597SOL    HW228251   3.531   0.429   7.863  2.9964  1.2718  1.4600
 5598SOL     OW28252   4.026   3.240   1.755 -0.0372  0.5284  0.3164
 5598SOL    HW128253   4.085   3.260   1.682  0.4202 -0.3143  0.4474
 5598SOL    HW228254   3.938   3.253   1.722  0.6437  2.6759 -0.6543
 5599SOL     OW28255   2.681   1.007  15.653  0.4990 -0.3511  0.0123
 5599SOL    HW128256   2.681   0.932  15.712  1.5374  0.0320  0.4912
 5599SOL    HW228257   2.608   0.986  15.594 -1.9146  1.3619  2.4046
 5600SOL     OW28258   2.094   3.020   3.267  0.4711 -0.5665  0.2640
 5600SOL    HW128259   2.047   2.963   3.328  0.0712 -1.0366 -0.4882
 5600SOL    HW228260   2.037   3.018   3.190 -1.3914 -1.0037  1.6490
 5601SOL     OW28261   1.207   0.711   4.576 -0.3822  0.2830  0.3367
 5601SOL    HW128262   1.189   0.792   4.528 -1.9347  0.4242  1.1617
 5601SOL    HW228263   1.161   0.651   4.517  1.5743 -1.3167  0.4292
 5602SOL     OW28264   0.104   0.959   3.603 -0.1149  0.0179 -0.1994
 5602SOL    HW128265   0.040   0.989   3.539 -0.9910  0.0528  0.7006
 5602SOL    HW228266   0.072   0.871   3.621 -1.4078  0.7956  1.2950
 5603SOL     OW28267   3.145   3.509   6.059 -0.0747 -0.3792 -0.3874
 5603SOL    HW128268   3.216   3.462   6.016 -1.3365 -0.0209 -2.8592
 5603SOL    HW228269   3.173   3.598   6.035  0.0212 -0.4249 -0.4441
 5604SOL     OW28270   1.810   1.821   8.648 -0.1641  0.2262  0.2496
 5604SOL    HW128271   1.721   1.801   8.677  0.8240 -1.9338  1.8137
 5604SOL    HW228272   1.799   1.827   8.553 -0.6245  2.3538  0.4434
 5605SOL     OW28273   2.216   0.667  10.614  0.4057 -0.0160  0.0774
 5605SOL    HW128274   2.236   0.756  10.586 -1.8661  0.3232 -0.4491
 5605SOL    HW228275   2.290   0.615  10.582  1.2437  1.1122  0.1942
 5606SOL     OW28276   0.096   3.678   8.538  0.1169 -0.4716 -0.2570
 5606SOL    HW128277   0.093   3.714   8.627  0.0512 -0.0764 -0.4213
 5606SOL    HW228278   0.090   3.584   8.555 -1.1718 -0.5632 -1.2594
 5607SOL     OW28279   3.783   1.658   6.911  0.0032 -0.2177  0.0881
 5607SOL    HW128280   3.791   1.563   6.902 -0.7165 -0.2362 -0.2889
 5607SOL    HW228281   3.873   1.683   6.889  0.2143 -0.5579  0.5467
 5608SOL     OW28282   1.346   4.312  16.178 -0.2202  0.1062 -0.6237
 5608SOL    HW128283   1.306   4.226  16.164 -1.4624  0.4535  0.7846
 5608SOL    HW228284   1.379   4.308  16.267  1.2265 -2.4205 -1.2698
 5609SOL     OW28285   4.007   2.350  15.300 -0.4377  0.2004 -0.5788
 5609SOL    HW128286   3.920   2.388  15.286 -1.4189 -2.4811 -1.7298
 5609SOL    HW228287   4.021   2.330  15.208 -2.6785  0.8954 -1.0739
 5610SOL     OW28288   2.150   4.115   6.054 -0.1146  0.1503 -0.3151
 5610SOL    HW128289   2.162   4.060   6.131 -1.9152  0.6665  0.3300
 5610SOL    HW228290   2.237   4.154   6.050 -0.4901  0.9310 -1.1274
 5611SOL     OW28291   2.005   2.095  10.651  0.6604 -0.4447 -0.6178
 5611SOL    HW128292   1.937   2.160  10.636  2.2158  1.1650 -0.7408
 5611SOL    HW228293   2.079   2.148  10.620  0.5835 -0.1483 -0.3012
 5612SOL     OW28294   1.072   2.811   9.501  0.2822 -0.3056  0.0477
 5612SOL    HW128295   1.134   2.856   9.443 -0.6934 -1.0365 -1.5609
 5612SOL    HW228296   1.126   2.733   9.512  0.7212  0.3729  2.7610
 5613SOL     OW28297   4.047   1.108   7.673  0.0466 -0.5327 -0.0298
 5613SOL    HW128298   4.035   1.111   7.768 -0.3045 -3.3905  0.0185
 5613SOL    HW228299   4.103   1.185   7.668 -0.1661 -0.2862  1.3354
 5614SOL     OW28300   1.642   2.660   6.653  0.0763  0.0630 -0.0851
 5614SOL    HW128301   1.614   2.578   6.613  0.0539 -1.7141  3.5252
 5614SOL    HW228302   1.655   2.645   6.747  1.0315  0.9410 -0.0736
 5615SOL     OW28303   0.070   0.979   6.596 -0.3452 -0.3181  0.3149
 5615SOL    HW128304   0.136   1.021   6.652  0.0548 -1.5776  0.7962
 5615SOL    HW228305   0.008   0.976   6.669 -2.5256  0.1357 -1.5569
 5616SOL     OW28306   4.163   1.355   2.242  0.0251 -0.9260 -0.2062
 5616SOL    HW128307   4.084   1.376   2.192  1.9911  1.1237 -2.3969
 5616SOL    HW228308   4.160   1.424   2.309 -1.8256  0.8953 -2.1767
 5617SOL     OW28309   2.054   4.612   6.135 -0.1142 -0.3023 -1.2969
 5617SOL    HW128310   2.114   4.539   6.119  0.9731  0.5580 -1.1192
 5617SOL    HW228311   1.968   4.574   6.114 -1.2900  0.3875  2.2646
 5618SOL     OW28312   4.712   1.080   3.385 -0.2455 -0.5081  0.0522
 5618SOL    HW128313   4.687   1.003   3.334  0.2149 -1.3760  1.1522
 5618SOL    HW228314   4.651   1.149   3.356  0.3087 -1.0645 -2.4437
 5619SOL     OW28315   2.600   2.277  14.550  0.4271 -0.1624 -0.1385
 5619SOL    HW128316   2.690   2.302  14.572  1.0554 -1.5706 -1.0883
 5619SOL    HW228317   2.563   2.267  14.638 -1.4815  0.3732 -0.9049
 5620SOL     OW28318   0.172   4.208   6.089 -0.1107 -0.9938  0.1263
 5620SOL    HW128319   0.230   4.132   6.093  1.2225  0.0025 -0.0117
 5620SOL    HW228320   0.108   4.173   6.027  0.0459 -1.8347  0.4408
 5621SOL     OW28321   1.633   1.952   6.063  0.4714  0.4424  0.1813
 5621SOL    HW128322   1.581   1.952   6.143  1.1549 -1.4315  0.6279
 5621SOL    HW228323   1.577   1.999   6.002  2.7299 -0.2039 -2.4272
 5622SOL     OW28324   0.505   3.290   5.952 -0.2676  0.7463 -0.1750
 5622SOL    HW128325   0.502   3.283   6.048  2.5925 -0.1295 -0.1682
 5622SOL    HW228326   0.414   3.266   5.932 -1.3065  2.9565  1.8296
 5623SOL     OW28327   1.957   0.841   3.941  0.1245 -0.5181  0.4088
 5623SOL    HW128328   1.906   0.851   3.860 -1.7853  1.7033  1.8854
 5623SOL    HW228329   1.893   0.824   4.010  0.2003 -0.2107  0.5516
 5624SOL     OW28330   3.443   4.691   8.998 -0.0326  0.4944 -0.0861
 5624SOL    HW128331   3.406   4.714   8.912 -2.2104 -0.2492  0.6602
 5624SOL    HW228332   3.363   4.686   9.050  0.9398 -0.5524  1.2761
 5625SOL     OW28333   0.035   2.635   3.085 -0.0881 -0.4289  0.0734
 5625SOL    HW128334   0.083   2.591   3.155  0.8313  0.8625  0.2459
 5625SOL    HW228335   0.042   2.727   3.111 -3.2469 -0.1895  0.0102
 5626SOL     OW28336   2.816   0.558  13.501 -0.2381  0.3647 -0.2824
 5626SOL    HW128337   2.806   0.593  13.590 -1.1960 -0.4492 -0.0687
 5626SOL    HW228338   2.786   0.469  13.515 -0.2478  0.6395  1.4042
 5627SOL     OW28339   1.103   3.782   3.719  0.6869 -0.5333 -0.1589
 5627SOL    HW128340   1.086   3.691   3.744  0.5549 -0.5317 -0.2442
 5627SOL    HW228341   1.134   3.775   3.628 -0.5683 -0.6529 -0.5676
 5628SOL     OW28342   0.399   2.143   6.621  0.1904 -0.2348  0.0366
 5628SOL    HW128343   0.401   2.116   6.529  0.2672 -1.2646  0.3479
 5628SOL    HW228344   0.355   2.068   6.662  0.5930 -0.3224  0.2994
 5629SOL     OW28345   0.806   4.075  13.654  0.0318 -0.3991 -0.1748
 5629SOL    HW128346   0.741   4.013  13.622  2.1592 -1.6776 -2.0465
 5629SOL    HW228347   0.890   4.033  13.633 -0.3705 -0.6520 -1.2855
 5630SOL     OW28348   3.199   3.568   6.401  0.0766 -0.2748 -0.4696
 5630SOL    HW128349   3.284   3.612   6.401 -0.9437  1.6975 -1.3559
 5630SOL    HW228350   3.145   3.638   6.366  0.1195 -0.0888 -0.1681
 5631SOL     OW28351   2.493   1.043   7.767 -0.1501 -0.1380 -0.2197
 5631SOL    HW128352   2.457   1.123   7.730 -0.8510 -0.3336  0.0392
 5631SOL    HW228353   2.424   0.983   7.738 -0.5616 -0.3622  1.2120
 5632SOL     OW28354   1.084   2.270   7.004 -0.2406 -0.1777 -0.4449
 5632SOL    HW128355   1.156   2.206   7.011 -0.6164 -0.5130  0.3530
 5632SOL    HW228356   1.058   2.289   7.094 -3.3007  0.1874 -1.4095
 5633SOL     OW28357   0.940   3.238   2.026  0.3422  0.1855 -0.0154
 5633SOL    HW128358   1.003   3.211   1.959  0.5950 -1.6175  0.9508
 5633SOL    HW228359   0.868   3.179   2.004  0.8233 -0.5258  0.3202
 5634SOL     OW28360   4.197   3.461  11.281 -0.1403 -0.1774 -0.0903
 5634SOL    HW128361   4.228   3.464  11.371 -0.8570 -0.0323  0.1567
 5634SOL    HW228362   4.263   3.506  11.227 -0.4407 -1.7748 -1.7837
 5635SOL     OW28363   4.576   3.928   4.420  0.4246 -0.4497 -0.1509
 5635SOL    HW128364   4.584   3.998   4.356  1.2782 -0.4166 -0.0110
 5635SOL    HW228365   4.616   3.956   4.502  3.5996  0.8329 -2.1714
 5636SOL     OW28366   4.065   0.056   1.527 -0.7906 -0.2439  0.7734
 5636SOL    HW128367   3.970   0.068   1.525 -0.7135  0.0340 -1.5442
 5636SOL    HW228368   4.096   0.120   1.464  1.3309 -0.4373  1.6450
 5637SOL     OW28369   0.043   1.567  14.653  0.1328  0.9636 -0.1190
 5637SOL    HW128370   0.090   1.646  14.680  0.6285  0.3920  0.6454
 5637SOL    HW228371   0.111   1.502  14.661 -3.3408 -2.2931  2.8254
 5638SOL     OW28372   3.375   1.979   3.680  0.1665  0.3680  0.0632
 5638SOL    HW128373   3.367   1.976   3.585 -1.1379 -0.4980  0.1985
 5638SOL    HW228374   3.420   2.061   3.703 -0.5299  0.7576  0.0201
 5639SOL     OW28375   2.778   2.122   8.864  0.7057  0.3243 -0.0983
 5639SOL    HW128376   2.708   2.064   8.895  1.4433 -0.6573 -0.2701
 5639SOL    HW228377   2.801   2.161   8.948  2.3913  1.8492 -1.2605
 5640SOL     OW28378   1.556   4.161   5.644 -0.2886 -0.2304  0.3333
 5640SOL    HW128379   1.617   4.091   5.666 -0.8648 -0.5695  0.8511
 5640SOL    HW228380   1.519   4.172   5.731  1.3437 -4.0796  1.5286
 5641SOL     OW28381   1.885   2.996   6.679  0.7632  0.4662 -0.1571
 5641SOL    HW128382   1.803   2.947   6.668  0.2033  1.0976  1.1574
 5641SOL    HW228383   1.878   3.062   6.611  1.0360  0.6884  0.0312
 5642SOL     OW28384   3.618   3.561   4.308 -0.6303 -0.2238 -0.2525
 5642SOL    HW128385   3.580   3.639   4.267 -1.2498  1.1123  2.8736
 5642SOL    HW228386   3.705   3.591   4.333 -0.6734 -2.5347  2.6213
 5643SOL     OW28387   3.909   0.619   7.141 -0.2835  0.8426  0.2298
 5643SOL    HW128388   3.852   0.587   7.071 -0.5551 -0.7594  1.1765
 5643SOL    HW228389   3.865   0.578   7.215  1.4925 -0.4831  0.5574
 5644SOL     OW28390   3.283   1.439   8.240 -0.2208 -0.0532  0.1383
 5644SOL    HW128391   3.287   1.347   8.214 -0.2866 -0.8125  2.8482
 5644SOL    HW228392   3.335   1.443   8.320 -0.9873 -0.4201  0.6548
 5645SOL     OW28393   4.496   1.656   4.526 -0.6705 -0.2029  0.4100
 5645SOL    HW128394   4.587   1.659   4.555 -1.0495  1.3012  1.4900
 5645SOL    HW228395   4.458   1.586   4.578  0.1532 -1.0500 -0.1516
 5646SOL     OW28396   1.679   0.709  10.150 -0.2788 -0.1652 -0.1286
 5646SOL    HW128397   1.612   0.776  10.134  0.4687  0.8825  1.1960
 5646SOL    HW228398   1.643   0.654  10.219 -1.7689 -0.0529 -0.8160
 5647SOL     OW28399   2.172   1.757   5.312 -0.2480  0.1278 -0.1614
 5647SOL    HW128400   2.229   1.681   5.308 -0.3151  0.0171  0.8301
 5647SOL    HW228401   2.093   1.703   5.324 -0.7946  0.8963 -0.2688
 5648SOL     OW28402   3.448   3.652   4.059  0.3052 -0.2089  0.0510
 5648SOL    HW128403   3.386   3.589   4.095 -0.6762 -0.3434 -1.8392
 5648SOL    HW228404   3.460   3.617   3.970  0.5918 -1.5141  0.6058
 5649SOL     OW28405   3.579   3.833   5.602 -0.1694 -0.2941  0.2260
 5649SOL    HW128406   3.669   3.865   5.602  0.4776 -2.0418 -3.6727
 5649SOL    HW228407   3.559   3.860   5.512 -2.0705  1.0027  1.0313
 5650SOL     OW28408   3.324   3.560  16.887  0.0547 -0.2474  0.7437
 5650SOL    HW128409   3.298   3.501  16.959  1.4393  0.7367  2.0497
 5650SOL    HW228410   3.238   3.582  16.851 -1.2016 -1.0934  3.1714
 5651SOL     OW28411   1.591   1.485   9.634 -0.5190 -0.2654 -0.6204
 5651SOL    HW128412   1.544   1.407   9.604 -2.3100  0.3797  0.5259
 5651SOL    HW228413   1.608   1.450   9.721  3.2946 -1.0229 -1.6456
 5652SOL     OW28414   0.863   0.339   5.844 -0.0073 -0.1183 -0.5652
 5652SOL    HW128415   0.909   0.268   5.799  1.0696  1.6221 -2.1698
 5652SOL    HW228416   0.791   0.279   5.865  2.0510 -1.7230  1.8668
 5653SOL     OW28417   1.423   2.728  10.164  0.2761  0.2653 -0.2870
 5653SOL    HW128418   1.483   2.753  10.235  0.8939 -0.6501 -0.4979
 5653SOL    HW228419   1.374   2.658  10.206  0.5768 -0.1090 -0.5666
 5654SOL     OW28420   1.142   3.913   6.351  0.1036  0.1228 -0.3663
 5654SOL    HW128421   1.051   3.895   6.376 -0.2849 -1.0358 -2.6151
 5654SOL    HW228422   1.192   3.927   6.431  0.0369 -0.5379 -0.2057
 5655SOL     OW28423   1.843   3.939   7.362 -0.8840 -0.2445 -0.2226
 5655SOL    HW128424   1.761   3.977   7.332 -1.8825  0.2174  3.1137
 5655SOL    HW228425   1.911   3.995   7.325  1.2499 -2.4415  0.3167
 5656SOL     OW28426   3.694   2.525   8.238  0.3109  0.5795  0.3231
 5656SOL    HW128427   3.720   2.617   8.237  0.6712  0.4995  2.4117
 5656SOL    HW228428   3.621   2.527   8.176 -0.5444  0.2504  1.3245
 5657SOL     OW28429   0.600   2.532   2.754 -0.4922  0.1390  0.2224
 5657SOL    HW128430   0.615   2.591   2.828 -1.3372  2.1010 -1.1889
 5657SOL    HW228431   0.576   2.596   2.688 -1.5729  0.3529  0.8281
 5658SOL     OW28432   4.454   0.749   6.794  0.3863  0.0143  0.1183
 5658SOL    HW128433   4.527   0.810   6.781  2.0450 -1.9344  0.3017
 5658SOL    HW228434   4.418   0.761   6.706  2.3846  1.2081 -0.5578
 5659SOL     OW28435   4.419   0.015   9.454 -0.5513  0.3522 -0.1555
 5659SOL    HW128436   4.370   4.716   9.531  0.1327 -1.7387 -0.4169
 5659SOL    HW228437   4.444   0.105   9.474  1.7406  0.1787 -2.2604
 5660SOL     OW28438   0.981   3.230   2.331 -0.3834  0.0336  0.4281
 5660SOL    HW128439   1.069   3.265   2.343 -2.3010  4.2881  1.8090
 5660SOL    HW228440   0.960   3.235   2.238 -1.0193 -0.4788  0.5433
 5661SOL     OW28441   2.506   3.428   4.026 -0.4951  0.5361 -0.1268
 5661SOL    HW128442   2.544   3.509   3.991 -3.0959  1.3397 -1.1017
 5661SOL    HW228443   2.421   3.452   4.063 -0.4856  1.8700 -0.9588
 5662SOL     OW28444   3.411   1.867  12.405  0.0390  0.2659 -0.3259
 5662SOL    HW128445   3.361   1.940  12.367 -0.7300 -0.5628 -0.8856
 5662SOL    HW228446   3.500   1.882  12.372 -0.0062 -0.8314 -0.9405
 5663SOL     OW28447   4.185   1.023  16.105 -0.3056  0.1172 -0.0357
 5663SOL    HW128448   4.242   0.946  16.100 -1.9869 -1.1117 -0.5175
 5663SOL    HW228449   4.147   1.028  16.017  2.3987  2.2907 -1.0780
 5664SOL     OW28450   1.822   1.061   2.187  0.1135 -0.1962  0.5116
 5664SOL    HW128451   1.812   1.009   2.108 -0.6228 -0.8001  0.9996
 5664SOL    HW228452   1.886   1.128   2.161 -0.7599 -0.2246 -1.6872
 5665SOL     OW28453   2.337   3.278   0.117  0.8964  0.8239  0.2487
 5665SOL    HW128454   2.268   3.297   0.181 -0.9233  0.8537 -1.7322
 5665SOL    HW228455   2.332   3.360   0.067  1.6012  0.0456 -1.0784
 5666SOL     OW28456   2.321   3.129   6.465 -0.0322  0.3003  0.4840
 5666SOL    HW128457   2.248   3.135   6.403  1.0855  1.9888 -0.6597
 5666SOL    HW228458   2.376   3.067   6.417  0.5766  1.1750  0.0599
 5667SOL     OW28459   1.767   1.333   7.213  0.0937 -0.1177 -0.8771
 5667SOL    HW128460   1.844   1.276   7.223 -0.0943 -0.2196 -0.0014
 5667SOL    HW228461   1.815   1.413   7.191  0.5461  0.9323  3.7799
 5668SOL     OW28462   3.589   2.730   0.583 -0.5083 -0.5541  0.2072
 5668SOL    HW128463   3.671   2.713   0.629 -0.2925 -1.0588 -0.3579
 5668SOL    HW228464   3.521   2.715   0.649 -1.8703 -3.3247 -1.8062
 5669SOL     OW28465   3.765   1.565   3.485  0.0165 -0.2420 -0.1099
 5669SOL    HW128466   3.855   1.550   3.514  0.4303  1.5649 -0.4761
 5669SOL    HW228467   3.718   1.513   3.550  2.2599 -0.0266  1.6750
 5670SOL     OW28468   4.386   2.577   3.644 -0.8281  0.1062  0.4337
 5670SOL    HW128469   4.350   2.504   3.696  0.4817 -0.2437  0.8550
 5670SOL    HW228470   4.455   2.594   3.708 -0.5558  0.8226 -0.0510
 5671SOL     OW28471   2.486   1.269   8.123 -0.1834  0.4979  0.6081
 5671SOL    HW128472   2.465   1.219   8.202 -2.2821  0.1203 -0.1996
 5671SOL    HW228473   2.557   1.320   8.163 -1.5227  0.8202  2.5745
 5672SOL     OW28474   4.254   1.502  16.859  0.1438  0.6055  0.1547
 5672SOL    HW128475   4.206   1.419  16.863  0.4794  0.3782 -0.5851
 5672SOL    HW228476   4.262   1.509  16.954  0.7604  0.0126  0.1472
 5673SOL     OW28477   3.822   1.236   0.866  0.4228  0.1749 -0.6727
 5673SOL    HW128478   3.882   1.169   0.898  0.6866  2.2492  3.2221
 5673SOL    HW228479   3.874   1.313   0.842  1.5785 -0.0331  1.1833
 5674SOL     OW28480   0.895   0.950   4.613  0.2914 -0.8857  0.5666
 5674SOL    HW128481   0.953   0.983   4.682  0.8038  0.8502 -0.7258
 5674SOL    HW228482   0.960   0.931   4.545  1.0430  1.8619  0.5333
 5675SOL     OW28483   0.053   4.137   2.419  1.0216  0.0597  0.0003
 5675SOL    HW128484   0.109   4.097   2.486 -1.3462 -1.5133  1.0535
 5675SOL    HW228485   0.031   4.224   2.453  0.7957 -0.4612  1.1982
 5676SOL     OW28486   2.722   2.817   0.545 -0.1535 -0.6777  0.4718
 5676SOL    HW128487   2.712   2.874   0.620  1.4965 -2.0055  1.7073
 5676SOL    HW228488   2.785   2.861   0.489  1.1181 -1.1429  1.5366
 5677SOL     OW28489   4.520   3.353  14.882 -0.6094 -0.0395 -0.5258
 5677SOL    HW128490   4.497   3.277  14.828 -1.5728 -0.2515  0.1878
 5677SOL    HW228491   4.473   3.330  14.962  0.8925 -1.1189  0.0589
 5678SOL     OW28492   3.331   2.494   7.376 -0.1515 -0.0913  0.4478
 5678SOL    HW128493   3.410   2.505   7.428  0.6350  1.9534 -1.1678
 5678SOL    HW228494   3.349   2.418   7.321 -2.5333  0.0757 -0.5664
 5679SOL     OW28495   4.433   2.011   7.090  0.5275  0.1237  0.2975
 5679SOL    HW128496   4.407   2.103   7.093  0.6170  0.2219 -1.8904
 5679SOL    HW228497   4.515   2.024   7.043 -0.0509 -1.9935 -1.3282
 5680SOL     OW28498   0.056   4.464   7.353 -0.5259  0.3894  0.1366
 5680SOL    HW128499   0.076   4.389   7.411  1.1210  1.4771  0.9764
 5680SOL    HW228500   0.074   4.534   7.416  1.3776 -0.3735  0.4550
 5681SOL     OW28501   1.596   3.963   4.571  0.1590 -0.3158 -0.2238
 5681SOL    HW128502   1.671   3.914   4.539 -0.1879 -1.3258  0.5146
 5681SOL    HW228503   1.630   3.999   4.653  0.4462  1.2948 -1.0402
 5682SOL     OW28504   0.528   4.702   3.690 -0.3774 -0.5192  0.0327
 5682SOL    HW128505   0.493   4.652   3.616  0.2313 -0.5654 -0.2240
 5682SOL    HW228506   0.589   4.638   3.727  0.3903  1.0681  1.4553
 5683SOL     OW28507   3.717   0.592   5.152  0.2199 -0.7961 -0.6714
 5683SOL    HW128508   3.623   0.609   5.149  0.4996  1.4498  1.9306
 5683SOL    HW228509   3.747   0.672   5.109 -1.1939 -0.6344 -1.3452
 5684SOL     OW28510   0.494   2.846  16.621 -0.2029  0.3153 -0.0172
 5684SOL    HW128511   0.433   2.781  16.586 -0.2440 -1.5648  3.5285
 5684SOL    HW228512   0.572   2.799  16.653 -0.1499  0.6328  0.3225
 5685SOL     OW28513   3.534   3.371   4.987  0.0927  0.4265  0.1604
 5685SOL    HW128514   3.548   3.299   5.049  0.2136  0.4346  0.1429
 5685SOL    HW228515   3.622   3.389   4.955  0.6529  0.0080  1.4689
 5686SOL     OW28516   3.515   1.963  17.276  0.0395 -0.1937 -0.7247
 5686SOL    HW128517   3.538   1.902  17.206  0.7997 -0.6479 -0.0764
 5686SOL    HW228518   3.419   1.962  17.271 -0.0263 -0.0229  0.3560
 5687SOL     OW28519   0.604   1.061   4.262 -0.0278  0.0150  0.0751
 5687SOL    HW128520   0.688   1.047   4.219  0.5611  2.0179  0.6045
 5687SOL    HW228521   0.559   0.985   4.224 -0.4066 -0.4888  1.5459
 5688SOL     OW28522   4.412   1.234   9.496 -0.1942 -0.1864 -0.0040
 5688SOL    HW128523   4.378   1.242   9.585  0.0685  0.5781  0.0245
 5688SOL    HW228524   4.350   1.172   9.457 -0.8817  0.0915  0.6503
 5689SOL     OW28525   4.644   1.033   9.165  0.2431  0.4267 -0.1783
 5689SOL    HW128526   4.707   1.079   9.220 -0.1835  0.9168 -0.1018
 5689SOL    HW228527   4.569   1.083   9.197  1.2010  0.6769  1.6811
 5690SOL     OW28528   1.981   3.344   8.023 -0.4417  0.1585  0.3348
 5690SOL    HW128529   1.897   3.305   8.000 -0.3492 -0.1148  0.4619
 5690SOL    HW228530   1.986   3.426   7.974  0.7542  0.8435  1.6198
 5691SOL     OW28531   2.982   4.421   3.528  0.6649  0.3374 -0.0676
 5691SOL    HW128532   3.047   4.407   3.597 -0.0194  1.6594  0.8213
 5691SOL    HW228533   2.909   4.412   3.589 -0.3027  1.2958 -1.0913
 5692SOL     OW28534   3.424   2.136   1.397 -0.3350 -0.3132 -0.0383
 5692SOL    HW128535   3.439   2.042   1.392  0.5974 -0.1700 -0.0886
 5692SOL    HW228536   3.464   2.170   1.317  1.3046 -1.1085  0.4351
 5693SOL     OW28537   1.734   2.175   0.192 -0.1657  0.4493 -0.2291
 5693SOL    HW128538   1.659   2.197   0.138 -0.5536 -1.2212 -0.3848
 5693SOL    HW228539   1.697   2.134   0.270  2.3377  0.0051  0.7506
 5694SOL     OW28540   2.747   2.828  14.698  0.2530  1.2056  0.0859
 5694SOL    HW128541   2.814   2.887  14.664  1.0139 -0.0435 -0.5804
 5694SOL    HW228542   2.677   2.891  14.713  2.3510  3.0798  1.9965
 5695SOL     OW28543   3.316   2.333   7.949 -0.9638 -0.1279  0.3148
 5695SOL    HW128544   3.383   2.362   7.887  0.2723  0.0375  1.7200
 5695SOL    HW228545   3.253   2.292   7.890  0.6598  0.5388 -1.9131
 5696SOL     OW28546   0.178   0.105   8.707 -0.2766 -0.6085  0.3428
 5696SOL    HW128547   0.215   0.129   8.792  0.6419  1.2838 -0.5842
 5696SOL    HW228548   0.155   0.191   8.672  0.4918 -0.2212  0.7817
 5697SOL     OW28549   4.652   4.144  12.357  0.5456 -0.2030  0.2538
 5697SOL    HW128550   4.651   4.210  12.426  0.6044 -0.5683  0.6031
 5697SOL    HW228551   4.571   4.093  12.361 -0.4009  1.2313 -0.4731
 5698SOL     OW28552   2.283   0.810   0.239  0.2307 -0.1551  0.1005
 5698SOL    HW128553   2.361   0.865   0.235  1.1091 -1.3446  0.9209
 5698SOL    HW228554   2.234   0.870   0.183  1.2483  1.7219  1.1950
 5699SOL     OW28555   1.316   1.648   4.627  0.2363 -0.1455 -0.3516
 5699SOL    HW128556   1.255   1.596   4.574 -2.5345  1.9952  0.7632
 5699SOL    HW228557   1.396   1.596   4.617  1.5366  1.7636  0.1226
 5700SOL     OW28558   3.223   2.570   5.450 -0.1968  0.6341 -0.1061
 5700SOL    HW128559   3.146   2.578   5.393 -1.3653  0.6155  1.4893
 5700SOL    HW228560   3.301   2.581   5.395 -0.2228  0.3895 -0.1899
 5701SOL     OW28561   2.185   0.472  12.104  0.4632  0.1445 -0.3493
 5701SOL    HW128562   2.248   0.445  12.170  1.3234  1.3698 -0.6780
 5701SOL    HW228563   2.169   0.564  12.126 -2.5039 -0.6081  0.6838
 5702SOL     OW28564   3.177   0.773   6.836 -0.5398 -0.1534  0.1580
 5702SOL    HW128565   3.206   0.685   6.811  0.0144  0.9697 -3.2731
 5702SOL    HW228566   3.228   0.782   6.916  1.4618  0.0289 -1.1229
 5703SOL     OW28567   4.488   2.310   5.872 -0.0573 -0.1520 -0.0272
 5703SOL    HW128568   4.463   2.315   5.964  1.0824 -1.0941  0.3443
 5703SOL    HW228569   4.560   2.372   5.879  0.0305 -0.4475  1.6834
 5704SOL     OW28570   0.074   0.813   5.994  0.2492 -0.0020 -0.8947
 5704SOL    HW128571   0.164   0.838   5.977  0.6450 -1.5370 -1.0314
 5704SOL    HW228572   0.023   0.861   5.929  0.2685  0.8347 -0.2925
 5705SOL     OW28573   2.437   4.716   8.954  0.0730 -0.2992 -0.0555
 5705SOL    HW128574   2.493   0.001   9.030  1.9603  0.9938 -1.6493
 5705SOL    HW228575   2.405   0.077   8.933  1.7686  0.7930  1.9593
 5706SOL     OW28576   1.412   3.900   5.428 -0.0647  0.2399 -0.1226
 5706SOL    HW128577   1.461   3.951   5.364 -0.6888 -0.2519 -0.9923
 5706SOL    HW228578   1.350   3.973   5.438 -0.1233  0.2783 -0.7555
 5707SOL     OW28579   3.598   2.034  12.600 -0.1027 -0.4242 -0.5205
 5707SOL    HW128580   3.533   1.967  12.577 -0.8721 -0.0081  0.4420
 5707SOL    HW228581   3.632   2.034  12.510 -1.0680  0.6434 -0.8825
 5708SOL     OW28582   3.017   2.714   7.610 -0.4927 -0.0318  0.0467
 5708SOL    HW128583   2.956   2.692   7.681 -0.6193 -1.3778 -0.4672
 5708SOL    HW228584   2.976   2.657   7.545  1.0593  3.2601 -3.7866
 5709SOL     OW28585   4.539   2.350   7.145  0.1308  0.2839 -0.1164
 5709SOL    HW128586   4.551   2.439   7.112  1.4166  0.0562 -0.2777
 5709SOL    HW228587   4.566   2.360   7.236  1.1016 -1.8876 -0.1664
 5710SOL     OW28588   4.036   2.728   7.991  0.2703 -0.2988  0.5072
 5710SOL    HW128589   4.037   2.811   7.943 -0.7441 -1.7475 -1.9907
 5710SOL    HW228590   4.058   2.754   8.081 -0.6070  1.0444  0.3271
 5711SOL     OW28591   1.516   2.008   2.028  0.4365  0.0992  0.0459
 5711SOL    HW128592   1.442   1.983   2.084 -0.7900 -0.8962 -2.0377
 5711SOL    HW228593   1.480   2.086   1.988 -2.1310 -2.4899 -2.6790
 5712SOL     OW28594   2.710   4.127   6.436 -0.4107  0.4301 -0.1439
 5712SOL    HW128595   2.705   4.222   6.451 -1.7045  0.5428 -1.2557
 5712SOL    HW228596   2.791   4.123   6.385  0.9706 -1.4433  2.2645
 5713SOL     OW28597   1.713   0.423   1.753  0.3697  0.5414  0.1913
 5713SOL    HW128598   1.767   0.375   1.691  0.4329 -0.8225  1.2953
 5713SOL    HW228599   1.626   0.418   1.714  1.3054  5.3922 -2.5757
 5714SOL     OW28600   0.815   0.615   4.364  0.1345 -0.6010  0.2717
 5714SOL    HW128601   0.877   0.552   4.400  2.6876  1.7184 -0.1686
 5714SOL    HW228602   0.773   0.659   4.438 -0.1000  0.3710 -0.4497
 5715SOL     OW28603   3.300   3.864  12.167  0.2795  0.2595 -0.0511
 5715SOL    HW128604   3.298   3.795  12.233  1.0075 -1.6525 -2.0180
 5715SOL    HW228605   3.362   3.922  12.211  0.6133 -0.3968  0.3395
 5716SOL     OW28606   1.633   2.175   1.760 -0.0605 -0.2033  0.2893
 5716SOL    HW128607   1.705   2.192   1.821 -0.7268 -1.0005  1.2843
 5716SOL    HW228608   1.579   2.254   1.765 -0.7979 -0.9225  3.5824
 5717SOL     OW28609   4.440   0.490   8.576 -0.4206 -0.7475  0.4310
 5717SOL    HW128610   4.400   0.437   8.645  0.7117 -0.4334  1.3102
 5717SOL    HW228611   4.468   0.563   8.630  0.7078  0.5398 -1.9105
 5718SOL     OW28612   1.131   3.589   8.551 -0.0201 -0.1498 -0.1260
 5718SOL    HW128613   1.036   3.579   8.549  0.0730 -0.7470 -1.5211
 5718SOL    HW228614   1.163   3.500   8.565 -2.0551 -0.7417  0.8206
 5719SOL     OW28615   2.559   2.434   1.674 -0.1218  0.7760  0.2590
 5719SOL    HW128616   2.577   2.518   1.717  0.3275 -0.1068  1.8301
 5719SOL    HW228617   2.649   2.410   1.651 -0.1205 -1.0055  1.9972
 5720SOL     OW28618   0.232   4.180  12.688  0.4449  0.2501 -0.1243
 5720SOL    HW128619   0.248   4.241  12.760 -1.7859  1.0416 -0.3089
 5720SOL    HW228620   0.284   4.209  12.612  2.0376 -0.2349  0.7783
 5721SOL     OW28621   3.891   0.142   8.018 -0.1361  0.3622 -0.0558
 5721SOL    HW128622   3.882   0.185   7.933  2.3627 -1.9652 -1.4952
 5721SOL    HW228623   3.975   0.097   8.013  0.1872  0.8644  0.9437
 5722SOL     OW28624   2.897   4.362  13.160  0.1792  0.4137 -0.7908
 5722SOL    HW128625   2.959   4.421  13.119 -0.6810  1.0592 -1.1599
 5722SOL    HW228626   2.905   4.278  13.114 -0.3085 -0.7555  1.2062
 5723SOL     OW28627   3.639   0.670   6.913 -0.0452 -0.7267 -0.2007
 5723SOL    HW128628   3.621   0.750   6.963 -2.9255 -0.8973 -0.9572
 5723SOL    HW228629   3.631   0.605   6.982  1.7653 -0.4820  0.2234
 5724SOL     OW28630   1.436   0.402  17.461  0.2146 -0.1393 -0.2035
 5724SOL    HW128631   1.413   0.476  17.405 -3.5642 -0.8307  0.4495
 5724SOL    HW228632   1.374   0.332  17.444  0.7416 -0.5204 -0.5568
 5725SOL     OW28633   1.213   0.549   2.633  0.5649  0.4459 -0.3456
 5725SOL    HW128634   1.198   0.614   2.701 -1.2857  0.5742 -0.8732
 5725SOL    HW228635   1.139   0.489   2.646 -0.1853  1.3303 -0.5698
 5726SOL     OW28636   0.276   2.304   4.082 -0.4567 -0.1063  0.0177
 5726SOL    HW128637   0.198   2.346   4.118 -1.0203  0.7342 -2.1487
 5726SOL    HW228638   0.284   2.357   4.002  0.8034  2.6303  1.9761
 5727SOL     OW28639   1.140   3.056   0.668 -0.2380  0.0366  0.0982
 5727SOL    HW128640   1.226   3.056   0.626 -0.2689 -1.1082  0.0314
 5727SOL    HW228641   1.166   3.102   0.748 -0.4463  1.0501 -0.4261
 5728SOL     OW28642   1.648   4.134  12.446 -0.3861 -0.0170 -0.0063
 5728SOL    HW128643   1.689   4.220  12.444 -3.0855  1.2961  0.1280
 5728SOL    HW228644   1.663   4.088  12.528  1.7279  1.4850  0.4254
 5729SOL     OW28645   0.983   4.093  14.369  0.9871 -0.1624 -0.3446
 5729SOL    HW128646   0.994   4.173  14.317 -2.2680  0.1534 -0.5411
 5729SOL    HW228647   0.908   4.120  14.422  0.1067 -0.2079 -1.5788
 5730SOL     OW28648   0.581   0.694  10.670  0.0505 -0.0069  0.1842
 5730SOL    HW128649   0.569   0.764  10.734  1.4777  1.1515 -0.8093
 5730SOL    HW228650   0.667   0.717  10.637 -0.2073 -2.0175 -1.9024
 5731SOL     OW28651   2.150   2.973   8.096 -0.7251 -0.0572 -0.3998
 5731SOL    HW128652   2.245   2.977   8.089 -0.5112  0.2107  2.4020
 5731SOL    HW228653   2.140   2.928   8.180  2.0057  1.0062  0.4937
 5732SOL     OW28654   3.736   1.745   1.951  0.2882  0.1346  0.2101
 5732SOL    HW128655   3.826   1.755   1.981 -0.5134  1.5095  2.1659
 5732SOL    HW228656   3.700   1.830   1.976 -0.1081 -0.3150  1.1825
 5733SOL     OW28657   3.670   0.097   6.595 -0.5214 -0.0845 -0.3399
 5733SOL    HW128658   3.682   0.050   6.677 -0.8272  0.6175  0.1031
 5733SOL    HW228659   3.575   0.102   6.588 -0.4706 -0.8863 -1.6911
 5734SOL     OW28660   3.896   2.176  17.393  0.6839 -0.1562 -0.3977
 5734SOL    HW128661   3.935   2.102  17.347 -0.3739 -1.0559  0.1631
 5734SOL    HW228662   3.952   2.175  17.470 -0.2345  0.5293  0.2837
 5735SOL     OW28663   1.211   2.765   0.810  0.0856 -0.0956 -0.1931
 5735SOL    HW128664   1.139   2.805   0.861 -0.3680  0.6591 -1.4302
 5735SOL    HW228665   1.278   2.830   0.830 -1.2313  0.3691  2.7879
 5736SOL     OW28666   4.264   3.892   8.480 -0.3240 -0.0036  0.2426
 5736SOL    HW128667   4.269   3.951   8.555  4.1187  1.8979 -1.5438
 5736SOL    HW228668   4.319   3.940   8.418  1.3819 -3.3550 -0.8354
 5737SOL     OW28669   3.680   0.698   5.555 -0.1200  0.3181 -0.5575
 5737SOL    HW128670   3.629   0.718   5.634 -1.2407 -2.7019 -0.4984
 5737SOL    HW228671   3.696   0.604   5.567 -0.7299  0.4582  1.3560
 5738SOL     OW28672   4.012   0.665   5.313  0.0681  0.1872 -0.1707
 5738SOL    HW128673   3.960   0.711   5.247  0.7252  1.0118 -0.1153
 5738SOL    HW228674   3.998   0.718   5.392 -1.1322 -0.9707  0.3969
 5739SOL     OW28675   0.519   3.755  12.374 -0.5413  0.1123 -0.0442
 5739SOL    HW128676   0.505   3.762  12.469 -3.2792  1.0832 -0.5469
 5739SOL    HW228677   0.550   3.666  12.359  0.4283 -0.2528  3.9975
 5740SOL     OW28678   0.874   3.889  10.496 -0.2210  0.1332  0.0925
 5740SOL    HW128679   0.831   3.957  10.548  2.1268  3.7855 -2.7327
 5740SOL    HW228680   0.936   3.854  10.560  0.6594 -1.4827 -1.6250
 5741SOL     OW28681   1.542   4.612   4.805  0.2772 -0.1893 -0.3365
 5741SOL    HW128682   1.575   4.590   4.893  0.9291 -0.2013 -0.5821
 5741SOL    HW228683   1.454   4.643   4.827  0.4894 -1.1734  1.9128
 5742SOL     OW28684   4.078   2.056  11.015 -0.1851  0.1675  0.8753
 5742SOL    HW128685   4.085   2.051  10.919 -2.9305  0.0601  0.6838
 5742SOL    HW228686   4.034   1.972  11.024 -0.1679  0.0734  0.1273
 5743SOL     OW28687   3.205   3.620   5.346  0.5984 -0.0529  0.1609
 5743SOL    HW128688   3.290   3.631   5.304  0.0893 -1.7789 -1.3069
 5743SOL    HW228689   3.153   3.593   5.271 -0.7870 -1.0472  1.4980
 5744SOL     OW28690   2.925   3.680  16.762  0.1526  0.1849 -0.3793
 5744SOL    HW128691   2.975   3.609  16.803 -1.9820 -1.3297 -0.3916
 5744SOL    HW228692   2.971   3.695  16.679 -1.2584  0.2221 -1.1491
 5745SOL     OW28693   0.506   2.320   8.167  1.0523  0.3100 -0.0854
 5745SOL    HW128694   0.498   2.415   8.177 -2.2535 -0.0383  0.7173
 5745SOL    HW228695   0.599   2.319   8.187  1.3500 -1.2274 -1.6112
 5746SOL     OW28696   0.191   1.605  17.066 -0.3585 -0.4864 -0.5059
 5746SOL    HW128697   0.184   1.636  16.975  0.6619 -0.6337 -0.6376
 5746SOL    HW228698   0.269   1.550  17.072 -0.3450 -0.5032 -0.8103
 5747SOL     OW28699   3.110   3.307  11.839 -0.2076  0.2496 -0.3257
 5747SOL    HW128700   3.119   3.360  11.759 -3.7567  0.5828 -0.5072
 5747SOL    HW228701   3.197   3.301  11.878  0.6065 -1.9136 -2.4264
 5748SOL     OW28702   1.490   3.403  15.801  0.2783  0.0313 -0.3039
 5748SOL    HW128703   1.398   3.421  15.823 -0.3636 -1.0304 -2.1103
 5748SOL    HW228704   1.526   3.391  15.889 -0.4049  2.9820  0.3889
 5749SOL     OW28705   4.151   2.093  16.393  0.3699  0.9970 -0.9881
 5749SOL    HW128706   4.165   2.044  16.473 -0.5713  1.1932 -0.7059
 5749SOL    HW228707   4.205   2.168  16.417  1.9184  0.3894 -2.5769
 5750SOL     OW28708   3.655   2.832   2.604 -0.0461 -0.0882 -0.4083
 5750SOL    HW128709   3.727   2.784   2.563  1.7629  0.4171  2.1604
 5750SOL    HW228710   3.630   2.875   2.522  2.1431  0.3253 -0.8703
 5751SOL     OW28711   0.150   2.451   7.644  0.2118  0.2230  0.1516
 5751SOL    HW128712   0.207   2.407   7.581 -3.3196 -2.6407 -1.0704
 5751SOL    HW228713   0.190   2.428   7.728  0.3522 -0.4957 -0.1154
 5752SOL     OW28714   1.304   2.245   3.974  0.2421 -0.3332 -0.2397
 5752SOL    HW128715   1.323   2.163   3.929  1.4109  0.5365 -1.3250
 5752SOL    HW228716   1.372   2.245   4.042 -0.5511  1.6926  0.5554
 5753SOL     OW28717   2.998   1.441   8.126 -0.4726  0.1576 -0.8066
 5753SOL    HW128718   2.917   1.491   8.116 -0.4593  0.7291  2.0224
 5753SOL    HW228719   3.040   1.478   8.204 -0.8550 -0.9188 -0.0814
 5754SOL     OW28720   3.447   3.561  11.504  0.3750 -0.4725 -0.3164
 5754SOL    HW128721   3.448   3.570  11.409  0.9972  0.7834 -0.1977
 5754SOL    HW228722   3.537   3.530  11.517  1.2668  1.5940 -1.4650
 5755SOL     OW28723   3.618   2.761   7.568 -0.0185 -0.3268  0.1543
 5755SOL    HW128724   3.569   2.795   7.493 -0.5784  0.4978  0.8954
 5755SOL    HW228725   3.644   2.678   7.529 -0.5777 -1.2277  1.7122
 5756SOL     OW28726   2.016   2.270   4.245 -0.4029 -0.0313 -0.0477
 5756SOL    HW128727   2.057   2.350   4.212 -0.5350  0.2515  0.4786
 5756SOL    HW228728   2.040   2.209   4.176 -3.3651 -0.4508 -0.7201
 5757SOL     OW28729   1.488   4.393   2.347  0.0882  0.4291  0.1900
 5757SOL    HW128730   1.399   4.391   2.309 -0.1331  2.1687  0.6365
 5757SOL    HW228731   1.517   4.309   2.310 -1.4880 -0.9024  1.9621
 5758SOL     OW28732   2.631   2.591   5.306  0.6417  0.3103 -0.4758
 5758SOL    HW128733   2.717   2.550   5.302 -0.4453 -2.1688  1.3423
 5758SOL    HW228734   2.615   2.604   5.400 -1.4008 -0.0536 -0.7696
 5759SOL     OW28735   2.952   1.009  14.486 -0.2866  0.5455 -0.4151
 5759SOL    HW128736   3.031   1.046  14.524  0.6463  0.4769 -2.2718
 5759SOL    HW228737   2.915   0.947  14.549  0.9020 -1.4475 -1.6810
 5760SOL     OW28738   3.041   3.333   8.753  0.0818  0.3313  0.6715
 5760SOL    HW128739   3.028   3.373   8.667 -1.7289  0.1699  0.8768
 5760SOL    HW228740   2.964   3.278   8.767  1.6732 -1.8276  1.0112
 5761SOL     OW28741   2.185   0.647  12.912  0.0142  0.3839 -0.1419
 5761SOL    HW128742   2.268   0.620  12.952  0.6874  1.2765 -0.9002
 5761SOL    HW228743   2.188   0.742  12.919  1.9883  0.3314 -0.0773
 5762SOL     OW28744   1.778   1.687   4.738 -0.3390 -0.1994  0.6329
 5762SOL    HW128745   1.869   1.659   4.746 -0.3400 -0.7370 -1.1420
 5762SOL    HW228746   1.793   1.758   4.675 -0.9316  2.0451  2.9902
 5763SOL     OW28747   0.922   4.144  15.653 -0.8409 -0.0655 -0.0915
 5763SOL    HW128748   0.968   4.065  15.624  0.0049  0.9994 -1.6891
 5763SOL    HW228749   0.986   4.214  15.643 -1.0982 -0.1459 -2.5167
 5764SOL     OW28750   4.037   2.857   3.195  0.4276 -0.2561  0.6051
 5764SOL    HW128751   4.082   2.777   3.170  1.6867  0.6637 -0.0914
 5764SOL    HW228752   3.948   2.821   3.192  1.0913 -1.8818  0.3656
 5765SOL     OW28753   0.604   1.252   5.430 -0.3250 -0.4265  0.7984
 5765SOL    HW128754   0.663   1.325   5.451 -2.9339  2.8353 -3.1723
 5765SOL    HW228755   0.516   1.288   5.424 -0.8064 -1.9067 -0.8859
 5766SOL     OW28756   1.217   3.382   4.352  0.3380  0.1651 -0.6528
 5766SOL    HW128757   1.237   3.377   4.445 -1.7462  0.9825 -0.1545
 5766SOL    HW228758   1.220   3.289   4.332  1.8606 -0.3729  2.0458
 5767SOL     OW28759   3.992   3.304  14.273 -0.0363  0.1656  0.0039
 5767SOL    HW128760   3.903   3.271  14.288  0.1630  0.8084  2.6022
 5767SOL    HW228761   4.053   3.248  14.321 -0.1596  0.3397  0.3592
 5768SOL     OW28762   2.460   0.208  11.256 -0.7390 -0.0264  0.0872
 5768SOL    HW128763   2.501   0.287  11.292  2.0385 -0.6014 -1.8557
 5768SOL    HW228764   2.485   0.154  11.331 -1.5545 -1.4613 -0.6637
 5769SOL     OW28765   2.064   4.551  11.197  0.5272  0.2083  0.0561
 5769SOL    HW128766   2.063   4.547  11.101  0.9578 -2.8672  0.1796
 5769SOL    HW228767   2.153   4.521  11.216  0.9508  0.7110 -1.1095
 5770SOL     OW28768   1.622   2.465   4.865 -0.5056 -0.4645  0.3251
 5770SOL    HW128769   1.563   2.409   4.916 -1.8281  0.1573 -0.5370
 5770SOL    HW228770   1.708   2.428   4.886  0.1045  0.1604 -1.0793
 5771SOL     OW28771   1.831   2.296   6.809 -0.0813 -0.1090 -0.4097
 5771SOL    HW128772   1.758   2.355   6.827 -0.6184 -0.2395 -2.1684
 5771SOL    HW228773   1.876   2.292   6.893  1.5434 -1.8364 -1.3745
 5772SOL     OW28774   4.573   0.433   7.541 -0.2806  0.8605  0.1101
 5772SOL    HW128775   4.667   0.423   7.551 -0.5767  0.1125  2.1814
 5772SOL    HW228776   4.557   0.527   7.546  1.1435  1.1597 -1.1058
 5773SOL     OW28777   1.820   2.852   9.073 -0.0778  0.1724  0.6723
 5773SOL    HW128778   1.749   2.826   9.132 -0.5475 -1.4928 -0.6276
 5773SOL    HW228779   1.836   2.943   9.097 -1.0120  0.4654  0.1872
 5774SOL     OW28780   2.227   3.967   5.431  0.1880 -0.0077  0.6340
 5774SOL    HW128781   2.197   3.909   5.361 -0.6799  0.8026  0.3422
 5774SOL    HW228782   2.181   3.929   5.505  0.5783 -1.4106  0.1604
 5775SOL     OW28783   1.116   3.942   8.465 -0.1218 -0.0966 -0.0127
 5775SOL    HW128784   1.038   3.920   8.415  1.3273 -1.8976 -1.5188
 5775SOL    HW228785   1.076   3.997   8.532 -1.2163  2.8729 -3.1391
 5776SOL     OW28786   2.247   4.311   3.547  0.1169 -0.4583 -0.1930
 5776SOL    HW128787   2.301   4.339   3.472 -1.0905 -0.1397 -0.9473
 5776SOL    HW228788   2.220   4.225   3.514 -1.5961  0.0702 -0.1675
 5777SOL     OW28789   2.317   0.229   5.192  0.2343 -0.7432  0.3796
 5777SOL    HW128790   2.409   0.221   5.168  0.3030  1.8325 -0.1827
 5777SOL    HW228791   2.318   0.153   5.251  3.3595 -0.9296  0.0848
 5778SOL     OW28792   0.590   1.885   0.058 -0.4780  0.7811 -0.3153
 5778SOL    HW128793   0.496   1.896   0.044 -0.4679  0.6459 -0.4888
 5778SOL    HW228794   0.601   1.823   0.129 -1.1723  1.1082  0.0794
 5779SOL     OW28795   0.894   3.653   2.302 -0.3895  0.3598  0.5040
 5779SOL    HW128796   0.813   3.702   2.289 -0.6374 -0.1453  0.2008
 5779SOL    HW228797   0.940   3.671   2.220 -1.6152 -1.1897 -0.4942
 5780SOL     OW28798   3.863   3.275   8.566 -0.2435  0.7690 -0.4633
 5780SOL    HW128799   3.902   3.188   8.558  1.0407  1.0985  2.2537
 5780SOL    HW228800   3.818   3.273   8.481 -0.0393  0.4913 -0.5659
 5781SOL     OW28801   0.432   4.392   7.983 -0.3008  0.5452  0.1580
 5781SOL    HW128802   0.376   4.368   7.909 -1.2122  0.7654  0.7696
 5781SOL    HW228803   0.364   4.432   8.037  0.9560  1.2725  1.1794
 5782SOL     OW28804   4.652   4.135   3.410  0.9205 -0.3134  0.0199
 5782SOL    HW128805   4.713   4.063   3.399 -0.1287 -1.6135  2.9229
 5782SOL    HW228806   4.608   4.105   3.489  2.8991 -0.7999  0.9409
 5783SOL     OW28807   0.750   2.889   0.264  0.4666  0.3156  0.4796
 5783SOL    HW128808   0.661   2.924   0.267  0.0836 -0.7157  1.1053
 5783SOL    HW228809   0.787   2.942   0.194  0.5809  2.2485  2.0123
 5784SOL     OW28810   1.530   4.091   3.705  0.0734 -0.1341  0.7274
 5784SOL    HW128811   1.613   4.076   3.659 -0.5912  1.8765 -1.1213
 5784SOL    HW228812   1.500   4.166   3.654  0.2971  0.4230  1.4210
 5785SOL     OW28813   3.895   3.387  16.679  0.2145  0.4135 -0.0234
 5785SOL    HW128814   3.880   3.298  16.646 -1.0358  0.9540 -0.9199
 5785SOL    HW228815   3.898   3.439  16.598  1.0221  0.6959  0.1918
 5786SOL     OW28816   2.456   0.688   8.800 -0.0905  0.2678  0.3025
 5786SOL    HW128817   2.410   0.669   8.882  0.7322 -2.0175  0.2393
 5786SOL    HW228818   2.538   0.702   8.847 -0.6508  1.3288  0.9447
 5787SOL     OW28819   2.066   1.460   5.007 -0.1278  0.0660 -0.4665
 5787SOL    HW128820   1.973   1.440   5.015  0.0121  0.2124  1.5480
 5787SOL    HW228821   2.065   1.538   4.951 -0.8339  0.8893  0.7103
 5788SOL     OW28822   2.841   2.190   8.393  0.6371  0.4760 -0.2710
 5788SOL    HW128823   2.894   2.134   8.451  0.2428 -0.1245 -0.4826
 5788SOL    HW228824   2.903   2.263   8.397 -0.6699  1.6035 -0.7658
 5789SOL     OW28825   2.312   2.012   1.818 -0.2189 -0.5596 -0.5136
 5789SOL    HW128826   2.323   2.104   1.793 -0.0572 -0.3544  0.2940
 5789SOL    HW228827   2.398   1.977   1.795  0.7000 -0.0609  2.1095
 5790SOL     OW28828   2.403   1.830   5.875  0.2331  0.1280  0.0679
 5790SOL    HW128829   2.389   1.781   5.794  0.4623  0.9304 -0.4625
 5790SOL    HW228830   2.360   1.767   5.933 -2.0969  2.6366  1.0819
 5791SOL     OW28831   0.910   1.553   1.947  0.4290 -0.6077 -0.5613
 5791SOL    HW128832   0.824   1.587   1.971 -0.0665 -0.9480 -1.8797
 5791SOL    HW228833   0.935   1.516   2.032 -1.2282 -2.3822 -0.8454
 5792SOL     OW28834   3.249   0.848   8.324  0.3090 -0.6210  0.1916
 5792SOL    HW128835   3.226   0.755   8.315  1.7719 -1.1356  1.7714
 5792SOL    HW228836   3.251   0.879   8.233  0.2423 -0.4125  0.2620
 5793SOL     OW28837   2.834   1.834   3.704  0.1509 -0.5077  0.0475
 5793SOL    HW128838   2.857   1.756   3.655 -0.3116 -0.5868 -0.0436
 5793SOL    HW228839   2.823   1.791   3.789  2.4311  1.6807  1.4520
 5794SOL     OW28840   2.606   3.601  12.644 -0.0806  0.0422  0.4624
 5794SOL    HW128841   2.548   3.637  12.576  1.0564  0.1678 -0.4380
 5794SOL    HW228842   2.627   3.515  12.609  0.9189  0.6335 -0.4186
 5795SOL     OW28843   2.363   0.639  10.328  0.4176  0.0848 -0.2659
 5795SOL    HW128844   2.410   0.687  10.395 -0.0016  0.8121 -0.4849
 5795SOL    HW228845   2.400   0.552  10.342 -1.4254 -0.5049  0.8952
 5796SOL     OW28846   1.497   3.983   2.381  0.0990  0.1719 -0.0393
 5796SOL    HW128847   1.504   4.064   2.330 -1.6827  0.4631  0.2031
 5796SOL    HW228848   1.588   3.966   2.405 -0.3228 -1.0696  0.6992
 5797SOL     OW28849   1.312   4.537  15.856 -1.0841  0.1546  0.3759
 5797SOL    HW128850   1.350   4.501  15.775 -0.4204  1.1238  0.2580
 5797SOL    HW228851   1.352   4.624  15.857 -1.0161  0.1109  1.4855
 5798SOL     OW28852   3.190   3.392  17.055  0.3024  0.3607 -0.0050
 5798SOL    HW128853   3.165   3.474  17.099  0.6130 -0.1371  1.0908
 5798SOL    HW228854   3.198   3.336  17.131  1.6805  1.8414  0.9518
 5799SOL     OW28855   3.233   1.927   5.505 -0.0100  0.3121 -0.0091
 5799SOL    HW128856   3.225   1.855   5.568 -0.3906 -0.9988 -1.5457
 5799SOL    HW228857   3.277   1.993   5.559 -0.5893 -0.0033  0.8596
 5800SOL     OW28858   0.023   4.649   7.759 -0.3717 -0.4718 -0.2277
 5800SOL    HW128859   0.057   4.569   7.799  0.4437  0.0943  0.2157
 5800SOL    HW228860   0.008   4.693   7.842 -0.0783  0.0838 -0.4616
 5801SOL     OW28861   0.584   2.216  15.175 -0.1314 -0.3246  0.1261
 5801SOL    HW128862   0.556   2.289  15.119  1.0315 -0.7339 -0.9717
 5801SOL    HW228863   0.611   2.164  15.100 -0.9963 -0.6930  0.0683
 5802SOL     OW28864   1.883   0.370   6.649 -0.2499 -0.3901 -0.5192
 5802SOL    HW128865   1.803   0.422   6.637 -0.2407  0.2414  2.2527
 5802SOL    HW228866   1.918   0.364   6.560  0.0534 -1.1171 -0.3438
 5803SOL     OW28867   1.410   4.000  14.272 -0.0000 -0.5271  0.2397
 5803SOL    HW128868   1.492   3.998  14.321 -0.5589 -0.6263  1.1845
 5803SOL    HW228869   1.343   3.983  14.339 -0.0609 -0.1176  0.2847
 5804SOL     OW28870   1.130   2.893   3.148  0.0034  0.3192  0.1592
 5804SOL    HW128871   1.146   2.799   3.158 -0.1364  0.1678 -1.0701
 5804SOL    HW228872   1.066   2.891   3.077 -0.6791  0.0841  0.7889
 5805SOL     OW28873   1.987   0.504  13.004 -0.1089  0.0234  0.0313
 5805SOL    HW128874   1.981   0.565  13.078 -1.3042 -1.2817  1.0206
 5805SOL    HW228875   2.063   0.546  12.963  0.4901 -1.4685 -0.3704
 5806SOL     OW28876   2.657   2.800  12.151  0.0596  0.3396  0.0840
 5806SOL    HW128877   2.561   2.795  12.146  0.1641  0.2905 -1.8236
 5806SOL    HW228878   2.675   2.826  12.241 -1.1371  2.6357 -0.3367
 5807SOL     OW28879   4.707   3.785  10.155 -0.2312  0.0880  0.5118
 5807SOL    HW128880   0.021   3.737  10.082  2.2582 -1.8749  3.2075
 5807SOL    HW228881   0.035   3.768  10.231  0.6564  0.7027  0.0089
 5808SOL     OW28882   0.315   1.035   5.743  0.6871  0.2946 -0.3222
 5808SOL    HW128883   0.384   1.015   5.679  2.1138  0.1090  1.2800
 5808SOL    HW228884   0.294   0.950   5.783 -1.2937  1.0602  0.2767
 5809SOL     OW28885   2.965   0.548   8.007  0.2811  0.5026 -0.1454
 5809SOL    HW128886   2.912   0.473   8.033  0.7004  0.8634  1.8049
 5809SOL    HW228887   3.014   0.511   7.934  2.0935  0.1133  1.2490
 5810SOL     OW28888   2.958   2.286  14.959 -0.3222  0.0880  0.3504
 5810SOL    HW128889   2.881   2.313  14.908 -1.3666 -2.4934  0.5771
 5810SOL    HW228890   2.930   2.295  15.050 -2.0852 -0.1858 -0.1736
 5811SOL     OW28891   3.297   4.184   6.203 -0.5072 -0.2326  0.1217
 5811SOL    HW128892   3.225   4.128   6.231  0.8592 -2.6677 -1.1817
 5811SOL    HW228893   3.285   4.261   6.258 -1.4935  0.4505 -1.0405
 5812SOL     OW28894   1.906   3.257  12.759 -0.5536  0.2688  0.1515
 5812SOL    HW128895   1.852   3.262  12.838 -0.0482  0.0437  0.5114
 5812SOL    HW228896   1.968   3.195  12.797 -0.0988 -0.3609 -1.5943
 5813SOL     OW28897   2.996   3.705   9.599  0.1239  0.1136  0.5387
 5813SOL    HW128898   2.986   3.610   9.611  0.2498  0.0325 -0.0157
 5813SOL    HW228899   2.994   3.726   9.692  2.2105 -1.0351  0.8453
 5814SOL     OW28900   3.920   0.220   6.300  0.7959  0.0424  0.2893
 5814SOL    HW128901   3.936   0.153   6.234  2.0082  1.6539 -1.0509
 5814SOL    HW228902   3.969   0.188   6.376  0.8342 -0.0825  0.2121
 5815SOL     OW28903   3.551   0.584  11.143  0.8972  0.1272  0.7158
 5815SOL    HW128904   3.522   0.499  11.111 -2.1076  1.7228 -0.8425
 5815SOL    HW228905   3.639   0.592  11.105  1.3583  2.5023  2.2729
 5816SOL     OW28906   4.422   3.984   1.679 -0.5237 -0.4063 -0.1724
 5816SOL    HW128907   4.438   4.014   1.589  0.9787 -0.9767 -0.0870
 5816SOL    HW228908   4.362   3.914   1.655  0.2419 -0.0985 -2.9582
 5817SOL     OW28909   2.910   3.154  17.422  0.5156  0.2994  0.0859
 5817SOL    HW128910   2.877   3.090  17.486  0.3977 -1.1744 -1.4572
 5817SOL    HW228911   2.996   3.112  17.418  0.9368  1.0190  1.6523
 5818SOL     OW28912   1.836   3.950  12.319  0.1910  0.0329 -0.0757
 5818SOL    HW128913   1.767   3.995  12.367  0.8454 -2.0042  2.7509
 5818SOL    HW228914   1.832   3.983  12.229  1.7750 -0.1298 -0.2025
 5819SOL     OW28915   3.181   0.671   4.049  0.3751  0.3015 -0.0649
 5819SOL    HW128916   3.142   0.666   3.962  1.9859 -2.0406 -0.6555
 5819SOL    HW228917   3.249   0.604   4.051 -0.8798 -0.9620  0.2834
 5820SOL     OW28918   4.006   1.318  14.595  0.2126 -0.1925  0.4546
 5820SOL    HW128919   4.005   1.393  14.655 -0.9391 -1.0968  1.5434
 5820SOL    HW228920   4.096   1.284  14.595  0.3490  0.1727 -0.5922
 5821SOL     OW28921   0.919   3.023   2.678 -0.0529 -0.1080 -0.2224
 5821SOL    HW128922   0.988   2.985   2.623 -0.6546  0.5338 -1.4093
 5821SOL    HW228923   0.855   3.048   2.611 -1.3096  1.8655  1.7349
 5822SOL     OW28924   4.380   2.354  15.492  0.3039  0.0050  0.4366
 5822SOL    HW128925   4.420   2.418  15.551  0.2289  1.0744 -0.6878
 5822SOL    HW228926   4.420   2.379  15.409  0.4458  0.3989  0.6196
 5823SOL     OW28927   4.414   3.233   2.673  0.4110 -0.0691 -0.1605
 5823SOL    HW128928   4.336   3.185   2.646  0.1748  0.7254 -0.8837
 5823SOL    HW228929   4.385   3.316   2.635 -2.4434 -1.2592 -0.5734
 5824SOL     OW28930   3.198   0.779  11.779  0.2346  0.5703 -0.3015
 5824SOL    HW128931   3.253   0.780  11.857 -3.6995 -0.1792  2.4870
 5824SOL    HW228932   3.126   0.828  11.817  0.5466 -0.1650  1.2494
 5825SOL     OW28933   3.902   4.688   9.520  0.2411  0.4711 -0.4343
 5825SOL    HW128934   3.823   4.666   9.569 -0.1090  0.0350 -1.1953
 5825SOL    HW228935   3.924   4.606   9.476  3.1358  0.8204  0.3457
 5826SOL     OW28936   4.587   2.436   3.368  0.2740  0.1664 -0.0098
 5826SOL    HW128937   4.661   2.423   3.427 -0.2789  0.2015  0.6986
 5826SOL    HW228938   4.630   2.398   3.292  0.6311 -1.4879  1.0232
 5827SOL     OW28939   1.507   0.757   6.657 -0.3372 -0.7361  0.0952
 5827SOL    HW128940   1.586   0.806   6.678 -0.5366  1.1861 -3.4793
 5827SOL    HW228941   1.496   0.715   6.742  1.4803 -0.7972  0.2866
 5828SOL     OW28942   3.711   1.394   6.211  0.2579 -0.2596  0.5580
 5828SOL    HW128943   3.751   1.307   6.203 -1.4266 -0.9797 -0.0428
 5828SOL    HW228944   3.738   1.426   6.124  1.3436  0.1049  1.0286
 5829SOL     OW28945   1.809   0.232   5.575 -0.4010  0.4807  0.1342
 5829SOL    HW128946   1.857   0.314   5.573  0.5107 -0.0299  0.9785
 5829SOL    HW228947   1.721   0.266   5.589 -0.7655 -1.3134  2.3285
 5830SOL     OW28948   3.235   3.038   7.287  0.0982 -0.2567  0.3940
 5830SOL    HW128949   3.215   3.125   7.253 -1.3453 -1.7003 -2.4523
 5830SOL    HW228950   3.233   2.982   7.209  2.2000  0.5348 -0.2272
 5831SOL     OW28951   4.256   1.860   1.293 -0.3048 -0.0825 -0.2172
 5831SOL    HW128952   4.282   1.935   1.239 -0.3844 -0.4454 -0.7578
 5831SOL    HW228953   4.207   1.812   1.226  1.1193  0.4979 -1.6858
 5832SOL     OW28954   4.390   3.436   0.148 -1.1142 -0.3332  0.2665
 5832SOL    HW128955   4.366   3.346   0.170 -0.7223 -0.2690  0.9780
 5832SOL    HW228956   4.323   3.456   0.084  1.8039  0.9144 -2.4111
 5833SOL     OW28957   1.873   0.930   1.215  0.5729 -0.1803  0.5132
 5833SOL    HW128958   1.795   0.940   1.160  0.8087  0.2248  0.2462
 5833SOL    HW228959   1.830   0.915   1.299  1.1820  0.9630  1.0317
 5834SOL     OW28960   3.680   1.850   6.728  0.4635 -0.0391 -0.1619
 5834SOL    HW128961   3.715   1.806   6.650  1.1742  0.2291  0.0077
 5834SOL    HW228962   3.715   1.783   6.787  1.2397  1.4197  1.0425
 5835SOL     OW28963   2.136   2.670   2.019  0.2135 -0.3956 -0.5313
 5835SOL    HW128964   2.172   2.593   1.977 -0.2368 -0.5928 -0.5620
 5835SOL    HW228965   2.068   2.681   1.952 -1.6774  0.8760  1.5557
 5836SOL     OW28966   2.470   1.797   8.078 -0.2379  0.0217  0.1065
 5836SOL    HW128967   2.507   1.715   8.045 -2.8079 -1.2733  0.4332
 5836SOL    HW228968   2.418   1.758   8.149 -0.8611 -1.4269 -1.1581
 5837SOL     OW28969   2.420   1.914  16.950 -0.1560 -0.3330  0.2935
 5837SOL    HW128970   2.435   1.867  16.867  0.7772 -0.1405  0.3500
 5837SOL    HW228971   2.330   1.887  16.965  0.6799 -2.3025  1.8396
 5838SOL     OW28972   2.748   4.088   3.673 -0.1441 -0.0163  1.0164
 5838SOL    HW128973   2.686   4.065   3.604  1.9807 -2.0521 -0.2144
 5838SOL    HW228974   2.750   4.183   3.672 -1.7241  0.0236  0.2802
 5839SOL     OW28975   2.673   1.356   7.178 -0.1141  0.6297 -0.3088
 5839SOL    HW128976   2.743   1.371   7.241 -0.3730  0.9752 -0.1023
 5839SOL    HW228977   2.621   1.430   7.210 -0.8491 -0.3326  0.7413
 5840SOL     OW28978   2.560   0.522  10.055  0.0103 -0.1581  0.2459
 5840SOL    HW128979   2.577   0.489   9.966 -0.6786 -1.4264  0.5741
 5840SOL    HW228980   2.592   0.444  10.100  3.4170  1.3234  0.3780
 5841SOL     OW28981   1.851   4.511   4.334  0.6228 -0.0952 -0.5312
 5841SOL    HW128982   1.926   4.469   4.376  0.1718 -1.1648 -0.8070
 5841SOL    HW228983   1.826   4.453   4.262 -1.1632  1.7697 -1.4164
 5842SOL     OW28984   4.682   1.816  15.400  0.6471 -0.0731 -0.0403
 5842SOL    HW128985   4.636   1.735  15.376  0.4206 -0.3118  1.2176
 5842SOL    HW228986   4.703   1.844  15.311  0.0573  0.6870  0.0657
 5843SOL     OW28987   1.874   3.709  17.178 -0.3795  0.1877  0.2161
 5843SOL    HW128988   1.916   3.749  17.102  0.3169  0.7675  0.9006
 5843SOL    HW228989   1.794   3.761  17.176 -0.5205  0.0616  2.6296
 5844SOL     OW28990   3.909   4.132  15.511 -0.2508  0.1311  0.1827
 5844SOL    HW128991   3.876   4.198  15.572 -1.5063 -1.5281  1.2998
 5844SOL    HW228992   4.001   4.150  15.528 -0.7629 -0.0904  3.2605
 5845SOL     OW28993   0.408   4.176   1.333 -0.1194 -0.5803  0.0967
 5845SOL    HW128994   0.365   4.197   1.250 -1.2118  1.2975  1.1246
 5845SOL    HW228995   0.450   4.094   1.307  2.2946 -0.6312  4.1391
 5846SOL     OW28996   2.124   1.332   0.179  0.1864 -0.0034 -0.3708
 5846SOL    HW128997   2.186   1.398   0.148  0.9575  0.7985  2.8655
 5846SOL    HW228998   2.040   1.368   0.152 -1.2518 -2.1884  1.1525
 5847SOL     OW28999   3.455   3.929   9.906 -0.0695 -0.4279 -0.1099
 5847SOL    HW129000   3.365   3.897   9.907 -1.1923  2.6300 -1.4364
 5847SOL    HW229001   3.486   3.898   9.991  0.1887  0.3945  0.1019
 5848SOL     OW29002   1.221   4.503   2.906  0.2536 -0.2938  0.2953
 5848SOL    HW129003   1.314   4.497   2.931 -0.0942 -1.8575  1.2556
 5848SOL    HW229004   1.213   4.597   2.894  1.1415 -0.2600 -0.0588
 5849SOL     OW29005   3.026   2.014   5.070  0.1925  0.2114 -0.2934
 5849SOL    HW129006   3.122   2.021   5.068 -0.0674  3.7314 -0.1541
 5849SOL    HW229007   3.022   1.942   5.134  2.0051  0.3799  0.0167
 5850SOL     OW29008   0.863   0.150   4.651 -0.1391  0.2107  0.5692
 5850SOL    HW129009   0.891   0.140   4.742  0.5345 -1.7125  0.1524
 5850SOL    HW229010   0.772   0.176   4.641 -0.2114 -0.1799  0.2381
 5851SOL     OW29011   0.020   3.718  17.386  0.6872  0.6901  0.0210
 5851SOL    HW129012   0.042   3.763  17.304  0.7882 -2.4748 -1.6724
 5851SOL    HW229013   0.089   3.742  17.447  0.5816 -0.6065  0.6531
 5852SOL     OW29014   3.629   3.491   3.545  0.7741 -0.4044 -0.0892
 5852SOL    HW129015   3.700   3.530   3.595 -0.7860  0.1344  1.7240
 5852SOL    HW229016   3.578   3.571   3.533 -1.3398 -1.5196  1.3503
 5853SOL     OW29017   0.868   4.409   9.210 -0.1933  0.3487 -0.6223
 5853SOL    HW129018   0.903   4.475   9.150  1.1349 -1.5362 -1.9209
 5853SOL    HW229019   0.775   4.417   9.188 -0.3155 -1.5321 -0.8125
 5854SOL     OW29020   2.237   3.708  12.234  0.5017 -0.4576  0.0312
 5854SOL    HW129021   2.238   3.746  12.146 -1.2091 -3.2756 -1.2114
 5854SOL    HW229022   2.302   3.760  12.281  0.7361 -1.1119  0.4325
 5855SOL     OW29023   3.556   2.906   2.855 -0.5184  0.5371 -0.1740
 5855SOL    HW129024   3.612   2.981   2.875 -0.2455  0.2132  0.2853
 5855SOL    HW229025   3.593   2.869   2.775  1.0666 -1.6838  1.5918
 5856SOL     OW29026   4.553   4.659   3.461 -0.3583 -0.3291  0.7576
 5856SOL    HW129027   4.590   0.012   3.500  0.4012  0.4090 -1.5094
 5856SOL    HW229028   4.519   4.615   3.539 -2.4181 -1.1762 -0.6492
 5857SOL     OW29029   3.677   1.065   6.157 -0.1796  0.8202  0.1274
 5857SOL    HW129030   3.585   1.042   6.138  0.4185  1.1336 -3.1796
 5857SOL    HW229031   3.724   1.046   6.076 -1.7696 -2.5206 -0.0465
 5858SOL     OW29032   3.960   2.619   3.026 -0.2427 -0.1069  0.3326
 5858SOL    HW129033   4.041   2.612   3.077 -0.5197 -0.4842  0.7233
 5858SOL    HW229034   3.968   2.536   2.979  1.9803 -1.5330  3.2261
 5859SOL     OW29035   3.483   1.065   2.318 -0.3288  0.3570 -0.3364
 5859SOL    HW129036   3.402   1.099   2.281 -1.3916 -1.5548  0.2414
 5859SOL    HW229037   3.480   0.978   2.279  1.4031  0.4730 -0.7427
 5860SOL     OW29038   3.001   2.749   3.044 -0.3079  0.4265 -0.2542
 5860SOL    HW129039   2.957   2.785   2.967  1.3240  0.3545 -1.2111
 5860SOL    HW229040   3.083   2.718   3.006 -0.1812 -1.7620  1.7559
 5861SOL     OW29041   2.549   2.476   2.562  0.0354  0.5880  0.3266
 5861SOL    HW129042   2.466   2.508   2.596 -0.0506  1.6391 -0.8641
 5861SOL    HW229043   2.538   2.381   2.569 -0.0454  0.5902  0.2271
 5862SOL     OW29044   1.495   2.689   5.314  0.6216  0.0358 -0.5523
 5862SOL    HW129045   1.531   2.724   5.395 -0.7767 -1.4337  0.6805
 5862SOL    HW229046   1.436   2.763   5.298 -0.1630 -0.4899 -0.0678
 5863SOL     OW29047   4.296   4.327  15.807 -0.2497  0.1408  0.0426
 5863SOL    HW129048   4.371   4.319  15.866 -0.8355 -0.2912  0.7283
 5863SOL    HW229049   4.326   4.400  15.752  0.2754  1.1397  1.6417
 5864SOL     OW29050   3.935   0.754   2.845 -0.1375  0.0303  0.7303
 5864SOL    HW129051   3.951   0.841   2.882 -0.6449 -0.1564  1.4083
 5864SOL    HW229052   4.018   0.716   2.874  0.3230  0.0940 -0.5323
 5865SOL     OW29053   3.548   3.443   0.739  0.4593  0.2072 -1.0994
 5865SOL    HW129054   3.465   3.436   0.692  0.5279  2.1325 -1.5010
 5865SOL    HW229055   3.613   3.448   0.668  0.2532  0.1430 -1.2903
 5866SOL     OW29056   1.393   4.294  10.464 -0.2340  0.4366 -0.0742
 5866SOL    HW129057   1.311   4.331  10.497 -0.6821 -0.4030 -0.2355
 5866SOL    HW229058   1.428   4.357  10.401  2.8019 -0.7163  0.5039
 5867SOL     OW29059   1.847   3.312   2.316  0.1241  0.3913 -0.1210
 5867SOL    HW129060   1.780   3.365   2.271 -0.0927 -1.5580 -2.0979
 5867SOL    HW229061   1.929   3.348   2.283  0.6099  1.3069  2.1254
 5868SOL     OW29062   4.646   1.464   7.869 -0.0500 -0.2213  0.3488
 5868SOL    HW129063   4.647   1.394   7.934  4.0091  0.7439  1.3050
 5868SOL    HW229064   4.562   1.503   7.890 -0.4768 -0.7562 -0.3644
 5869SOL     OW29065   2.616   4.334  15.517 -0.4291  0.0968  0.3268
 5869SOL    HW129066   2.675   4.260  15.506  0.3137  0.7577 -0.1366
 5869SOL    HW229067   2.658   4.390  15.583  0.0706 -1.2864  1.1887
 5870SOL     OW29068   2.482   0.188   2.073 -0.7688 -0.0537  0.0365
 5870SOL    HW129069   2.438   0.250   2.131 -0.8478 -0.8355  0.8146
 5870SOL    HW229070   2.469   0.108   2.124  0.4621  0.4403  1.1204
 5871SOL     OW29071   2.527   3.347   8.318 -0.3923 -1.0039 -0.1982
 5871SOL    HW129072   2.613   3.340   8.359 -0.2004  3.7013  0.2670
 5871SOL    HW229073   2.473   3.351   8.396 -0.5608 -0.7489 -0.3260
 5872SOL     OW29074   1.601   2.971   2.787  0.5036  0.5382  0.2909
 5872SOL    HW129075   1.539   3.038   2.817  0.3840  0.2818  0.6210
 5872SOL    HW229076   1.687   3.013   2.790  0.2445  0.9511  2.0619
 5873SOL     OW29077   4.083   4.635  11.460  0.2129  0.0312  0.2094
 5873SOL    HW129078   4.170   4.598  11.447  0.5224  0.6430  0.5411
 5873SOL    HW229079   4.096   4.670  11.548 -2.6253  0.0715  0.6272
 5874SOL     OW29080   2.392   4.213   0.773 -0.0218  0.1827  0.2945
 5874SOL    HW129081   2.359   4.185   0.688  1.8961 -0.6990 -0.1867
 5874SOL    HW229082   2.484   4.228   0.748 -0.8678  1.0189 -2.2584
 5875SOL     OW29083   0.597   0.605  17.686  0.9927 -0.0419  0.2405
 5875SOL    HW129084   0.547   0.539  17.638  0.0494  0.8343  0.0174
 5875SOL    HW229085   0.620   0.660  17.611 -1.5152  0.1550 -0.3744
 5876SOL     OW29086   1.864   1.211  11.712 -0.7528 -0.0657 -0.1217
 5876SOL    HW129087   1.940   1.258  11.678  0.6499 -2.6778 -0.5972
 5876SOL    HW229088   1.894   1.174  11.795  1.6849 -2.2495 -1.9834
 5877SOL     OW29089   1.558   3.048  12.818 -0.3530  0.5810  0.8310
 5877SOL    HW129090   1.490   3.076  12.757 -0.0815 -0.8230 -0.1099
 5877SOL    HW229091   1.515   3.061  12.902 -0.6102 -0.1021  0.8069
 5878SOL     OW29092   0.744   1.387  12.650 -0.2528 -0.5146  0.0126
 5878SOL    HW129093   0.765   1.342  12.568 -1.9758  2.2700 -1.9163
 5878SOL    HW229094   0.834   1.409  12.674 -0.4206 -0.6623  0.7976
 5879SOL     OW29095   0.437   0.888   2.034  0.3754 -0.2273  0.2342
 5879SOL    HW129096   0.476   0.973   2.017 -1.1950  0.4187 -0.0521
 5879SOL    HW229097   0.435   0.841   1.951  1.5167 -0.2632  0.2227
 5880SOL     OW29098   1.481   0.820   6.375  0.5109  0.6657  0.0043
 5880SOL    HW129099   1.453   0.798   6.464  0.2274 -0.3110 -0.3247
 5880SOL    HW229100   1.449   0.909   6.364 -0.6716  0.1181 -0.9459
 5881SOL     OW29101   2.924   1.610   3.112  0.0742  0.0515  0.3475
 5881SOL    HW129102   2.966   1.651   3.037 -0.1921 -1.5278 -0.6536
 5881SOL    HW229103   2.867   1.679   3.147  0.6511  0.7300 -0.0516
 5882SOL     OW29104   4.272   1.556  11.970 -0.2190 -0.8654  0.2417
 5882SOL    HW129105   4.333   1.487  11.942  0.2510  0.1196 -1.0975
 5882SOL    HW229106   4.207   1.502  12.016 -0.5139 -1.4557 -0.8598
 5883SOL     OW29107   1.759   0.651   1.908 -0.1942 -0.6635 -0.1642
 5883SOL    HW129108   1.761   0.575   1.851 -0.5381 -0.6485 -0.1948
 5883SOL    HW229109   1.853   0.670   1.916  0.0896 -2.7843  1.6613
 5884SOL     OW29110   2.475   4.522   8.293  0.1458  0.4668  0.6723
 5884SOL    HW129111   2.434   4.449   8.247 -3.1176  0.6277  3.3689
 5884SOL    HW229112   2.423   4.520   8.373  0.1391  0.7437  0.6745
 5885SOL     OW29113   2.059   0.135   4.456  0.1047 -0.0453 -0.1487
 5885SOL    HW129114   2.067   0.225   4.489  1.2171  0.7789 -2.7188
 5885SOL    HW229115   2.100   0.082   4.524  0.3497 -1.7383 -1.6492
 5886SOL     OW29116   4.449   2.834   0.601  0.7824  0.0596  0.2768
 5886SOL    HW129117   4.459   2.831   0.697 -2.2600 -0.2048  0.5892
 5886SOL    HW229118   4.498   2.910   0.572 -1.6454  1.1423 -1.0271
 5887SOL     OW29119   4.386   1.758  17.641  0.7394  0.2219 -0.3862
 5887SOL    HW129120   4.446   1.698  17.597  0.2851 -0.5624  0.0750
 5887SOL    HW229121   4.367   1.705   0.011  3.4977 -2.8554 -1.8246
 5888SOL     OW29122   0.536   0.527   4.542 -0.0226  0.2267 -0.6061
 5888SOL    HW129123   0.469   0.583   4.504  0.7525  1.2231 -0.4937
 5888SOL    HW229124   0.604   0.590   4.566 -0.3247  0.8000 -1.2460
 5889SOL     OW29125   1.529   0.058  10.703  0.2890  0.7112  0.4898
 5889SOL    HW129126   1.592   0.019  10.642  0.8298  0.9029  0.9295
 5889SOL    HW229127   1.490   4.701  10.729 -3.3013  1.9318 -1.0078
 5890SOL     OW29128   1.942   3.464   6.008  0.5104  0.7813  0.7608
 5890SOL    HW129129   1.950   3.369   6.016  0.7133  0.5439 -2.0507
 5890SOL    HW229130   1.986   3.493   6.088 -2.0199  1.9716  1.7512
 5891SOL     OW29131   0.387   3.752   4.449  0.5445 -0.5343 -0.3547
 5891SOL    HW129132   0.335   3.818   4.403  2.2328  1.8534  1.1825
 5891SOL    HW229133   0.457   3.806   4.486  0.8880 -0.2726 -1.3570
 5892SOL     OW29134   1.592   4.069  15.533  0.1875  0.0761  0.0822
 5892SOL    HW129135   1.576   3.980  15.503 -0.1500  0.5740 -1.1914
 5892SOL    HW229136   1.682   4.088  15.508 -0.0831  1.1478 -0.0667
 5893SOL     OW29137   0.835   0.675   0.727 -0.2319  0.1338  0.4061
 5893SOL    HW129138   0.918   0.690   0.682  1.6558 -3.4227  2.7354
 5893SOL    HW229139   0.793   0.758   0.704 -0.3757 -0.5042 -1.6467
 5894SOL     OW29140   1.415   0.521  10.911  0.5385 -0.1293  0.0017
 5894SOL    HW129141   1.399   0.489  10.823 -1.2136 -2.3211  1.1107
 5894SOL    HW229142   1.325   0.516  10.942 -0.4068 -2.4413 -3.1254
 5895SOL     OW29143   3.263   0.168  13.272  0.0430  0.3788 -0.6086
 5895SOL    HW129144   3.185   0.113  13.279 -0.8696  1.6283 -0.9428
 5895SOL    HW229145   3.231   0.224  13.201 -3.5608  1.6911  2.0650
 5896SOL     OW29146   0.027   3.498  14.758  0.2132  0.0340  0.0112
 5896SOL    HW129147   4.712   3.565  14.704  0.1989 -1.4007 -1.7761
 5896SOL    HW229148   4.675   3.454  14.790 -1.1390  1.2948 -1.5617
 5897SOL     OW29149   3.221   4.382   7.761 -0.2299 -0.6258  0.0834
 5897SOL    HW129150   3.255   4.298   7.731  0.0149 -0.2808 -0.6159
 5897SOL    HW229151   3.193   4.414   7.675  0.2170  1.2910  0.6463
 5898SOL     OW29152   0.103   0.021   0.187  0.3880 -0.4311 -0.6455
 5898SOL    HW129153   0.196   0.007   0.199  0.2045 -0.8597  0.2393
 5898SOL    HW229154   0.089   4.677   0.123  0.0942 -0.1944 -0.8460
 5899SOL     OW29155   4.318   2.912   4.114 -0.2395  0.0622 -0.4601
 5899SOL    HW129156   4.233   2.955   4.123 -0.2517 -0.0287 -0.1357
 5899SOL    HW229157   4.291   2.822   4.134 -1.2338  0.8714  1.8272
 5900SOL     OW29158   2.032   1.426   0.681  0.1310  0.4117  0.2501
 5900SOL    HW129159   2.054   1.375   0.602  0.0032  0.8538 -0.0691
 5900SOL    HW229160   2.116   1.422   0.727  0.7314 -0.0571 -0.8877
 5901SOL     OW29161   1.857   0.869   5.996 -0.2716 -0.1757 -0.3878
 5901SOL    HW129162   1.777   0.832   6.032 -0.1420  0.7642  0.8575
 5901SOL    HW229163   1.915   0.796   6.017 -0.3161  0.0893  0.6538
 5902SOL     OW29164   1.489   3.473   3.863  0.1936 -0.5239 -0.2652
 5902SOL    HW129165   1.436   3.428   3.797  0.1729 -0.6213 -0.1810
 5902SOL    HW229166   1.462   3.427   3.942  0.2512 -1.2224 -0.6501
 5903SOL     OW29167   3.286   2.322   1.817 -0.3189 -0.3194  0.2839
 5903SOL    HW129168   3.213   2.278   1.861 -1.1589 -0.2509 -1.0380
 5903SOL    HW229169   3.262   2.298   1.728 -2.2841  0.5069  0.5878
 5904SOL     OW29170   3.891   3.166   8.054 -0.3570  0.0659  0.0180
 5904SOL    HW129171   3.827   3.102   8.023 -1.7395  1.9707 -1.0423
 5904SOL    HW229172   3.831   3.239   8.066 -2.1693 -0.8970 -3.0626
 5905SOL     OW29173   2.454   2.351   3.175 -0.4678 -0.1210  0.2077
 5905SOL    HW129174   2.503   2.373   3.255 -0.1826  2.2884 -0.6147
 5905SOL    HW229175   2.400   2.430   3.168  2.9699  1.9699 -3.2677
 5906SOL     OW29176   4.099   2.823   6.050  0.0249 -0.2327 -0.1305
 5906SOL    HW129177   4.058   2.908   6.033  1.3300  0.7380  1.5071
 5906SOL    HW229178   4.185   2.855   6.078  0.4949 -1.1743 -0.4759
 5907SOL     OW29179   0.330   1.900   7.708  0.0044 -0.2952  0.0136
 5907SOL    HW129180   0.315   1.945   7.626 -2.0517 -1.3509 -0.1960
 5907SOL    HW229181   0.368   1.976   7.752 -1.9286  0.9083 -0.3736
 5908SOL     OW29182   4.675   2.984   2.837 -0.4108  0.1607  0.3361
 5908SOL    HW129183   0.041   3.010   2.837  0.3391 -2.5476 -0.1917
 5908SOL    HW229184   4.652   3.016   2.925 -2.0520  0.0026 -0.0403
 5909SOL     OW29185   3.068   0.456  10.194 -0.2836 -0.1545 -0.1528
 5909SOL    HW129186   3.012   0.518  10.241  0.0217 -0.6617  0.8920
 5909SOL    HW229187   3.154   0.482  10.225 -1.0387  0.6539  1.2960
 5910SOL     OW29188   4.576   4.116   8.134 -0.3031  0.1308 -0.1402
 5910SOL    HW129189   4.512   4.131   8.064 -0.8275 -0.5859  0.1879
 5910SOL    HW229190   4.661   4.145   8.101 -0.7901  0.6482 -0.9292
 5911SOL     OW29191   1.119   3.260   7.742 -0.0119 -0.2176  0.1166
 5911SOL    HW129192   1.068   3.264   7.823 -1.2191  3.0902 -0.7854
 5911SOL    HW229193   1.093   3.174   7.710 -2.1138  1.1812 -1.9161
 5912SOL     OW29194   0.957   2.464   0.409  0.2684 -0.6637 -0.0555
 5912SOL    HW129195   1.046   2.469   0.374  0.2614  0.7756  0.1150
 5912SOL    HW229196   0.973   2.520   0.486 -1.4525 -1.1238  0.6262
 5913SOL     OW29197   2.971   3.538   0.029 -0.0067 -0.1527  0.1724
 5913SOL    HW129198   2.995   3.619   0.074 -0.9054 -1.5329  3.1386
 5913SOL    HW229199   3.061   3.522   0.000  0.2885  0.1920  0.9005
 5914SOL     OW29200   3.850   3.864   0.081 -0.1048 -0.0631  0.6672
 5914SOL    HW129201   3.780   3.823   0.132 -0.0999  0.3016  0.9715
 5914SOL    HW229202   3.890   3.906   0.157  1.2539  1.8136 -1.0990
 5915SOL     OW29203   2.389   3.193   0.738 -0.2206 -0.0457  0.2444
 5915SOL    HW129204   2.378   3.240   0.821 -2.6393  0.7713 -0.5477
 5915SOL    HW229205   2.344   3.112   0.764  0.0653  0.3323  1.9194
 5916SOL     OW29206   3.876   3.166  15.348  0.2883 -0.1785  0.3471
 5916SOL    HW129207   3.836   3.091  15.391  0.2615  0.8930  2.1838
 5916SOL    HW229208   3.932   3.194  15.420  0.2625  0.2008  0.2209
 5917SOL     OW29209   0.157   4.628  12.839 -0.1211  0.0536 -0.0501
 5917SOL    HW129210   0.159   4.589  12.752  0.0506 -1.9521  0.8481
 5917SOL    HW229211   0.094   4.568  12.879  0.5704 -1.9384 -1.9611
 5918SOL     OW29212   1.286   0.623   1.534 -0.3748  0.1900 -0.1122
 5918SOL    HW129213   1.304   0.699   1.589  0.5409 -1.7908  2.3401
 5918SOL    HW229214   1.319   0.638   1.446  1.2233 -1.1393  0.2659
 5919SOL     OW29215   0.261   2.707  14.022 -0.0121  0.0739 -0.0937
 5919SOL    HW129216   0.339   2.684  14.074 -0.6890  1.2931  1.4773
 5919SOL    HW229217   0.251   2.634  13.961  1.6703  1.6362 -2.2539
 5920SOL     OW29218   0.426   1.571   2.464 -0.2226  0.1786  0.0909
 5920SOL    HW129219   0.438   1.663   2.441 -2.4648  0.4209 -0.0990
 5920SOL    HW229220   0.500   1.554   2.523 -2.4927  0.3249  2.9638
 5921SOL     OW29221   0.495   2.717  14.603  0.4858  0.0998  0.5800
 5921SOL    HW129222   0.576   2.668  14.620  2.0080  1.8414 -1.6743
 5921SOL    HW229223   0.435   2.647  14.576 -1.1021  1.5099  0.4787
 5922SOL     OW29224   0.866   4.607   3.538 -0.2629 -0.2250 -0.2729
 5922SOL    HW129225   0.925   4.545   3.495 -0.5944 -0.1761 -0.7944
 5922SOL    HW229226   0.778   4.588   3.506 -0.7442  0.4899  0.6364
 5923SOL     OW29227   3.207   1.482  14.419  0.6497 -0.0206 -0.7365
 5923SOL    HW129228   3.245   1.569  14.431 -0.5721  0.6524 -1.7370
 5923SOL    HW229229   3.266   1.436  14.480 -1.6477  0.4570  1.8011
 5924SOL     OW29230   0.245   2.800   0.904  0.0327 -0.3838  0.3776
 5924SOL    HW129231   0.194   2.727   0.938  0.3207 -0.3680  0.8431
 5924SOL    HW229232   0.182   2.859   0.863  0.4818 -1.0607 -1.2882
 5925SOL     OW29233   1.660   1.793   1.949  0.0662  0.2091  0.4040
 5925SOL    HW129234   1.671   1.765   2.040 -0.3797 -0.2766  0.3016
 5925SOL    HW229235   1.609   1.874   1.958 -0.9130 -0.5415  1.6594
 5926SOL     OW29236   2.093   4.263  12.652 -0.2531 -0.1153 -0.2482
 5926SOL    HW129237   2.000   4.260  12.671  0.0427  1.2086  1.4053
 5926SOL    HW229238   2.095   4.181  12.602 -1.3233 -0.9643  1.0690
 5927SOL     OW29239   2.224   4.052  13.055  0.0529 -0.4693 -0.2420
 5927SOL    HW129240   2.249   4.044  12.962  1.6050 -0.5879  0.1757
 5927SOL    HW229241   2.306   4.022  13.095 -0.0968 -0.6617 -0.0839
 5928SOL     OW29242   2.751   0.047   4.371  0.2771  0.5362 -0.1134
 5928SOL    HW129243   2.807   0.062   4.295  1.2386 -0.5468  0.3777
 5928SOL    HW229244   2.744   0.130   4.419  0.9941  1.0866 -0.9444
 5929SOL     OW29245   2.546   4.382   7.377 -0.2364 -0.0356  0.3576
 5929SOL    HW129246   2.579   4.430   7.302 -1.0044 -2.1497 -1.3383
 5929SOL    HW229247   2.626   4.337   7.406 -1.1653 -3.0934 -1.8431
 5930SOL     OW29248   0.202   3.116   2.823  0.6974 -0.0093  0.4199
 5930SOL    HW129249   0.153   3.155   2.750 -0.6548 -0.1139  1.2830
 5930SOL    HW229250   0.274   3.179   2.827  0.9886 -0.1464 -2.2328
 5931SOL     OW29251   4.460   1.779   3.187  0.4462 -0.0983 -0.1121
 5931SOL    HW129252   4.458   1.781   3.091 -2.2373 -1.4517 -0.0884
 5931SOL    HW229253   4.368   1.797   3.205 -0.1789 -4.1495  0.9185
 5932SOL     OW29254   4.031   4.233   6.857  0.1245  0.3726  0.0522
 5932SOL    HW129255   4.069   4.178   6.789 -1.2249  0.5372 -0.8353
 5932SOL    HW229256   4.111   4.251   6.907  0.5018 -0.7432 -0.1548
 5933SOL     OW29257   0.981   2.152   6.763  0.2194 -0.1604 -0.1158
 5933SOL    HW129258   0.894   2.124   6.790 -1.3016  2.7499 -2.0280
 5933SOL    HW229259   1.013   2.182   6.848 -2.7308 -0.3049  1.0433
 5934SOL     OW29260   0.762   0.883   3.495 -0.6924 -0.6096  0.3533
 5934SOL    HW129261   0.828   0.817   3.471  0.1935 -0.7259  3.1852
 5934SOL    HW229262   0.725   0.896   3.408  0.3899 -2.2789 -0.3738
 5935SOL     OW29263   2.997   2.725   6.376 -0.3159 -0.2344 -0.1610
 5935SOL    HW129264   3.040   2.669   6.311  2.9097  2.5401 -0.3915
 5935SOL    HW229265   2.921   2.669   6.393  1.2732 -3.0350 -2.2398
 5936SOL     OW29266   0.227   1.510   3.157  0.5811 -0.2310 -0.0127
 5936SOL    HW129267   0.198   1.422   3.135  1.8880 -1.1298  1.8154
 5936SOL    HW229268   0.220   1.530   3.251 -0.4235 -2.9873  0.4954
 5937SOL     OW29269   2.499   2.242   3.477  0.0018 -0.3282 -0.6302
 5937SOL    HW129270   2.519   2.334   3.496 -0.7190 -0.6339  1.6432
 5937SOL    HW229271   2.571   2.221   3.418  0.4976  1.6694 -0.7396
 5938SOL     OW29272   1.795   1.766  15.881  0.0289 -0.3842  0.3979
 5938SOL    HW129273   1.715   1.723  15.911 -0.2675 -1.4771 -1.9503
 5938SOL    HW229274   1.805   1.836  15.945 -0.8330 -0.9142  1.1255
 5939SOL     OW29275   2.032   1.835  10.753 -0.3551  0.0155 -0.0412
 5939SOL    HW129276   1.940   1.844  10.776 -0.1887  3.0363 -0.5667
 5939SOL    HW229277   2.034   1.924  10.719  1.3535 -1.0547 -2.7413
 5940SOL     OW29278   1.991   0.591  10.063 -0.0650 -0.3030  0.0113
 5940SOL    HW129279   1.958   0.552  10.144 -0.4710 -1.2997 -0.6271
 5940SOL    HW229280   2.077   0.627  10.082  0.7524 -2.0666 -0.3767
 5941SOL     OW29281   4.443   4.285   2.623 -0.0227 -0.3179 -0.4727
 5941SOL    HW129282   4.532   4.288   2.658  0.7746  0.6404 -2.5956
 5941SOL    HW229283   4.396   4.296   2.706  1.6392  1.1999  0.2575
 5942SOL     OW29284   2.515   3.301   6.869 -0.4798  0.3452 -0.0722
 5942SOL    HW129285   2.507   3.224   6.814 -1.6418  2.7528 -3.2732
 5942SOL    HW229286   2.600   3.292   6.912 -0.7205  0.1106  0.3504
 5943SOL     OW29287   4.583   3.171   9.793 -0.4985  0.7300  0.2631
 5943SOL    HW129288   4.637   3.181   9.872 -0.2546 -0.1330  0.2046
 5943SOL    HW229289   4.559   3.260   9.770 -0.4555  1.2539  2.1803
 5944SOL     OW29290   3.097   0.868  10.892 -0.4100  0.0957 -0.0789
 5944SOL    HW129291   3.029   0.860  10.959  0.5221 -1.2138  0.6903
 5944SOL    HW229292   3.104   0.962  10.876 -1.2553  0.1781 -0.0029
 5945SOL     OW29293   1.930   2.844   3.971  0.3847 -0.0037  0.1690
 5945SOL    HW129294   2.013   2.813   3.935 -0.6618 -1.6180 -0.8748
 5945SOL    HW229295   1.953   2.848   4.064  0.9720 -1.2743  0.0691
 5946SOL     OW29296   3.728   2.774   2.207  0.5140 -0.0328  0.0245
 5946SOL    HW129297   3.647   2.738   2.242  0.2830 -1.3635 -1.8984
 5946SOL    HW229298   3.746   2.834   2.280  0.3364  2.0696 -1.6656
 5947SOL     OW29299   0.382   1.919   5.694 -0.4103  0.1424  0.5348
 5947SOL    HW129300   0.400   1.900   5.602 -2.1155 -1.6783  0.5897
 5947SOL    HW229301   0.419   1.840   5.735  1.3601 -0.7135 -2.6799
 5948SOL     OW29302   4.475   3.289  10.360  0.2546  0.6002 -0.0024
 5948SOL    HW129303   4.406   3.275  10.425  0.1589 -5.1365 -1.3221
 5948SOL    HW229304   4.443   3.249  10.279 -1.2473  1.3470  0.2267
 5949SOL     OW29305   4.081   3.247   0.393  0.1147 -0.6931 -0.4458
 5949SOL    HW129306   4.140   3.242   0.318  1.0498  0.0318  0.2391
 5949SOL    HW229307   4.143   3.226   0.462  0.2968  1.1971 -0.0134
 5950SOL     OW29308   2.186   0.224   1.884 -0.4506 -0.1574 -0.0280
 5950SOL    HW129309   2.270   0.268   1.868  0.3379 -2.7147 -2.8767
 5950SOL    HW229310   2.159   0.198   1.796  0.1256  1.0337 -0.5595
 5951SOL     OW29311   2.589   2.931   6.112  0.2221  0.0930 -0.3893
 5951SOL    HW129312   2.630   2.935   6.026  2.1622  0.1174  0.5572
 5951SOL    HW229313   2.596   2.836   6.120 -1.6398  0.1393  1.6985
 5952SOL     OW29314   1.010   1.536   2.189 -0.2498  0.1016 -0.4801
 5952SOL    HW129315   0.976   1.584   2.265 -1.0737 -2.1540  0.5770
 5952SOL    HW229316   1.100   1.520   2.220  0.6450  1.9049 -2.1311
 5953SOL     OW29317   0.012   3.201  15.141 -0.3993 -0.1021 -0.2425
 5953SOL    HW129318   0.010   3.296  15.133 -1.6145  0.0501  1.8062
 5953SOL    HW229319   0.044   3.189  15.231 -0.8666 -1.2936 -0.2283
 5954SOL     OW29320   3.443   1.298   6.196  0.1648 -0.7614 -0.5115
 5954SOL    HW129321   3.537   1.318   6.206 -0.1909  1.3262 -1.2453
 5954SOL    HW229322   3.405   1.331   6.277  1.8944 -0.7907  0.3111
 5955SOL     OW29323   1.730   3.019   2.019  0.0408  0.2680 -0.5607
 5955SOL    HW129324   1.702   2.999   1.930  2.5161 -0.8266 -1.0965
 5955SOL    HW229325   1.822   2.994   2.016  0.4378  1.4478  1.4552
 5956SOL     OW29326   4.565   3.208   1.748  0.0935  0.2034  0.0512
 5956SOL    HW129327   4.543   3.279   1.688 -0.6286 -0.9264 -1.0315
 5956SOL    HW229328   4.621   3.258   1.807  0.8328  0.7115 -1.0789
 5957SOL     OW29329   1.596   3.250   2.147 -0.0278 -0.2100  0.7000
 5957SOL    HW129330   1.661   3.319   2.135 -0.3868 -0.1849 -1.1653
 5957SOL    HW229331   1.653   3.177   2.125  1.0453  0.5164  1.0885
 5958SOL     OW29332   2.272   3.316   8.483 -0.2690  0.2419  0.4102
 5958SOL    HW129333   2.257   3.378   8.412  0.3716 -0.7689 -0.6072
 5958SOL    HW229334   2.220   3.350   8.556 -0.7438  0.9447 -0.2518
 5959SOL     OW29335   4.375   4.513  12.983  0.6458  0.2959 -0.2776
 5959SOL    HW129336   4.300   4.496  13.041  1.7629  0.6636  1.2607
 5959SOL    HW229337   4.330   4.562  12.914 -1.3586  1.9191  2.1812
 5960SOL     OW29338   3.917   0.079   3.111 -0.1945 -0.1742 -0.5907
 5960SOL    HW129339   3.892   4.716   3.134 -1.2400  0.4361  0.6717
 5960SOL    HW229340   3.975   0.102   3.184  0.6057 -1.0758 -0.9459
 5961SOL     OW29341   4.618   1.604   3.311  0.1900  0.3535  0.2069
 5961SOL    HW129342   4.566   1.663   3.256  2.3435  3.4035  1.4778
 5961SOL    HW229343   4.579   1.518   3.295 -1.0660  0.1615  4.1442
 5962SOL     OW29344   4.022   2.362  13.848  0.2808 -0.0668  0.0859
 5962SOL    HW129345   4.110   2.374  13.882 -0.0784  0.2967  0.8897
 5962SOL    HW229346   4.046   2.295  13.785 -0.1663 -0.8656  0.7748
 5963SOL     OW29347   1.123   3.594  10.565 -0.5499  0.7887 -0.4355
 5963SOL    HW129348   1.200   3.599  10.509 -0.1387  0.2757  0.0878
 5963SOL    HW229349   1.107   3.688  10.573 -2.6361  0.2092  2.0653
 5964SOL     OW29350   2.576   0.825  12.217 -0.4958 -0.5317  1.0579
 5964SOL    HW129351   2.618   0.747  12.181  2.2181  1.4160  0.0445
 5964SOL    HW229352   2.489   0.790  12.238 -0.4214 -1.1155  0.3913
 5965SOL     OW29353   1.715   1.764   1.586 -0.3576 -0.6222 -0.3584
 5965SOL    HW129354   1.740   1.797   1.672 -2.8401  1.1642 -0.3366
 5965SOL    HW229355   1.630   1.798   1.560 -0.9183 -0.1807  2.1160
 5966SOL     OW29356   0.407   2.580   3.133  0.0793  0.1365  0.4995
 5966SOL    HW129357   0.312   2.564   3.137 -0.0984  1.1634  0.5473
 5966SOL    HW229358   0.445   2.496   3.158 -1.0851 -1.1235 -1.9575
 5967SOL     OW29359   3.216   4.569   9.181 -0.2334 -0.2081  0.0775
 5967SOL    HW129360   3.127   4.542   9.207 -0.4285  1.2768  0.9664
 5967SOL    HW229361   3.238   4.512   9.107 -1.1803 -0.2823 -0.1477
 5968SOL     OW29362   0.080   2.106  13.974 -0.3657 -0.5557 -0.2583
 5968SOL    HW129363   0.143   2.176  13.953 -0.0633 -1.2829 -1.7801
 5968SOL    HW229364   0.009   2.136  13.917  0.6333 -1.7852 -2.1275
 5969SOL     OW29365   0.925   3.393  13.858  0.2016 -0.5091  0.0935
 5969SOL    HW129366   0.990   3.463  13.858 -0.7320  0.3704  2.2699
 5969SOL    HW229367   0.853   3.434  13.809 -0.7193 -1.6745  0.4613
 5970SOL     OW29368   4.020   0.721   8.008  0.3970 -0.0818  0.4562
 5970SOL    HW129369   4.081   0.729   7.934 -0.8323  1.6139 -0.3751
 5970SOL    HW229370   4.051   0.795   8.059 -1.0690  0.7028  0.1949
 5971SOL     OW29371   3.380   0.790   9.155 -0.5990  0.3463  0.2540
 5971SOL    HW129372   3.455   0.747   9.196 -0.4831  1.1534  0.8845
 5971SOL    HW229373   3.381   0.872   9.204 -1.1089  1.1174 -1.0334
 5972SOL     OW29374   2.929   1.755  10.436 -0.3067  0.1223 -0.2285
 5972SOL    HW129375   2.993   1.758  10.365  0.0986  2.2574  0.2201
 5972SOL    HW229376   2.856   1.788  10.384 -1.6718  0.4124  1.8682
 5973SOL     OW29377   0.132   4.343   3.155 -0.1068 -0.2398 -0.2378
 5973SOL    HW129378   0.154   4.260   3.198 -0.3727 -0.2584 -0.1388
 5973SOL    HW229379   0.047   4.317   3.119 -0.2745  0.9201 -0.6744
 5974SOL     OW29380   1.867   4.275   6.713  0.1401 -0.1666 -0.3436
 5974SOL    HW129381   1.930   4.347   6.712  1.2633 -1.1205  0.8814
 5974SOL    HW229382   1.922   4.212   6.760 -1.5388 -2.7791 -1.8664
 5975SOL     OW29383   2.790   3.936   8.255  0.3914 -0.1865  0.1120
 5975SOL    HW129384   2.760   3.959   8.168 -2.7950  0.3348  1.3574
 5975SOL    HW229385   2.868   3.991   8.262  0.2139  0.0934 -0.1203
 5976SOL     OW29386   4.547   0.428   8.085 -0.3644  0.0200  0.1581
 5976SOL    HW129387   4.483   0.499   8.089 -0.1430  0.4017 -2.9226
 5976SOL    HW229388   4.549   0.388   8.171 -0.8570  0.2311  0.2684
 5977SOL     OW29389   2.682   4.266   5.938  0.0647 -0.0556  0.9022
 5977SOL    HW129390   2.707   4.175   5.922 -1.3605 -0.4734  1.0720
 5977SOL    HW229391   2.743   4.312   5.879  1.2234 -0.6691  1.6184
 5978SOL     OW29392   2.418   1.661   4.420  0.3941 -0.1556 -0.4295
 5978SOL    HW129393   2.490   1.713   4.384  1.5827 -0.2047  1.9018
 5978SOL    HW229394   2.393   1.603   4.348  1.7996  1.6684 -2.3720
 5979SOL     OW29395   3.191   3.216   5.221 -0.2277 -0.0235  0.4581
 5979SOL    HW129396   3.181   3.311   5.226 -1.7949 -0.1429 -0.6611
 5979SOL    HW229397   3.103   3.192   5.192 -0.7013  0.2540  1.6811
 5980SOL     OW29398   3.787   0.246  10.007  0.1455 -0.6145  0.0314
 5980SOL    HW129399   3.756   0.329  10.044 -1.2808 -0.3914 -1.7247
 5980SOL    HW229400   3.809   0.190  10.082  0.4080  0.7460  0.9657
 5981SOL     OW29401   1.712   3.421  13.378 -0.3998  0.3813 -0.0042
 5981SOL    HW129402   1.763   3.488  13.424 -1.3301  1.5540 -0.6916
 5981SOL    HW229403   1.625   3.461  13.376 -0.1219  0.9353 -0.6601
 5982SOL     OW29404   4.138   2.176  15.446  0.1113 -0.0363  0.2259
 5982SOL    HW129405   4.204   2.238  15.477 -0.5309  1.2621 -1.0202
 5982SOL    HW229406   4.078   2.234  15.400  0.5388  0.6530  0.5472
 5983SOL     OW29407   3.981   3.850   3.716  0.2993  0.2803  0.2580
 5983SOL    HW129408   3.939   3.936   3.712 -0.8200 -0.1987  1.5582
 5983SOL    HW229409   4.027   3.864   3.799 -1.8177 -1.0134  1.6460
 5984SOL     OW29410   4.373   3.242   7.442  0.0505 -0.5436  0.0772
 5984SOL    HW129411   4.396   3.331   7.468 -1.3325  0.9836 -3.9338
 5984SOL    HW229412   4.458   3.222   7.401  0.5972 -2.0895  1.9559
 5985SOL     OW29413   1.340   0.924   0.480  0.1134 -0.3638  0.5635
 5985SOL    HW129414   1.297   1.009   0.486  1.9461  0.6934 -1.3872
 5985SOL    HW229415   1.375   0.918   0.569  2.5473  0.1455 -0.3713
 5986SOL     OW29416   3.133   2.210   3.948 -0.2196 -0.9510 -0.2239
 5986SOL    HW129417   3.187   2.132   3.944 -0.6651 -1.3490  1.4321
 5986SOL    HW229418   3.050   2.176   3.914 -0.8590  0.1879  0.2079
 5987SOL     OW29419   1.753   4.625   3.875 -0.0750  0.0194 -0.4378
 5987SOL    HW129420   1.788   4.663   3.794  0.9599  1.1642  0.5379
 5987SOL    HW229421   1.808   4.555   3.910  0.1947  0.1629 -0.5754
 5988SOL     OW29422   1.842   0.784   2.809 -0.1785  0.5203 -0.1284
 5988SOL    HW129423   1.756   0.784   2.766  0.8756  0.4603 -2.2270
 5988SOL    HW229424   1.878   0.870   2.787 -1.0576  0.5462 -1.4301
 5989SOL     OW29425   0.878   0.531   4.062  0.3996 -0.4002 -0.1670
 5989SOL    HW129426   0.818   0.569   4.127  0.2858  1.1516 -1.1784
 5989SOL    HW229427   0.869   0.602   3.998  1.9972 -0.1363 -0.1065
 5990SOL     OW29428   2.101   0.392  14.664 -0.1947 -0.0014  0.1412
 5990SOL    HW129429   2.183   0.441  14.672 -0.8462  1.3343 -1.3589
 5990SOL    HW229430   2.137   0.304  14.668 -1.4133 -0.5426 -0.6574
 5991SOL     OW29431   1.168   0.308   4.289 -0.2431  0.0312  0.0728
 5991SOL    HW129432   1.251   0.292   4.245  1.2687  0.4469  2.7584
 5991SOL    HW229433   1.106   0.321   4.217  1.2906  0.5469 -1.1386
 5992SOL     OW29434   3.451   2.519   5.242  0.0633 -0.6236 -0.0727
 5992SOL    HW129435   3.522   2.465   5.276  0.3491 -0.2878 -0.1389
 5992SOL    HW229436   3.499   2.599   5.222  1.1783 -1.0659  0.8385
 5993SOL     OW29437   3.507   3.374   6.809 -0.5474 -0.3438 -0.1382
 5993SOL    HW129438   3.532   3.319   6.735  0.7790 -0.0420  0.0903
 5993SOL    HW229439   3.550   3.326   6.879  0.0969  1.1006  0.4446
 5994SOL     OW29440   1.825   3.923   0.394 -0.2718 -0.1039 -0.6581
 5994SOL    HW129441   1.855   3.986   0.328  0.6371 -2.1706 -2.2311
 5994SOL    HW229442   1.776   3.860   0.341 -1.3337  0.3052 -0.1551
 5995SOL     OW29443   0.159   3.797  13.210 -0.0744  0.5990 -0.3004
 5995SOL    HW129444   0.161   3.893  13.207  0.2408  0.6279  0.9439
 5995SOL    HW229445   0.231   3.783  13.271 -0.4323  1.4464  0.3258
 5996SOL     OW29446   2.357   2.259   1.776 -0.5886 -0.3746  0.4900
 5996SOL    HW129447   2.430   2.320   1.767  0.2524 -1.5006 -0.2262
 5996SOL    HW229448   2.316   2.273   1.690  0.0784 -1.4803  0.0031
 5997SOL     OW29449   2.852   4.689   8.050  0.0592  0.1727 -0.1862
 5997SOL    HW129450   2.923   4.686   8.115  0.2033  0.4291 -0.3325
 5997SOL    HW229451   2.817   4.600   8.058  0.6944 -0.1026 -0.4894
 5998SOL     OW29452   0.621   0.205   1.032  0.0057 -0.5585  0.0592
 5998SOL    HW129453   0.541   0.194   1.083  1.4577 -0.8064  2.2530
 5998SOL    HW229454   0.638   0.297   1.052 -0.9195 -0.9480  2.5803
 5999SOL     OW29455   1.768   0.618   2.181  0.2962 -0.5749 -0.0935
 5999SOL    HW129456   1.741   0.639   2.091  0.1759  0.6681  0.2347
 5999SOL    HW229457   1.732   0.530   2.183 -3.8095  1.0285 -2.5137
 6000SOL     OW29458   3.287   0.296   2.263 -0.4415 -0.0974 -0.1348
 6000SOL    HW129459   3.243   0.250   2.192  0.6348 -2.6065  0.7941
 6000SOL    HW229460   3.375   0.298   2.225 -0.8891 -2.2413 -1.3062
 6001SOL     OW29461   2.217   2.705   4.435 -0.1021  0.6586 -0.5960
 6001SOL    HW129462   2.272   2.640   4.390  0.9932  0.0364  1.5979
 6001SOL    HW229463   2.229   2.681   4.527  0.8139  0.3918 -0.7832
 6002SOL     OW29464   0.176   1.447   1.747  0.3981  0.0134  0.3568
 6002SOL    HW129465   0.262   1.414   1.772 -0.1034 -1.0867  0.5970
 6002SOL    HW229466   0.114   1.409   1.809 -1.7704  1.0452 -1.1370
 6003SOL     OW29467   1.001   4.723   3.150 -0.3422  0.4023 -0.3554
 6003SOL    HW129468   0.914   0.031   3.169 -0.1040  1.2758 -0.8404
 6003SOL    HW229469   0.991   4.650   3.089  1.2895 -0.7357  0.7331
 6004SOL     OW29470   1.588   1.529   4.227 -0.1248 -0.0235 -0.1288
 6004SOL    HW129471   1.624   1.467   4.163  1.0771  1.1308 -0.5861
 6004SOL    HW229472   1.560   1.603   4.174  0.3977  0.5142  0.3479
 6005SOL     OW29473   3.065   3.594   7.669  0.2332  0.0655  0.1888
 6005SOL    HW129474   3.029   3.674   7.632  1.4166  0.8194  0.6788
 6005SOL    HW229475   3.088   3.546   7.589 -0.5099 -0.2385  0.1517
 6006SOL     OW29476   4.391   2.603  15.278  0.5457  0.6256 -0.1690
 6006SOL    HW129477   4.485   2.588  15.289  0.4047 -0.4773 -0.4542
 6006SOL    HW229478   4.379   2.616  15.184 -2.4875 -0.0390  0.1070
 6007SOL     OW29479   1.131   2.447   0.630  0.1134 -0.0791  0.1798
 6007SOL    HW129480   1.176   2.386   0.573  1.2847  0.5963  0.3751
 6007SOL    HW229481   1.209   2.491   0.665  0.2846  1.3035 -1.9269
 6008SOL     OW29482   0.533   2.483   4.050  0.3052 -0.3236 -0.1822
 6008SOL    HW129483   0.510   2.458   3.960  1.1643  0.5068 -0.6319
 6008SOL    HW229484   0.448   2.517   4.078  0.1516  0.8995 -2.1571
 6009SOL     OW29485   1.363   2.581   0.645  0.2023  0.1878 -0.4086
 6009SOL    HW129486   1.329   2.655   0.695 -1.3851 -1.0176  0.3219
 6009SOL    HW229487   1.367   2.629   0.562  0.8151  3.0777  1.3103
 6010SOL     OW29488   0.617   3.161   8.386  0.2406 -0.2185 -0.3281
 6010SOL    HW129489   0.664   3.242   8.368 -0.7005  0.3501 -0.1627
 6010SOL    HW229490   0.684   3.095   8.406 -0.1723 -0.4646  0.2403
 6011SOL     OW29491   1.458   0.477  11.176 -0.0681  0.2909 -0.5983
 6011SOL    HW129492   1.466   0.502  11.084 -0.9392 -1.1641 -1.0671
 6011SOL    HW229493   1.455   0.567  11.209 -2.1846 -0.3728  1.0837
 6012SOL     OW29494   1.600   1.869   3.893 -0.7095 -0.1256  0.3314
 6012SOL    HW129495   1.576   1.951   3.848 -1.4711 -0.1351  0.7222
 6012SOL    HW229496   1.663   1.832   3.831 -1.1108 -0.9468  0.4194
 6013SOL     OW29497   2.227   2.301   1.530 -0.5916 -0.2136  0.2050
 6013SOL    HW129498   2.133   2.280   1.531 -0.9221  1.3413  1.3994
 6013SOL    HW229499   2.261   2.247   1.459 -0.9087  2.0441 -1.6789
 6014SOL     OW29500   0.196   2.692   7.921  0.0848  0.2612 -0.2485
 6014SOL    HW129501   0.154   2.617   7.878  2.9417 -1.1338 -0.6375
 6014SOL    HW229502   0.271   2.664   7.973  0.9511  0.5292 -1.3539
 6015SOL     OW29503   0.152   3.191   0.184 -0.5843  0.6270  0.1005
 6015SOL    HW129504   0.172   3.164   0.095 -2.1237 -0.5613  0.1071
 6015SOL    HW229505   0.221   3.254   0.204  1.2451 -1.4053  0.1430
 6016SOL     OW29506   0.218   0.979   9.986  0.4417 -0.1890  0.1006
 6016SOL    HW129507   0.234   0.920  10.060 -0.7813  1.3230  1.5700
 6016SOL    HW229508   0.123   0.980   9.977  0.6116  1.1758 -1.4454
 6017SOL     OW29509   0.828   0.505   5.428 -0.1640  0.1277  0.0459
 6017SOL    HW129510   0.814   0.583   5.483 -2.4897  1.4729 -2.4612
 6017SOL    HW229511   0.792   0.423   5.461  0.1402 -1.3319 -3.2200
 6018SOL     OW29512   2.985   4.687   4.179  0.1982 -0.7580 -0.0261
 6018SOL    HW129513   2.976   4.654   4.090  0.7054  1.4966 -0.8860
 6018SOL    HW229514   3.073   4.661   4.204  0.2722 -0.7452 -0.2775
 6019SOL     OW29515   2.280   4.520   1.684 -0.1243  0.0055 -0.2086
 6019SOL    HW129516   2.202   4.547   1.731  0.2117 -2.4863  1.7968
 6019SOL    HW229517   2.286   4.425   1.692 -2.8308 -0.0548  0.7451
 6020SOL     OW29518   4.666   3.518   5.300  0.2100  0.5127 -0.1643
 6020SOL    HW129519   0.010   3.538   5.361 -0.2531  1.6685 -0.0039
 6020SOL    HW229520   4.606   3.450   5.333  2.2427 -0.2967  1.8666
 6021SOL     OW29521   3.568   1.313   2.854  0.4674 -0.2040  0.4844
 6021SOL    HW129522   3.596   1.222   2.844 -0.6396 -0.9265  4.2139
 6021SOL    HW229523   3.498   1.292   2.916 -1.8238  0.5648 -1.7961
 6022SOL     OW29524   1.623   4.311   3.181 -0.2791  0.3201  0.1669
 6022SOL    HW129525   1.619   4.371   3.107 -1.5632  1.4859  1.1886
 6022SOL    HW229526   1.667   4.239   3.135 -0.9380  0.5752 -0.8601
 6023SOL     OW29527   0.570   2.523   6.217 -0.4122 -0.3815  0.0244
 6023SOL    HW129528   0.491   2.554   6.174 -2.0604 -0.6909  2.8359
 6023SOL    HW229529   0.531   2.469   6.286 -1.2464 -0.6659 -0.6762
 6024SOL     OW29530   4.138   0.060  10.246  0.0495 -0.0515 -0.3577
 6024SOL    HW129531   4.076   4.715  10.238  2.6687 -2.5145  1.3200
 6024SOL    HW229532   4.094   0.113  10.313  0.9024  0.0872  0.1035
 6025SOL     OW29533   0.722   2.109   3.203  0.2426 -0.6921 -0.0801
 6025SOL    HW129534   0.735   2.187   3.257  0.8552 -1.5716  1.0384
 6025SOL    HW229535   0.812   2.100   3.173  0.1997 -2.1624  0.2193
 6026SOL     OW29536   2.520   4.309   8.633  0.2844 -0.1685 -0.1198
 6026SOL    HW129537   2.585   4.328   8.566 -0.9284 -0.4000 -1.3540
 6026SOL    HW229538   2.555   4.225   8.663 -0.3067 -0.1075  0.7455
 6027SOL     OW29539   2.983   2.408   8.395 -0.0558 -0.1149 -0.6577
 6027SOL    HW129540   3.022   2.495   8.407  3.5354 -2.0197  1.3510
 6027SOL    HW229541   3.038   2.361   8.458 -0.4837 -0.7635 -0.7742
 6028SOL     OW29542   1.979   0.870   9.970 -0.4475  0.1029  0.6784
 6028SOL    HW129543   2.062   0.826   9.952 -1.9706 -2.1667 -0.7978
 6028SOL    HW229544   2.008   0.958   9.992  0.1537  0.3018 -0.8998
 6029SOL     OW29545   3.432   2.670   6.709 -0.3482  0.4889 -0.3869
 6029SOL    HW129546   3.420   2.745   6.651  1.9547  2.1884  1.3462
 6029SOL    HW229547   3.526   2.674   6.726 -0.7588 -0.2605  2.0129
 6030SOL     OW29548   1.505   0.413  14.156 -0.0127  0.2556  0.2671
 6030SOL    HW129549   1.596   0.436  14.140 -0.0398  0.9846  1.1857
 6030SOL    HW229550   1.516   0.377  14.244 -0.9680 -1.8064 -0.4688
 6031SOL     OW29551   0.309   2.385   9.020 -0.6182 -0.8456 -0.1287
 6031SOL    HW129552   0.316   2.335   8.939 -4.5529 -2.0633  0.3011
 6031SOL    HW229553   0.257   2.460   8.990  0.2718  0.4369  1.4863
 6032SOL     OW29554   4.338   2.262   3.132 -0.4849 -0.0416  0.0349
 6032SOL    HW129555   4.303   2.185   3.088  2.6306  0.8272 -3.9926
 6032SOL    HW229556   4.432   2.261   3.114 -0.6178  1.3649 -0.7654
 6033SOL     OW29557   2.297   3.350   7.253 -0.4048 -0.2882  0.6240
 6033SOL    HW129558   2.345   3.423   7.215 -1.6872 -0.5203 -1.4091
 6033SOL    HW229559   2.233   3.398   7.306 -0.2611  0.7258 -0.1260
 6034SOL     OW29560   0.539   3.048   5.773 -0.2901 -0.0083  0.9499
 6034SOL    HW129561   0.517   3.077   5.685  3.5012  1.9176  0.6131
 6034SOL    HW229562   0.502   3.122   5.821  2.0764  0.9504  1.3300
 6035SOL     OW29563   0.466   0.311   0.106 -0.8749  0.0889  0.4027
 6035SOL    HW129564   0.446   0.284   0.195 -1.3759  0.0013  0.2634
 6035SOL    HW229565   0.385   0.288   0.059 -0.7470  1.1478 -0.3312
 6036SOL     OW29566   2.808   1.887   6.278  0.2017 -0.8581  0.8206
 6036SOL    HW129567   2.782   1.861   6.367 -0.6623  0.3909  0.9342
 6036SOL    HW229568   2.852   1.811   6.241 -1.0606 -0.6930 -1.0364
 6037SOL     OW29569   0.841   0.555   9.399  0.4450 -0.4849 -0.0924
 6037SOL    HW129570   0.894   0.618   9.448  1.9679 -0.3778 -1.8727
 6037SOL    HW229571   0.750   0.564   9.426  0.1932 -0.9497 -0.7845
 6038SOL     OW29572   4.150   0.779   2.287 -0.2650 -0.1889  0.4185
 6038SOL    HW129573   4.063   0.785   2.328  0.0349  0.4987  0.9686
 6038SOL    HW229574   4.135   0.830   2.208  0.8169 -0.5125  0.0060
 6039SOL     OW29575   3.728   0.009  16.388  0.7836 -0.6023 -0.4726
 6039SOL    HW129576   3.694   0.019  16.477  0.5946 -0.6712 -0.5379
 6039SOL    HW229577   3.814   0.048  16.404  0.3090  0.1257  0.3369
 6040SOL     OW29578   1.368   3.809   4.476 -0.3157 -0.3287 -0.0277
 6040SOL    HW129579   1.384   3.781   4.386 -0.3329 -0.8609  0.1361
 6040SOL    HW229580   1.424   3.885   4.490 -1.8220  0.7548  0.1637
 6041SOL     OW29581   2.921   4.098  13.042 -0.5976  0.3967  0.5780
 6041SOL    HW129582   2.959   4.074  12.957  0.0233  2.0155  0.3987
 6041SOL    HW229583   2.835   4.055  13.040 -0.2687 -0.2392  0.2193
 6042SOL     OW29584   0.446   2.118  12.419  0.1735 -0.2835  0.0316
 6042SOL    HW129585   0.350   2.117  12.422  0.1937 -0.7369  0.7478
 6042SOL    HW229586   0.475   2.028  12.436  0.7469 -0.5732 -2.5262
 6043SOL     OW29587   1.203   2.406   6.423 -0.0676  0.3579 -0.6439
 6043SOL    HW129588   1.214   2.363   6.508  2.0145  2.9598  0.3878
 6043SOL    HW229589   1.187   2.330   6.367  0.1081 -1.0586  1.2254
 6044SOL     OW29590   4.658   0.027   2.460  0.2120 -0.2329  0.1621
 6044SOL    HW129591   4.613   4.674   2.429 -0.8271  0.9532 -1.3448
 6044SOL    HW229592   4.583   0.078   2.489 -0.1098 -0.1911 -0.7560
 6045SOL     OW29593   1.325   0.941   1.465 -0.0366  0.0046 -0.6242
 6045SOL    HW129594   1.354   0.875   1.403 -0.5656  0.1861 -1.0633
 6045SOL    HW229595   1.412   0.949   1.504  0.3406  1.5074 -1.7936
 6046SOL     OW29596   4.721   2.683  13.492  0.4244 -0.0937  0.0887
 6046SOL    HW129597   4.670   2.760  13.515  0.6420  0.6530 -1.9624
 6046SOL    HW229598   4.669   2.649  13.419 -1.6477  1.8949  0.6353
 6047SOL     OW29599   4.420   3.133   3.292 -0.0779 -0.2055 -0.8144
 6047SOL    HW129600   4.452   3.151   3.381  0.4811 -2.6369 -0.5152
 6047SOL    HW229601   4.333   3.172   3.300 -0.2866 -0.1990 -3.3189
 6048SOL     OW29602   3.858   1.330  13.449 -0.0064 -0.4414 -0.0161
 6048SOL    HW129603   3.894   1.381  13.376  0.6474 -0.8462  0.0216
 6048SOL    HW229604   3.937   1.280  13.469  0.9857  1.6806  1.3973
 6049SOL     OW29605   0.844   0.696  10.550 -0.3398 -0.2082  0.0662
 6049SOL    HW129606   0.845   0.792  10.548 -0.0900 -0.1732  1.6066
 6049SOL    HW229607   0.786   0.687  10.474 -0.5752  0.6182  0.1515
 6050SOL     OW29608   1.145   2.399   6.016  0.1920  0.4403  0.3821
 6050SOL    HW129609   1.081   2.328   6.011  1.8787 -1.0189 -0.6985
 6050SOL    HW229610   1.191   2.405   5.932 -1.0766  1.7631 -0.1963
 6051SOL     OW29611   2.536   2.723   1.744  0.6800  0.9289  0.2975
 6051SOL    HW129612   2.477   2.746   1.816 -0.4405  0.0824 -0.3705
 6051SOL    HW229613   2.493   2.743   1.661 -1.7994 -0.7848  1.1718
 6052SOL     OW29614   1.191   2.127   1.028  0.0643 -0.3270 -0.1174
 6052SOL    HW129615   1.260   2.125   0.962  1.7690  0.2175  1.6656
 6052SOL    HW229616   1.145   2.205   0.996 -1.0204 -0.9892 -0.1689
 6053SOL     OW29617   0.715   1.035  17.339 -0.2930 -0.3539  0.4337
 6053SOL    HW129618   0.696   0.962  17.281 -0.7281 -1.0822  1.5007
 6053SOL    HW229619   0.809   1.049  17.342 -0.1232 -1.1642 -0.9006
 6054SOL     OW29620   0.632   4.309  12.633 -0.0476  0.2336  0.0612
 6054SOL    HW129621   0.700   4.373  12.653 -1.3737  1.2536  1.2798
 6054SOL    HW229622   0.554   4.365  12.633 -1.0426 -1.1393  3.3392
 6055SOL     OW29623   1.159   4.625   5.049 -0.3215  0.3569 -0.3427
 6055SOL    HW129624   1.100   4.575   5.106 -0.7075  1.0106 -0.1698
 6055SOL    HW229625   1.239   4.575   5.063 -0.1880 -0.2162 -3.2143
 6056SOL     OW29626   1.005   3.770   5.960 -0.1426 -0.0516  0.1970
 6056SOL    HW129627   1.059   3.719   6.022  1.2593  1.1425 -0.0590
 6056SOL    HW229628   1.069   3.832   5.927  0.4060 -1.5798 -1.5679
 6057SOL     OW29629   1.555   4.064   1.871  0.2745 -0.7309  0.2246
 6057SOL    HW129630   1.546   4.144   1.921  0.6305  0.5808 -1.8003
 6057SOL    HW229631   1.646   4.059   1.844  0.9415  2.0751  2.0379
 6058SOL     OW29632   3.092   3.707   5.592  0.9625 -0.7114  0.8688
 6058SOL    HW129633   3.172   3.698   5.644  0.9367  0.1167  1.0519
 6058SOL    HW229634   3.129   3.710   5.504  0.7462  0.3438  0.8122
 6059SOL     OW29635   2.613   1.445  13.111  0.0523  0.3966  0.4101
 6059SOL    HW129636   2.642   1.358  13.139  2.1286  1.5888  1.9524
 6059SOL    HW229637   2.533   1.452  13.162 -0.0528  0.2212  0.2682
 6060SOL     OW29638   1.856   1.306   2.485 -0.0061 -0.3564  0.0665
 6060SOL    HW129639   1.920   1.317   2.556 -2.3799  0.3117  2.0956
 6060SOL    HW229640   1.824   1.218   2.503  0.3070 -0.3984  0.4335
 6061SOL     OW29641   2.897   0.760   2.970  0.8543 -0.1710 -0.1413
 6061SOL    HW129642   2.855   0.743   3.055  0.8252  0.5700 -0.0091
 6061SOL    HW229643   2.821   0.753   2.912  0.8989  1.0182 -0.3488
 6062SOL     OW29644   1.567   0.798  14.277  0.6052 -0.0361  0.1485
 6062SOL    HW129645   1.618   0.856  14.334 -0.6664 -0.2367  1.4964
 6062SOL    HW229646   1.578   0.840  14.192 -0.5092 -0.2438 -0.0939
 6063SOL     OW29647   0.223   2.782   4.206  0.1121  0.3054  0.1355
 6063SOL    HW129648   0.241   2.876   4.208 -0.6155  0.4038  1.4528
 6063SOL    HW229649   0.232   2.760   4.113  2.1918 -1.9990  0.8531
 6064SOL     OW29650   0.234   1.463   2.124 -0.1401 -0.2336  0.0710
 6064SOL    HW129651   0.313   1.415   2.101 -0.7778  0.0627 -2.7400
 6064SOL    HW229652   0.167   1.429   2.065  1.3904 -0.8580 -1.3003
 6065SOL     OW29653   1.270   3.851  13.439  0.3971  0.5688  0.0486
 6065SOL    HW129654   1.346   3.800  13.465 -0.2591 -2.8948 -4.9381
 6065SOL    HW229655   1.292   3.883  13.352  3.4253  2.3719  1.4811
 6066SOL     OW29656   4.319   0.052   2.556  0.0046  0.5474 -0.1464
 6066SOL    HW129657   4.291   0.079   2.468 -2.5819  3.2401  1.5078
 6066SOL    HW229658   4.255   4.710   2.571  1.4521 -0.7151  0.3099
 6067SOL     OW29659   4.304   1.406   3.044 -0.3155  0.2062  0.5936
 6067SOL    HW129660   4.225   1.401   2.990  0.6461  0.2137 -0.8308
 6067SOL    HW229661   4.263   1.379   3.126 -0.0003  0.7189  0.9177
 6068SOL     OW29662   3.273   3.591  16.074  0.1748  0.0159 -0.1771
 6068SOL    HW129663   3.296   3.616  15.984  1.1809  1.4301  0.4657
 6068SOL    HW229664   3.317   3.506  16.081  3.1169  1.5818  0.7484
 6069SOL     OW29665   3.649   1.898   1.683  0.1319 -0.6864 -0.0511
 6069SOL    HW129666   3.561   1.935   1.691  0.7589  0.7193  0.3598
 6069SOL    HW229667   3.687   1.913   1.769 -0.2614  0.1097 -0.0117
 6070SOL     OW29668   3.632   2.609   1.744  0.0979 -0.2343  0.6675
 6070SOL    HW129669   3.718   2.650   1.741  1.0645 -2.2540  0.8252
 6070SOL    HW229670   3.628   2.596   1.839 -0.5735 -1.1678  0.5088
 6071SOL     OW29671   3.138   0.116   2.950  0.1631  0.5076 -0.2500
 6071SOL    HW129672   3.187   0.061   2.888 -0.4007  1.3915 -1.4667
 6071SOL    HW229673   3.181   0.080   3.028 -1.9029  0.0080  0.6723
 6072SOL     OW29674   2.410   0.914   5.307  0.3117 -0.3021 -0.0690
 6072SOL    HW129675   2.403   0.995   5.257  2.1588 -0.3039 -0.3386
 6072SOL    HW229676   2.502   0.890   5.295  0.1113  0.5057 -3.3349
 6073SOL     OW29677   3.647   0.014   5.016 -0.2720 -0.3463  0.1101
 6073SOL    HW129678   3.660   0.057   4.932 -0.2217 -0.3280  0.1275
 6073SOL    HW229679   3.689   0.081   5.070  1.0459  0.0406 -1.4120
 6074SOL     OW29680   3.969   2.191   8.143 -0.1353 -0.4926  0.1293
 6074SOL    HW129681   3.945   2.274   8.101 -1.8412  0.0959  2.2271
 6074SOL    HW229682   3.960   2.207   8.237 -0.1306  1.1359 -0.1473
 6075SOL     OW29683   1.166   2.507   4.716 -0.0056  0.3239 -0.1910
 6075SOL    HW129684   1.114   2.586   4.733 -0.9667 -0.0692 -1.3237
 6075SOL    HW229685   1.118   2.441   4.766  0.8954 -0.5575 -0.4980
 6076SOL     OW29686   3.798   2.200   1.260 -0.1964  0.6616  0.2055
 6076SOL    HW129687   3.845   2.235   1.336 -0.8179  1.1895  0.3447
 6076SOL    HW229688   3.830   2.110   1.263  1.9989  1.3293 -2.1824
 6077SOL     OW29689   4.141   0.100   6.464  0.2303  0.5809  0.2936
 6077SOL    HW129690   4.201   0.114   6.537  0.0995  0.2684  0.4606
 6077SOL    HW229691   4.209   0.098   6.397  1.0035  0.5894  1.0839
 6078SOL     OW29692   4.333   1.122   9.138  0.3695 -0.3976 -0.4703
 6078SOL    HW129693   4.281   1.055   9.093 -1.1369 -0.5547  1.4644
 6078SOL    HW229694   4.312   1.097   9.228 -1.8128  0.5058 -0.7059
 6079SOL     OW29695   2.507   0.042  13.614 -0.7784 -0.0895  0.0337
 6079SOL    HW129696   2.536   0.108  13.677 -0.6744  0.5149 -0.6427
 6079SOL    HW229697   2.442   0.099  13.573  1.1334  0.7796 -1.7980
 6080SOL     OW29698   2.703   1.668   4.611  0.8557 -0.2816  0.2176
 6080SOL    HW129699   2.654   1.751   4.612 -0.9529 -1.3244 -1.1949
 6080SOL    HW229700   2.739   1.657   4.699  2.0199  1.1275 -0.0817
 6081SOL     OW29701   3.085   2.107  13.098 -1.0774 -0.2768 -0.2020
 6081SOL    HW129702   3.106   2.169  13.168  3.0253 -1.3715 -0.4748
 6081SOL    HW229703   3.150   2.038  13.105  0.5688  1.4368  1.4760
 6082SOL     OW29704   2.686   4.530   3.916  0.0362  0.4593 -0.2274
 6082SOL    HW129705   2.625   4.503   3.985 -0.6038  0.6913 -0.7040
 6082SOL    HW229706   2.711   4.619   3.937  1.9699 -0.4820  1.4542
 6083SOL     OW29707   1.994   1.770   9.865 -0.2269 -0.3477 -0.1298
 6083SOL    HW129708   1.940   1.811   9.932  1.0331  0.5760  0.3175
 6083SOL    HW229709   2.079   1.780   9.909  0.6469 -0.6412 -1.7715
 6084SOL     OW29710   1.842   3.938   8.507  0.3538 -0.8544 -0.2906
 6084SOL    HW129711   1.928   3.974   8.525 -0.4997 -0.0671  2.1740
 6084SOL    HW229712   1.792   3.950   8.587 -1.0541  3.4431 -1.8072
 6085SOL     OW29713   1.641   0.115   6.918 -0.2096 -0.1131 -0.0572
 6085SOL    HW129714   1.562   0.161   6.889 -0.4285  0.6318  1.7090
 6085SOL    HW229715   1.615   0.079   7.002 -0.8062  1.3831  0.4015
 6086SOL     OW29716   3.730   4.714   6.827 -0.0807 -0.1779  0.1371
 6086SOL    HW129717   3.685   4.693   6.909  1.7309  0.6128  1.3513
 6086SOL    HW229718   3.758   4.624   6.812  2.4151  0.8753 -1.5588
 6087SOL     OW29719   2.198   0.958  13.364  0.0986  0.1874 -0.2310
 6087SOL    HW129720   2.225   0.869  13.343  0.3631  0.3415 -0.5456
 6087SOL    HW229721   2.261   1.008  13.312 -0.0634  1.0596  0.4132
 6088SOL     OW29722   1.299   2.833   8.451 -0.2619 -0.0907  0.3113
 6088SOL    HW129723   1.322   2.753   8.499 -2.4662 -0.7592  0.2504
 6088SOL    HW229724   1.380   2.884   8.451 -0.2300 -0.1528 -0.6328
 6089SOL     OW29725   0.320   2.629   6.135 -0.6084 -0.0259 -0.2729
 6089SOL    HW129726   0.276   2.690   6.194 -1.2797 -0.8120  0.0331
 6089SOL    HW229727   0.362   2.695   6.080 -2.5217 -0.4203 -2.2190
 6090SOL     OW29728   0.178   2.925   6.683  0.3271 -0.4396 -0.0423
 6090SOL    HW129729   0.140   3.000   6.638  0.3587  0.6925  1.8072
 6090SOL    HW229730   0.259   2.918   6.632  0.2186 -0.8204 -0.1609
 6091SOL     OW29731   1.149   4.133   3.451 -0.0441 -0.2095 -0.2924
 6091SOL    HW129732   1.238   4.127   3.417  1.1802  2.3643  2.4886
 6091SOL    HW229733   1.159   4.179   3.534  3.5198 -0.1810 -0.7707
 6092SOL     OW29734   2.960   2.322   3.402 -0.6182 -0.2823  0.2454
 6092SOL    HW129735   3.024   2.255   3.428  0.0282 -0.8563 -2.7955
 6092SOL    HW229736   3.003   2.407   3.403 -0.4607 -0.3624  0.5447
 6093SOL     OW29737   1.257   0.851   8.314  0.3636  0.1154 -0.9575
 6093SOL    HW129738   1.321   0.859   8.244  0.3029  0.6724 -0.9544
 6093SOL    HW229739   1.312   0.824   8.388 -1.7095  0.7650  0.8449
 6094SOL     OW29740   3.425   1.389  16.340 -0.2842 -0.0695  0.4361
 6094SOL    HW129741   3.379   1.468  16.311  0.6165 -0.0791 -0.9865
 6094SOL    HW229742   3.424   1.330  16.265  0.6956 -1.8542  1.8445
 6095SOL     OW29743   0.426   2.358  16.262  0.9368  0.4697 -0.1086
 6095SOL    HW129744   0.408   2.377  16.170 -1.5975  0.6594  0.4183
 6095SOL    HW229745   0.521   2.366  16.260  0.8199  1.9790  0.4029
 6096SOL     OW29746   3.009   1.500   8.663 -0.1297 -0.0860  0.2078
 6096SOL    HW129747   2.969   1.431   8.610  1.6808 -0.2172 -0.9996
 6096SOL    HW229748   3.032   1.461   8.747 -0.6725 -0.4476  0.1833
 6097SOL     OW29749   3.852   1.040   8.087 -0.1807  0.6426 -0.9056
 6097SOL    HW129750   3.887   1.065   8.172 -1.8223 -0.7341  0.1470
 6097SOL    HW229751   3.777   0.993   8.121 -0.5826  1.8253 -0.1840
 6098SOL     OW29752   1.183   2.280   3.742  0.1289 -0.4686  1.1950
 6098SOL    HW129753   1.123   2.206   3.753 -3.2980  1.9706 -1.3671
 6098SOL    HW229754   1.235   2.278   3.823  0.7128 -0.2883  0.8280
 6099SOL     OW29755   0.120   3.284   3.856  0.3723 -0.0124 -0.8883
 6099SOL    HW129756   0.085   3.302   3.943 -0.2457 -1.2888 -0.8762
 6099SOL    HW229757   0.147   3.194   3.875 -0.3971 -0.2918 -1.1089
 6100SOL     OW29758   1.068   1.990   7.181 -0.4164 -0.1853 -0.5425
 6100SOL    HW129759   1.076   1.896   7.168 -2.2170 -0.6954  2.0357
 6100SOL    HW229760   1.117   2.036   7.113  0.2024 -2.4169 -1.6006
 6101SOL     OW29761   4.507   1.649   2.796  0.4466  0.4933  0.5432
 6101SOL    HW129762   4.468   1.711   2.858 -0.1260  1.2648 -0.5917
 6101SOL    HW229763   4.586   1.699   2.777  0.8767 -1.0220 -1.5501
 6102SOL     OW29764   2.092   3.544  17.207 -0.5769 -0.0490  0.3387
 6102SOL    HW129765   2.089   3.542  17.302  2.5942  0.7984  0.4625
 6102SOL    HW229766   2.017   3.600  17.187 -0.2042 -0.6809 -2.8996
 6103SOL     OW29767   2.993   4.061  14.940 -0.0506 -0.0695  0.2786
 6103SOL    HW129768   3.046   4.132  14.904  1.1440 -1.9961 -1.7817
 6103SOL    HW229769   3.048   4.015  15.003  0.2224  1.0259  0.8393
 6104SOL     OW29770   2.226   3.404   3.828 -1.0271 -0.1482 -0.7018
 6104SOL    HW129771   2.241   3.481   3.773  0.8807 -0.6409 -0.8683
 6104SOL    HW229772   2.231   3.434   3.919 -0.5088 -1.6629 -0.2294
 6105SOL     OW29773   0.475   3.981   7.674  0.4319 -0.1405  0.0265
 6105SOL    HW129774   0.515   3.988   7.760  0.6265  0.2713 -0.0975
 6105SOL    HW229775   0.505   4.061   7.631  3.3809 -1.0163  0.4796
 6106SOL     OW29776   1.747   2.728   9.838 -0.2881 -0.1208 -0.0051
 6106SOL    HW129777   1.785   2.699   9.921 -1.2220  0.1269  0.5044
 6106SOL    HW229778   1.824   2.759   9.791  0.3888 -1.8845 -0.0512
 6107SOL     OW29779   4.472   1.448   9.099  0.5325  0.4089 -0.3484
 6107SOL    HW129780   4.545   1.510   9.094  0.7018  0.4139  2.3386
 6107SOL    HW229781   4.484   1.417   9.189 -0.2872 -1.2009 -0.7978
 6108SOL     OW29782   0.310   0.011   8.488 -0.4352 -0.7282  0.9397
 6108SOL    HW129783   0.296   0.097   8.450 -0.7972 -0.7693  0.9806
 6108SOL    HW229784   0.280   0.029   8.577 -2.0363 -1.6535  0.5833
 6109SOL     OW29785   0.120   0.777   1.904 -0.5113 -0.1425  0.3689
 6109SOL    HW129786   0.203   0.767   1.857 -1.3749 -0.7691 -1.0156
 6109SOL    HW229787   0.056   0.730   1.852 -0.6673 -0.9160  1.2551
 6110SOL     OW29788   4.353   3.260   4.045 -0.4116 -0.2848  0.5658
 6110SOL    HW129789   4.407   3.294   4.116  0.3911 -1.3133  0.4616
 6110SOL    HW229790   4.298   3.208   4.105 -1.1474  1.3939  1.3382
 6111SOL     OW29791   1.682   4.411   3.436  0.7457 -0.5616 -0.0321
 6111SOL    HW129792   1.681   4.396   3.342 -0.1708 -0.9224  0.0316
 6111SOL    HW229793   1.592   4.443   3.449  0.1633 -1.2469 -2.3907
 6112SOL     OW29794   1.955   1.285   6.627 -0.7217 -0.4955  0.7448
 6112SOL    HW129795   1.927   1.222   6.561 -0.9794 -0.3166  0.6826
 6112SOL    HW229796   2.030   1.325   6.583  0.0996 -2.8640  0.0051
 6113SOL     OW29797   4.428   2.922   0.194 -0.1826 -0.1431 -0.4258
 6113SOL    HW129798   4.487   2.922   0.269 -0.6265  0.3618 -0.0697
 6113SOL    HW229799   4.470   2.851   0.146 -0.0235 -0.1202 -0.3211
 6114SOL     OW29800   0.605   2.685   1.970 -1.1006 -0.0585  0.0154
 6114SOL    HW129801   0.597   2.593   1.944  3.3543 -0.3846 -0.2375
 6114SOL    HW229802   0.672   2.723   1.913  1.7000 -2.3089  1.7921
 6115SOL     OW29803   2.966   1.016   4.938 -0.7171 -0.3006 -0.7199
 6115SOL    HW129804   3.019   0.957   4.884  0.2844 -0.0721  0.0088
 6115SOL    HW229805   2.904   1.028   4.867 -2.1377 -0.7205  0.4630
 6116SOL     OW29806   1.993   4.279   8.226  0.3309 -0.6782 -0.1309
 6116SOL    HW129807   1.959   4.316   8.307 -0.8098 -2.8708  0.3875
 6116SOL    HW229808   2.088   4.284   8.235  0.1772  1.1554  0.5218
 6117SOL     OW29809   4.664   0.885   7.777  0.7495 -0.3261  0.6069
 6117SOL    HW129810   4.652   0.812   7.838 -0.1890 -1.6914 -1.2169
 6117SOL    HW229811   4.702   0.952   7.835 -0.1017  0.2409  0.5090
 6118SOL     OW29812   3.152   2.276  14.241 -0.0157  0.1033  0.1204
 6118SOL    HW129813   3.129   2.253  14.151  0.2205 -0.5960  0.2346
 6118SOL    HW229814   3.112   2.361  14.258  1.0418  0.1298  2.4968
 6119SOL     OW29815   4.130   3.079   3.501  0.3225  0.0511 -0.2107
 6119SOL    HW129816   4.160   2.992   3.529  0.4673 -0.0065 -0.5472
 6119SOL    HW229817   4.118   3.122   3.586 -2.7457 -1.5740  0.1873
 6120SOL     OW29818   2.086   3.143   6.354  0.5251  0.4164 -0.1018
 6120SOL    HW129819   2.012   3.136   6.294 -1.3041 -0.5423  2.2591
 6120SOL    HW229820   2.053   3.192   6.430  0.4747 -0.1714  0.2573
 6121SOL     OW29821   4.396   0.549   9.758  0.0091  0.1494 -0.7592
 6121SOL    HW129822   4.392   0.463   9.716 -2.8899 -0.2719  0.3856
 6121SOL    HW229823   4.402   0.614   9.688  0.6736 -1.7467 -2.4665
 6122SOL     OW29824   4.086   1.625  11.104 -0.6042 -0.5087  0.0029
 6122SOL    HW129825   4.093   1.631  11.200  2.8402 -0.6130 -0.2312
 6122SOL    HW229826   4.056   1.534  11.100 -0.2788 -0.6390  0.4942
 6123SOL     OW29827   0.388   0.366   2.453  0.0301  0.0404  0.6843
 6123SOL    HW129828   0.482   0.369   2.470  0.0338 -2.9927  1.1391
 6123SOL    HW229829   0.395   0.294   2.390 -0.9615  0.1733  0.4329
 6124SOL     OW29830   2.076   3.619   6.208  0.0278  0.1116  0.2743
 6124SOL    HW129831   2.040   3.702   6.177 -0.8491  0.3245  1.9121
 6124SOL    HW229832   2.170   3.632   6.192  0.0967  0.9219  1.3928
 6125SOL     OW29833   4.441   3.136   4.987  0.1013 -0.4946 -0.2060
 6125SOL    HW129834   4.505   3.079   4.944  0.0957 -2.1172  1.9489
 6125SOL    HW229835   4.375   3.121   4.918  0.1159  3.6893 -1.1268
 6126SOL     OW29836   1.935   2.019   9.502 -0.4316  0.1074 -0.2994
 6126SOL    HW129837   1.961   2.110   9.511  0.7424 -0.1324 -1.1449
 6126SOL    HW229838   1.960   2.003   9.411 -0.3530  0.7494 -0.3853
 6127SOL     OW29839   1.053   4.274   1.684 -0.3426  0.1442 -0.6545
 6127SOL    HW129840   1.095   4.343   1.736 -1.5162 -0.1688  0.6915
 6127SOL    HW229841   1.003   4.331   1.626  0.0051  0.6045 -0.5042
 6128SOL     OW29842   3.254   3.328  12.327  0.3488 -0.3751 -0.0970
 6128SOL    HW129843   3.253   3.385  12.250 -1.0515 -0.5237 -0.1939
 6128SOL    HW229844   3.332   3.366  12.367  0.4514  0.0175 -0.6822
 6129SOL     OW29845   3.435   1.036   6.327  0.1535  0.2951  0.1647
 6129SOL    HW129846   3.445   1.131   6.317  0.6737  0.5543  3.1142
 6129SOL    HW229847   3.342   1.020   6.310  0.3706  0.0592 -0.7988
 6130SOL     OW29848   2.307   4.034   0.947  0.8425  0.3028  0.6675
 6130SOL    HW129849   2.313   4.122   0.909  0.4843  0.5616  1.1965
 6130SOL    HW229850   2.319   4.054   1.040 -0.6601 -0.5820  1.0457
 6131SOL     OW29851   0.131   4.243   2.165  0.0471  0.0777 -0.7552
 6131SOL    HW129852   0.134   4.176   2.097  1.2140 -1.5674  0.9435
 6131SOL    HW229853   0.102   4.194   2.241  1.2879 -1.1566 -1.0864
 6132SOL     OW29854   3.920   3.372  17.239  0.5565  0.0409 -0.9805
 6132SOL    HW129855   3.870   3.437  17.288  0.4440  0.0578 -1.1158
 6132SOL    HW229856   4.007   3.371  17.278 -1.4654 -0.9652  3.4810
 6133SOL     OW29857   1.711   1.768   7.581  0.2650 -0.4022 -0.1048
 6133SOL    HW129858   1.769   1.828   7.628 -1.1714 -0.6192  1.9250
 6133SOL    HW229859   1.639   1.764   7.644 -0.6790 -0.5205 -1.1813
 6134SOL     OW29860   2.325   0.053   7.943 -1.3106 -0.0292 -0.0398
 6134SOL    HW129861   2.257   0.048   8.011 -0.0171 -0.9863  1.1801
 6134SOL    HW229862   2.269   0.029   7.869 -0.0555 -0.8132 -0.7234
 6135SOL     OW29863   4.014   3.439   4.805  0.0670  0.1218  0.2663
 6135SOL    HW129864   4.036   3.454   4.897 -0.8437  1.1914  0.2988
 6135SOL    HW229865   4.100   3.462   4.769  0.1423 -1.8985 -0.8161
 6136SOL     OW29866   0.273   0.269  12.961 -0.0099  0.0450 -0.3689
 6136SOL    HW129867   0.231   0.302  13.040  2.7298 -2.5367  2.1675
 6136SOL    HW229868   0.347   0.222  12.998  0.4868  2.6276  1.8329
 6137SOL     OW29869   2.841   2.937   2.535  0.1188 -0.2734  0.3506
 6137SOL    HW129870   2.836   2.936   2.630  0.2128 -0.3610  0.3537
 6137SOL    HW229871   2.859   2.847   2.509  0.7973 -0.3305  1.0305
 6138SOL     OW29872   1.076   2.429   2.308  0.0189 -0.1421  0.1560
 6138SOL    HW129873   1.061   2.491   2.379 -0.7525 -0.1528 -0.0013
 6138SOL    HW229874   1.082   2.496   2.240  0.0431 -0.9430 -0.6418
 6139SOL     OW29875   2.176   2.552   1.294  0.7011  0.2986 -0.6433
 6139SOL    HW129876   2.124   2.595   1.362  0.0403 -1.1201 -0.2666
 6139SOL    HW229877   2.242   2.516   1.354  0.8354  2.1596  0.3364
 6140SOL     OW29878   1.590   1.392   9.254  0.4055  0.0643 -0.3101
 6140SOL    HW129879   1.668   1.336   9.262 -0.0890 -0.6568 -0.5496
 6140SOL    HW229880   1.631   1.477   9.238  2.0442 -0.3432  1.6451
 6141SOL     OW29881   3.057   1.340   9.845 -0.3984 -0.0081  0.4296
 6141SOL    HW129882   2.977   1.292   9.827 -0.1216 -0.1333 -0.4570
 6141SOL    HW229883   3.039   1.432   9.823  0.0248 -0.1194 -0.3811
 6142SOL     OW29884   2.833   0.692   7.828 -0.3725 -1.0523 -0.2620
 6142SOL    HW129885   2.750   0.735   7.848 -0.3477  0.3081 -3.0322
 6142SOL    HW229886   2.862   0.662   7.914  0.1255  0.0781 -0.0340
 6143SOL     OW29887   2.213   4.695   6.401  0.7003 -0.0480 -0.3697
 6143SOL    HW129888   2.139   4.681   6.341  0.4054 -0.4840  0.0867
 6143SOL    HW229889   2.173   4.698   6.489  1.7335 -0.5280  0.1156
 6144SOL     OW29890   4.488   2.687   3.414 -0.9000  0.2395 -0.7329
 6144SOL    HW129891   4.519   2.605   3.376 -1.3471 -0.5877  0.7047
 6144SOL    HW229892   4.446   2.658   3.494  0.7183 -0.2565 -0.0612
 6145SOL     OW29893   1.709   0.047   7.753  0.0961 -0.1390  0.2320
 6145SOL    HW129894   1.663   4.726   7.822  0.5358 -0.3305  0.3883
 6145SOL    HW229895   1.719   0.133   7.793 -3.3226 -1.2378  3.4228
 6146SOL     OW29896   3.285   1.544   5.145  0.4298 -0.1212  0.4508
 6146SOL    HW129897   3.361   1.517   5.196  0.1751 -2.6485 -0.5236
 6146SOL    HW229898   3.260   1.452   5.135  1.7939 -0.1100 -3.0719
 6147SOL     OW29899   0.507   0.561   6.729  0.2261 -0.4324  0.0468
 6147SOL    HW129900   0.458   0.516   6.797  0.8567  0.5309  1.1324
 6147SOL    HW229901   0.500   0.653   6.755 -0.6793 -0.7697  0.9888
 6148SOL     OW29902   4.116   2.665   2.576  0.1072  0.9322  0.4593
 6148SOL    HW129903   4.193   2.684   2.630  0.5732 -1.2048  0.5441
 6148SOL    HW229904   4.151   2.583   2.543 -0.9921  0.8606 -0.5309
 6149SOL     OW29905   0.654   0.380   2.715  0.8616 -0.7692 -0.2359
 6149SOL    HW129906   0.564   0.353   2.728  0.7188 -1.4683 -2.6545
 6149SOL    HW229907   0.677   0.410   2.803 -0.1340 -0.3026 -0.1382
 6150SOL     OW29908   4.255   2.519   6.532  0.2127  0.0417 -0.0982
 6150SOL    HW129909   4.209   2.517   6.449  1.3036 -3.0169 -0.6249
 6150SOL    HW229910   4.346   2.498   6.511 -0.2430  0.2853 -2.2300
 6151SOL     OW29911   4.088   2.612   0.884 -0.5479  0.0264  0.2432
 6151SOL    HW129912   4.145   2.591   0.809 -0.9352 -0.6525  0.1458
 6151SOL    HW229913   4.141   2.580   0.957 -0.9420 -1.3432 -0.0722
 6152SOL     OW29914   0.424   1.463  17.059  0.1631 -0.4651  0.1419
 6152SOL    HW129915   0.492   1.400  17.037  0.0948 -0.2844 -0.5835
 6152SOL    HW229916   0.470   1.516  17.124 -0.5675 -0.2773  0.5103
 6153SOL     OW29917   3.153   3.721  11.967 -0.2746  0.5235 -0.1135
 6153SOL    HW129918   3.114   3.785  11.908  0.5332  0.0184 -1.2083
 6153SOL    HW229919   3.129   3.743  12.057  0.5872  0.1177  0.2222
 6154SOL     OW29920   1.472   0.101   4.593  0.7961 -0.1550  0.3452
 6154SOL    HW129921   1.494   0.018   4.636 -0.8145 -1.2895 -1.0184
 6154SOL    HW229922   1.559   0.119   4.558 -0.5862 -1.8685 -4.0167
 6155SOL     OW29923   2.902   2.814   5.229 -0.1771 -0.0930  0.0657
 6155SOL    HW129924   2.828   2.760   5.200 -0.3668 -0.0143  0.4013
 6155SOL    HW229925   2.865   2.902   5.233  1.7570  0.7656 -0.7815
 6156SOL     OW29926   2.818   4.363   8.411 -0.4205  0.3029 -0.3676
 6156SOL    HW129927   2.847   4.334   8.497  0.2700  0.8070 -0.4218
 6156SOL    HW229928   2.860   4.298   8.354  0.3876  0.9606 -0.5253
 6157SOL     OW29929   1.784   0.158   6.016  0.5886  0.2348  0.0622
 6157SOL    HW129930   1.706   0.103   6.031  0.7189  0.1346  0.3708
 6157SOL    HW229931   1.789   0.199   6.102  0.0572  0.0474  0.1884
 6158SOL     OW29932   0.575   1.140  14.246 -0.1256  0.7627 -0.4824
 6158SOL    HW129933   0.517   1.192  14.189  0.4538 -1.3869 -3.0005
 6158SOL    HW229934   0.587   1.060  14.196 -0.3380  0.8748 -0.7119
 6159SOL     OW29935   2.210   0.357   6.188 -0.2542  0.2427 -0.8518
 6159SOL    HW129936   2.249   0.424   6.133 -1.8022 -0.0593 -2.3289
 6159SOL    HW229937   2.234   0.278   6.139 -0.2774  0.0977 -0.6299
 6160SOL     OW29938   0.687   2.804   5.087 -0.3433  0.2741  0.5366
 6160SOL    HW129939   0.723   2.825   5.173 -0.6224  1.6441  0.3230
 6160SOL    HW229940   0.761   2.821   5.029 -1.5765  0.6725 -0.9169
 6161SOL     OW29941   3.421   2.982   1.209 -0.5231 -0.3421 -0.2619
 6161SOL    HW129942   3.513   3.009   1.218 -0.5845 -0.8675  1.9317
 6161SOL    HW229943   3.416   2.902   1.261  1.1420  0.6539  1.4330
 6162SOL     OW29944   3.457   4.312  10.843  0.1957 -0.0738  0.1768
 6162SOL    HW129945   3.512   4.271  10.910 -1.8814 -3.0627  0.0757
 6162SOL    HW229946   3.400   4.363  10.901 -0.4210 -0.0017 -0.4922
 6163SOL     OW29947   2.618   0.102   6.608  1.1826 -0.3176  0.2516
 6163SOL    HW129948   2.665   0.144   6.536 -0.7162  0.8953 -0.2869
 6163SOL    HW229949   2.637   0.158   6.683  0.4007  1.9148 -1.2274
 6164SOL     OW29950   1.335   3.684   5.866 -0.2758 -0.0907  0.6010
 6164SOL    HW129951   1.283   3.653   5.940 -0.8133 -2.0590 -0.6175
 6164SOL    HW229952   1.321   3.779   5.865 -0.5571 -0.0842  3.2494
 6165SOL     OW29953   3.451   2.448   7.734  0.7484 -0.2269  0.1511
 6165SOL    HW129954   3.379   2.501   7.701  0.1877 -0.7764  0.4807
 6165SOL    HW229955   3.520   2.514   7.728 -0.9895  1.6327  0.9039
 6166SOL     OW29956   3.384   2.512   4.212 -0.2873 -0.5498  0.1621
 6166SOL    HW129957   3.357   2.593   4.256  0.2922  0.4964 -1.4041
 6166SOL    HW229958   3.329   2.531   4.136  1.0022  1.1807 -0.3408
 6167SOL     OW29959   4.506   4.507  12.057 -0.0479 -0.0402 -0.1267
 6167SOL    HW129960   4.572   4.438  12.065 -0.3723 -0.6651 -2.7681
 6167SOL    HW229961   4.535   4.561  11.984  1.2073 -0.6719 -0.0995
 6168SOL     OW29962   0.585   3.395  10.914  0.2867 -0.4831 -0.0609
 6168SOL    HW129963   0.577   3.459  10.984 -0.1778 -0.8498  0.2202
 6168SOL    HW229964   0.603   3.318  10.967  2.1308  0.0438  0.0728
 6169SOL     OW29965   3.266   0.186   3.197 -0.3680 -0.4407 -0.2005
 6169SOL    HW129966   3.243   0.279   3.194 -1.2489 -0.6061  1.1440
 6169SOL    HW229967   3.249   0.145   3.282 -2.1290  0.2225 -0.2370
 6170SOL     OW29968   1.914   0.193  14.084 -0.1576  0.2572  0.0097
 6170SOL    HW129969   1.931   0.194  13.990 -1.8583 -2.9176 -0.3416
 6170SOL    HW229970   1.998   0.217  14.124 -0.8216 -0.9749  2.1501
 6171SOL     OW29971   1.413   0.518   1.989 -0.1040 -0.1794  0.3615
 6171SOL    HW129972   1.500   0.521   1.949 -0.7481  2.0047 -0.8706
 6171SOL    HW229973   1.422   0.427   2.018 -2.0816 -0.8763 -1.1836
 6172SOL     OW29974   1.412   1.453   2.820  0.0090  0.2881  1.2241
 6172SOL    HW129975   1.320   1.458   2.792  0.7342  0.8901 -1.0713
 6172SOL    HW229976   1.444   1.541   2.797  0.6594 -0.4308 -0.6107
 6173SOL     OW29977   2.553   2.393  13.777  0.3329 -0.3918  0.0859
 6173SOL    HW129978   2.565   2.312  13.727  0.6513  0.2861 -0.9215
 6173SOL    HW229979   2.574   2.458  13.711 -0.3820  0.7473  0.9746
 6174SOL     OW29980   0.524   3.974   1.584 -0.7932  0.7436  0.1526
 6174SOL    HW129981   0.574   3.892   1.584  1.1607  1.9484 -0.0177
 6174SOL    HW229982   0.590   4.035   1.550 -2.0213  1.3130 -1.2294
 6175SOL     OW29983   2.073   1.054   7.873 -0.1495  0.3288  0.3690
 6175SOL    HW129984   2.122   1.001   7.811 -0.5554  0.0279  0.3044
 6175SOL    HW229985   2.097   1.143   7.847  1.6830  0.3251  2.0357
 6176SOL     OW29986   3.879   1.105   3.617 -0.1506 -0.2644  0.4274
 6176SOL    HW129987   3.924   1.182   3.582 -0.5771 -0.5403 -0.7527
 6176SOL    HW229988   3.795   1.109   3.571  0.0532 -2.4126 -0.1683
 6177SOL     OW29989   2.969   2.881   0.958  0.3251  0.9006 -0.4015
 6177SOL    HW129990   2.971   2.787   0.972 -1.8377  0.9031 -0.1582
 6177SOL    HW229991   3.055   2.912   0.988  0.1714 -1.7169  2.7374
 6178SOL     OW29992   1.285   4.060  16.045 -0.3346 -1.1057 -0.0501
 6178SOL    HW129993   1.310   3.990  15.984  0.1813  0.1271 -1.2522
 6178SOL    HW229994   1.223   4.017  16.103  0.3046 -2.3982 -0.3084
 6179SOL     OW29995   1.295   3.135   6.430 -0.6172  0.6447  0.4260
 6179SOL    HW129996   1.240   3.073   6.382  0.7625  0.7404 -1.2807
 6179SOL    HW229997   1.366   3.157   6.371 -1.5878 -0.9554 -1.3351
 6180SOL     OW29998   0.403   2.589   4.347 -0.2238  0.2631 -0.2015
 6180SOL    HW129999   0.374   2.498   4.334  2.2567 -0.4392 -0.8241
 6180SOL    HW230000   0.342   2.636   4.291 -0.7414  1.6147  1.5087
 6181SOL     OW30001   3.683   1.544  10.983  0.1368 -0.0190 -0.0703
 6181SOL    HW130002   3.774   1.564  10.960  0.2500  0.1451  0.5084
 6181SOL    HW230003   3.707   1.510  11.069 -1.4796 -1.6881 -0.3017
 6182SOL     OW30004   3.962   0.507   7.692  0.1881  0.0665  0.0630
 6182SOL    HW130005   3.952   0.423   7.736 -1.2392  0.9327  1.3753
 6182SOL    HW230006   3.915   0.566   7.751  0.5134 -0.0556  0.4478
 6183SOL     OW30007   2.299   0.640   3.402  0.3262  0.3680  0.3007
 6183SOL    HW130008   2.261   0.698   3.336 -0.1047  0.6717  0.8193
 6183SOL    HW230009   2.302   0.680   3.488  2.6329  0.6613  0.0896
 6184SOL     OW30010   3.671   0.010   1.762 -0.7872  0.1285  0.1247
 6184SOL    HW130011   3.598   4.679   1.740 -0.5497  0.3068 -1.0976
 6184SOL    HW230012   3.691   4.718   1.854 -0.5515  3.1639  0.6851
 6185SOL     OW30013   4.073   3.887   7.878  0.1940  0.0390 -0.1068
 6185SOL    HW130014   4.001   3.911   7.936  0.3362  0.8839 -0.2794
 6185SOL    HW230015   4.098   3.800   7.910 -1.7177 -0.9601 -1.3336
 6186SOL     OW30016   0.692   2.611  12.350 -0.2928  0.1289  0.9204
 6186SOL    HW130017   0.657   2.658  12.275  1.6061  1.2295  0.7266
 6186SOL    HW230018   0.649   2.526  12.340  1.4726 -0.3919 -1.9996
 6187SOL     OW30019   1.042   0.310   8.699 -0.3807  0.1429 -0.3631
 6187SOL    HW130020   1.126   0.295   8.656  0.9901  0.7656  2.0703
 6187SOL    HW230021   1.042   0.405   8.705 -0.7843  0.1335 -0.2039
 6188SOL     OW30022   4.587   0.399   6.507  0.0509  0.0580  0.3097
 6188SOL    HW130023   4.493   0.402   6.520  0.3314  1.8042  2.0321
 6188SOL    HW230024   4.618   0.421   6.595 -1.6736  0.9809  0.6828
 6189SOL     OW30025   4.210   4.224  11.096 -0.4011  0.2763  0.3400
 6189SOL    HW130026   4.177   4.308  11.066  0.4709  1.1774  1.8810
 6189SOL    HW230027   4.148   4.160  11.061  0.7111 -0.5864 -0.0592
 6190SOL     OW30028   2.675   4.383   6.517 -0.0638  0.5138  0.3796
 6190SOL    HW130029   2.716   4.453   6.568 -0.6499  0.0222  1.5277
 6190SOL    HW230030   2.599   4.435   6.491 -0.0486  0.9063  1.1210
 6191SOL     OW30031   0.906   0.537   8.947  0.0634  0.3858 -0.0685
 6191SOL    HW130032   0.856   0.619   8.939  0.6838  0.6925 -0.8296
 6191SOL    HW230033   0.973   0.562   8.884  0.5565 -0.3649  0.1579
 6192SOL     OW30034   3.732   1.120   7.534  0.0671  0.0179  0.1362
 6192SOL    HW130035   3.706   1.116   7.626 -1.3778  2.0242 -0.1628
 6192SOL    HW230036   3.797   1.051   7.532 -1.3172 -1.2559 -0.5114
 6193SOL     OW30037   0.813   2.291   5.367  0.0208  0.6057  0.0785
 6193SOL    HW130038   0.724   2.262   5.351 -0.2410  1.9680 -0.9732
 6193SOL    HW230039   0.852   2.310   5.281  0.8843  1.4227  0.6488
 6194SOL     OW30040   1.401   1.170  11.339  0.1221 -0.0562  0.4980
 6194SOL    HW130041   1.322   1.120  11.363  0.9210 -0.4956  2.1668
 6194SOL    HW230042   1.380   1.185  11.246 -1.7000 -0.6265  0.8091
 6195SOL     OW30043   0.077   0.695   5.083 -0.0763 -0.6017 -0.1205
 6195SOL    HW130044   0.146   0.680   5.149  0.3744 -0.2535 -0.5090
 6195SOL    HW230045   0.078   0.791   5.083 -0.1467 -0.6026  0.9048
 6196SOL     OW30046   4.480   0.472   7.196 -0.1095 -0.0302  0.1642
 6196SOL    HW130047   4.444   0.416   7.127  1.0582  0.2371 -0.6675
 6196SOL    HW230048   4.554   0.423   7.234  0.5993  1.2138  0.3992
 6197SOL     OW30049   2.865   2.542   4.650 -0.2322  0.0174  0.5923
 6197SOL    HW130050   2.939   2.599   4.629 -0.2609 -0.7070 -1.4519
 6197SOL    HW230051   2.900   2.484   4.718  2.1443  1.0396  0.2571
 6198SOL     OW30052   2.242   4.408  14.353 -0.6215 -0.6249 -0.5476
 6198SOL    HW130053   2.308   4.427  14.421 -1.2047  1.0107 -0.4498
 6198SOL    HW230054   2.202   4.495  14.351  1.9549  0.6659  2.4423
 6199SOL     OW30055   3.551   3.566  13.343 -0.3119 -0.6732 -0.4512
 6199SOL    HW130056   3.490   3.551  13.271 -0.9617 -3.0506  0.6047
 6199SOL    HW230057   3.630   3.576  13.289 -0.1890 -0.7981 -0.2948
 6200SOL     OW30058   0.992   0.758   2.925 -0.0602 -1.1252  0.2167
 6200SOL    HW130059   1.075   0.761   2.879 -0.1450 -0.1303  0.1256
 6200SOL    HW230060   1.021   0.713   3.004  1.5749  0.2340  0.3963
 6201SOL     OW30061   2.169   0.215   8.373 -0.9132 -0.3134 -0.4565
 6201SOL    HW130062   2.183   0.193   8.281  0.4554 -0.3619 -0.2265
 6201SOL    HW230063   2.176   0.311   8.367  0.5701 -0.4973 -1.4933
 6202SOL     OW30064   1.323   0.495  16.934 -0.0233 -0.5127 -0.0576
 6202SOL    HW130065   1.350   0.495  16.842  0.9230  0.9024  0.2084
 6202SOL    HW230066   1.331   0.590  16.945  1.4998 -1.0311  3.4718
 6203SOL     OW30067   0.769   1.207   4.425 -0.4031  0.1592 -0.0575
 6203SOL    HW130068   0.694   1.162   4.387 -1.4793  0.3546  1.8310
 6203SOL    HW230069   0.817   1.143   4.477 -0.1529  1.1340  0.9011
 6204SOL     OW30070   4.422   3.760   8.740  0.6149  0.4160 -0.5444
 6204SOL    HW130071   4.394   3.802   8.658  0.9255  0.7274 -0.4895
 6204SOL    HW230072   4.462   3.680   8.706  1.8720  0.9418 -0.3064
 6205SOL     OW30073   0.868   0.982  10.531 -0.1689  0.0631  0.4170
 6205SOL    HW130074   0.817   0.993  10.610 -0.8388  0.2849 -0.0465
 6205SOL    HW230075   0.943   1.039  10.545 -0.1640  0.3343 -0.6716
 6206SOL     OW30076   2.701   0.894   0.033 -0.6377  0.0831 -0.1722
 6206SOL    HW130077   2.748   0.976   0.049 -1.4444 -0.0664  2.8908
 6206SOL    HW230078   2.643   0.881   0.108 -1.1366  0.8206 -0.4298
 6207SOL     OW30079   3.660   4.002   3.034  0.2484  0.5436 -0.3902
 6207SOL    HW130080   3.613   4.082   3.011  0.4710  1.2944  1.7711
 6207SOL    HW230081   3.604   3.973   3.106  0.3796  2.4171  0.4559
 6208SOL     OW30082   3.106   4.318  10.669 -0.3758  0.3061 -0.0067
 6208SOL    HW130083   3.146   4.236  10.697  2.3809  2.1195  1.4352
 6208SOL    HW230084   3.053   4.337  10.746 -1.6069  0.0653 -0.8033
 6209SOL     OW30085   0.621   3.934   8.440  0.2380 -0.7476  0.8342
 6209SOL    HW130086   0.659   3.895   8.519 -0.5076 -0.3541  1.3913
 6209SOL    HW230087   0.556   3.873   8.405  0.6668 -0.8347  0.1759
 6210SOL     OW30088   2.912   3.050  12.104  0.2987  0.0930 -0.6552
 6210SOL    HW130089   2.823   3.046  12.067  0.6812  0.1069 -1.5799
 6210SOL    HW230090   2.922   3.144  12.094 -0.7056  0.3926  1.3180
 6211SOL     OW30091   0.856   3.318  11.133  0.4024  0.0854 -0.3427
 6211SOL    HW130092   0.777   3.322  11.186 -0.9753  0.6378 -2.4265
 6211SOL    HW230093   0.916   3.267  11.187  0.3906 -2.4299 -2.7266
 6212SOL     OW30094   0.993   2.657   5.744  0.2995 -0.3219  0.4856
 6212SOL    HW130095   0.993   2.613   5.659  1.2435 -0.9905  0.8326
 6212SOL    HW230096   1.077   2.702   5.738  0.6522 -1.2301 -1.4719
 6213SOL     OW30097   0.649   2.272   4.727 -0.6695  0.2653  0.6100
 6213SOL    HW130098   0.578   2.270   4.792 -1.3679  0.0998 -0.1677
 6213SOL    HW230099   0.632   2.206   4.660  0.9836  0.1767  0.2883
 6214SOL     OW30100   0.117   0.018   5.997 -0.1956 -0.3043  0.7351
 6214SOL    HW130101   0.047   0.066   6.042  0.2334  2.3756 -1.4603
 6214SOL    HW230102   0.188   0.009   6.061 -0.8994  0.6172  1.6569
 6215SOL     OW30103   4.196   1.091   9.363  0.4735  0.3823  0.0479
 6215SOL    HW130104   4.173   1.105   9.454 -1.0824  1.6140 -0.5318
 6215SOL    HW230105   4.118   1.138   9.334 -0.7967 -1.9627 -0.3691
 6216SOL     OW30106   1.589   0.419   8.081  0.1791  0.2636  0.2014
 6216SOL    HW130107   1.633   0.502   8.061  0.1636  0.1696 -0.2401
 6216SOL    HW230108   1.604   0.414   8.175  3.0246  0.0079 -0.2451
 6217SOL     OW30109   3.082   4.481   4.027  0.6527  0.2123  0.3521
 6217SOL    HW130110   3.084   4.492   3.932 -0.3017 -1.5340  0.1369
 6217SOL    HW230111   3.087   4.386   4.019  2.4174  0.1900  1.6217
 6218SOL     OW30112   3.550   4.019   8.283 -0.0389 -0.1023 -0.2061
 6218SOL    HW130113   3.624   4.020   8.344  0.3585 -0.1886 -0.6876
 6218SOL    HW230114   3.589   4.038   8.198 -1.3327  1.6192 -0.4140
 6219SOL     OW30115   3.884   0.940   1.802  0.6007 -0.3728 -0.1807
 6219SOL    HW130116   3.956   0.893   1.843  0.5578 -1.8069 -1.7504
 6219SOL    HW230117   3.833   0.947   1.883  1.9407 -1.9102  0.7924
 6220SOL     OW30118   3.239   1.645   8.730 -0.5614  0.2657 -0.1532
 6220SOL    HW130119   3.280   1.558   8.724 -0.7079  0.0711  1.5205
 6220SOL    HW230120   3.161   1.626   8.676 -1.6337 -0.1626  1.5361
 6221SOL     OW30121   0.792   3.339  10.720 -0.4556  0.4518 -0.2051
 6221SOL    HW130122   0.873   3.348  10.770 -1.9808  0.9894  2.1609
 6221SOL    HW230123   0.735   3.388  10.780 -2.4058 -0.8862 -0.9423
 6222SOL     OW30124   1.498   1.599   8.189 -0.4886  0.8365  0.1002
 6222SOL    HW130125   1.511   1.693   8.178 -3.4649  1.1840 -0.4058
 6222SOL    HW230126   1.407   1.583   8.212  0.4163 -1.8833  1.8564
 6223SOL     OW30127   4.421   1.664  14.227  0.4337  0.4871  0.3089
 6223SOL    HW130128   4.479   1.642  14.300 -2.6762  0.4151  2.7760
 6223SOL    HW230129   4.418   1.582  14.177 -1.0996  1.1684 -0.6921
 6224SOL     OW30130   3.998   0.134  11.035 -0.4347 -0.2139  0.5247
 6224SOL    HW130131   4.092   0.118  11.042 -0.5247 -1.0645 -0.1599
 6224SOL    HW230132   3.952   0.059  11.073 -0.6257 -0.0298  0.6557
 6225SOL     OW30133   4.308   2.696  13.902 -0.0294  0.0788  0.0267
 6225SOL    HW130134   4.336   2.752  13.830  0.9566 -0.8290 -0.2876
 6225SOL    HW230135   4.382   2.713  13.960  0.3908  0.4064 -0.6070
 6226SOL     OW30136   0.127   4.170   8.045  0.0827 -0.1467 -0.6024
 6226SOL    HW130137   0.121   4.096   7.985  0.9608  1.3545 -2.5515
 6226SOL    HW230138   0.206   4.138   8.087 -1.6134 -0.5346  2.2508
 6227SOL     OW30139   3.396   4.156   3.021  0.4563 -0.1715  0.1014
 6227SOL    HW130140   3.314   4.162   3.070  1.6662  0.4424  2.0468
 6227SOL    HW230141   3.377   4.093   2.951  1.3888  0.3303 -0.5926
 6228SOL     OW30142   4.164   2.560  15.409 -0.2497 -0.3312  0.0477
 6228SOL    HW130143   4.129   2.473  15.388  0.2451 -1.0346  2.1559
 6228SOL    HW230144   4.250   2.559  15.367 -1.0438 -1.3384 -1.5299
 6229SOL     OW30145   3.799   1.193   2.481  0.0238 -0.4166  0.3919
 6229SOL    HW130146   3.788   1.098   2.488  0.0182 -0.5042 -0.7246
 6229SOL    HW230147   3.835   1.214   2.567  1.1962 -0.2802 -0.1207
 6230SOL     OW30148   0.137   2.085  15.037 -0.8259 -0.0108 -0.0739
 6230SOL    HW130149   0.144   2.125  14.951  1.8995 -1.2834 -0.4693
 6230SOL    HW230150   0.131   2.155  15.102 -0.1548  0.1935 -0.2259
 6231SOL     OW30151   4.326   2.112   8.744 -0.1595  0.0051  0.4508
 6231SOL    HW130152   4.253   2.073   8.698  0.6970 -0.5707 -0.4137
 6231SOL    HW230153   4.333   2.039   8.806 -2.0671 -0.6669 -0.1541
 6232SOL     OW30154   1.155   3.403   6.413  0.0215 -0.2122 -0.4282
 6232SOL    HW130155   1.208   3.482   6.400 -1.6352  0.8285 -0.8476
 6232SOL    HW230156   1.228   3.344   6.395  0.3468  0.3232 -0.8722
 6233SOL     OW30157   2.192   3.819   3.237  0.5836 -0.4789 -0.2135
 6233SOL    HW130158   2.159   3.735   3.268  3.5484 -0.6553  2.5250
 6233SOL    HW230159   2.216   3.853   3.323 -0.0530 -1.7783  0.4867
 6234SOL     OW30160   2.289   3.433   3.074 -0.0580 -0.0948  0.1104
 6234SOL    HW130161   2.269   3.345   3.040  0.1543 -0.2157  0.2969
 6234SOL    HW230162   2.238   3.491   3.017  1.3571 -0.3919 -1.4758
 6235SOL     OW30163   4.700   1.480  10.327  0.0201 -0.5867  0.0493
 6235SOL    HW130164   4.648   1.435  10.393 -0.4593  1.5946  1.1688
 6235SOL    HW230165   4.653   1.462  10.245  0.0753  1.7478 -0.5108
 6236SOL     OW30166   1.692   2.199   9.667  0.1075  0.4495 -0.6020
 6236SOL    HW130167   1.723   2.177   9.755  2.2489  1.2753 -1.1471
 6236SOL    HW230168   1.667   2.123   9.615  2.1103 -1.4825  1.2624
 6237SOL     OW30169   3.890   3.632   4.115  0.2024  0.1225 -0.2995
 6237SOL    HW130170   3.869   3.689   4.189  2.0701  1.1166 -0.5323
 6237SOL    HW230171   3.985   3.624   4.119  0.1575  1.5749  3.0411
 6238SOL     OW30172   3.974   0.602   4.865 -0.6895  0.4684  0.2215
 6238SOL    HW130173   4.035   0.675   4.858 -1.7092  1.5838  2.9622
 6238SOL    HW230174   4.035   0.532   4.839 -2.0380 -0.7821  0.3928
 6239SOL     OW30175   3.900   0.231   5.928  0.9562 -0.0476  1.1157
 6239SOL    HW130176   3.900   0.195   5.840 -0.2220  0.9967  0.6954
 6239SOL    HW230177   3.967   0.174   5.966  1.0385 -1.2953 -0.9047
 6240SOL     OW30178   0.248   2.363   7.905  0.1088 -0.1570 -0.5400
 6240SOL    HW130179   0.333   2.383   7.944  0.8294 -0.9044 -1.7413
 6240SOL    HW230180   0.202   2.296   7.955  0.7652  1.3351  2.0778
 6241SOL     OW30181   0.648   4.572   7.876 -0.2923  0.3359  0.4272
 6241SOL    HW130182   0.584   4.504   7.898 -0.3334  0.4778  0.7463
 6241SOL    HW230183   0.718   4.515   7.847  0.7590  0.1621  3.2527
 6242SOL     OW30184   2.711   3.160  17.238  0.0587  0.0042 -0.7180
 6242SOL    HW130185   2.750   3.073  17.231 -0.2125 -0.3150  1.7773
 6242SOL    HW230186   2.769   3.194  17.307  0.5160  0.4245 -1.3138
 6243SOL     OW30187   0.222   1.561  12.167 -0.3131 -0.0611 -0.1500
 6243SOL    HW130188   0.224   1.580  12.073 -0.8499  1.6757  0.1780
 6243SOL    HW230189   0.283   1.487  12.166 -1.4677 -1.0483  2.2155
 6244SOL     OW30190   1.100   3.956  14.161  0.0492 -0.4428 -0.1879
 6244SOL    HW130191   1.077   3.995  14.244 -1.1043  0.7837 -1.0888
 6244SOL    HW230192   1.144   3.874  14.185 -1.9732 -2.0437 -1.8256
 6245SOL     OW30193   3.617   3.544  16.500 -0.3352 -0.6506 -0.5690
 6245SOL    HW130194   3.561   3.590  16.438  0.1397  1.6939  0.7480
 6245SOL    HW230195   3.641   3.464  16.451 -0.4787 -0.8745 -0.2740
 6246SOL     OW30196   0.763   3.998  10.732  0.3330 -0.6732  0.1122
 6246SOL    HW130197   0.734   3.997  10.823  1.3071 -5.9372  0.3852
 6246SOL    HW230198   0.842   3.945  10.741  0.6771 -0.0416  0.7556
 6247SOL     OW30199   0.084   0.923   1.583  0.1488 -0.1830 -0.2275
 6247SOL    HW130200   0.031   0.951   1.658  0.4098 -2.5916  0.8531
 6247SOL    HW230201   0.133   0.998   1.549  0.0486 -0.4029 -0.8545
 6248SOL     OW30202   2.190   2.491   0.909 -0.7889 -0.6957  0.5162
 6248SOL    HW130203   2.100   2.460   0.901 -0.8357 -0.3219 -0.4143
 6248SOL    HW230204   2.193   2.537   0.825 -1.5351 -2.1474 -0.3190
 6249SOL     OW30205   0.027   1.191   2.290  0.6992 -0.1500 -0.3630
 6249SOL    HW130206   0.081   1.149   2.223  0.7436  2.8157 -2.1579
 6249SOL    HW230207   4.694   1.117   2.302  1.1120 -0.2697  0.8826
 6250SOL     OW30208   0.202   1.794   4.073 -0.0099  0.1701 -0.0787
 6250SOL    HW130209   0.175   1.760   4.159 -2.8394 -2.0110 -1.8508
 6250SOL    HW230210   0.179   1.887   4.078  2.3150  0.7887 -0.8845
 6251SOL     OW30211   1.229   1.992   4.699 -0.2890  0.0307  0.8855
 6251SOL    HW130212   1.191   1.948   4.775  0.7324 -0.3630  1.1733
 6251SOL    HW230213   1.148   2.015   4.654 -0.5726 -0.3186  1.2103
 6252SOL     OW30214   2.085   0.783   7.116  0.5785  0.8013  0.0213
 6252SOL    HW130215   2.050   0.701   7.149  2.2002  0.4819  0.9997
 6252SOL    HW230216   2.081   0.779   7.021  1.9674 -4.0581  0.1835
 6253SOL     OW30217   0.553   1.119   7.108  0.3906  0.1929  0.0250
 6253SOL    HW130218   0.494   1.191   7.132  0.2700  0.2954 -0.5921
 6253SOL    HW230219   0.595   1.098   7.191  0.6335  1.2613  0.1690
 6254SOL     OW30220   2.918   3.133  11.772  0.0058 -0.0482  0.4935
 6254SOL    HW130221   2.969   3.052  11.772  0.8588  0.4723 -1.6443
 6254SOL    HW230222   2.977   3.197  11.813 -2.2344  1.1853  1.7414
 6255SOL     OW30223   0.177   2.585  17.665 -0.6916 -0.3329 -0.1232
 6255SOL    HW130224   0.146   2.573   0.047  0.7241  1.0874  0.5633
 6255SOL    HW230225   0.267   2.616  17.677  0.2896 -2.7031 -1.3377
 6256SOL     OW30226   2.821   1.959  17.657  0.4568  0.2472 -0.2902
 6256SOL    HW130227   2.754   2.001  17.604 -0.0897  1.0554  1.0496
 6256SOL    HW230228   2.768   1.944   0.028  1.3790  4.6653  1.2108
 6257SOL     OW30229   3.184   0.220   4.353 -0.3261  0.6405  0.3646
 6257SOL    HW130230   3.089   0.231   4.344 -0.0409  1.7359 -1.4643
 6257SOL    HW230231   3.205   0.293   4.410  0.4624  1.5219 -1.0580
 6258SOL     OW30232   2.260   0.876   3.657  0.0966 -0.0719  0.0561
 6258SOL    HW130233   2.230   0.946   3.714  3.8092  2.1055 -0.6508
 6258SOL    HW230234   2.202   0.805   3.685 -0.0249  0.1094  0.2540
 6259SOL     OW30235   0.191   1.823   2.508 -0.6190 -0.0197  0.4568
 6259SOL    HW130236   0.195   1.917   2.487 -2.3403 -0.3012 -1.1465
 6259SOL    HW230237   0.207   1.775   2.427  1.4568 -0.8575  1.3644
 6260SOL     OW30238   0.035   3.082   4.407  0.5079 -0.1625  0.4092
 6260SOL    HW130239   0.092   3.008   4.425 -1.3616 -1.1247  2.2780
 6260SOL    HW230240   0.039   3.134   4.487  0.0673  0.4735  0.0207
 6261SOL     OW30241   1.616   2.103   4.553 -1.1980  0.5880 -0.2711
 6261SOL    HW130242   1.561   2.159   4.499  2.1972 -0.9229 -5.3403
 6261SOL    HW230243   1.561   2.026   4.566  0.9124 -0.7352  1.0323
 6262SOL     OW30244   2.226   4.044   6.704 -0.0569  0.5526 -0.7154
 6262SOL    HW130245   2.150   4.001   6.666 -1.1929 -0.8462  3.1408
 6262SOL    HW230246   2.293   4.056   6.637  1.5623 -1.9407  0.4760
 6263SOL     OW30247   0.793   1.809   1.769 -0.0066  0.2639 -0.1998
 6263SOL    HW130248   0.792   1.890   1.719 -0.1697  1.3044  1.5145
 6263SOL    HW230249   0.793   1.748   1.695 -0.7106 -0.9877  0.8297
 6264SOL     OW30250   1.372   1.323   5.520 -0.6295  0.3136 -0.8475
 6264SOL    HW130251   1.360   1.414   5.493 -2.0292 -0.1488 -1.8373
 6264SOL    HW230252   1.292   1.311   5.572 -0.7357 -0.8786 -1.2784
 6265SOL     OW30253   4.065   2.569  11.501  0.3048  0.3594  0.2742
 6265SOL    HW130254   3.996   2.515  11.462  1.4752 -0.3218 -0.8312
 6265SOL    HW230255   4.072   2.635  11.433  0.1590  1.7610  1.6358
 6266SOL     OW30256   2.184   1.598  12.382 -0.2535  0.0220  0.1851
 6266SOL    HW130257   2.093   1.583  12.356 -0.4017 -2.5499  2.1961
 6266SOL    HW230258   2.207   1.667  12.320 -1.7950 -0.4618 -0.9339
 6267SOL     OW30259   4.384   1.628   4.912  0.3825 -0.0415  0.2691
 6267SOL    HW130260   4.297   1.615   4.949 -0.9343 -0.5526 -2.9972
 6267SOL    HW230261   4.367   1.609   4.820  0.0199  3.2695 -0.3393
 6268SOL     OW30262   1.714   3.833   6.924  0.6758  0.3569  0.4116
 6268SOL    HW130263   1.780   3.764   6.922  1.8562  1.4910 -0.1942
 6268SOL    HW230264   1.778   3.895   6.960  0.0749  0.4597  1.2986
 6269SOL     OW30265   2.714   2.940  13.264  0.2762  0.3779 -0.0435
 6269SOL    HW130266   2.656   2.992  13.209 -1.2768  2.7159  3.8030
 6269SOL    HW230267   2.782   2.922  13.199  1.1746 -0.6102  1.1796
 6270SOL     OW30268   4.524   2.241   2.800 -0.2623 -0.0240 -0.5587
 6270SOL    HW130269   4.538   2.277   2.713 -2.1768 -0.7182 -1.1359
 6270SOL    HW230270   4.570   2.313   2.844 -1.2995  0.6040 -0.4851
 6271SOL     OW30271   0.448   3.404  15.809  0.4736 -0.5904  0.9885
 6271SOL    HW130272   0.522   3.404  15.748  0.6565  0.3959  1.2012
 6271SOL    HW230273   0.499   3.366  15.880 -1.3218  1.1253  3.1920
 6272SOL     OW30274   3.806   2.931   1.104  0.6007  0.3176 -0.3286
 6272SOL    HW130275   3.898   2.910   1.089  1.0160  2.0746 -0.2220
 6272SOL    HW230276   3.807   3.009   1.048 -0.3157 -0.4604 -1.4251
 6273SOL     OW30277   0.045   2.924   9.744  0.0345  0.3486  0.5487
 6273SOL    HW130278   4.712   2.990   9.709  2.7285  1.4959 -1.8609
 6273SOL    HW230279   0.091   2.978   9.809  0.7613 -1.2782  1.3794
 6274SOL     OW30280   4.178   0.917  10.409  0.0390 -0.1230 -0.5899
 6274SOL    HW130281   4.189   1.010  10.391  0.4673  0.0949  0.8673
 6274SOL    HW230282   4.256   0.914  10.463 -0.5168 -1.2912  0.1438
 6275SOL     OW30283   1.676   3.049   2.455 -0.1179 -0.2638  0.0165
 6275SOL    HW130284   1.703   3.120   2.513 -2.1616  0.8516 -0.4265
 6275SOL    HW230285   1.760   3.002   2.451 -0.3016 -0.6168  0.2938
 6276SOL     OW30286   0.012   0.249   5.134 -0.0131 -0.3916 -0.2257
 6276SOL    HW130287   0.022   0.306   5.057  1.7520 -0.3021  0.0752
 6276SOL    HW230288   0.103   0.260   5.163  0.3051 -2.6471 -0.4206
 6277SOL     OW30289   0.360   2.538  13.696 -0.3303  0.0264  0.1289
 6277SOL    HW130290   0.435   2.480  13.698 -0.7984 -0.5391  1.2157
 6277SOL    HW230291   0.296   2.475  13.729 -0.0828  0.6979  1.8886
 6278SOL     OW30292   1.199   0.643   5.563  0.4824  0.2497 -0.5350
 6278SOL    HW130293   1.180   0.588   5.487  2.0273 -0.5792 -0.3352
 6278SOL    HW230294   1.123   0.631   5.619  0.4120 -0.0862 -0.7006
 6279SOL     OW30295   1.569   3.367   4.419 -0.2637  0.0577  0.0790
 6279SOL    HW130296   1.557   3.449   4.371 -0.4177 -0.4970 -0.8555
 6279SOL    HW230297   1.486   3.373   4.466 -0.4285  3.3908 -0.6629
 6280SOL     OW30298   3.952   0.496   3.098  0.4397  0.1020  0.0333
 6280SOL    HW130299   3.969   0.417   3.047 -1.1247  0.8810 -1.7138
 6280SOL    HW230300   4.029   0.486   3.155  0.9834  1.0895 -0.5226
 6281SOL     OW30301   1.448   0.071  16.681 -0.0763  0.0033  0.1394
 6281SOL    HW130302   1.488   0.141  16.630  1.2719 -0.5327  0.4448
 6281SOL    HW230303   1.451   0.104  16.771  2.1385  1.5369 -0.4916
 6282SOL     OW30304   2.203   3.413   1.839 -0.8854  0.0479  0.1063
 6282SOL    HW130305   2.286   3.390   1.797 -0.7207 -2.3034  1.7084
 6282SOL    HW230306   2.187   3.336   1.892  1.4639 -1.2558 -1.0664
 6283SOL     OW30307   3.296   3.346   2.910  0.0603 -0.1177  0.1552
 6283SOL    HW130308   3.312   3.278   2.976  0.2154 -0.3860 -0.1565
 6283SOL    HW230309   3.383   3.383   2.896 -0.3274  0.5236 -0.5673
 6284SOL     OW30310   3.830   0.006   4.735  0.1828  0.4402 -0.3550
 6284SOL    HW130311   3.802   0.044   4.652  1.0396  1.0043 -0.3892
 6284SOL    HW230312   3.807   0.081   4.788  2.9118 -1.3952  3.4301
 6285SOL     OW30313   2.893   2.418   8.080  0.6102 -0.3106 -0.4176
 6285SOL    HW130314   2.850   2.488   8.128 -1.5952 -0.5926 -1.9661
 6285SOL    HW230315   2.983   2.425   8.110 -0.1727  0.8031  1.6569
 6286SOL     OW30316   0.097   3.378  12.265 -0.1571 -0.0736 -0.0649
 6286SOL    HW130317   0.066   3.379  12.355  1.1123  1.1881  0.3594
 6286SOL    HW230318   0.040   3.316  12.219  1.5382 -2.3048  0.8576
 6287SOL     OW30319   3.784   4.569  13.812 -0.7948  0.2536 -0.4560
 6287SOL    HW130320   3.855   4.633  13.801  0.0328 -0.8738 -1.5868
 6287SOL    HW230321   3.780   4.578  13.907 -0.4319 -1.6507 -0.2675
 6288SOL     OW30322   4.486   1.240  14.708 -0.2163 -0.8779 -0.2230
 6288SOL    HW130323   4.534   1.200  14.635 -0.2033 -0.0451 -0.6705
 6288SOL    HW230324   4.514   1.331  14.711 -1.6865 -0.4479  0.1629
 6289SOL     OW30325   0.436   3.081   3.679  0.7193 -0.2044  0.5212
 6289SOL    HW130326   0.415   3.150   3.616  1.2739  0.7936  1.4446
 6289SOL    HW230327   0.530   3.093   3.690  0.6102  0.4691  0.6749
 6290SOL     OW30328   1.243   4.021  16.533  0.4895  0.2933  0.4597
 6290SOL    HW130329   1.148   4.030  16.522  0.5363  0.7536  0.4641
 6290SOL    HW230330   1.260   3.983  16.619  1.3484 -0.7483 -0.1614
 6291SOL     OW30331   3.530   2.469   1.554 -0.3165  0.5228  0.5256
 6291SOL    HW130332   3.563   2.380   1.571 -0.7079  0.5087  1.1731
 6291SOL    HW230333   3.567   2.505   1.634 -1.6387 -0.9653  1.7901
 6292SOL     OW30334   2.319   0.541   9.914  0.1597 -0.5804 -0.5559
 6292SOL    HW130335   2.405   0.548   9.957  0.0319  0.1201 -0.4286
 6292SOL    HW230336   2.268   0.586   9.981  3.3958  1.0020  0.8424
 6293SOL     OW30337   4.302   4.642   3.357  0.3129 -0.1346  0.2110
 6293SOL    HW130338   4.394   4.639   3.382  0.6279  0.8390 -0.7930
 6293SOL    HW230339   4.294   0.011   3.348  1.1313  0.0207  1.1099
 6294SOL     OW30340   0.620   4.616   6.689  0.1973 -0.0393  0.2108
 6294SOL    HW130341   0.560   4.623   6.763 -1.4770  0.4703 -1.1728
 6294SOL    HW230342   0.703   4.602   6.735  0.5133  0.1638 -0.2965
 6295SOL     OW30343   1.088   0.068   2.628  0.4441 -0.3810  0.2315
 6295SOL    HW130344   1.046   4.716   2.595  0.2781 -0.0477 -0.3594
 6295SOL    HW230345   1.084   0.118   2.546  0.8287 -1.5803 -0.5169
 6296SOL     OW30346   1.029   1.062   2.523 -0.3698  0.2133  0.7662
 6296SOL    HW130347   0.948   1.019   2.551  1.4110 -2.6557  1.5828
 6296SOL    HW230348   1.077   0.987   2.488  0.3154  2.2326 -2.6051
 6297SOL     OW30349   1.913   0.649   4.580  0.5150 -0.7006  0.3818
 6297SOL    HW130350   1.949   0.736   4.561 -0.1284 -0.9897 -2.1370
 6297SOL    HW230351   1.893   0.666   4.672 -2.9885  1.5514 -0.7969
 6298SOL     OW30352   2.084   3.881   0.875 -0.0834  0.5301  0.1325
 6298SOL    HW130353   2.061   3.890   0.782  0.4232  0.2412 -0.0230
 6298SOL    HW230354   2.166   3.931   0.879  0.0297  0.4465 -1.2539
 6299SOL     OW30355   4.443   3.095   3.583  0.1314  0.1944 -0.3259
 6299SOL    HW130356   4.456   3.135   3.669  3.8787 -0.1970 -0.6986
 6299SOL    HW230357   4.362   3.045   3.591 -0.8345  1.7544 -0.3272
 6300SOL     OW30358   1.444   0.479   6.471  0.1148  0.2224  0.1018
 6300SOL    HW130359   1.479   0.392   6.452 -3.1682 -0.4444 -2.7047
 6300SOL    HW230360   1.385   0.495   6.398  0.3233 -1.3567 -0.4016
 6301SOL     OW30361   4.013   0.323  10.644 -0.3978 -0.1514  0.3152
 6301SOL    HW130362   3.919   0.312  10.631 -0.4907  0.3791  0.5560
 6301SOL    HW230363   4.009   0.418  10.654  2.7751  0.0441 -0.1138
 6302SOL     OW30364   0.581   3.310  12.744  0.6428  1.0294 -0.2060
 6302SOL    HW130365   0.559   3.339  12.833 -1.5616  1.4336 -0.8723
 6302SOL    HW230366   0.603   3.392  12.700 -2.7667  1.1407 -1.6704
 6303SOL     OW30367   4.232   0.356   5.840 -0.5279  0.3463 -0.0664
 6303SOL    HW130368   4.176   0.283   5.814 -1.8012  0.5615  2.1738
 6303SOL    HW230369   4.320   0.321   5.857  0.0780  2.4146  0.9997
 6304SOL     OW30370   0.213   0.609   7.910 -0.2836 -0.4782 -0.0941
 6304SOL    HW130371   0.155   0.539   7.940  0.1042 -0.7245  0.0852
 6304SOL    HW230372   0.202   0.608   7.815  0.6084 -1.0876 -0.1976
 6305SOL     OW30373   3.934   1.680  15.055 -0.6503 -0.7188  0.3893
 6305SOL    HW130374   3.982   1.674  15.137 -0.0436 -0.1649  0.0751
 6305SOL    HW230375   3.999   1.704  14.989 -0.1625 -1.8886  0.4445
 6306SOL     OW30376   1.982   2.590   3.689 -0.7087 -0.5329 -0.2058
 6306SOL    HW130377   2.063   2.554   3.725 -1.4757 -1.8499  0.2126
 6306SOL    HW230378   1.918   2.528   3.725 -0.1770 -0.4076  0.9629
 6307SOL     OW30379   1.349   2.347   3.138 -0.0013 -0.5491 -0.0275
 6307SOL    HW130380   1.377   2.432   3.104 -0.2302 -0.6600 -0.5075
 6307SOL    HW230381   1.335   2.294   3.059  2.8285  0.7129 -1.3690
 6308SOL     OW30382   1.849   4.207   0.547  0.2340 -0.2207  0.2502
 6308SOL    HW130383   1.909   4.274   0.578  1.3470 -0.1359 -2.0750
 6308SOL    HW230384   1.802   4.255   0.478  1.5962  1.6208  0.5976
 6309SOL     OW30385   3.998   2.825   4.378 -0.0045 -0.0843  0.5479
 6309SOL    HW130386   3.905   2.825   4.398  0.0630 -0.0183  0.8619
 6309SOL    HW230387   4.014   2.875   4.298 -0.2994 -0.5848  0.1815
 6310SOL     OW30388   0.518   0.175   3.394  0.7198  0.2906 -0.5061
 6310SOL    HW130389   0.565   0.174   3.477  1.2044  2.5009 -0.7727
 6310SOL    HW230390   0.591   0.187   3.333  1.9593  1.5265  1.2463
 6311SOL     OW30391   4.034   2.434   7.814  0.3540  0.3091 -0.2742
 6311SOL    HW130392   3.984   2.445   7.895 -1.4767 -1.1988 -1.1875
 6311SOL    HW230393   4.123   2.466   7.830  1.6813 -2.9353 -1.2137
 6312SOL     OW30394   3.374   0.434   7.306  0.5740 -0.0873 -0.2985
 6312SOL    HW130395   3.429   0.381   7.247  0.7492 -0.8913  0.5807
 6312SOL    HW230396   3.305   0.458   7.244 -1.6624  0.2802  2.3537
 6313SOL     OW30397   2.140   3.922  14.422  0.1604  0.0909 -0.4062
 6313SOL    HW130398   2.085   3.865  14.476 -0.9283  1.0888 -0.4691
 6313SOL    HW230399   2.174   3.861  14.357 -2.1528 -0.1625 -1.3985
 6314SOL     OW30400   4.188   2.647   7.131  0.2512  0.2944  0.0957
 6314SOL    HW130401   4.175   2.741   7.123 -0.8651  0.0521 -0.9984
 6314SOL    HW230402   4.180   2.647   7.226 -0.7862  0.6015  0.0155
 6315SOL     OW30403   3.700   1.382   3.665  0.1250 -0.1528  0.2020
 6315SOL    HW130404   3.624   1.372   3.723  1.2714 -2.0241  1.4098
 6315SOL    HW230405   3.767   1.354   3.727  1.4120  0.5019 -0.9040
 6316SOL     OW30406   1.512   1.971   5.366  0.2147  0.1413 -0.2797
 6316SOL    HW130407   1.535   2.049   5.417  0.4027  1.2055 -1.9835
 6316SOL    HW230408   1.524   1.997   5.274 -0.2217 -0.4658 -0.5073
 6317SOL     OW30409   2.959   3.820  17.639  0.0879 -0.0860 -0.0758
 6317SOL    HW130410   2.866   3.828  17.617  0.4970 -2.4509 -2.7643
 6317SOL    HW230411   2.962   3.828   0.027  0.6450 -0.3330 -0.0697
 6318SOL     OW30412   2.277   1.888  11.516 -0.3656  0.3348  0.0412
 6318SOL    HW130413   2.244   1.846  11.596  3.7925 -0.1871  1.4470
 6318SOL    HW230414   2.369   1.907  11.530 -0.2987  0.0980 -0.0931
 6319SOL     OW30415   4.386   0.578   7.812  0.5923  0.3616 -0.1355
 6319SOL    HW130416   4.429   0.492   7.809 -1.6154 -0.7995  1.8490
 6319SOL    HW230417   4.387   0.592   7.717  0.5765  1.4125  0.0298
 6320SOL     OW30418   4.178   0.885  12.508  0.3461 -0.7689 -0.7032
 6320SOL    HW130419   4.259   0.930  12.532  0.2839 -0.5605 -0.8795
 6320SOL    HW230420   4.192   0.878  12.413  1.4970 -1.7444 -0.4729
 6321SOL     OW30421   2.060   1.845   8.869  0.6210 -0.3088  0.2761
 6321SOL    HW130422   2.062   1.828   8.963  0.5887  1.1472  0.5469
 6321SOL    HW230423   2.011   1.927   8.856 -0.9608 -1.0760  1.3573
 6322SOL     OW30424   4.653   2.728  14.865  0.1441 -0.4611 -0.1157
 6322SOL    HW130425   4.678   2.817  14.890  0.7668 -1.2080  1.9340
 6322SOL    HW230426   4.588   2.743  14.796  1.9423  0.1605 -1.6970
 6323SOL     OW30427   3.063   3.006   5.579  0.6353  0.2113  0.0812
 6323SOL    HW130428   2.976   2.996   5.541  1.2576 -0.9151 -1.0500
 6323SOL    HW230429   3.090   2.914   5.586  1.1863  0.5506  2.4688
 6324SOL     OW30430   1.163   0.515   1.872  0.0013  0.2533  0.4212
 6324SOL    HW130431   1.123   0.600   1.887 -0.4662  0.1509 -0.2475
 6324SOL    HW230432   1.254   0.529   1.899  0.7074 -3.7825  0.2750
 6325SOL     OW30433   1.766   2.328   7.356  0.2227 -0.1313  0.4066
 6325SOL    HW130434   1.739   2.398   7.415  1.0458 -0.8824  1.6859
 6325SOL    HW230435   1.859   2.308   7.364 -0.1381 -1.6172  0.8790
 6326SOL     OW30436   2.547   2.391   6.531  0.9658 -0.2005  0.2170
 6326SOL    HW130437   2.561   2.318   6.470  0.6606 -1.3885  1.5715
 6326SOL    HW230438   2.458   2.416   6.507  0.8244 -1.0068 -0.1220
 6327SOL     OW30439   4.119   1.604  16.637  0.9192 -0.4692  0.1616
 6327SOL    HW130440   4.148   1.534  16.695  4.2104  0.2135 -0.6518
 6327SOL    HW230441   4.130   1.679  16.694  2.9499  0.0780 -0.9450
 6328SOL     OW30442   4.331   2.741   2.765  1.0484 -0.4109  0.1753
 6328SOL    HW130443   4.338   2.827   2.805  0.9525 -0.6524  0.7156
 6328SOL    HW230444   4.423   2.716   2.776  0.7358 -1.4122  0.5619
 6329SOL     OW30445   3.944   0.790  13.014  0.0318 -0.1327 -0.1826
 6329SOL    HW130446   4.015   0.841  13.053 -0.1402  0.4276 -0.5887
 6329SOL    HW230447   3.876   0.851  13.046 -1.4223 -1.7278 -0.2296
 6330SOL     OW30448   2.524   2.667   2.806  0.5222 -0.3442 -0.4637
 6330SOL    HW130449   2.596   2.608   2.831 -0.5430 -0.7736  1.6259
 6330SOL    HW230450   2.452   2.605   2.819 -1.0346  1.3114 -1.2899
 6331SOL     OW30451   1.816   2.578   6.880  0.1134 -0.3444 -0.1165
 6331SOL    HW130452   1.876   2.532   6.939  0.3555  0.4364  0.2601
 6331SOL    HW230453   1.858   2.664   6.869 -3.3525  1.6501  2.2145
 6332SOL     OW30454   0.437   3.481  12.309 -0.7277 -0.1621 -0.3380
 6332SOL    HW130455   0.446   3.426  12.231  3.0229  0.7495 -0.5508
 6332SOL    HW230456   0.435   3.420  12.382  1.3449 -1.5497 -1.4373
 6333SOL     OW30457   2.701   0.569   4.179 -0.2757  0.3841 -0.3590
 6333SOL    HW130458   2.706   0.642   4.117 -2.8333  2.1632  1.5499
 6333SOL    HW230459   2.779   0.516   4.160 -0.5865 -0.1639 -0.1162
 6334SOL     OW30460   1.962   0.927   4.551  0.3073  0.2515 -0.1785
 6334SOL    HW130461   2.050   0.949   4.581 -0.1011  0.9492  0.5088
 6334SOL    HW230462   1.956   0.989   4.478  1.3094  1.5139  0.8131
 6335SOL     OW30463   1.331   0.690  12.539 -0.2888  0.0325  0.0151
 6335SOL    HW130464   1.379   0.762  12.580  0.3324 -2.3587  3.4513
 6335SOL    HW230465   1.398   0.654  12.481 -0.1406 -2.2161  1.5974
 6336SOL     OW30466   0.504   4.540   4.290  0.6443  0.1207 -0.0812
 6336SOL    HW130467   0.412   4.550   4.265  1.2114 -0.0968 -2.3335
 6336SOL    HW230468   0.533   4.628   4.263  0.5953 -0.4584 -2.0718
 6337SOL     OW30469   4.220   2.482   2.817 -0.2284 -0.3413 -0.2012
 6337SOL    HW130470   4.212   2.575   2.797  0.2136  0.0116  1.2723
 6337SOL    HW230471   4.295   2.483   2.876  0.4817  1.2580 -1.1378
 6338SOL     OW30472   0.780   1.979  15.136 -0.4156  0.8555  0.4362
 6338SOL    HW130473   0.827   1.902  15.102  1.9444  1.7432  1.7320
 6338SOL    HW230474   0.715   1.927  15.183  0.7933  1.0976  2.3307
 6339SOL     OW30475   4.607   1.103   1.672  0.4218 -0.6501 -0.0239
 6339SOL    HW130476   4.577   1.155   1.597  1.3976 -0.5180 -0.3163
 6339SOL    HW230477   4.605   1.172   1.737  0.1382 -1.7803  1.1655
 6340SOL     OW30478   4.241   3.711   7.453 -0.3396  0.1013 -0.2678
 6340SOL    HW130479   4.173   3.666   7.403 -0.2153 -1.1970  0.7277
 6340SOL    HW230480   4.187   3.781   7.489 -0.1674 -0.8690  1.8902
 6341SOL     OW30481   1.467   4.616  11.047  0.0678  0.5095  0.1828
 6341SOL    HW130482   1.438   4.550  11.110 -0.2781  1.6821  1.2463
 6341SOL    HW230483   1.463   4.691  11.107  0.5645 -0.9623  2.0515
 6342SOL     OW30484   0.768   1.395   3.735 -0.0613  0.7387  0.0207
 6342SOL    HW130485   0.770   1.322   3.672  1.3222  1.0670 -0.3044
 6342SOL    HW230486   0.676   1.418   3.717 -0.3292  1.1550  1.9590
 6343SOL     OW30487   0.426   0.124   1.934 -0.4922 -0.3448  0.1141
 6343SOL    HW130488   0.396   0.197   1.881 -2.9797 -0.9968  0.6257
 6343SOL    HW230489   0.394   0.152   2.020  1.9285 -0.0817  0.9319
 6344SOL     OW30490   4.499   3.437   1.576  0.5339 -0.3681 -0.0383
 6344SOL    HW130491   4.446   3.480   1.643 -2.1766 -0.8178 -1.9082
 6344SOL    HW230492   4.583   3.483   1.579 -0.2813  1.0826  0.0564
 6345SOL     OW30493   3.178   3.234   2.170  0.2757  0.0020  0.0838
 6345SOL    HW130494   3.233   3.270   2.240  2.0139 -2.0399 -0.2496
 6345SOL    HW230495   3.120   3.307   2.147 -1.8442 -1.6847  0.0459
 6346SOL     OW30496   2.691   0.446   4.952 -0.4017  0.0766 -0.3768
 6346SOL    HW130497   2.687   0.378   5.019  2.2562  1.1893  0.9311
 6346SOL    HW230498   2.603   0.485   4.953 -0.1146  0.7235 -0.3579
 6347SOL     OW30499   0.819   3.454   5.652  0.0291 -0.8855 -0.1918
 6347SOL    HW130500   0.884   3.480   5.718  1.0297  0.9468 -1.9075
 6347SOL    HW230501   0.829   3.359   5.656  1.4417 -0.7000  0.8716
 6348SOL     OW30502   3.357   2.046   6.607  0.0840 -0.4128 -0.0956
 6348SOL    HW130503   3.357   1.984   6.535 -3.9871 -0.8980  0.3466
 6348SOL    HW230504   3.400   2.120   6.564  2.9500 -2.3732 -0.5954
 6349SOL     OW30505   2.172   1.329   2.362 -0.4310  0.4777  0.5243
 6349SOL    HW130506   2.188   1.250   2.413  1.3926 -1.4870 -3.0742
 6349SOL    HW230507   2.140   1.286   2.282  0.5556 -1.9978  1.4527
 6350SOL     OW30508   1.264   1.954   2.084  0.2116  0.0972  0.1108
 6350SOL    HW130509   1.235   1.863   2.076 -0.5633  0.3912 -0.4875
 6350SOL    HW230510   1.198   2.000   2.031  1.2616  0.5484 -0.8137
 6351SOL     OW30511   4.153   3.374   3.159  0.1712  0.1354  0.4574
 6351SOL    HW130512   4.108   3.297   3.194  0.4019  0.2472  1.0110
 6351SOL    HW230513   4.093   3.403   3.091  0.3604 -2.3168 -0.7525
 6352SOL     OW30514   3.063   0.575   3.362  0.2949 -0.0922 -0.8493
 6352SOL    HW130515   3.023   0.489   3.352 -1.5346  0.7334 -0.6724
 6352SOL    HW230516   3.074   0.587   3.457  0.7970 -1.1500 -0.7813
 6353SOL     OW30517   2.609   3.310   9.270 -0.1389  0.8049 -0.0463
 6353SOL    HW130518   2.600   3.234   9.327  2.0356  1.7582  1.5809
 6353SOL    HW230519   2.571   3.385   9.315  2.3172  1.9398  0.1334
 6354SOL     OW30520   0.770   2.373   7.969  0.4957  0.4135 -1.0095
 6354SOL    HW130521   0.680   2.396   7.993  0.6574  0.3871 -0.3905
 6354SOL    HW230522   0.759   2.328   7.885 -0.7336 -1.7034  0.2773
 6355SOL     OW30523   2.596   3.646   3.461  0.0651 -0.2153  0.1146
 6355SOL    HW130524   2.554   3.593   3.393 -1.5820  1.8254 -0.4388
 6355SOL    HW230525   2.563   3.610   3.543 -0.1645 -1.0250 -0.3319
 6356SOL     OW30526   0.133   1.039   5.267 -0.1313  0.7849  0.1957
 6356SOL    HW130527   0.128   0.999   5.180  0.7654  0.0298  0.4836
 6356SOL    HW230528   0.043   1.070   5.270 -0.2673  0.2923  1.1654
 6357SOL     OW30529   2.359   4.357   2.036  0.5127 -0.1418  0.3950
 6357SOL    HW130530   2.403   4.285   2.081 -1.3940 -1.7962 -0.3564
 6357SOL    HW230531   2.438   4.399   2.001 -1.4151  2.9498 -0.2209
 6358SOL     OW30532   2.999   4.106   5.984 -0.3096  0.2432 -0.4592
 6358SOL    HW130533   3.056   4.108   5.907 -0.8388 -1.0822 -0.8812
 6358SOL    HW230534   2.961   4.019   5.971 -1.2693  0.6031 -0.0023
 6359SOL     OW30535   3.340   3.253  11.413  0.4889 -0.1523 -0.6687
 6359SOL    HW130536   3.407   3.205  11.462  0.4117 -0.4221 -0.8279
 6359SOL    HW230537   3.299   3.304  11.483  1.5925  0.3813 -0.4096
 6360SOL     OW30538   2.649   4.426   7.116  0.4262 -0.3656 -0.0738
 6360SOL    HW130539   2.744   4.433   7.115  0.2535  1.4715 -2.7519
 6360SOL    HW230540   2.647   4.352   7.054 -2.5390  0.1919 -0.6253
 6361SOL     OW30541   3.037   4.140   4.273  0.0069 -0.2154  0.0932
 6361SOL    HW130542   2.986   4.109   4.199  2.2385 -2.2328 -0.5844
 6361SOL    HW230543   3.081   4.057   4.288  0.1929 -0.1080  0.1454
 6362SOL     OW30544   4.482   0.338   7.828 -0.1680  0.2276  0.0934
 6362SOL    HW130545   4.505   0.347   7.920 -1.5805  0.7806  0.3821
 6362SOL    HW230546   4.559   0.308   7.779  0.9500  1.8630  0.8606
 6363SOL     OW30547   2.486   2.048   6.040 -0.1359 -0.2443  0.0705
 6363SOL    HW130548   2.442   1.994   5.975 -0.2866  1.8609 -1.5677
 6363SOL    HW230549   2.416   2.111   6.059 -0.7940 -0.9182 -0.1097
 6364SOL     OW30550   2.224   2.365   0.430  0.7872  0.1020 -0.2396
 6364SOL    HW130551   2.143   2.378   0.480 -0.0741 -0.7883 -1.4026
 6364SOL    HW230552   2.185   2.379   0.344  1.2924 -0.1594 -0.5111
 6365SOL     OW30553   2.493   3.659   8.414 -0.1014  0.0328 -0.3598
 6365SOL    HW130554   2.413   3.676   8.464  0.8838  2.2867  0.4615
 6365SOL    HW230555   2.535   3.587   8.461  2.5959  0.5783 -1.9031
 6366SOL     OW30556   1.296   2.344   5.482 -0.1857  0.2140 -0.0596
 6366SOL    HW130557   1.273   2.404   5.553 -0.0645  0.8772 -0.5821
 6366SOL    HW230558   1.363   2.393   5.434 -1.4294  0.6185 -1.3570
 6367SOL     OW30559   0.554   3.014   2.602  0.3325  0.0136 -0.4118
 6367SOL    HW130560   0.545   3.036   2.509 -0.1181 -0.7358 -0.5448
 6367SOL    HW230561   0.459   3.013   2.614  0.2887 -1.7584 -0.9754
 6368SOL     OW30562   0.505   3.903   4.067 -0.1446 -0.0881 -0.4262
 6368SOL    HW130563   0.496   3.809   4.076  0.0066  0.0143  0.7987
 6368SOL    HW230564   0.584   3.918   4.120 -1.3119 -3.3910  2.2090
 6369SOL     OW30565   0.262   2.379  15.039 -0.0409  0.3757  0.6700
 6369SOL    HW130566   0.294   2.368  14.949  0.1333 -2.0585  1.0070
 6369SOL    HW230567   0.331   2.430  15.082 -0.4258  0.1875  1.5191
 6370SOL     OW30568   2.462   4.077   6.576  0.4380  0.2128  0.0623
 6370SOL    HW130569   2.484   3.991   6.612 -0.7260  0.3178  1.0322
 6370SOL    HW230570   2.545   4.092   6.530 -1.1446  1.5809 -2.3559
 6371SOL     OW30571   1.759   1.591  10.879 -0.3468 -0.0740 -0.4471
 6371SOL    HW130572   1.838   1.578  10.826 -1.3537  2.3410 -2.5232
 6371SOL    HW230573   1.733   1.680  10.857  1.0630  0.2730 -0.6555
 6372SOL     OW30574   1.574   0.310   5.855  0.3201  0.3785  0.5783
 6372SOL    HW130575   1.617   0.392   5.880  4.5154 -1.2335 -1.3036
 6372SOL    HW230576   1.646   0.251   5.831 -0.2815  0.2349 -0.9017
 6373SOL     OW30577   2.609   0.246   8.789  0.0700  0.4222 -0.5269
 6373SOL    HW130578   2.515   0.264   8.791 -0.0460 -0.4321  1.3064
 6373SOL    HW230579   2.650   0.308   8.849  0.4478 -0.2666 -0.0809
 6374SOL     OW30580   3.906   2.581   7.141  0.6553 -0.1402 -0.4992
 6374SOL    HW130581   3.949   2.496   7.141  4.1979  1.6521  1.4850
 6374SOL    HW230582   3.980   2.639   7.158  0.3232 -0.0806  0.7414
 6375SOL     OW30583   0.826   0.099   8.432 -0.2597 -0.0471 -0.3057
 6375SOL    HW130584   0.815   0.121   8.339 -2.3134  1.6617  0.3678
 6375SOL    HW230585   0.857   0.009   8.421  1.5070  0.1432  3.1407
 6376SOL     OW30586   2.842   1.041   9.973 -0.7528 -0.3524  0.0503
 6376SOL    HW130587   2.876   1.064  10.059  0.9083  2.6398 -1.4059
 6376SOL    HW230588   2.865   1.123   9.929  0.1793  0.5512  2.2589
 6377SOL     OW30589   3.381   4.392   0.307 -0.4679 -0.3136  0.6109
 6377SOL    HW130590   3.289   4.421   0.303  0.5149  2.4868 -1.6455
 6377SOL    HW230591   3.424   4.469   0.270 -1.6787  1.7458  3.4216
 6378SOL     OW30592   3.435   3.741   5.836  0.1021  0.0930 -0.1595
 6378SOL    HW130593   3.433   3.655   5.793  0.8409  0.3365 -0.6809
 6378SOL    HW230594   3.519   3.773   5.802 -0.2238  2.0678  0.9573
 6379SOL     OW30595   0.749   2.432  17.679 -0.3621  0.0752 -0.2336
 6379SOL    HW130596   0.667   2.405  17.639 -0.9443  1.3337  0.1313
 6379SOL    HW230597   0.734   2.481   0.052  1.1280  1.2220 -0.6417
 6380SOL     OW30598   0.849   2.550   4.145 -0.0827 -0.1974  0.8058
 6380SOL    HW130599   0.760   2.559   4.111  0.7983  1.2581 -1.0972
 6380SOL    HW230600   0.880   2.489   4.077 -2.0364  0.0313 -0.2930
 6381SOL     OW30601   0.439   0.735   4.385 -0.2500 -0.1145  0.6808
 6381SOL    HW130602   0.517   0.768   4.342 -0.8810  0.3712 -0.0976
 6381SOL    HW230603   0.383   0.702   4.315 -0.0392 -1.0250  0.9495
 6382SOL     OW30604   1.554   3.618   7.027 -0.2016 -0.3905 -0.4938
 6382SOL    HW130605   1.591   3.698   6.991 -4.5042  1.8767  0.0698
 6382SOL    HW230606   1.461   3.634   7.008 -0.6930 -1.3808  1.1289
 6383SOL     OW30607   3.114   0.912   4.735 -0.6109  0.4384 -0.0577
 6383SOL    HW130608   3.152   0.824   4.737  1.6569  1.3909 -1.4982
 6383SOL    HW230609   3.066   0.914   4.652 -0.7906  0.4521  0.0458
 6384SOL     OW30610   0.263   4.206  16.017  0.1667 -0.0520  0.4097
 6384SOL    HW130611   0.259   4.243  16.105 -0.7752  0.4348  0.1649
 6384SOL    HW230612   0.247   4.111  16.018  0.5593 -0.1313 -1.5654
 6385SOL     OW30613   4.337   1.088  15.727  0.2020 -0.1188 -0.1995
 6385SOL    HW130614   4.317   1.162  15.785  1.9937  0.2203  0.0020
 6385SOL    HW230615   4.328   1.135  15.644 -1.4493 -2.6753 -1.4424
 6386SOL     OW30616   4.374   3.752   4.448  0.3010  0.2209 -0.2955
 6386SOL    HW130617   4.436   3.825   4.444 -2.0244  2.0796 -2.0606
 6386SOL    HW230618   4.299   3.808   4.467 -0.4280 -1.4372  1.7255
 6387SOL     OW30619   0.142   2.891   5.250  0.3175 -0.1956 -0.3202
 6387SOL    HW130620   0.047   2.906   5.249  0.5299  1.3292  3.6866
 6387SOL    HW230621   0.142   2.800   5.279  1.1316 -0.2280 -0.4322
 6388SOL     OW30622   1.878   0.067   2.767 -0.2341 -0.0172  0.3631
 6388SOL    HW130623   1.805   0.094   2.824 -1.6423 -0.5866 -1.1591
 6388SOL    HW230624   1.864   0.108   2.682 -0.8962  2.9850  1.9250
 6389SOL     OW30625   3.800   0.250   5.128  0.5146 -0.1238 -0.8857
 6389SOL    HW130626   3.891   0.223   5.141  0.2261 -1.4157 -1.5499
 6389SOL    HW230627   3.788   0.335   5.170  0.0029 -1.8811  2.5648
 6390SOL     OW30628   0.795   2.192   7.743  0.6408  0.7863 -0.0082
 6390SOL    HW130629   0.756   2.214   7.659  1.8738 -0.6491 -0.9764
 6390SOL    HW230630   0.882   2.228   7.725  1.5618 -0.7478  1.2995
 6391SOL     OW30631   2.064   2.815   8.340 -0.1040  0.1384 -0.2652
 6391SOL    HW130632   2.105   2.736   8.305 -2.3030 -1.3421  0.4707
 6391SOL    HW230633   1.974   2.788   8.358  0.6742 -1.0443  1.8005
 6392SOL     OW30634   0.558   3.608   1.772  0.8692 -0.5147 -0.3343
 6392SOL    HW130635   0.609   3.634   1.848 -1.3097 -0.4473  1.0781
 6392SOL    HW230636   0.598   3.662   1.704 -0.9776 -0.4508 -1.3791
 6393SOL     OW30637   3.200   1.186   7.901 -0.0226 -0.2255 -0.0401
 6393SOL    HW130638   3.197   1.147   7.814 -2.0302 -0.1168 -0.0089
 6393SOL    HW230639   3.109   1.189   7.928  0.5862  4.9627  1.2949
 6394SOL     OW30640   3.141   0.067   8.719 -0.3488 -0.0724 -0.4835
 6394SOL    HW130641   3.202   0.022   8.660 -1.7611  0.6508 -2.5206
 6394SOL    HW230642   3.069   0.004   8.724 -0.5499  0.3940  2.1343
 6395SOL     OW30643   2.435   1.731  10.726  0.0177  0.2138 -0.0242
 6395SOL    HW130644   2.528   1.744  10.707  0.3677 -1.7590  0.3486
 6395SOL    HW230645   2.399   1.788  10.658  0.2334  0.8918  0.4203
 6396SOL     OW30646   0.936   0.077   5.161 -0.8337 -0.7007  0.6235
 6396SOL    HW130647   1.005   0.020   5.129 -1.0959 -0.0962 -1.0101
 6396SOL    HW230648   0.888   0.027   5.228 -0.7802  0.4978  1.5706
 6397SOL     OW30649   0.140   0.713   6.831 -0.1857 -0.1209 -0.2370
 6397SOL    HW130650   0.155   0.803   6.861 -0.9853 -0.1126  0.1444
 6397SOL    HW230651   0.174   0.662   6.905 -1.1055  0.3578  0.5105
 6398SOL     OW30652   4.112   1.148   5.605 -0.0991  0.1195  0.4671
 6398SOL    HW130653   4.102   1.241   5.627 -2.3931  0.2946 -1.2007
 6398SOL    HW230654   4.193   1.149   5.555 -1.7458  1.1610 -2.2323
 6399SOL     OW30655   2.662   1.116  14.463 -0.2060 -0.8378  0.2888
 6399SOL    HW130656   2.700   1.066  14.391 -2.5996  0.2106 -1.6906
 6399SOL    HW230657   2.741   1.145  14.508 -0.7765 -0.8607  1.3050
 6400SOL     OW30658   2.050   4.169  10.704  0.2256 -0.7648  0.1586
 6400SOL    HW130659   2.061   4.245  10.646 -3.4791 -0.5285 -0.2634
 6400SOL    HW230660   1.957   4.181  10.725  0.4801  0.1927  0.7260
 6401SOL     OW30661   2.459   4.008   8.227 -0.4884 -0.1417  0.2459
 6401SOL    HW130662   2.523   4.015   8.298  1.1849 -2.7889 -0.9851
 6401SOL    HW230663   2.381   3.977   8.273 -0.5443 -0.4941 -0.0839
 6402SOL     OW30664   0.028   4.305  11.325 -0.3361  0.0944  0.3241
 6402SOL    HW130665   0.002   4.284  11.235  0.9034  0.1789 -0.0468
 6402SOL    HW230666   4.706   4.230  11.359 -1.7832 -0.0951 -2.1128
 6403SOL     OW30667   3.069   3.871  10.930 -0.1374  0.0771  0.0484
 6403SOL    HW130668   3.099   3.851  10.841 -0.2607 -0.6869  0.1794
 6403SOL    HW230669   3.032   3.786  10.950 -1.7608  0.9446  0.7740
 6404SOL     OW30670   2.798   1.749  14.992  0.4116  0.4399 -0.3184
 6404SOL    HW130671   2.794   1.692  14.915 -1.8358  0.0876  0.0557
 6404SOL    HW230672   2.836   1.830  14.959 -1.6146  1.7843  0.6367
 6405SOL     OW30673   3.089   2.955   6.071  0.8765 -0.2346  0.1572
 6405SOL    HW130674   3.013   2.981   6.123 -1.1487 -3.9777 -0.9740
 6405SOL    HW230675   3.100   2.862   6.087 -0.6389 -0.5206 -0.4741
 6406SOL     OW30676   1.720   1.706  15.392  0.1854 -0.3200  0.2869
 6406SOL    HW130677   1.766   1.627  15.363  0.7624 -0.2860  1.1040
 6406SOL    HW230678   1.711   1.692  15.486  1.5082 -1.5790  0.2401
 6407SOL     OW30679   2.064   4.360   2.018 -0.3621  0.1652 -0.7359
 6407SOL    HW130680   2.096   4.443   2.053 -0.6103  0.2350 -0.6754
 6407SOL    HW230681   2.149   4.320   1.997  0.0035  1.2110 -1.2620
 6408SOL     OW30682   0.398   0.421   2.851 -0.3511  0.4519  0.3163
 6408SOL    HW130683   0.340   0.497   2.852 -0.2604  0.5252  0.0336
 6408SOL    HW230684   0.353   0.344   2.816 -0.3261  1.2653 -1.4655
 6409SOL     OW30685   2.807   0.564   1.910  0.3866 -0.0656 -0.1168
 6409SOL    HW130686   2.763   0.482   1.934  1.8691 -0.4374  1.3933
 6409SOL    HW230687   2.812   0.610   1.994 -0.1988 -1.5275  0.7281
 6410SOL     OW30688   3.444   4.482   7.453 -0.0127 -0.1788  1.2437
 6410SOL    HW130689   3.406   4.488   7.365  0.6341 -0.3987  0.9498
 6410SOL    HW230690   3.376   4.527   7.504  2.1970  3.8015  0.6945
 6411SOL     OW30691   3.370   2.995   2.629 -0.9608 -0.0835 -0.1916
 6411SOL    HW130692   3.423   3.043   2.693  0.3551 -1.9721  0.1309
 6411SOL    HW230693   3.407   3.040   2.553  0.0436  0.2113  0.4637
 6412SOL     OW30694   0.205   0.150  12.715 -0.0982 -0.0051  0.4398
 6412SOL    HW130695   0.218   0.213  12.786 -0.3972  0.9955 -0.4010
 6412SOL    HW230696   0.184   0.072  12.767  0.0253 -0.3718 -0.0639
 6413SOL     OW30697   1.147   2.601  11.411 -0.2919  0.3819  0.2023
 6413SOL    HW130698   1.108   2.671  11.464 -0.6318 -0.4399  1.0540
 6413SOL    HW230699   1.217   2.653  11.373 -1.4028 -0.0174 -2.3377
 6414SOL     OW30700   1.609   3.667   7.299  0.0052  0.2096 -0.2259
 6414SOL    HW130701   1.670   3.599   7.328  0.6044  0.4899 -0.8255
 6414SOL    HW230702   1.579   3.638   7.213  2.1277  2.0309 -1.5753
 6415SOL     OW30703   1.087   2.451   3.553  0.1965 -0.1110  0.2887
 6415SOL    HW130704   1.103   2.420   3.464 -0.1402 -1.1001  0.5764
 6415SOL    HW230705   1.105   2.374   3.607  0.6011  0.0215  0.3400
 6416SOL     OW30706   3.097   2.248   0.622 -0.1715  0.5760 -0.2220
 6416SOL    HW130707   3.041   2.271   0.549 -0.7997 -1.4925 -0.3930
 6416SOL    HW230708   3.158   2.187   0.580  1.8601  1.5578  1.2565
 6417SOL     OW30709   1.612   2.420  12.296  0.1673  0.6833  0.0072
 6417SOL    HW130710   1.630   2.504  12.337  1.4907  1.0609 -1.3298
 6417SOL    HW230711   1.596   2.450  12.207 -0.6511 -0.3986 -0.2155
 6418SOL     OW30712   0.608   3.015   1.726  0.7666  0.4305 -0.4983
 6418SOL    HW130713   0.524   2.968   1.729  0.8255  0.4612  1.6999
 6418SOL    HW230714   0.583   3.095   1.680  3.0864 -0.1511 -2.7622
 6419SOL     OW30715   1.226   0.152   3.937  0.5663 -0.4683  0.5466
 6419SOL    HW130716   1.158   0.192   3.991  0.1521  1.0392 -1.1160
 6419SOL    HW230717   1.299   0.213   3.934  0.1638  0.1016  2.0175
 6420SOL     OW30718   2.519   4.620   0.936  0.6004  0.2006 -0.2293
 6420SOL    HW130719   2.457   4.634   1.008  0.0058  2.4295 -1.1782
 6420SOL    HW230720   2.600   4.638   0.982  0.6260 -1.9385  0.5696
 6421SOL     OW30721   1.150   1.304   2.578  0.1245  0.0242 -0.9873
 6421SOL    HW130722   1.097   1.343   2.647  0.3846 -0.6525 -0.4070
 6421SOL    HW230723   1.109   1.218   2.570  2.1529 -1.1589  1.4204
 6422SOL     OW30724   0.064   2.618   9.519  0.1778  0.0503  0.1275
 6422SOL    HW130725   0.116   2.557   9.465 -0.1596 -1.6580  1.7311
 6422SOL    HW230726   0.126   2.657   9.580 -1.4818  0.6809  1.3878
 6423SOL     OW30727   1.208   2.892   4.179  0.0798 -0.1466  0.4774
 6423SOL    HW130728   1.169   2.815   4.220 -0.1543  0.8211  2.0729
 6423SOL    HW230729   1.127   2.936   4.152  0.0817 -1.6928 -1.9666
 6424SOL     OW30730   0.066   2.563   5.265  0.8456 -0.2666  0.4654
 6424SOL    HW130731   4.698   2.550   5.266  0.5761  1.7315 -0.1951
 6424SOL    HW230732   0.091   2.495   5.328  0.6998 -1.2374 -0.5229
 6425SOL     OW30733   3.366   0.528  14.123 -0.3647  0.0566  0.1180
 6425SOL    HW130734   3.454   0.566  14.121 -0.1032 -0.5724 -0.7947
 6425SOL    HW230735   3.325   0.577  14.194  1.9202  2.3999 -0.2040
 6426SOL     OW30736   2.518   2.412   4.776 -0.3650 -0.0789  0.0681
 6426SOL    HW130737   2.516   2.473   4.701  1.5121  0.0382  0.1220
 6426SOL    HW230738   2.538   2.474   4.846 -0.3598  1.3769 -1.2218
 6427SOL     OW30739   1.364   1.109   6.331 -0.1483  0.1317 -0.4283
 6427SOL    HW130740   1.419   1.186   6.350 -0.2414  0.4512 -1.4547
 6427SOL    HW230741   1.292   1.124   6.393  0.6835  0.5846  0.4439
 6428SOL     OW30742   3.712   2.512  11.709 -0.4484 -0.0511 -0.1659
 6428SOL    HW130743   3.780   2.444  11.709 -1.5606 -1.1635 -0.1444
 6428SOL    HW230744   3.760   2.584  11.666  0.0488  0.2950  0.9789
 6429SOL     OW30745   4.298   2.555   0.677  0.1726 -0.6110 -0.5141
 6429SOL    HW130746   4.364   2.506   0.726 -0.6560  1.7635  2.9475
 6429SOL    HW230747   4.338   2.561   0.590  3.0429  1.5335  0.9359
 6430SOL     OW30748   3.827   1.956  11.768  0.1384  0.2351  0.5174
 6430SOL    HW130749   3.892   1.969  11.837 -0.1872  2.7238  0.3599
 6430SOL    HW230750   3.765   1.901  11.816 -1.3323  0.1995 -1.4387
 6431SOL     OW30751   4.533   2.983  14.003  0.3566  0.3535  0.1613
 6431SOL    HW130752   4.506   2.891  14.010 -0.0974  0.5091  0.4300
 6431SOL    HW230753   4.572   2.999  14.089  2.9038  0.7248 -1.0647
 6432SOL     OW30754   0.813   2.391   1.631  0.1344  0.1693  0.9256
 6432SOL    HW130755   0.885   2.364   1.574 -0.4986  1.0900 -0.3034
 6432SOL    HW230756   0.808   2.482   1.603  0.3399 -0.2274 -0.3857
 6433SOL     OW30757   1.548   2.931   4.305 -0.1885 -0.1232 -0.3067
 6433SOL    HW130758   1.587   2.986   4.373 -0.8140 -1.2231  0.9328
 6433SOL    HW230759   1.622   2.917   4.246 -0.7733  0.6616 -1.2422
 6434SOL     OW30760   2.868   1.849   0.504  0.0047  0.0062 -0.0080
 6434SOL    HW130761   2.810   1.925   0.508 -0.3685 -0.3778  1.8555
 6434SOL    HW230762   2.929   1.878   0.436 -1.0433  1.1566 -0.4684
 6435SOL     OW30763   0.988   1.401  14.885 -0.5122 -0.6953 -0.4524
 6435SOL    HW130764   0.968   1.307  14.886  0.2508 -0.8498  1.0749
 6435SOL    HW230765   1.067   1.401  14.939  0.1538 -0.0235 -1.4376
 6436SOL     OW30766   2.871   3.737  11.933  0.3176  0.4015  0.3513
 6436SOL    HW130767   2.903   3.664  11.881  0.0785  0.4820  0.0892
 6436SOL    HW230768   2.841   3.791  11.859 -0.1551  0.4876  0.6041
 6437SOL     OW30769   3.482   4.545   0.992 -0.3511 -0.5857  0.0827
 6437SOL    HW130770   3.404   4.491   1.007  1.3725 -2.6113  1.7130
 6437SOL    HW230771   3.442   4.632   0.993 -1.8967 -1.2961  0.4475
 6438SOL     OW30772   0.127   3.152   6.138 -0.4671  0.1709 -0.1900
 6438SOL    HW130773   0.217   3.184   6.135 -0.5769  0.4192 -0.7952
 6438SOL    HW230774   0.088   3.210   6.073  0.7307  0.7031 -0.4315
 6439SOL     OW30775   4.549   2.735   2.076  0.0147 -0.2545  0.0633
 6439SOL    HW130776   4.501   2.814   2.052  2.1351  0.4668 -1.8160
 6439SOL    HW230777   4.495   2.694   2.144  1.0585  1.1862  1.7693
 6440SOL     OW30778   0.276   3.667  14.700 -0.6742 -0.3526 -0.2319
 6440SOL    HW130779   0.308   3.599  14.640  1.9167  0.0177  0.7342
 6440SOL    HW230780   0.200   3.620  14.734  1.7409 -1.7604  3.1991
 6441SOL     OW30781   0.102   0.708   8.725  0.0147 -0.8212 -0.5517
 6441SOL    HW130782   0.177   0.747   8.770 -0.5255  1.2100 -1.3930
 6441SOL    HW230783   0.141   0.642   8.668  2.3004  1.0252 -1.1053
 6442SOL     OW30784   0.425   1.505   5.149  0.5639  0.3449  0.3546
 6442SOL    HW130785   0.515   1.483   5.127  0.1738 -0.7425 -0.1892
 6442SOL    HW230786   0.372   1.428   5.170  2.7763 -1.2336  0.0791
 6443SOL     OW30787   2.948   0.756   5.072  0.2990  0.2128  0.0089
 6443SOL    HW130788   3.019   0.802   5.116 -0.9240  2.2670 -0.1690
 6443SOL    HW230789   2.882   0.825   5.081  2.6219  2.2993  1.1509
 6444SOL     OW30790   1.941   0.048   0.609 -0.0991  0.4822  0.0747
 6444SOL    HW130791   1.963   4.681   0.605 -1.7751  0.2161 -3.1636
 6444SOL    HW230792   1.847   0.034   0.623  0.0106 -1.0760 -0.7429
 6445SOL     OW30793   1.351   2.587   3.378  0.7157  0.8045  0.0278
 6445SOL    HW130794   1.329   2.606   3.469 -1.0773 -0.0452 -0.2175
 6445SOL    HW230795   1.422   2.523   3.381  0.4430  0.4231 -1.7203
 6446SOL     OW30796   0.352   2.437  15.976  0.7593 -0.0949  0.3949
 6446SOL    HW130797   0.314   2.507  15.923  0.3125 -0.4842  0.1952
 6446SOL    HW230798   0.442   2.447  15.945  0.7894  0.7175  0.7494
 6447SOL     OW30799   0.598   1.049   8.920 -0.0346  0.5740  0.9103
 6447SOL    HW130800   0.668   1.098   8.964  0.1326  0.2903  0.9575
 6447SOL    HW230801   0.527   1.080   8.977 -0.7212  1.1384 -0.2603
 6448SOL     OW30802   3.197   0.973   8.073  0.6158 -0.1983 -0.1876
 6448SOL    HW130803   3.208   1.036   8.001  0.6684  1.4274  1.2350
 6448SOL    HW230804   3.120   0.933   8.034  1.2350 -2.2323  0.7020
 6449SOL     OW30805   3.110   1.654   6.263 -0.4704  0.1035 -0.1772
 6449SOL    HW130806   3.035   1.604   6.294  1.3975 -2.2492  0.5960
 6449SOL    HW230807   3.184   1.597   6.284 -0.8617 -1.0113 -1.8868
 6450SOL     OW30808   0.063   2.609   4.978  0.3256  0.2078  0.0169
 6450SOL    HW130809   4.696   2.625   4.977  0.5484  1.5782  1.3411
 6450SOL    HW230810   0.080   2.591   5.070 -1.0882 -0.0918  0.2188
 6451SOL     OW30811   3.784   3.159   6.672 -0.4014  0.6232  0.0859
 6451SOL    HW130812   3.809   3.078   6.628  0.4961  1.1110 -0.3154
 6451SOL    HW230813   3.689   3.164   6.662 -0.6897  0.7778  2.8928
 6452SOL     OW30814   2.662   0.923  12.470  0.4338  0.2567 -0.4191
 6452SOL    HW130815   2.659   0.892  12.380 -0.2158 -2.4838  0.5222
 6452SOL    HW230816   2.742   0.878  12.498 -0.9301 -0.7348  1.9089
 6453SOL     OW30817   1.907   4.021   7.766  0.0881 -0.5391  0.4213
 6453SOL    HW130818   1.832   4.027   7.825  0.2778 -0.3737  0.6429
 6453SOL    HW230819   1.867   3.964   7.700  1.2077 -0.2861 -0.4717
 6454SOL     OW30820   1.829   1.314   5.077  0.1902 -0.3867  0.4822
 6454SOL    HW130821   1.864   1.351   5.158 -2.7920  0.0448  1.5686
 6454SOL    HW230822   1.768   1.249   5.112  0.9579 -0.9608  0.7506
 6455SOL     OW30823   4.033   4.457   7.747 -0.3550  0.0645 -0.3327
 6455SOL    HW130824   4.031   4.486   7.656  0.8045 -0.3532 -0.4911
 6455SOL    HW230825   4.021   4.365   7.727  1.1075  0.0093 -0.9766
 6456SOL     OW30826   0.949   2.804   6.309  0.0395  0.0043 -0.3404
 6456SOL    HW130827   0.863   2.773   6.282 -0.5512  1.3495  0.0436
 6456SOL    HW230828   0.984   2.729   6.357 -0.1861 -0.4793 -0.9348
 6457SOL     OW30829   0.598   0.165   9.713 -0.6380  0.0482  0.2718
 6457SOL    HW130830   0.516   0.119   9.726 -0.0430 -1.9571 -3.0942
 6457SOL    HW230831   0.657   0.114   9.769  2.0272  2.3139 -0.4220
 6458SOL     OW30832   2.982   1.581   9.694 -0.3333 -0.4609 -0.4007
 6458SOL    HW130833   3.072   1.599   9.722 -0.4184  0.1853 -0.5299
 6458SOL    HW230834   3.002   1.540   9.610  0.6568 -2.4188  0.8009
 6459SOL     OW30835   1.877   3.935  10.059 -1.0643  0.4325 -0.1753
 6459SOL    HW130836   1.935   3.941   9.984  0.0940  2.1387  0.8615
 6459SOL    HW230837   1.828   3.857  10.033 -0.1395  0.7188 -2.7910
 6460SOL     OW30838   0.042   2.991   2.521 -0.1220  0.2283  0.1740
 6460SOL    HW130839   4.709   3.029   2.586  0.7350 -0.6727  1.4965
 6460SOL    HW230840   4.706   2.947   2.464 -0.3493  0.6653  0.0869
 6461SOL     OW30841   3.063   1.149  10.891  0.2577  0.4373 -0.0347
 6461SOL    HW130842   2.968   1.144  10.880  0.1039  3.2882 -0.0938
 6461SOL    HW230843   3.093   1.210  10.824  0.0194 -0.6651 -1.1455
 6462SOL     OW30844   3.039   4.271   1.975  0.1848 -0.3556  0.1053
 6462SOL    HW130845   3.122   4.228   1.996  0.4071 -0.8630 -1.8325
 6462SOL    HW230846   3.047   4.358   2.013  0.4797 -0.4379  0.2299
 6463SOL     OW30847   3.537   0.830   1.446  0.7689  0.4845 -0.1310
 6463SOL    HW130848   3.518   0.879   1.366 -2.2337 -0.0986  0.1946
 6463SOL    HW230849   3.604   0.766   1.425 -0.2883  0.0605 -2.2627
 6464SOL     OW30850   0.870   0.759   8.737  0.1220 -0.6273  0.5562
 6464SOL    HW130851   0.826   0.684   8.697  1.3492 -0.6116 -0.8273
 6464SOL    HW230852   0.937   0.791   8.677 -1.9429 -1.1482 -2.0364
 6465SOL     OW30853   2.240   0.976  10.051 -0.0800  0.2215 -0.4601
 6465SOL    HW130854   2.157   1.012  10.083 -0.9608 -1.1044 -1.2239
 6465SOL    HW230855   2.266   1.028   9.975  0.3624  0.7551  0.0555
 6466SOL     OW30856   1.962   2.399   6.453  0.2266 -0.6276  0.0828
 6466SOL    HW130857   1.954   2.465   6.385 -2.4374 -0.1965  0.8209
 6466SOL    HW230858   1.875   2.420   6.486  0.2039  0.8715 -0.9194
 6467SOL     OW30859   4.408   3.682   4.169  0.4898 -0.0000 -0.3111
 6467SOL    HW130860   4.430   3.678   4.262 -0.6371 -0.0946 -0.0451
 6467SOL    HW230861   4.465   3.614   4.134  1.8811 -0.1843  2.3783
 6468SOL     OW30862   2.965   4.115   0.374 -0.4747 -0.1673 -0.3363
 6468SOL    HW130863   2.908   4.138   0.300 -0.6841  0.7335  0.1043
 6468SOL    HW230864   3.056   4.120   0.344 -0.2542 -0.6506  0.2505
 6469SOL     OW30865   4.257   1.661   6.938  0.1689 -0.1131  0.2690
 6469SOL    HW130866   4.340   1.661   6.986 -0.2525  3.7814  0.9884
 6469SOL    HW230867   4.276   1.741   6.888  0.4328  0.8320  1.8806
 6470SOL     OW30868   3.071   1.143  11.450  0.4464  0.6555 -0.4417
 6470SOL    HW130869   3.047   1.198  11.375  2.4575  0.3172 -1.3378
 6470SOL    HW230870   3.107   1.215  11.502  0.2052  1.5215 -1.4581
 6471SOL     OW30871   1.571   3.109  10.012 -0.6083  0.4483  0.1548
 6471SOL    HW130872   1.495   3.109  10.071  0.2287  1.2304  1.2413
 6471SOL    HW230873   1.629   3.040  10.043 -0.5546  0.1760 -0.5641
 6472SOL     OW30874   2.265   4.183  14.197 -0.1135  0.1241  0.1181
 6472SOL    HW130875   2.265   4.249  14.267 -0.4350 -1.9845  2.0987
 6472SOL    HW230876   2.200   4.117  14.221  0.3496  0.1648  1.5155
 6473SOL     OW30877   1.425   0.822   4.100 -0.2911 -0.1637 -0.1811
 6473SOL    HW130878   1.448   0.818   4.192 -2.8254  0.5123  0.4958
 6473SOL    HW230879   1.449   0.909   4.066 -0.4600  0.3902  1.1368
 6474SOL     OW30880   1.833   1.534   5.588 -0.1369  0.2222 -0.1605
 6474SOL    HW130881   1.869   1.622   5.596  0.7352  0.1318 -3.0943
 6474SOL    HW230882   1.744   1.549   5.620  0.6213 -0.2615  2.1965
 6475SOL     OW30883   4.665   4.631  13.833  0.3546  0.2922  0.1183
 6475SOL    HW130884   4.720   4.595  13.904  1.1128 -0.8092 -1.0298
 6475SOL    HW230885   4.601   4.560  13.839 -0.4584  0.9977 -0.1714
 6476SOL     OW30886   2.192   1.675   8.038 -0.4176 -0.1429  0.3219
 6476SOL    HW130887   2.226   1.587   8.020  1.5671  0.5769  0.4482
 6476SOL    HW230888   2.164   1.664   8.129  0.1537  1.1378  0.6496
 6477SOL     OW30889   4.581   3.700   4.702  0.0795  0.5861  0.2150
 6477SOL    HW130890   4.677   3.705   4.705  0.2090 -0.3185 -2.6835
 6477SOL    HW230891   4.576   3.609   4.733 -0.1070  0.5738  0.1503
 6478SOL     OW30892   2.952   1.632   9.017 -0.4547 -0.3080  0.3068
 6478SOL    HW130893   3.009   1.708   9.030 -0.9326  0.1491 -0.2692
 6478SOL    HW230894   3.010   1.563   8.983  0.0137  0.9817 -1.5125
 6479SOL     OW30895   0.260   2.611  15.791  0.5225 -0.4911 -0.3022
 6479SOL    HW130896   0.284   2.699  15.762 -0.0408  0.2767  1.5191
 6479SOL    HW230897   0.306   2.559  15.726  1.0169  0.8523 -1.0209
 6480SOL     OW30898   0.965   4.604   9.022  0.3795  0.1434 -0.1829
 6480SOL    HW130899   1.003   4.691   9.013 -0.4436  0.4004 -1.1429
 6480SOL    HW230900   0.978   4.570   8.934 -0.1294  2.5660 -1.1848
 6481SOL     OW30901   2.966   1.976  12.843 -0.1483 -0.3343 -0.8200
 6481SOL    HW130902   2.896   1.984  12.907 -0.0148  0.2019 -0.7421
 6481SOL    HW230903   3.014   2.057  12.860 -2.5352  0.4485  2.1157
 6482SOL     OW30904   2.608   3.598   1.588 -0.1017 -0.3800  0.2937
 6482SOL    HW130905   2.698   3.584   1.618 -0.1804  0.4397  0.9116
 6482SOL    HW230906   2.556   3.566   1.661 -0.3436  1.3346  0.8685
 6483SOL     OW30907   2.157   4.201   2.343 -0.0736 -0.4410 -0.0862
 6483SOL    HW130908   2.116   4.226   2.260 -0.7480 -1.6613 -0.1132
 6483SOL    HW230909   2.227   4.266   2.355  1.0038 -1.6963  0.4234
 6484SOL     OW30910   4.217   1.407   0.042 -0.1093 -0.1126  0.5786
 6484SOL    HW130911   4.278   1.446   0.104  1.5530  0.0764 -1.1708
 6484SOL    HW230912   4.209   1.317   0.074 -0.0044 -0.6705 -0.9595
 6485SOL     OW30913   3.914   4.061   2.700  0.6472  0.1941 -0.0093
 6485SOL    HW130914   3.899   4.144   2.656  0.2475 -0.4852 -1.1457
 6485SOL    HW230915   3.979   4.018   2.644  1.9670 -0.1141  1.7467
 6486SOL     OW30916   3.032   1.965   7.171 -0.2429  0.6528 -0.5737
 6486SOL    HW130917   2.992   1.973   7.257  1.4955  0.1670  0.2795
 6486SOL    HW230918   3.092   1.894   7.194  0.3090  1.3933  0.2880
 6487SOL     OW30919   4.447   3.880   6.688 -0.3813 -0.0115 -0.1502
 6487SOL    HW130920   4.400   3.826   6.625 -2.1792 -2.3789  3.2281
 6487SOL    HW230921   4.395   3.863   6.766 -2.1219  1.4835 -0.9922
 6488SOL     OW30922   1.023   3.363   3.035  0.2782  0.0015 -0.2735
 6488SOL    HW130923   1.072   3.347   2.954  2.7299 -1.3228  1.4715
 6488SOL    HW230924   0.938   3.327   3.013  0.1396  0.1333  0.0508
 6489SOL     OW30925   2.872   0.425   3.199  0.1686 -0.0148  0.1185
 6489SOL    HW130926   2.886   0.404   3.291 -1.6884  0.0506  0.4186
 6489SOL    HW230927   2.840   0.515   3.212 -0.6321 -0.0931 -1.3911
 6490SOL     OW30928   1.285   1.230   4.547  0.6251  0.4775 -0.4730
 6490SOL    HW130929   1.348   1.281   4.496  1.4285  1.0038  1.0317
 6490SOL    HW230930   1.339   1.156   4.573 -0.4251  0.2595  1.0774
 6491SOL     OW30931   1.289   1.146   8.368  0.3834  0.5637  0.4434
 6491SOL    HW130932   1.372   1.120   8.407 -0.8830 -1.3924  1.8039
 6491SOL    HW230933   1.255   1.061   8.341 -0.8719  0.7429  1.4653
 6492SOL     OW30934   4.028   0.812  17.650  0.5810  0.4588  0.6079
 6492SOL    HW130935   4.034   0.873  17.576  0.4463  0.6692  0.7699
 6492SOL    HW230936   4.111   0.765  17.643  0.5505  0.4211  0.4833
 6493SOL     OW30937   3.422   2.016   2.931 -0.1972 -0.8424 -0.0696
 6493SOL    HW130938   3.368   2.070   2.874  0.9219 -2.1621 -2.4139
 6493SOL    HW230939   3.356   1.960   2.972  0.0128  0.1607  1.6423
 6494SOL     OW30940   2.152   3.340   0.303  0.0247 -0.6850  0.3318
 6494SOL    HW130941   2.081   3.276   0.314 -0.8504  0.1296 -0.6582
 6494SOL    HW230942   2.188   3.338   0.392  1.2236 -1.4743 -0.1732
 6495SOL     OW30943   3.894   0.748   5.788  0.4977 -0.0932 -0.1533
 6495SOL    HW130944   3.988   0.739   5.798  0.1054 -1.9901  1.8554
 6495SOL    HW230945   3.890   0.668   5.737  0.5582  1.2843 -2.3280
 6496SOL     OW30946   2.028   3.448   2.783  0.5338  0.4271  0.1780
 6496SOL    HW130947   2.076   3.369   2.807  0.2907 -0.3183 -1.7966
 6496SOL    HW230948   2.092   3.518   2.800  0.0126  0.8571  0.3729
 6497SOL     OW30949   1.874   1.344   1.349  0.1732 -0.2155 -0.4063
 6497SOL    HW130950   1.964   1.324   1.324 -0.0214 -2.4230  0.6109
 6497SOL    HW230951   1.889   1.419   1.406 -3.0374 -0.2855  0.5438
 6498SOL     OW30952   1.041   0.147   9.631  0.4412  0.0151 -0.3491
 6498SOL    HW130953   1.107   0.216   9.642 -0.9751  0.9264  2.1960
 6498SOL    HW230954   1.040   0.123   9.723 -2.1471 -1.3588 -0.7410
 6499SOL     OW30955   1.028   2.178   9.362  0.0403 -0.8732 -0.4648
 6499SOL    HW130956   1.098   2.211   9.418 -2.1449  0.4349  1.4686
 6499SOL    HW230957   1.076   2.109   9.317 -0.3294 -0.2597 -1.8006
 6500SOL     OW30958   3.408   0.691   3.432  0.7276  0.0194  0.0346
 6500SOL    HW130959   3.326   0.678   3.478  0.3989 -1.0593 -0.8457
 6500SOL    HW230960   3.432   0.600   3.416 -0.7570 -0.6579  1.7149
 6501SOL     OW30961   4.164   0.669   2.959 -0.2441 -0.4637  0.4034
 6501SOL    HW130962   4.204   0.591   2.998  2.8038  0.7463 -0.3398
 6501SOL    HW230963   4.211   0.741   3.002 -0.3534 -0.0042 -0.2406
 6502SOL     OW30964   3.074   2.648   8.358  0.2454  0.1040  0.2669
 6502SOL    HW130965   3.126   2.728   8.370  0.5934 -0.7410  4.3349
 6502SOL    HW230966   3.115   2.609   8.281 -0.4653 -0.2063  0.0481
 6503SOL     OW30967   1.305   1.826   1.589  0.3574 -0.4473 -0.2476
 6503SOL    HW130968   1.211   1.838   1.601  0.6383  0.7088  0.7751
 6503SOL    HW230969   1.329   1.909   1.630  0.4409 -1.1461  1.1297
 6504SOL     OW30970   4.080   3.796   8.300  0.3075 -0.8364 -0.1864
 6504SOL    HW130971   4.142   3.760   8.236 -0.2625  0.9118 -1.7378
 6504SOL    HW230972   4.139   3.838   8.362 -0.3635 -2.3334  1.4668
 6505SOL     OW30973   4.164   3.659   4.115  0.0256  0.0938  0.3205
 6505SOL    HW130974   4.192   3.572   4.143  3.1307  1.6385  2.0402
 6505SOL    HW230975   4.249   3.702   4.128  0.7995 -2.2810  3.0315
 6506SOL     OW30976   2.318   4.070   2.742  0.8641 -0.1309 -0.0368
 6506SOL    HW130977   2.388   4.041   2.684 -0.3404  0.4066 -1.7585
 6506SOL    HW230978   2.353   4.035   2.824 -2.0202 -0.1650  1.1987
 6507SOL     OW30979   3.221   2.758  14.712  0.5225  0.0010 -0.3032
 6507SOL    HW130980   3.216   2.845  14.752 -0.9157 -0.3387  0.2709
 6507SOL    HW230981   3.249   2.777  14.623 -2.2918  0.0825 -1.1711
 6508SOL     OW30982   0.422   2.333   2.188 -0.2690  0.3941 -0.6584
 6508SOL    HW130983   0.509   2.373   2.188  0.4636 -1.2374  1.3614
 6508SOL    HW230984   0.403   2.311   2.097 -0.4006 -1.7607 -0.1189
 6509SOL     OW30985   1.299   4.346   7.734 -0.4706 -0.0633  0.4622
 6509SOL    HW130986   1.324   4.381   7.649  2.7560  0.1062  1.4883
 6509SOL    HW230987   1.229   4.282   7.716  0.4037 -1.6086  2.5493
 6510SOL     OW30988   1.900   1.692   7.946 -0.1949 -0.1412 -0.3379
 6510SOL    HW130989   1.991   1.680   7.920 -0.4818  2.4005 -2.4922
 6510SOL    HW230990   1.874   1.602   7.965  1.8131 -0.4992  0.6079
 6511SOL     OW30991   3.879   0.434  16.519 -1.0942 -0.0337 -0.0048
 6511SOL    HW130992   3.929   0.507  16.481  1.5779 -1.0834  1.4771
 6511SOL    HW230993   3.943   0.375  16.558 -1.0765 -0.7603 -1.1341
 6512SOL     OW30994   3.207   0.046   2.408 -0.0437  0.0821 -0.0870
 6512SOL    HW130995   3.263   0.019   2.482  0.8062 -2.1270 -1.5509
 6512SOL    HW230996   3.255   0.126   2.385 -0.5206  0.1316 -0.8729
 6513SOL     OW30997   0.151   1.652   6.854 -0.0860 -0.8707  0.1908
 6513SOL    HW130998   0.169   1.734   6.900  0.4837 -1.5820  1.2173
 6513SOL    HW230999   0.231   1.603   6.838  0.0862 -0.0134 -1.6326
 6514SOL     OW31000   4.242   0.478   5.166  0.2513 -0.5738  0.0088
 6514SOL    HW131001   4.297   0.500   5.241  0.7791 -0.6283 -0.3664
 6514SOL    HW231002   4.163   0.528   5.189 -0.4763 -1.6362 -0.1603
 6515SOL     OW31003   4.665   1.333  11.542 -0.2919  0.3276  0.1379
 6515SOL    HW131004   0.021   1.309  11.583 -0.5217  1.1668  1.0928
 6515SOL    HW231005   4.654   1.424  11.570  0.6597 -0.0858  1.8145
 6516SOL     OW31006   1.631   3.699   3.809 -0.5449 -0.1095 -0.0284
 6516SOL    HW131007   1.586   3.689   3.725  5.5867  2.1378 -3.5966
 6516SOL    HW231008   1.589   3.637   3.868  0.8683 -1.7359 -0.7336
 6517SOL     OW31009   2.975   3.635  16.201  0.6142  1.0578  0.3127
 6517SOL    HW131010   3.017   3.605  16.120 -0.3865 -2.3825  1.0962
 6517SOL    HW231011   2.982   3.729  16.182  1.5283  1.2952  1.8639
 6518SOL     OW31012   1.696   0.733   7.428 -0.3055 -0.2553  0.4250
 6518SOL    HW131013   1.646   0.814   7.418 -0.6351 -0.3767  1.1100
 6518SOL    HW231014   1.629   0.682   7.383 -1.5129  1.0784  0.7215
 6519SOL     OW31015   3.402   0.837   2.212 -0.4513  0.6712 -0.4806
 6519SOL    HW131016   3.444   0.750   2.212 -1.4760  0.1850 -1.2014
 6519SOL    HW231017   3.379   0.827   2.120 -0.2567 -0.1426 -0.4475
 6520SOL     OW31018   1.505   1.098   3.872 -0.3024  0.1601  0.4445
 6520SOL    HW131019   1.599   1.094   3.852 -0.5595  1.1837 -1.0286
 6520SOL    HW231020   1.496   1.157   3.947 -0.2022  1.0077 -0.2056
 6521SOL     OW31021   0.364   2.867   7.648  0.5362 -0.4525 -0.4250
 6521SOL    HW131022   0.327   2.954   7.633 -1.0963 -0.6688  2.3701
 6521SOL    HW231023   0.290   2.810   7.631  0.1389  0.1812 -0.8354
 6522SOL     OW31024   2.782   1.570   9.978 -0.0214  0.4043 -0.5732
 6522SOL    HW131025   2.797   1.557  10.072 -0.3465  0.9009 -0.4585
 6522SOL    HW231026   2.706   1.514   9.964  0.4342 -0.2754 -0.3443
 6523SOL     OW31027   3.359   4.289   5.962 -0.3692 -0.3971  0.4934
 6523SOL    HW131028   3.442   4.335   5.976 -1.1376  0.6414  1.5876
 6523SOL    HW231029   3.343   4.264   6.053 -0.9628 -0.0430  0.4819
 6524SOL     OW31030   2.340   2.227   1.266 -0.4323 -0.5174  0.0382
 6524SOL    HW131031   2.351   2.300   1.205  1.5959  0.1859  1.2251
 6524SOL    HW231032   2.323   2.155   1.206  1.4836 -0.4150 -0.6313
 6525SOL     OW31033   2.163   0.845  12.695  0.0172 -0.6498  0.0802
 6525SOL    HW131034   2.249   0.832  12.656  0.2240  0.0276  0.3174
 6525SOL    HW231035   2.106   0.854  12.618 -0.5552 -2.4335  0.2923
 6526SOL     OW31036   1.739   2.156   9.916  0.5286  0.1574  0.2945
 6526SOL    HW131037   1.705   2.101   9.986 -1.9972  0.0190 -1.0569
 6526SOL    HW231038   1.833   2.155   9.934  0.8343 -0.7764 -1.3499
 6527SOL     OW31039   3.052   2.217   1.072 -0.0106  0.1886  0.1347
 6527SOL    HW131040   3.099   2.275   1.012 -1.4282 -0.7723 -1.9092
 6527SOL    HW231041   3.034   2.144   1.013 -2.3137  0.6086  0.2862
 6528SOL     OW31042   2.569   2.908  10.713  0.0750  0.1087 -0.3221
 6528SOL    HW131043   2.609   2.825  10.738  0.5484  0.6674  0.7610
 6528SOL    HW231044   2.584   2.961  10.791 -0.9882  0.3522 -0.2740
 6529SOL     OW31045   4.677   1.936   5.459 -0.2262  0.0375 -0.4471
 6529SOL    HW131046   4.686   2.017   5.511  0.9151 -1.4127  1.6366
 6529SOL    HW231047   4.593   1.946   5.415 -0.6539  0.2784  0.4268
 6530SOL     OW31048   3.884   4.532   5.669  0.4388 -0.3808 -0.0088
 6530SOL    HW131049   3.905   4.618   5.706 -0.7194 -0.4626  0.8347
 6530SOL    HW231050   3.973   4.520   5.636  1.3943 -0.3283  2.6340
 6531SOL     OW31051   4.550   0.288   4.483 -0.2508 -0.0736 -0.4063
 6531SOL    HW131052   4.560   0.271   4.576 -1.2594  1.3973 -0.0339
 6531SOL    HW231053   4.606   0.365   4.480  0.8430 -0.8215  0.8967
 6532SOL     OW31054   0.603   2.974   2.909  0.2129  0.1919 -0.2214
 6532SOL    HW131055   0.582   2.970   2.816  0.0082 -1.6627 -0.0956
 6532SOL    HW231056   0.613   2.880   2.927  1.2163  0.1430 -1.0344
 6533SOL     OW31057   4.644   4.247  12.099 -0.0559  0.5882  0.0090
 6533SOL    HW131058   4.555   4.214  12.092  0.4847 -1.3366  1.9816
 6533SOL    HW231059   4.671   4.225  12.189 -0.2018 -0.2154 -0.1501
 6534SOL     OW31060   4.059   4.311   3.963  0.1103 -0.0139  0.0886
 6534SOL    HW131061   4.085   4.397   3.929  0.1113 -0.2726 -0.5597
 6534SOL    HW231062   4.142   4.276   3.996 -0.6335 -1.8802 -0.0318
 6535SOL     OW31063   4.438   4.711   6.936 -0.3204 -0.1232 -0.9040
 6535SOL    HW131064   4.397   4.637   6.890  0.0819 -0.8000 -0.1586
 6535SOL    HW231065   4.518   4.711   6.883  0.4363 -0.0438  0.2570
 6536SOL     OW31066   4.717   2.399  14.997  0.1098  0.1523  0.1924
 6536SOL    HW131067   4.678   2.415  15.083 -0.7215 -1.6484  0.1491
 6536SOL    HW231068   0.082   2.395  15.024 -0.5037 -0.1137  2.2013
 6537SOL     OW31069   3.666   0.618   1.916 -0.2065  0.1360  0.0259
 6537SOL    HW131070   3.738   0.604   1.977  0.9193 -0.5838 -1.4777
 6537SOL    HW231071   3.702   0.588   1.832 -0.3301  0.9841 -0.3347
 6538SOL     OW31072   1.304   0.964  16.734 -0.2824  0.0991 -0.3903
 6538SOL    HW131073   1.291   0.986  16.827  3.6926 -0.4883  0.2918
 6538SOL    HW231074   1.276   1.046  16.694 -1.1854 -0.4967 -0.9794
 6539SOL     OW31075   2.206   4.587  15.129  0.2775  0.1241 -0.3346
 6539SOL    HW131076   2.288   4.636  15.137  0.3138 -0.3261  1.9455
 6539SOL    HW231077   2.218   4.498  15.162  2.4589  0.6591  0.3200
 6540SOL     OW31078   2.504   1.011   2.641  0.0394 -0.1319  0.2202
 6540SOL    HW131079   2.504   1.055   2.725  0.4118 -0.3124  0.3152
 6540SOL    HW231080   2.475   0.923   2.666 -1.0424  0.2592  0.3115
 6541SOL     OW31081   0.107   3.442   7.076 -0.1039  0.1015  0.1706
 6541SOL    HW131082   0.069   3.423   6.990  2.1989  1.5288 -1.1552
 6541SOL    HW231083   0.086   3.534   7.091  0.0852  0.3228 -0.9125
 6542SOL     OW31084   4.664   2.677   6.071  0.0206 -0.1246  0.1584
 6542SOL    HW131085   4.660   2.668   6.167 -0.7918 -0.5647  0.0832
 6542SOL    HW231086   4.656   2.772   6.071 -1.7870 -0.2818 -2.7423
 6543SOL     OW31087   2.019   4.619   1.772  0.5057  0.2475  0.0137
 6543SOL    HW131088   1.995   4.659   1.856  1.8200 -1.5249  1.2464
 6543SOL    HW231089   1.964   4.540   1.771 -0.4352  0.8856  1.1114
 6544SOL     OW31090   4.644   1.587  14.402 -0.2260 -0.0890  0.2555
 6544SOL    HW131091   4.691   1.526  14.459  1.5782  0.8845 -0.1955
 6544SOL    HW231092   4.641   1.663  14.460 -1.4405 -0.5980  0.8770
 6545SOL     OW31093   3.589   4.485   1.946 -0.3090 -0.3606 -0.4693
 6545SOL    HW131094   3.660   4.422   1.937  0.9495  0.8791  0.7649
 6545SOL    HW231095   3.512   4.428   1.945 -0.3149 -0.3432 -0.7894
 6546SOL     OW31096   3.846   2.865   7.100 -0.0877 -0.6701  0.0785
 6546SOL    HW131097   3.933   2.882   7.064 -0.2593 -0.1499 -0.0879
 6546SOL    HW231098   3.832   2.771   7.094  0.3813 -0.7388  0.0434
 6547SOL     OW31099   0.200   0.876   7.254  0.2348 -0.3853 -0.8471
 6547SOL    HW131100   0.229   0.803   7.309 -2.1591 -0.4873  0.2604
 6547SOL    HW231101   0.121   0.837   7.218 -0.7443  0.4611  0.3605
 6548SOL     OW31102   4.180   2.774   5.017  0.3859  0.3813  0.1744
 6548SOL    HW131103   4.249   2.815   5.069  0.8429  0.0720 -0.1952
 6548SOL    HW231104   4.115   2.759   5.086 -0.4776  0.7254 -0.5673
 6549SOL     OW31105   1.846   3.843   3.868  0.5719  0.0793 -0.3683
 6549SOL    HW131106   1.764   3.798   3.846  0.4745 -0.2936  0.7807
 6549SOL    HW231107   1.894   3.771   3.826 -1.9449 -0.2267 -2.7589
 6550SOL     OW31108   0.823   3.267   6.295  0.2571  0.8008  0.2290
 6550SOL    HW131109   0.822   3.220   6.212  0.9668  0.1223  0.5996
 6550SOL    HW231110   0.820   3.194   6.358  1.2040 -0.4499 -1.1710
 6551SOL     OW31111   3.315   3.212   1.128  0.1423 -0.0003  0.4939
 6551SOL    HW131112   3.348   3.124   1.143 -0.9258 -0.8855 -2.3476
 6551SOL    HW231113   3.375   3.238   1.058  2.0811  0.5709  2.3712
 6552SOL     OW31114   2.278   2.091  12.318  0.4490 -0.2394  0.7319
 6552SOL    HW131115   2.357   2.040  12.334  1.1973  1.0568  1.1133
 6552SOL    HW231116   2.299   2.173  12.363  1.5765 -0.9619  1.5070
 6553SOL     OW31117   4.509   2.570   5.216  0.1168  0.3832  0.2619
 6553SOL    HW131118   4.463   2.489   5.240  0.3551 -0.3401 -1.6500
 6553SOL    HW231119   4.466   2.597   5.134  0.7145 -0.3610 -0.3013
 6554SOL     OW31120   0.954   2.977   2.933 -0.2994  0.5232 -0.4518
 6554SOL    HW131121   0.903   3.041   2.983 -1.8782 -0.1333 -1.2106
 6554SOL    HW231122   0.926   2.994   2.843 -1.1705 -0.1221 -0.3027
 6555SOL     OW31123   0.722   4.457  12.875  0.2036  0.1292 -0.2281
 6555SOL    HW131124   0.631   4.429  12.887  0.0499  1.5002  1.8487
 6555SOL    HW231125   0.764   4.441  12.960  0.7362 -0.4014 -0.5878
 6556SOL     OW31126   3.096   1.818  17.007  0.1548 -0.1392 -0.4822
 6556SOL    HW131127   3.006   1.805  16.978 -0.3790 -0.5746  1.3724
 6556SOL    HW231128   3.131   1.867  16.932  2.1843  0.9580  1.1838
 6557SOL     OW31129   0.135   0.660   3.878  0.0536 -0.0065  0.1905
 6557SOL    HW131130   0.189   0.587   3.905  1.7181  0.5374 -1.6206
 6557SOL    HW231131   0.136   0.651   3.782 -1.0105  0.7807  0.1037
 6558SOL     OW31132   1.520   0.723  15.070 -0.7172 -0.5307  0.3052
 6558SOL    HW131133   1.499   0.805  15.025  2.2333  0.1132  0.0886
 6558SOL    HW231134   1.478   0.658  15.014  1.1801  0.3563 -2.1229
 6559SOL     OW31135   0.821   3.403   3.904  0.5768 -0.0101  0.3812
 6559SOL    HW131136   0.734   3.432   3.878  0.9536 -0.4067 -1.3322
 6559SOL    HW231137   0.848   3.389   3.813 -0.2017  0.7795  0.0263
 6560SOL     OW31138   0.621   4.082  13.048  0.1732 -0.0447 -0.3157
 6560SOL    HW131139   0.571   4.064  13.127  1.2772 -1.7851 -0.0178
 6560SOL    HW231140   0.625   4.177  13.049 -1.0055  0.0216 -1.8036
 6561SOL     OW31141   3.191   3.505   8.336  0.3653  0.5876 -0.0872
 6561SOL    HW131142   3.175   3.599   8.325  0.1704  0.8414  2.3450
 6561SOL    HW231143   3.103   3.478   8.362  0.2729  1.6610  0.7538
 6562SOL     OW31144   2.230   4.380   6.983 -0.2154  0.0812  0.4051
 6562SOL    HW131145   2.245   4.361   7.075  3.3716  1.0444  0.0173
 6562SOL    HW231146   2.321   4.388   6.956 -0.2396 -1.8513 -0.2538
 6563SOL     OW31147   2.577   0.475   7.393  0.0110  0.3956  0.1814
 6563SOL    HW131148   2.584   0.441   7.482  2.8196 -0.7783 -0.4867
 6563SOL    HW231149   2.648   0.430   7.348 -0.1557 -0.0040  0.3206
 6564SOL     OW31150   2.028   0.655   1.950 -0.3443  0.0931 -0.5802
 6564SOL    HW131151   2.082   0.706   2.010 -0.6220 -0.2808 -0.0047
 6564SOL    HW231152   2.066   0.682   1.867  0.1077  0.2787 -0.3122
 6565SOL     OW31153   3.290   3.662   1.295 -0.0875 -0.2168  0.1547
 6565SOL    HW131154   3.348   3.660   1.219  1.2075  0.4690  1.1321
 6565SOL    HW231155   3.240   3.583   1.276  0.9952 -0.5993 -1.0582
 6566SOL     OW31156   2.840   4.364   7.900 -0.4288  0.7376  0.5440
 6566SOL    HW131157   2.927   4.331   7.922 -0.0032  0.1707 -1.9779
 6566SOL    HW231158   2.803   4.403   7.980 -1.2956 -1.2758  1.1092
 6567SOL     OW31159   4.292   0.637   2.624 -0.3262 -0.3241 -0.1670
 6567SOL    HW131160   4.272   0.676   2.709  3.0508  2.7386 -0.8095
 6567SOL    HW231161   4.339   0.707   2.579  1.4224 -1.0923  0.4660
 6568SOL     OW31162   3.590   4.490   6.239 -0.3755 -0.3828  0.5995
 6568SOL    HW131163   3.644   4.445   6.304 -0.5057 -2.5874 -0.8473
 6568SOL    HW231164   3.578   4.582   6.265  1.4092  0.9086 -3.1747
 6569SOL     OW31165   1.494   3.236   2.400  0.1950  0.1918  0.2778
 6569SOL    HW131166   1.544   3.161   2.433  1.6745  0.8778 -0.4603
 6569SOL    HW231167   1.539   3.248   2.317 -2.3242  0.3330 -1.0534
 6570SOL     OW31168   1.598   2.852  11.308  0.3174 -0.1723  0.3032
 6570SOL    HW131169   1.662   2.858  11.238  0.4550  0.0549  0.4512
 6570SOL    HW231170   1.637   2.798  11.377 -0.5292 -2.2242 -0.8157
 6571SOL     OW31171   0.269   4.564  13.346 -0.8261 -0.6326  0.4600
 6571SOL    HW131172   0.259   4.588  13.254  2.6822  1.0997  0.5326
 6571SOL    HW231173   0.352   4.603  13.373 -1.3906  1.6308 -1.1212
 6572SOL     OW31174   4.585   2.620   7.053 -0.0003 -0.1757  0.5036
 6572SOL    HW131175   4.638   2.652   6.981 -1.0878 -0.6189 -0.4903
 6572SOL    HW231176   4.514   2.684   7.052  1.1099  1.1267  3.5031
 6573SOL     OW31177   2.918   0.603   4.861 -0.1532 -0.1380  0.0200
 6573SOL    HW131178   2.860   0.547   4.912  0.0926  0.4321  0.9193
 6573SOL    HW231179   2.929   0.670   4.928  3.1798 -0.4771 -0.1759
 6574SOL     OW31180   2.872   4.254   5.506  0.7472  0.2007 -0.2242
 6574SOL    HW131181   2.862   4.167   5.468 -2.5932 -0.3742  1.9292
 6574SOL    HW231182   2.778   4.265   5.520  0.1561 -1.1784 -3.2492
 6575SOL     OW31183   3.541   2.805  10.539 -0.0165 -0.3154 -0.1611
 6575SOL    HW131184   3.629   2.823  10.573 -0.3454  0.3330  0.3346
 6575SOL    HW231185   3.497   2.781  10.620 -1.2375  1.4662 -0.3014
 6576SOL     OW31186   3.545   2.793   5.116 -0.1461 -0.0692 -0.2803
 6576SOL    HW131187   3.622   2.850   5.119 -1.7721  2.1290  0.3885
 6576SOL    HW231188   3.477   2.839   5.066  0.3078  1.7621  0.7755
 6577SOL     OW31189   2.066   1.103   5.211  0.9526 -0.1964 -0.0304
 6577SOL    HW131190   2.014   1.071   5.285  0.0558 -0.1136 -0.6309
 6577SOL    HW231191   2.135   1.125   5.274 -0.2050  0.5185  0.9835
 6578SOL     OW31192   2.196   1.232  17.449 -0.2751 -0.1213  0.1099
 6578SOL    HW131193   2.213   1.193  17.534  1.1341 -2.9972 -1.4684
 6578SOL    HW231194   2.253   1.308  17.451 -0.0200 -0.2067 -3.3308
 6579SOL     OW31195   3.989   0.652   2.579  0.2839 -0.2435  0.0691
 6579SOL    HW131196   3.991   0.684   2.670  0.9622  0.8712 -0.3379
 6579SOL    HW231197   4.079   0.622   2.571  0.5208  0.2606  0.8547
 6580SOL     OW31198   3.911   1.242   6.016  0.0534 -0.1033 -0.6137
 6580SOL    HW131199   3.932   1.335   6.030  0.8248 -0.2273 -0.9478
 6580SOL    HW231200   3.974   1.190   6.066 -0.6819 -1.6355 -1.2944
 6581SOL     OW31201   1.457   4.440   4.228  0.4043  0.0928  0.4081
 6581SOL    HW131202   1.514   4.367   4.206  0.1764  0.7090 -2.2299
 6581SOL    HW231203   1.448   4.497   4.151  2.5924 -0.5637 -0.3192
 6582SOL     OW31204   2.401   0.645   3.895  0.4748 -0.4488  0.1639
 6582SOL    HW131205   2.394   0.565   3.947 -0.6039 -0.7759 -0.4803
 6582SOL    HW231206   2.307   0.660   3.885  0.4220  0.3056  1.8187
 6583SOL     OW31207   3.608   2.437   4.059 -0.0468  0.0705 -0.0550
 6583SOL    HW131208   3.673   2.403   4.120  1.0295  2.0021 -0.1130
 6583SOL    HW231209   3.536   2.458   4.118  0.0455  0.2920 -0.0209
 6584SOL     OW31210   2.673   3.052  16.517  0.0548 -0.3233 -0.3090
 6584SOL    HW131211   2.751   3.106  16.506  0.9962 -1.2390  1.9441
 6584SOL    HW231212   2.679   3.028  16.610  2.5771 -2.6354 -1.0881
 6585SOL     OW31213   4.061   3.219   5.933 -0.3660  0.3041 -0.2068
 6585SOL    HW131214   4.022   3.305   5.948 -2.6877 -0.6775 -0.7081
 6585SOL    HW231215   4.084   3.238   5.842 -0.4126 -1.0571 -0.5018
 6586SOL     OW31216   3.302   1.643   4.302 -0.2985 -0.5137 -0.4492
 6586SOL    HW131217   3.351   1.718   4.336  1.1958 -2.3790  1.5197
 6586SOL    HW231218   3.332   1.576   4.364 -0.5259  1.5275  1.8678
 6587SOL     OW31219   1.226   4.672  17.563 -0.2996  0.6066 -0.3779
 6587SOL    HW131220   1.229   0.023  17.508 -3.1212 -0.6579 -2.3665
 6587SOL    HW231221   1.178   4.613  17.505 -0.8738 -0.2937  1.0120
 6588SOL     OW31222   4.391   1.095  11.855  0.5301 -0.2660 -0.5695
 6588SOL    HW131223   4.430   1.021  11.808  1.2634 -0.1604 -0.1361
 6588SOL    HW231224   4.400   1.059  11.943  3.4162  1.9926  0.0853
 6589SOL     OW31225   2.210   3.787   9.574  0.3231  0.2026  0.0878
 6589SOL    HW131226   2.142   3.848   9.603  0.1382 -1.6487  3.4840
 6589SOL    HW231227   2.241   3.741   9.652  0.5408  0.3607  0.0945
 6590SOL     OW31228   3.959   3.467  13.180  0.0319 -0.1724  0.6740
 6590SOL    HW131229   4.046   3.449  13.145 -0.4833 -1.5068  0.1024
 6590SOL    HW231230   3.954   3.407  13.254  0.9544  0.8918  1.6176
 6591SOL     OW31231   3.906   1.694  13.841 -0.5868  0.2311 -0.4990
 6591SOL    HW131232   3.836   1.758  13.852  0.5713  1.3001  0.6930
 6591SOL    HW231233   3.911   1.701  13.746  0.9103  0.0113 -0.4401
 6592SOL     OW31234   2.283   3.169   5.310 -0.1498 -0.2656 -0.1581
 6592SOL    HW131235   2.301   3.183   5.217 -3.0182 -0.5966 -0.7585
 6592SOL    HW231236   2.329   3.243   5.350 -0.1036  0.3398 -1.3439
 6593SOL     OW31237   0.006   0.615   2.735  0.3826 -0.4514 -0.2701
 6593SOL    HW131238   4.667   0.662   2.684 -0.2382 -1.2228 -0.1940
 6593SOL    HW231239   0.060   0.589   2.660  0.8506 -0.6423  0.1319
 6594SOL     OW31240   3.129   0.703   1.859 -0.1539 -0.1744 -0.2543
 6594SOL    HW131241   3.213   0.747   1.851  0.1350 -0.6022  0.3980
 6594SOL    HW231242   3.088   0.761   1.923 -3.0870  1.0074 -3.2318
 6595SOL     OW31243   1.796   2.512   5.316  0.2921  0.3244 -0.2467
 6595SOL    HW131244   1.796   2.563   5.235  3.1807  1.4021  0.4196
 6595SOL    HW231245   1.891   2.505   5.318  0.3852  1.3264 -1.3935
 6596SOL     OW31246   0.488   1.827   4.692 -0.1957 -0.3125 -0.8322
 6596SOL    HW131247   0.550   1.784   4.634 -0.8983 -0.6164 -1.3645
 6596SOL    HW231248   0.493   1.922   4.679 -0.4693 -0.9728 -5.6381
 6597SOL     OW31249   4.674   3.133   2.208 -0.0900 -0.1272  0.0068
 6597SOL    HW131250   4.613   3.177   2.149  1.8982  2.4014 -0.1733
 6597SOL    HW231251   4.617   3.061   2.233  1.5287 -1.4742 -0.2201
 6598SOL     OW31252   0.012   2.053  11.387  0.2127 -0.1328  0.7328
 6598SOL    HW131253   0.024   2.080  11.478 -0.9626  1.3122  0.4656
 6598SOL    HW231254   0.065   2.123  11.349  0.8010 -0.9644  0.0366
 6599SOL     OW31255   2.044   0.278   8.802  0.3564  0.1834  0.3122
 6599SOL    HW131256   1.957   0.310   8.780  0.6044 -0.0760 -1.0517
 6599SOL    HW231257   2.030   0.201   8.857 -0.2127  1.7714  2.3794
 6600SOL     OW31258   3.293   2.075   5.049 -0.1853 -0.3152 -0.5685
 6600SOL    HW131259   3.372   2.107   5.006 -0.7663  0.9055 -0.7213
 6600SOL    HW231260   3.290   2.126   5.129 -2.5207  0.7123 -1.3019
 6601SOL     OW31261   0.724   3.088   3.693 -0.3152  0.2308 -0.0482
 6601SOL    HW131262   0.793   3.145   3.657  0.4922  0.0544  1.2256
 6601SOL    HW231263   0.745   3.088   3.786 -1.6254 -0.0641  0.2378
 6602SOL     OW31264   4.262   3.956  15.487 -0.1512  0.3695 -0.3446
 6602SOL    HW131265   4.222   3.909  15.413 -0.2112  1.1939 -0.8423
 6602SOL    HW231266   4.290   4.042  15.454  0.6295  0.9275  1.8152
 6603SOL     OW31267   0.526   0.831  10.914  0.3131 -0.1606 -0.2190
 6603SOL    HW131268   0.456   0.843  10.979 -1.3155 -1.9879 -1.6196
 6603SOL    HW231269   0.595   0.815  10.978 -0.5772 -2.7839  0.0971
 6604SOL     OW31270   2.509   3.477   1.836 -0.2499 -0.2002 -0.0070
 6604SOL    HW131271   2.598   3.505   1.860  0.0249 -0.7128 -0.4430
 6604SOL    HW231272   2.497   3.388   1.868 -1.0877  0.6681  2.1223
 6605SOL     OW31273   2.302   1.949   5.546 -0.5390  0.0499  0.0400
 6605SOL    HW131274   2.270   1.863   5.518  1.0498 -0.3429 -0.5539
 6605SOL    HW231275   2.394   1.925   5.555 -1.1093 -1.6525  1.4284
 6606SOL     OW31276   1.761   2.544  15.923  0.6545  0.4596  0.0820
 6606SOL    HW131277   1.769   2.639  15.923  2.2681  0.3336  1.1171
 6606SOL    HW231278   1.721   2.525  15.838  0.3979 -1.1843  0.5681
 6607SOL     OW31279   1.093   0.373   6.057  0.5712  0.0466  0.0270
 6607SOL    HW131280   1.023   0.389   5.995  0.2429 -1.3822  0.0269
 6607SOL    HW231281   1.150   0.323   5.999  0.2544 -1.4820  1.0159
 6608SOL     OW31282   3.958   4.186   7.725 -0.3738 -0.4179 -0.5182
 6608SOL    HW131283   3.864   4.178   7.740 -0.3249 -0.6046 -0.3133
 6608SOL    HW231284   3.955   4.186   7.630 -0.1207  0.3975 -0.5293
 6609SOL     OW31285   0.683   1.400   5.072 -0.5625 -0.2922  1.2971
 6609SOL    HW131286   0.709   1.358   4.990  1.2901 -0.0747  1.7758
 6609SOL    HW231287   0.681   1.319   5.123 -3.5296 -0.8988  0.2061
 6610SOL     OW31288   0.823   0.476   2.545  0.1048 -0.0982  0.1388
 6610SOL    HW131289   0.779   0.447   2.464 -1.5392 -0.0996  1.0214
 6610SOL    HW231290   0.755   0.451   2.608  0.1907 -1.8352 -0.4637
 6611SOL     OW31291   3.800   2.754  17.049 -0.0742 -0.1910  0.7508
 6611SOL    HW131292   3.810   2.789  16.961 -1.0256 -0.8605  0.3771
 6611SOL    HW231293   3.732   2.687  17.037  1.7548 -1.9647  0.1682
 6612SOL     OW31294   0.808   4.477   6.201 -0.2039 -0.1828  0.5670
 6612SOL    HW131295   0.863   4.544   6.243  0.2573 -1.6050  2.2641
 6612SOL    HW231296   0.831   4.403   6.258  0.3375  0.0386  0.6418
 6613SOL     OW31297   0.257   4.344  13.025  0.2571  0.6357  0.6477
 6613SOL    HW131298   0.258   4.435  13.055  1.5923  0.3005  1.5565
 6613SOL    HW231299   0.171   4.345  12.981  0.3378 -1.7374  0.4709
 6614SOL     OW31300   2.339   2.165   2.510 -0.0585  0.7152 -0.2195
 6614SOL    HW131301   2.354   2.107   2.584  0.7918  1.3765  0.1210
 6614SOL    HW231302   2.247   2.192   2.521  0.4956  1.1894  3.0367
 6615SOL     OW31303   2.957   4.538   9.557  0.1806 -0.5763  0.0842
 6615SOL    HW131304   2.887   4.603   9.552 -0.6730 -1.4349  0.8933
 6615SOL    HW231305   3.029   4.593   9.528 -0.7052  0.7270  0.3570
 6616SOL     OW31306   2.595   0.728   7.646  0.1780 -0.0981  0.2487
 6616SOL    HW131307   2.514   0.678   7.643  0.3907 -0.3064 -1.6512
 6616SOL    HW231308   2.650   0.668   7.596  1.7901  0.8607  0.8501
 6617SOL     OW31309   4.160   4.399   6.339  0.4845  0.1859 -0.1436
 6617SOL    HW131310   4.228   4.372   6.401  0.5627  1.1582  0.1874
 6617SOL    HW231311   4.105   4.458   6.390 -0.9434  0.7900 -2.3845
 6618SOL     OW31312   3.799   4.438   0.017  0.2238  0.0428 -0.1159
 6618SOL    HW131313   3.782   4.381  17.650  2.5906 -0.9520  0.0826
 6618SOL    HW231314   3.836   4.364   0.067  2.9884  2.8985  2.0382
 6619SOL     OW31315   1.941   2.252   7.058  0.7212  0.3728  0.2495
 6619SOL    HW131316   2.027   2.230   7.095  1.4608  1.5859 -0.7512
 6619SOL    HW231317   1.943   2.340   7.095 -0.8542 -0.1167  1.4722
 6620SOL     OW31318   2.284   3.827   1.764 -0.7992 -0.0077  0.4398
 6620SOL    HW131319   2.203   3.875   1.746  0.1504  2.2473  2.1999
 6620SOL    HW231320   2.256   3.736   1.754  0.6726 -0.3841 -0.2737
 6621SOL     OW31321   3.947   0.353   9.303  0.3719 -0.2048 -0.4458
 6621SOL    HW131322   3.916   0.368   9.393 -0.4402  1.6196 -1.0374
 6621SOL    HW231323   4.039   0.379   9.301  0.4554 -0.6130 -1.9276
 6622SOL     OW31324   1.331   1.282  11.893 -0.3296  0.0289 -0.4662
 6622SOL    HW131325   1.424   1.295  11.876 -0.3382 -0.3165 -0.7977
 6622SOL    HW231326   1.298   1.270  11.804 -0.7583 -1.5383 -0.0870
 6623SOL     OW31327   2.737   3.791   5.144 -0.5952  0.9594 -0.7675
 6623SOL    HW131328   2.704   3.878   5.122 -0.7666  1.7482  2.5783
 6623SOL    HW231329   2.708   3.725   5.081 -0.0209 -1.7127  1.7743
 6624SOL     OW31330   0.684   1.062   5.621 -0.1955  0.6327  0.3121
 6624SOL    HW131331   0.655   1.129   5.560  0.7606 -1.3250 -2.3041
 6624SOL    HW231332   0.631   0.988   5.592  0.5137  0.7664 -1.3135
 6625SOL     OW31333   2.972   1.366   2.656 -0.1129 -0.7187  0.4130
 6625SOL    HW131334   2.961   1.305   2.584  1.2941 -0.4778 -0.0114
 6625SOL    HW231335   3.065   1.357   2.675  0.6539  2.7356 -1.6946
 6626SOL     OW31336   0.233   0.648  17.385  0.2349  0.2632  0.1086
 6626SOL    HW131337   0.144   0.650  17.421  0.7974  1.7866  1.3984
 6626SOL    HW231338   0.231   0.732  17.341  0.4978  0.7691  1.0620
 6627SOL     OW31339   3.599   1.003   4.608  0.3419  0.1933 -0.2073
 6627SOL    HW131340   3.668   0.990   4.673 -2.8069 -1.2855  2.8312
 6627SOL    HW231341   3.618   0.930   4.549 -1.4821 -0.1171 -0.4034
 6628SOL     OW31342   1.300   2.758   6.479  0.2349 -0.1265 -0.4728
 6628SOL    HW131343   1.350   2.726   6.404 -0.2712 -2.1160  0.0398
 6628SOL    HW231344   1.241   2.813   6.427 -0.2891 -0.4983 -0.2743
 6629SOL     OW31345   3.004   0.755  12.119  0.1089  0.3140  0.6248
 6629SOL    HW131346   2.940   0.713  12.175  0.2350  0.7552  1.0952
 6629SOL    HW231347   2.988   0.850  12.124  0.1182  0.4434 -1.7560
 6630SOL     OW31348   3.471   0.435   4.401 -0.2008 -0.2009  0.4051
 6630SOL    HW131349   3.402   0.489   4.440 -0.4682 -0.3434  0.1323
 6630SOL    HW231350   3.550   0.473   4.439 -0.0612 -1.8561  1.7792
 6631SOL     OW31351   0.137   4.009  12.402  0.4294 -0.1607  0.6018
 6631SOL    HW131352   0.067   4.055  12.355 -0.6643 -1.4561  0.9660
 6631SOL    HW231353   0.123   4.032  12.493  2.6748  0.2787  0.8477
 6632SOL     OW31354   3.984   1.457   6.698 -0.2936 -0.3921 -0.3674
 6632SOL    HW131355   3.893   1.429   6.685 -0.9592  0.2938  2.6848
 6632SOL    HW231356   4.018   1.424   6.616  1.9481 -1.8607  1.1767
 6633SOL     OW31357   3.523   4.124  16.043  0.8974 -0.0893 -0.2039
 6633SOL    HW131358   3.601   4.176  16.060  0.4470 -0.1905  2.2508
 6633SOL    HW231359   3.518   4.074  16.125  2.3698  1.6676  0.9565
 6634SOL     OW31360   3.576   4.158   2.104 -0.0541 -0.2933  0.1167
 6634SOL    HW131361   3.620   4.108   2.034  0.1830  0.8837 -0.5783
 6634SOL    HW231362   3.500   4.205   2.070 -0.9799 -1.5762  0.4043
 6635SOL     OW31363   0.348   3.645   5.798 -0.2435  0.0076 -0.1047
 6635SOL    HW131364   0.420   3.590   5.769 -1.0807 -0.9388 -0.3788
 6635SOL    HW231365   0.368   3.728   5.754  0.5820  0.5969  1.3688
 6636SOL     OW31366   3.805   2.099  13.856  0.8360  0.0124 -0.1163
 6636SOL    HW131367   3.787   2.182  13.812 -2.1096  0.1404  1.3576
 6636SOL    HW231368   3.897   2.103  13.885  0.6468  0.9020  0.3651
 6637SOL     OW31369   0.896   3.843  11.752 -0.6857 -0.5791 -0.0231
 6637SOL    HW131370   0.966   3.897  11.789  0.2393 -0.7875 -1.4371
 6637SOL    HW231371   0.921   3.756  11.783 -0.4072 -1.0683 -1.6280
 6638SOL     OW31372   2.432   0.400   3.396  0.0992 -0.0923  0.0247
 6638SOL    HW131373   2.375   0.476   3.385  0.4718  0.2738  0.7059
 6638SOL    HW231374   2.515   0.446   3.384 -0.2251  0.8467  1.4403
 6639SOL     OW31375   4.028   1.771   5.043 -1.0327  0.0260  0.0263
 6639SOL    HW131376   4.106   1.827   5.038  1.1223 -3.1681 -2.0330
 6639SOL    HW231377   4.045   1.696   4.986  2.1006 -0.5645  1.7185
 6640SOL     OW31378   1.562   3.804   2.956  0.2448  0.9404  0.9126
 6640SOL    HW131379   1.531   3.719   2.928  2.5994  0.5557 -0.5705
 6640SOL    HW231380   1.623   3.830   2.886  0.8599 -0.8508  0.7774
 6641SOL     OW31381   0.658   2.431   1.887  0.2404  0.3919 -0.1004
 6641SOL    HW131382   0.577   2.383   1.868 -1.4696  3.0193  0.4157
 6641SOL    HW231383   0.706   2.408   1.808 -0.0207 -1.9036  0.4166
 6642SOL     OW31384   0.005   1.112  12.239 -0.6486  0.0458 -0.2003
 6642SOL    HW131385   0.085   1.087  12.193 -1.2753 -0.4880 -0.9873
 6642SOL    HW231386   4.724   1.204  12.213  0.1002 -0.0901 -0.8936
 6643SOL     OW31387   2.395   4.241   6.011  0.2309 -0.9224 -0.1111
 6643SOL    HW131388   2.361   4.245   5.922  1.4582 -1.7939 -0.6305
 6643SOL    HW231389   2.491   4.250   6.006  0.1438  0.2756  0.4782
 6644SOL     OW31390   3.594   0.908   9.719  0.2462 -0.7157 -0.2695
 6644SOL    HW131391   3.545   0.826   9.720  1.9391 -1.7235 -0.7584
 6644SOL    HW231392   3.668   0.900   9.779 -0.8064 -0.1677  1.0895
 6645SOL     OW31393   0.708   4.418   6.898 -0.6546  0.4599 -0.1290
 6645SOL    HW131394   0.788   4.469   6.887  0.1419 -0.4236  1.4639
 6645SOL    HW231395   0.693   4.439   6.990 -0.4151  0.2682 -0.0435
 6646SOL     OW31396   0.338   1.075  11.035  0.5944 -0.0267  0.6816
 6646SOL    HW131397   0.291   1.158  11.038 -0.3087 -0.4951 -0.7235
 6646SOL    HW231398   0.419   1.114  11.002 -0.4106  0.6867 -0.9322
 6647SOL     OW31399   4.657   4.283   0.057 -0.5288  0.0066 -0.1937
 6647SOL    HW131400   4.602   4.225   0.005 -0.4157  0.2612 -0.5958
 6647SOL    HW231401   4.622   4.271   0.145  0.4261 -0.8167  0.0677
 6648SOL     OW31402   0.817   0.024  14.704  0.5875  0.7402  0.6100
 6648SOL    HW131403   0.871   0.010  14.782 -1.1879 -2.1200  1.2929
 6648SOL    HW231404   0.832   4.669  14.656 -1.0960  2.2053 -2.3881
 6649SOL     OW31405   0.515   0.727   2.845  0.2026  0.2362  0.4086
 6649SOL    HW131406   0.446   0.672   2.882 -1.0180  1.4484 -0.0730
 6649SOL    HW231407   0.466   0.759   2.770  0.4720  0.1391  0.1912
 6650SOL     OW31408   3.243   2.612   2.910 -0.2037 -0.4060  0.4567
 6650SOL    HW131409   3.172   2.572   2.860  0.3081 -0.3879 -0.2861
 6650SOL    HW231410   3.293   2.641   2.833  2.1528 -4.7412  0.3734
 6651SOL     OW31411   2.499   1.616   7.702 -0.1817 -0.4116 -0.3480
 6651SOL    HW131412   2.431   1.603   7.768  0.0645 -0.7509 -0.1597
 6651SOL    HW231413   2.497   1.712   7.706  0.7218 -0.3361 -1.5298
 6652SOL     OW31414   3.201   1.964   6.054  0.0950  0.4375 -0.2308
 6652SOL    HW131415   3.130   2.012   6.097  0.3198  0.2613  0.3414
 6652SOL    HW231416   3.177   1.979   5.963  0.0844  1.1891 -0.1053
 6653SOL     OW31417   4.482   2.256  15.218  0.7828  0.5524  0.0070
 6653SOL    HW131418   4.481   2.160  15.221 -0.4353  0.5681  0.2256
 6653SOL    HW231419   4.421   2.257  15.144  2.2290 -1.0297 -1.2084
 6654SOL     OW31420   3.095   1.833   9.086 -0.3208 -0.0581  0.0818
 6654SOL    HW131421   3.171   1.868   9.040  0.3501  0.1020  1.3181
 6654SOL    HW231422   3.128   1.848   9.175 -0.9758  1.8446 -0.0095
 6655SOL     OW31423   2.414   0.213   4.467 -0.4052 -0.9945  0.6040
 6655SOL    HW131424   2.457   0.243   4.547  0.1606 -0.7061  0.1954
 6655SOL    HW231425   2.352   0.285   4.462 -0.1014 -0.7153  0.8449
 6656SOL     OW31426   3.560   4.082   3.656 -0.5354 -0.6655  0.3269
 6656SOL    HW131427   3.485   4.039   3.698 -0.7277  1.3834  2.0472
 6656SOL    HW231428   3.610   4.009   3.620  0.8559 -0.7955  2.5118
 6657SOL     OW31429   4.679   0.774   5.365  0.0763  0.3465  0.3797
 6657SOL    HW131430   4.621   0.823   5.307  0.1813 -0.2038 -0.1799
 6657SOL    HW231431   0.004   0.842   5.408 -1.3743  1.6190  0.1255
 6658SOL     OW31432   4.676   1.030   0.094 -0.2223 -0.2931  0.3286
 6658SOL    HW131433   0.042   1.054   0.092 -0.1019 -0.7580  0.4467
 6658SOL    HW231434   4.677   0.937   0.117 -0.9108 -0.4465 -0.2750
 6659SOL     OW31435   4.012   3.485  16.433 -0.0351 -0.1601  0.1990
 6659SOL    HW131436   4.101   3.480  16.396  0.4173  1.0683  1.1308
 6659SOL    HW231437   3.976   3.547  16.371 -1.1574  0.6917  1.7055
 6660SOL     OW31438   1.214   3.855   6.802 -0.3576  0.0687  0.3955
 6660SOL    HW131439   1.261   3.882   6.723  1.9885 -1.7384  1.1751
 6660SOL    HW231440   1.289   3.850   6.862 -0.4824  1.6460  0.6822
 6661SOL     OW31441   0.535   3.480   5.749  0.3983 -0.1765  0.1824
 6661SOL    HW131442   0.625   3.471   5.719 -0.2835 -1.4435 -1.4253
 6661SOL    HW231443   0.541   3.437   5.834  1.8874  1.2768  0.8122
 6662SOL     OW31444   4.089   2.580   1.198  0.0280 -0.3750 -0.9758
 6662SOL    HW131445   4.001   2.542   1.196 -0.2438  0.2281 -0.1315
 6662SOL    HW231446   4.140   2.519   1.145 -0.8012  1.2320 -3.6494
 6663SOL     OW31447   1.100   0.807  11.910  0.7665  0.2486  0.2964
 6663SOL    HW131448   1.019   0.778  11.869  1.5491  1.4016 -2.0963
 6663SOL    HW231449   1.167   0.757  11.863 -1.1269 -1.9585 -0.0575
 6664SOL     OW31450   4.614   2.757   0.333 -0.2949  0.6249 -0.0988
 6664SOL    HW131451   4.679   2.774   0.402  0.8906 -1.0601 -0.8265
 6664SOL    HW231452   4.552   2.704   0.383  0.1691  0.1497 -0.0390
 6665SOL     OW31453   2.679   2.144   9.976  0.5986 -0.2706  0.6188
 6665SOL    HW131454   2.712   2.178   9.893 -0.2639 -2.0764 -0.4475
 6665SOL    HW231455   2.665   2.219  10.034 -1.2866 -2.5024  3.0690
 6666SOL     OW31456   0.241   2.418  12.508 -0.1186 -0.1884  0.3666
 6666SOL    HW131457   0.260   2.340  12.455  1.2087 -1.0151  2.0517
 6666SOL    HW231458   0.333   2.445  12.502 -0.5540  1.0133 -0.8965
 6667SOL     OW31459   2.266   2.215   8.062 -0.3425  0.1456 -0.0788
 6667SOL    HW131460   2.296   2.293   8.016 -1.2456  0.2587 -0.4696
 6667SOL    HW231461   2.356   2.200   8.091 -0.7014 -1.2147  0.3571
 6668SOL     OW31462   0.016   0.165   4.108 -0.2466 -0.1256  0.2954
 6668SOL    HW131463   4.693   0.120   4.039  0.6341 -1.9903  0.8537
 6668SOL    HW231464   0.083   0.214   4.061 -1.9425  1.3760 -0.5483
 6669SOL     OW31465   0.892   3.464   3.460  0.7313 -0.6385  0.8411
 6669SOL    HW131466   0.909   3.398   3.393  3.3215  1.4470 -0.5575
 6669SOL    HW231467   0.797   3.455   3.462  0.4801  1.8516 -0.2732
 6670SOL     OW31468   1.168   0.189   6.231 -0.1951  0.2641  0.0673
 6670SOL    HW131469   1.168   0.256   6.162 -1.4667  0.0698 -0.1212
 6670SOL    HW231470   1.262   0.186   6.244 -0.1127  0.0574 -0.6038
 6671SOL     OW31471   3.212   2.407   2.632 -0.0809  0.4720 -0.6321
 6671SOL    HW131472   3.139   2.431   2.575 -2.1316 -0.0017  1.8011
 6671SOL    HW231473   3.289   2.424   2.578  1.0125 -1.6978  0.2561
 6672SOL     OW31474   4.631   0.818   2.162  0.4189 -0.1084 -0.8151
 6672SOL    HW131475   4.654   0.784   2.076 -1.7294  1.5450 -2.0585
 6672SOL    HW231476   4.704   0.783   2.213  1.8173  2.0797 -1.2875
 6673SOL     OW31477   3.820   3.925   8.013 -0.2137  0.1614 -0.2826
 6673SOL    HW131478   3.733   3.955   8.036  0.8644  3.2675 -0.2963
 6673SOL    HW231479   3.865   3.936   8.097 -0.6091 -1.2723  0.1209
 6674SOL     OW31480   0.339   3.848   3.150 -0.1758 -0.4685  0.2441
 6674SOL    HW131481   0.377   3.817   3.232  0.2582  0.9199  0.5723
 6674SOL    HW231482   0.373   3.779   3.094  1.3273  1.5508 -1.3607
 6675SOL     OW31483   0.941   2.018  16.492 -0.3246  0.0184 -0.4128
 6675SOL    HW131484   0.878   1.956  16.455 -0.7684 -0.5293  1.2711
 6675SOL    HW231485   0.913   2.099  16.448  3.4145  1.2165 -0.6530
 6676SOL     OW31486   1.894   2.604   9.104  0.1428  0.1434  0.0684
 6676SOL    HW131487   1.815   2.551   9.116  0.6422 -0.4585  0.7015
 6676SOL    HW231488   1.859   2.689   9.076 -1.6271 -0.8678 -0.7654
 6677SOL     OW31489   1.437   0.575   8.353  0.4784 -0.3369 -0.2089
 6677SOL    HW131490   1.346   0.543   8.354  0.2640  0.2575 -0.6058
 6677SOL    HW231491   1.432   0.654   8.407 -1.7494 -0.5737 -0.0489
 6678SOL     OW31492   1.738   2.659  14.532 -0.1927 -0.1272 -0.3428
 6678SOL    HW131493   1.783   2.598  14.474  0.0017 -1.0760  0.8086
 6678SOL    HW231494   1.811   2.693  14.584 -0.8780  0.9977 -0.1039
 6679SOL     OW31495   2.281   0.957   1.165 -0.1326 -0.2380 -0.2123
 6679SOL    HW131496   2.235   0.883   1.203  0.9111  0.1804  1.8311
 6679SOL    HW231497   2.211   1.009   1.125  0.2145 -1.5599 -2.5664
 6680SOL     OW31498   0.387   2.040  15.732 -0.0184 -0.1011  0.0382
 6680SOL    HW131499   0.357   2.022  15.821  1.0208 -0.4615  0.3241
 6680SOL    HW231500   0.474   2.067  15.762  0.4274 -1.4914 -0.0089
 6681SOL     OW31501   1.968   4.359  12.974  0.0778  0.4684  0.0627
 6681SOL    HW131502   2.044   4.360  12.916 -0.5943  0.8516 -0.8049
 6681SOL    HW231503   1.993   4.417  13.046  1.5142  1.4572 -1.2486
 6682SOL     OW31504   2.965   0.336   3.453  0.5822 -0.7524  0.1045
 6682SOL    HW131505   2.976   0.243   3.433 -1.8510 -1.4839  2.0976
 6682SOL    HW231506   2.995   0.332   3.543  0.7007  0.6625  0.1210
 6683SOL     OW31507   1.255   4.600   0.791  0.0818  0.5642  0.0588
 6683SOL    HW131508   1.287   4.512   0.811 -1.6344  0.1971  1.1936
 6683SOL    HW231509   1.319   4.634   0.728 -0.9710  3.1054  0.3466
 6684SOL     OW31510   1.444   1.230  17.044  0.1574  0.1075 -0.0810
 6684SOL    HW131511   1.504   1.196  17.110  2.3706  1.3302 -1.4694
 6684SOL    HW231512   1.394   1.153  17.016  1.7037 -1.0706  0.4310
 6685SOL     OW31513   0.425   3.624   5.193  0.4233 -0.4086  0.1645
 6685SOL    HW131514   0.332   3.645   5.194  0.7462  0.9425  2.7716
 6685SOL    HW231515   0.422   3.540   5.149 -0.1920 -1.2392  1.7965
 6686SOL     OW31516   4.228   3.166  15.839 -0.1427 -0.1268  0.3583
 6686SOL    HW131517   4.288   3.237  15.816 -0.3064 -0.1544 -0.1377
 6686SOL    HW231518   4.278   3.088  15.815  0.1819  0.2610 -0.2133
 6687SOL     OW31519   3.759   0.173  17.216 -0.0400 -0.0321 -0.1175
 6687SOL    HW131520   3.814   0.136  17.147 -1.7878 -0.9877 -0.9848
 6687SOL    HW231521   3.683   0.175  17.158 -1.7992 -0.7110  2.1207
 6688SOL     OW31522   3.777   1.379   6.934  0.5194 -0.3379  0.4312
 6688SOL    HW131523   3.837   1.327   6.989 -0.1827 -0.0771  1.4407
 6688SOL    HW231524   3.701   1.386   6.992 -1.2982 -0.7494 -1.9083
 6689SOL     OW31525   2.379   1.788   7.382  0.1614 -0.2079 -0.4523
 6689SOL    HW131526   2.286   1.775   7.400  0.3449 -0.3668  0.3508
 6689SOL    HW231527   2.405   1.825   7.466  1.7557  1.8829 -1.8831
 6690SOL     OW31528   2.895   3.397  10.686  0.5296 -0.1237 -0.0385
 6690SOL    HW131529   2.967   3.378  10.746  1.3345 -0.9792 -1.2841
 6690SOL    HW231530   2.856   3.465  10.741 -0.9910 -0.2024 -1.0192
 6691SOL     OW31531   3.758   2.904   1.521  0.7981  0.0738 -0.1401
 6691SOL    HW131532   3.696   2.950   1.577 -0.0262 -0.9907 -0.1805
 6691SOL    HW231533   3.803   2.973   1.471  0.2797  2.0002  2.0716
 6692SOL     OW31534   1.412   1.847  12.143 -0.3933 -0.3926  0.4839
 6692SOL    HW131535   1.484   1.790  12.115 -0.1023 -0.0449  0.5272
 6692SOL    HW231536   1.394   1.897  12.064 -1.7960 -1.3244  0.2013
 6693SOL     OW31537   1.058   3.846   5.624 -0.3915  0.7688  0.7783
 6693SOL    HW131538   1.050   3.793   5.544 -0.9744  1.4867  0.3615
 6693SOL    HW231539   1.142   3.829   5.665  0.3481  5.3919  1.1802
 6694SOL     OW31540   1.431   3.425   9.341  0.3106  0.1530  0.7701
 6694SOL    HW131541   1.423   3.329   9.337  0.0118  0.2078  0.0597
 6694SOL    HW231542   1.378   3.452   9.416  0.8608  2.1463  0.4418
 6695SOL     OW31543   2.392   3.185   0.463  0.7435  0.3251 -0.7809
 6695SOL    HW131544   2.417   3.180   0.556 -1.9291 -0.0066 -0.0828
 6695SOL    HW231545   2.408   3.278   0.454  0.5002  0.4732  0.2685
 6696SOL     OW31546   3.820   1.520   5.996  0.4084  0.3755 -0.1009
 6696SOL    HW131547   3.791   1.608   6.020 -1.4832 -0.3085  0.1376
 6696SOL    HW231548   3.799   1.506   5.904 -0.6148  0.8546  0.0665
 6697SOL     OW31549   3.915   1.206  16.782 -0.2985 -0.0686 -0.3373
 6697SOL    HW131550   3.881   1.117  16.784 -2.4029  0.7661  1.2346
 6697SOL    HW231551   3.858   1.241  16.714 -0.3420 -1.6654 -1.1013
 6698SOL     OW31552   0.372   0.844  10.533  0.5538 -0.1147 -0.9959
 6698SOL    HW131553   0.436   0.805  10.592  0.5169  0.5988 -0.4919
 6698SOL    HW231554   0.425   0.842  10.454  3.4868  1.0310  0.9479
 6699SOL     OW31555   1.327   0.653   2.263 -0.3353 -0.1428 -0.1527
 6699SOL    HW131556   1.326   0.597   2.185 -0.4430  0.3500 -0.5075
 6699SOL    HW231557   1.355   0.591   2.330 -0.4492 -1.7334 -1.5925
 6700SOL     OW31558   3.411   2.176   2.598 -0.4911  0.1334 -0.3158
 6700SOL    HW131559   3.404   2.081   2.595  0.3339 -0.0063  2.3456
 6700SOL    HW231560   3.318   2.199   2.591 -0.3266  1.6709  2.7729
 6701SOL     OW31561   0.651   2.929   7.942 -0.5085  0.1668 -0.3473
 6701SOL    HW131562   0.628   2.987   8.015 -1.3228 -1.4880  0.7146
 6701SOL    HW231563   0.714   2.877   7.992 -0.7183 -1.3568 -1.6751
 6702SOL     OW31564   3.813   3.132   0.916  0.0671  0.5830 -0.1206
 6702SOL    HW131565   3.876   3.198   0.888  1.2964 -0.4646  0.1767
 6702SOL    HW231566   3.735   3.188   0.917 -1.2155 -1.1690 -0.8934
 6703SOL     OW31567   1.694   3.198   5.341  0.3904 -0.1109 -0.5894
 6703SOL    HW131568   1.679   3.107   5.367 -1.9419  0.4168 -0.0304
 6703SOL    HW231569   1.655   3.248   5.412 -1.0326  0.4008 -1.7285
 6704SOL     OW31570   2.517   2.988   8.669  0.4775  0.3001 -0.2828
 6704SOL    HW131571   2.530   3.069   8.719 -1.5852  1.0820 -1.0240
 6704SOL    HW231572   2.594   2.987   8.612 -0.0424 -0.0834 -0.9649
 6705SOL     OW31573   3.062   0.956   1.616 -0.5753 -0.2372  0.9081
 6705SOL    HW131574   2.990   0.903   1.650  0.4440 -1.1011  1.7199
 6705SOL    HW231575   3.105   0.883   1.571  1.3340  0.3191  1.8520
 6706SOL     OW31576   0.655   3.200   4.933  0.8409  0.3646 -0.3132
 6706SOL    HW131577   0.562   3.218   4.949  1.0684  0.9534  0.3593
 6706SOL    HW231578   0.643   3.114   4.893 -1.2319  0.2007  0.6427
 6707SOL     OW31579   0.749   2.047   6.844  0.1912  1.0444  1.0685
 6707SOL    HW131580   0.657   2.020   6.842  0.5746 -0.2793  1.1300
 6707SOL    HW231581   0.789   1.979   6.899 -1.4797 -1.0853 -0.3677
 6708SOL     OW31582   0.669   4.152   2.738 -0.6132  0.3179 -0.2725
 6708SOL    HW131583   0.628   4.156   2.825 -0.2547 -1.2102 -0.0375
 6708SOL    HW231584   0.656   4.058   2.725  0.2019  0.1730 -0.0753
 6709SOL     OW31585   4.449   2.743  12.572  0.2482 -0.0002  0.2911
 6709SOL    HW131586   4.430   2.675  12.637 -0.7414 -2.2023 -2.3028
 6709SOL    HW231587   4.439   2.710  12.483  1.7848 -2.2543  0.9381
 6710SOL     OW31588   3.699   3.222   5.927  0.0621 -0.1415  0.0780
 6710SOL    HW131589   3.708   3.260   6.014  1.7272 -0.2910 -0.0108
 6710SOL    HW231590   3.702   3.128   5.944  1.4821 -0.4697 -1.8991
 6711SOL     OW31591   1.922   1.940  11.101  0.0710  0.4036  0.2855
 6711SOL    HW131592   1.862   1.903  11.166  1.0534 -0.8316  0.5038
 6711SOL    HW231593   1.962   1.859  11.067  0.2676  1.1023 -1.1702
 6712SOL     OW31594   3.946   3.484   5.984  0.6119 -0.0883 -0.0687
 6712SOL    HW131595   3.861   3.528   5.984  0.5103 -0.3062  2.0762
 6712SOL    HW231596   4.005   3.558   5.968 -0.8288  0.5907 -2.2305
 6713SOL     OW31597   2.488   2.577   4.237 -0.2514  0.4230  0.6792
 6713SOL    HW131598   2.406   2.530   4.221  0.8887 -1.2778 -0.1603
 6713SOL    HW231599   2.449   2.658   4.204 -1.3694 -0.3562  0.0692
 6714SOL     OW31600   4.619   1.263  13.012  0.0151 -0.4700  0.2361
 6714SOL    HW131601   4.580   1.278  13.098 -0.7617 -1.1943  0.0071
 6714SOL    HW231602   4.693   1.209  13.040 -0.2164  0.4448  2.6859
 6715SOL     OW31603   1.456   1.019   7.897 -0.2144 -0.1513  0.5818
 6715SOL    HW131604   1.515   0.955   7.856  1.4821  2.3219 -0.8203
 6715SOL    HW231605   1.455   0.986   7.987  2.3046  0.8573  0.9811
 6716SOL     OW31606   2.531   4.649   1.784  0.6228 -0.0943 -0.2239
 6716SOL    HW131607   2.469   4.590   1.741 -0.7569  0.1318  1.4373
 6716SOL    HW231608   2.559   4.684   1.700 -0.2260 -0.8754 -0.8253
 6717SOL     OW31609   1.237   0.769   2.822  0.1837 -0.2277  0.1646
 6717SOL    HW131610   1.316   0.765   2.877  0.8418 -0.7849 -0.8187
 6717SOL    HW231611   1.236   0.861   2.797 -3.1016 -0.3869 -0.1996
 6718SOL     OW31612   0.468   2.542   5.796  0.3763 -0.3505  0.0730
 6718SOL    HW131613   0.562   2.528   5.784  0.5943  1.3604 -0.1559
 6718SOL    HW231614   0.474   2.609   5.863  0.4859  1.2680 -1.5676
 6719SOL     OW31615   2.880   0.876  15.362  0.3850 -0.1681  0.4027
 6719SOL    HW131616   2.830   0.794  15.358  1.2478 -0.6643 -0.3109
 6719SOL    HW231617   2.885   0.915  15.449  0.3678 -1.0997  0.8186
 6720SOL     OW31618   1.065   1.467   8.680  0.4277 -0.8871 -0.4191
 6720SOL    HW131619   1.086   1.557   8.654 -2.0819  0.5010  2.4168
 6720SOL    HW231620   1.107   1.477   8.766  1.7381  2.3434 -1.4086
 6721SOL     OW31621   0.981   1.718   0.965  0.2992 -0.0336  0.0510
 6721SOL    HW131622   1.046   1.717   0.895 -1.5275  0.2051 -1.6481
 6721SOL    HW231623   1.036   1.722   1.043  0.7443  1.7326 -0.3380
 6722SOL     OW31624   2.352   2.502  10.617  0.3958  0.1468 -0.3881
 6722SOL    HW131625   2.445   2.497  10.639  0.5497  0.0298 -1.0956
 6722SOL    HW231626   2.344   2.597  10.610  4.1216  0.4106 -0.9320
 6723SOL     OW31627   4.259   3.083   2.411 -0.1154  0.3550  0.1647
 6723SOL    HW131628   4.228   3.093   2.321  0.7971 -1.2585 -0.3320
 6723SOL    HW231629   4.348   3.113   2.390 -0.9050  0.7514 -2.6224
 6724SOL     OW31630   3.246   2.964   5.318  0.2822  0.1493 -0.4206
 6724SOL    HW131631   3.178   2.936   5.258  0.7921 -4.2591  1.0762
 6724SOL    HW231632   3.245   3.060   5.326 -0.6044  0.0786  0.2921
 6725SOL     OW31633   2.794   3.676   3.274 -0.9320  0.0530  0.5705
 6725SOL    HW131634   2.767   3.651   3.186  0.2664  2.0391 -0.3495
 6725SOL    HW231635   2.708   3.694   3.313  0.0434 -0.0235  2.7690
 6726SOL     OW31636   4.240   0.978   7.491  0.2809  0.3385 -0.0504
 6726SOL    HW131637   4.298   0.955   7.563 -0.0423 -0.1123  0.0648
 6726SOL    HW231638   4.181   1.040   7.535  0.4948  0.2373  0.3781
 6727SOL     OW31639   0.341   3.134  16.901 -0.5235 -0.1388  0.3945
 6727SOL    HW131640   0.317   3.210  16.848 -3.2047  0.3684  2.3552
 6727SOL    HW231641   0.325   3.170  16.988  2.3952  1.9324  0.1045
 6728SOL     OW31642   2.191   2.684   2.476 -0.0739  0.2635  0.6911
 6728SOL    HW131643   2.131   2.639   2.536 -0.6577  1.1892  0.8042
 6728SOL    HW231644   2.266   2.691   2.534 -0.5960  3.3065  1.0194
 6729SOL     OW31645   0.171   0.161   1.113 -0.4863  0.9107 -0.2872
 6729SOL    HW131646   0.250   0.154   1.167 -1.6062 -0.5342  1.1551
 6729SOL    HW231647   0.108   0.155   1.185  2.1732 -1.2903  1.8429
 6730SOL     OW31648   3.945   0.175  16.999  0.0846 -0.6005 -0.1907
 6730SOL    HW131649   3.918   0.100  16.946  0.1596  0.7949 -2.1852
 6730SOL    HW231650   3.917   0.244  16.940  1.6405 -1.1236 -1.5384
 6731SOL     OW31651   0.151   3.612   4.075  0.2716 -0.7944  0.5140
 6731SOL    HW131652   0.121   3.695   4.113 -0.7649 -1.5197  1.2724
 6731SOL    HW231653   0.121   3.631   3.986  0.9955 -0.0610  0.4251
 6732SOL     OW31654   1.240   1.117   2.178  0.2944 -0.2150 -0.1170
 6732SOL    HW131655   1.333   1.118   2.203  0.5397  1.0339 -1.0985
 6732SOL    HW231656   1.249   1.186   2.112  1.5290  0.3181  0.5912
 6733SOL     OW31657   3.527   0.013   2.387 -0.1570  0.1728  0.5386
 6733SOL    HW131658   3.503   0.051   2.471 -1.1252 -1.4984  1.0184
 6733SOL    HW231659   3.618   4.712   2.381  0.3249  1.8382  0.4058
 6734SOL     OW31660   2.848   3.391   5.708 -0.2410 -0.0807  0.4624
 6734SOL    HW131661   2.908   3.431   5.645  0.9296 -2.0472  0.3328
 6734SOL    HW231662   2.891   3.308   5.729  0.1426 -0.5887 -2.4024
 6735SOL     OW31663   1.920   4.531   0.425 -0.5743  0.6867  0.6725
 6735SOL    HW131664   2.001   4.484   0.402 -2.1265 -0.5191 -2.3923
 6735SOL    HW231665   1.900   4.577   0.343 -0.1202  0.4125  0.4048
 6736SOL     OW31666   1.391   3.898   1.727 -0.2778  0.1212 -0.1400
 6736SOL    HW131667   1.340   3.963   1.679  0.1784 -0.8530 -1.9539
 6736SOL    HW231668   1.439   3.954   1.789  0.1857 -0.0481 -0.3452
 6737SOL     OW31669   1.167   1.988   3.839  0.0601 -0.4894 -0.8292
 6737SOL    HW131670   1.164   1.911   3.895 -0.7326  1.1222  1.3478
 6737SOL    HW231671   1.078   2.021   3.854  1.7188  2.7394  1.7846
 6738SOL     OW31672   1.337   2.925   7.395  0.2467 -0.2175 -0.5664
 6738SOL    HW131673   1.277   2.852   7.377  1.5688 -0.5159 -3.8159
 6738SOL    HW231674   1.364   2.954   7.308  0.9811 -0.6042 -0.4718
 6739SOL     OW31675   1.219   3.039   2.798 -0.1414 -0.2586  0.2598
 6739SOL    HW131676   1.209   2.990   2.716  1.4520  1.5844 -1.0369
 6739SOL    HW231677   1.137   3.036   2.847 -0.0329  0.3074  0.4670
 6740SOL     OW31678   0.608   2.685   2.972 -0.3685 -0.1384 -0.1207
 6740SOL    HW131679   0.540   2.641   3.023 -1.3267  0.0320 -1.2346
 6740SOL    HW231680   0.685   2.663   3.023  0.1619  0.4419 -0.6767
 6741SOL     OW31681   0.900   4.327   4.068 -0.7799 -0.0750 -0.6515
 6741SOL    HW131682   0.978   4.277   4.044  0.0099  0.7845  0.1336
 6741SOL    HW231683   0.929   4.386   4.137  2.5744 -0.4737 -1.7236
 6742SOL     OW31684   0.525   2.697   0.177 -0.0797 -0.0199  0.4975
 6742SOL    HW131685   0.614   2.681   0.210 -0.4520 -0.7936  1.0984
 6742SOL    HW231686   0.486   2.634   0.237  1.7723 -0.8336  0.8653
 6743SOL     OW31687   0.887   4.278   6.385  0.2143  0.9833 -0.3747
 6743SOL    HW131688   0.968   4.267   6.335 -0.4272  1.5789 -1.5512
 6743SOL    HW231689   0.883   4.195   6.433  0.0507  1.8596  1.1170
 6744SOL     OW31690   0.455   2.317   3.251 -0.5320  0.6165  0.0694
 6744SOL    HW131691   0.392   2.245   3.243 -0.2189  0.5092 -1.4039
 6744SOL    HW231692   0.511   2.303   3.175  2.0984  1.8499  1.8034
 6745SOL     OW31693   2.199   3.334  12.134 -0.0262 -0.0371 -0.7759
 6745SOL    HW131694   2.111   3.308  12.106 -0.3973  0.3596  0.0144
 6745SOL    HW231695   2.205   3.319  12.228  3.4232  0.8414 -0.8493
 6746SOL     OW31696   3.062   3.464  16.824 -0.7313  0.2113 -0.7097
 6746SOL    HW131697   3.084   3.388  16.771  0.6084  0.1274 -0.0538
 6746SOL    HW231698   3.110   3.452  16.907 -1.6793  0.5806 -0.1054
 6747SOL     OW31699   0.842   1.790   5.492  0.2974  0.5922  0.3595
 6747SOL    HW131700   0.912   1.742   5.448  0.9654  1.2718  0.6761
 6747SOL    HW231701   0.866   1.781   5.585 -1.2214 -3.1850  0.4031
 6748SOL     OW31702   3.705   2.901   4.810  0.2394 -0.2061 -0.6123
 6748SOL    HW131703   3.688   2.812   4.780  0.3825 -0.4021 -0.1098
 6748SOL    HW231704   3.765   2.880   4.882  1.1437 -2.8917 -2.1757
 6749SOL     OW31705   3.827   2.047   4.978 -0.1273 -0.1953  0.2544
 6749SOL    HW131706   3.894   1.981   4.996 -0.5524 -0.5950  0.3836
 6749SOL    HW231707   3.829   2.116   5.043 -1.3463  0.3784 -0.3032
 6750SOL     OW31708   0.651   2.085  11.598  0.0484 -0.9047  0.1325
 6750SOL    HW131709   0.570   2.136  11.591  0.7124  0.2040  0.4618
 6750SOL    HW231710   0.633   2.023  11.669  0.2188 -1.8406 -0.6383
 6751SOL     OW31711   2.204   2.012   6.172  0.0262 -0.1111 -0.3283
 6751SOL    HW131712   2.150   2.001   6.250 -0.9149  1.1660 -0.7917
 6751SOL    HW231713   2.253   2.092   6.189 -0.2101  0.2142 -1.1824
 6752SOL     OW31714   1.166   1.827   9.848  0.6313 -0.1290  0.4034
 6752SOL    HW131715   1.178   1.876   9.767 -1.0745 -0.8796 -0.3103
 6752SOL    HW231716   1.105   1.759   9.820 -2.3461  1.0908  3.9655
 6753SOL     OW31717   2.484   1.082  13.263  0.2869 -0.0404  0.5947
 6753SOL    HW131718   2.465   1.078  13.169  0.4613 -0.7201  0.5887
 6753SOL    HW231719   2.571   1.122  13.264  0.4185 -0.2271 -2.9467
 6754SOL     OW31720   0.907   2.845   4.197 -0.2205  0.1856  0.2812
 6754SOL    HW131721   0.834   2.902   4.221 -0.0976  1.0828 -1.4587
 6754SOL    HW231722   0.857   2.801   4.127 -1.7581 -0.0687  1.5317
 6755SOL     OW31723   3.777   3.237   1.687 -0.1112  0.5444  0.1216
 6755SOL    HW131724   3.726   3.278   1.756  2.1193  1.0779  1.4315
 6755SOL    HW231725   3.707   3.188   1.643 -0.3063  1.8516 -1.0239
 6756SOL     OW31726   4.036   2.038   9.974  0.5876 -0.2771  0.4922
 6756SOL    HW131727   4.073   2.089   9.902 -1.5643 -0.4766 -0.7510
 6756SOL    HW231728   4.060   2.093  10.048  2.4726 -0.8320  0.3038
 6757SOL     OW31729   0.327   2.258   5.459  0.5738 -0.6580 -0.0247
 6757SOL    HW131730   0.248   2.243   5.407  0.4591  0.6356 -0.2293
 6757SOL    HW231731   0.292   2.304   5.535 -0.1735 -1.5977  0.2080
 6758SOL     OW31732   3.978   2.109  12.444  0.1288 -0.0597  0.2528
 6758SOL    HW131733   3.967   2.182  12.505  1.1383 -0.6392  1.1099
 6758SOL    HW231734   3.930   2.037  12.484  0.3729 -0.3690 -0.0077
 6759SOL     OW31735   3.824   1.120  11.723  0.3007  0.1669  1.0508
 6759SOL    HW131736   3.874   1.183  11.776  0.4740  0.3595  0.6647
 6759SOL    HW231737   3.828   1.156  11.634  0.6449 -2.3618  0.0376
 6760SOL     OW31738   3.441   1.071   3.017 -0.0364  0.7591 -0.2132
 6760SOL    HW131739   3.511   1.016   3.052  1.3306  2.2417 -0.6040
 6760SOL    HW231740   3.388   1.005   2.974 -0.1774  0.6622  0.1087
 6761SOL     OW31741   2.600   2.731  12.577  0.3642  0.1227  0.3856
 6761SOL    HW131742   2.532   2.692  12.522  1.3229 -0.3922 -0.4264
 6761SOL    HW231743   2.649   2.779  12.511  0.9065 -1.1612 -0.1534
 6762SOL     OW31744   4.095   1.325   4.039  0.3136  0.3248  0.2247
 6762SOL    HW131745   4.180   1.345   3.998  0.2209 -1.8791 -1.0854
 6762SOL    HW231746   4.121   1.265   4.109  0.6373 -0.5519 -0.6432
 6763SOL     OW31747   4.642   1.949   9.411  0.0166 -0.4050 -0.0174
 6763SOL    HW131748   4.695   1.952   9.490 -0.4439 -0.6617  0.3025
 6763SOL    HW231749   4.636   2.042   9.391 -2.3905 -0.6273 -0.3027
 6764SOL     OW31750   1.673   2.244  13.832 -0.0068  0.1504  0.3504
 6764SOL    HW131751   1.602   2.226  13.893 -1.7905  0.8715 -1.4910
 6764SOL    HW231752   1.642   2.327  13.797  0.9677 -0.0462 -0.9622
 6765SOL     OW31753   2.114   3.129   8.861  0.0563  0.3267 -0.0619
 6765SOL    HW131754   2.050   3.060   8.874  0.5133  0.1014  0.9912
 6765SOL    HW231755   2.132   3.119   8.767  0.8787  0.2730  0.0999
 6766SOL     OW31756   0.903   0.516   3.245 -0.4129  0.0630  0.0777
 6766SOL    HW131757   0.956   0.437   3.231 -3.2656 -1.6585 -0.9720
 6766SOL    HW231758   0.956   0.570   3.186 -1.0964  0.4434 -0.1800
 6767SOL     OW31759   2.580   1.644   2.854 -0.4487 -0.1116 -0.6176
 6767SOL    HW131760   2.665   1.611   2.826  0.0510  0.9057 -0.2917
 6767SOL    HW231761   2.520   1.600   2.794 -2.0535  0.4388  0.5850
 6768SOL     OW31762   4.015   1.575  14.702  0.1018  0.0212 -0.0211
 6768SOL    HW131763   3.953   1.635  14.743  0.1855 -0.3790  0.6822
 6768SOL    HW231764   4.023   1.617  14.616  0.0602  1.5273  0.7196
 6769SOL     OW31765   1.653   4.261  10.528 -0.5965  0.4925 -0.1483
 6769SOL    HW131766   1.568   4.245  10.488  0.5431 -1.2913 -1.8210
 6769SOL    HW231767   1.644   4.351  10.561 -1.8723  0.7133 -1.1068
 6770SOL     OW31768   1.867   2.600  10.034 -0.1378  0.2547 -0.5923
 6770SOL    HW131769   1.833   2.516  10.064  1.7389  0.1692  1.2819
 6770SOL    HW231770   1.927   2.625  10.104 -0.9821 -1.3711  0.7070
 6771SOL     OW31771   0.218   0.276   3.995 -0.0796  0.0398  0.4095
 6771SOL    HW131772   0.301   0.291   4.040  0.5341  0.0414 -0.7412
 6771SOL    HW231773   0.250   0.306   3.910 -0.0125  0.1917  0.4887
 6772SOL     OW31774   0.672   1.559   6.677 -0.1534  0.2084  0.5360
 6772SOL    HW131775   0.694   1.624   6.611 -0.3544 -1.2722 -0.9756
 6772SOL    HW231776   0.581   1.583   6.697  0.2083  2.2950 -0.3442
 6773SOL     OW31777   3.164   1.979   2.282  0.1295 -0.2926 -0.3111
 6773SOL    HW131778   3.089   2.027   2.247  1.5477  2.2705  0.1426
 6773SOL    HW231779   3.132   1.892   2.260 -0.7365  0.3780 -1.7063
 6774SOL     OW31780   0.067   4.566   8.451  0.3178  0.1256 -0.1301
 6774SOL    HW131781   0.150   4.590   8.494 -0.8523  3.5781  0.2052
 6774SOL    HW231782   0.063   4.471   8.441  2.4838 -0.0129  0.3232
 6775SOL     OW31783   3.200   0.849   5.167 -0.2070  0.7726  0.3827
 6775SOL    HW131784   3.192   0.842   5.262  1.7516  1.6167  0.6022
 6775SOL    HW231785   3.238   0.764   5.144  0.6699  1.4158 -0.5220
 6776SOL     OW31786   2.680   3.139  10.537  0.3227 -0.6114 -0.3501
 6776SOL    HW131787   2.615   3.206  10.557 -0.1050 -0.0213 -3.6460
 6776SOL    HW231788   2.684   3.091  10.619  2.0313 -1.2224 -0.7860
 6777SOL     OW31789   3.732   2.855   4.421  0.2232  0.0323 -0.1498
 6777SOL    HW131790   3.660   2.812   4.467  0.8067 -0.1610  0.5926
 6777SOL    HW231791   3.703   2.867   4.331  0.6644  1.4030 -0.1094
 6778SOL     OW31792   0.615   4.296   4.209  0.6836 -0.5490  0.0899
 6778SOL    HW131793   0.558   4.269   4.137  1.0299  0.6597 -0.6264
 6778SOL    HW231794   0.576   4.379   4.235 -1.9814 -1.3574 -1.2793
 6779SOL     OW31795   0.764   0.139   8.142  0.5796  0.1515 -0.4057
 6779SOL    HW131796   0.717   0.056   8.135  0.3249  0.3002 -0.4590
 6779SOL    HW231797   0.715   0.198   8.086  0.4093  1.0806  0.7161
 6780SOL     OW31798   3.598   4.620  15.980 -0.4145  0.3572  0.1728
 6780SOL    HW131799   3.649   4.582  16.052 -2.2404 -1.5950  0.4341
 6780SOL    HW231800   3.554   4.542  15.946  2.5178 -1.2608  0.0046
 6781SOL     OW31801   0.008   1.698   3.766  0.1766  0.4324  0.1018
 6781SOL    HW131802   0.076   1.635   3.786  0.4443 -0.0717 -2.3252
 6781SOL    HW231803   0.044   1.777   3.805 -1.0793  0.7484  0.6334
 6782SOL     OW31804   4.372   4.231  14.705  0.2735  0.1400 -0.0863
 6782SOL    HW131805   4.405   4.269  14.623  0.8978  0.7477  0.4476
 6782SOL    HW231806   4.297   4.286  14.727  0.5234  0.1455  0.7684
 6783SOL     OW31807   1.298   0.588   1.129  0.4481 -0.1732 -0.4571
 6783SOL    HW131808   1.377   0.547   1.093  0.0350 -3.0850  2.0508
 6783SOL    HW231809   1.258   0.611   1.045  2.3003  1.7466 -0.8065
 6784SOL     OW31810   0.284   0.016   5.723  0.5316 -0.2365 -0.1874
 6784SOL    HW131811   0.239   0.019   5.807 -0.5815 -0.3474 -0.7919
 6784SOL    HW231812   0.211   4.709   5.672 -0.2316 -1.5711  1.7703
 6785SOL     OW31813   0.378   3.246   8.822  0.6308 -0.3252  0.2762
 6785SOL    HW131814   0.321   3.191   8.876  1.0267 -0.4899  0.5247
 6785SOL    HW231815   0.416   3.181   8.764  0.8111 -2.4582  2.7911
 6786SOL     OW31816   1.523   1.591   5.263  0.2823 -0.3843 -0.6258
 6786SOL    HW131817   1.443   1.581   5.315  0.7128  2.0988  0.5155
 6786SOL    HW231818   1.576   1.640   5.325 -3.0903  0.9240  1.2299
 6787SOL     OW31819   3.679   3.310   6.185  0.1725  0.2562 -0.3391
 6787SOL    HW131820   3.760   3.343   6.222  1.6221 -0.8471 -2.4743
 6787SOL    HW231821   3.669   3.235   6.244  0.7706  0.3298 -0.1495
 6788SOL     OW31822   1.787   0.320   8.716 -0.0336  0.0747 -0.3415
 6788SOL    HW131823   1.727   0.287   8.649 -2.4520  1.7352  1.0246
 6788SOL    HW231824   1.718   0.339   8.779  0.9340 -2.9553  1.6679
 6789SOL     OW31825   1.720   4.432   5.719  0.1209  0.2983  0.3005
 6789SOL    HW131826   1.631   4.403   5.699  1.1038 -1.2639 -1.8206
 6789SOL    HW231827   1.731   4.509   5.663 -1.1441 -0.2598 -0.7017
 6790SOL     OW31828   2.890   0.853  11.112 -0.0562 -0.2499 -0.2216
 6790SOL    HW131829   2.877   0.809  11.196  0.7134 -1.5561 -0.7837
 6790SOL    HW231830   2.863   0.941  11.139 -0.4035  0.2463 -2.1654
 6791SOL     OW31831   2.191   2.840   3.044 -0.1855  0.2214  0.7843
 6791SOL    HW131832   2.244   2.878   3.114  1.6285 -0.2663 -0.3191
 6791SOL    HW231833   2.104   2.881   3.046 -0.8609 -1.1736  0.3588
 6792SOL     OW31834   1.222   2.533   7.948 -0.1273 -0.3366 -0.0958
 6792SOL    HW131835   1.148   2.589   7.922 -1.5760 -2.0423  0.4203
 6792SOL    HW231836   1.268   2.511   7.866  0.1845 -1.3342  0.3515
 6793SOL     OW31837   2.579   3.341   2.123 -0.0115  0.0090  1.0240
 6793SOL    HW131838   2.600   3.310   2.212 -0.7147  0.4645  1.3495
 6793SOL    HW231839   2.661   3.381   2.095  0.4234 -1.1130  0.6789
 6794SOL     OW31840   2.658   2.538   0.746 -0.1542  0.6875  0.1942
 6794SOL    HW131841   2.577   2.541   0.695  0.7163  0.6924 -1.2112
 6794SOL    HW231842   2.696   2.617   0.707 -0.6342  0.7032 -0.2475
 6795SOL     OW31843   0.266   3.285   4.480 -0.0708 -0.3827 -0.2523
 6795SOL    HW131844   0.239   3.328   4.399  0.6170 -0.1626 -0.3633
 6795SOL    HW231845   0.341   3.337   4.510 -1.7434  2.4099 -0.8504
 6796SOL     OW31846   2.536   1.128   4.327  0.5242 -0.1835 -0.1318
 6796SOL    HW131847   2.576   1.187   4.391  1.6738 -1.5898  0.4379
 6796SOL    HW231848   2.605   1.063   4.313  1.1757  0.6861 -1.0298
 6797SOL     OW31849   2.419   0.475   9.332  0.0403  0.1434  0.2324
 6797SOL    HW131850   2.353   0.544   9.337 -0.7492 -0.7238  1.6392
 6797SOL    HW231851   2.464   0.480   9.417 -2.0782  1.1693  1.3080
 6798SOL     OW31852   3.926   2.552   4.865  0.8734 -0.2122  0.2099
 6798SOL    HW131853   3.867   2.607   4.917  1.1972 -1.4375  1.8839
 6798SOL    HW231854   3.977   2.625   4.829  0.0774 -0.0553 -0.6033
 6799SOL     OW31855   1.459   2.759  15.753 -0.3556 -0.2043  0.2924
 6799SOL    HW131856   1.418   2.673  15.752 -0.8054  0.0145 -0.0031
 6799SOL    HW231857   1.379   2.806  15.729 -0.4023 -0.8962 -0.8926
 6800SOL     OW31858   1.656   0.628   5.441 -0.7007 -0.2135  0.1595
 6800SOL    HW131859   1.675   0.674   5.359  1.1573 -0.8143  0.2533
 6800SOL    HW231860   1.611   0.552   5.403  1.9402 -1.0533 -1.2589
 6801SOL     OW31861   0.611   1.198  13.353  0.2066 -0.1599 -0.7549
 6801SOL    HW131862   0.653   1.278  13.384 -1.6970 -0.6818  3.1905
 6801SOL    HW231863   0.550   1.170  13.421  2.1954 -0.6448  0.8197
 6802SOL     OW31864   3.747   3.018   5.158 -0.1846 -0.4590 -0.2627
 6802SOL    HW131865   3.824   3.048   5.206  1.0272 -0.2960 -2.3433
 6802SOL    HW231866   3.678   3.079   5.185  0.2894  0.5911 -1.4216
 6803SOL     OW31867   3.203   2.356   0.890 -0.9428 -0.2982 -0.4626
 6803SOL    HW131868   3.265   2.299   0.935 -2.2693  1.1783  3.1949
 6803SOL    HW231869   3.214   2.317   0.803  0.4737 -1.7294  0.3566
 6804SOL     OW31870   0.323   1.933  15.276 -0.0635 -0.2646 -0.1661
 6804SOL    HW131871   0.419   1.934  15.272 -0.0792  0.3204 -0.3817
 6804SOL    HW231872   0.314   1.924  15.181  2.3485 -2.2696 -0.2119
 6805SOL     OW31873   3.422   2.553  14.678  0.0338 -0.1925 -0.0933
 6805SOL    HW131874   3.405   2.481  14.618 -3.8710 -0.2554  1.0892
 6805SOL    HW231875   3.340   2.603  14.683  0.6845  0.8908 -0.0925
 6806SOL     OW31876   2.888   0.987   3.986  0.2813  0.4955 -0.4736
 6806SOL    HW131877   2.896   1.076   4.018 -1.3286  0.1680  0.8456
 6806SOL    HW231878   2.958   0.994   3.921  0.5620  0.9865 -0.1098
 6807SOL     OW31879   3.352   2.307  11.969 -0.0112 -0.3546  0.1876
 6807SOL    HW131880   3.366   2.390  12.014 -0.5657  0.8883 -1.9418
 6807SOL    HW231881   3.360   2.230  12.026 -2.1362 -2.0716 -1.8376
 6808SOL     OW31882   3.365   3.870   2.375  0.0675 -0.0938 -0.4369
 6808SOL    HW131883   3.456   3.858   2.403 -0.1466  0.6338  0.5771
 6808SOL    HW231884   3.323   3.913   2.449  0.9757 -0.0918  0.0862
 6809SOL     OW31885   2.539   1.943   0.694 -0.0620 -0.7823  0.2005
 6809SOL    HW131886   2.461   1.889   0.709 -0.8461  0.0150 -1.0273
 6809SOL    HW231887   2.530   2.006   0.765 -0.6022 -2.0038  1.2267
 6810SOL     OW31888   2.956   0.062   3.426  0.5820  0.2191 -0.4800
 6810SOL    HW131889   2.967   4.718   3.362  0.9717 -0.0780 -0.0828
 6810SOL    HW231890   3.049   0.070   3.449  0.5185  0.0926 -0.1805
 6811SOL     OW31891   4.109   2.636  13.554 -0.3743 -0.5303  0.1279
 6811SOL    HW131892   4.185   2.686  13.584 -1.7148  0.2087  2.3147
 6811SOL    HW231893   4.043   2.699  13.581 -0.7847 -0.2120 -1.6588
 6812SOL     OW31894   1.542   2.297   4.377  0.1690  0.4501  0.2953
 6812SOL    HW131895   1.569   2.349   4.452 -0.9506  1.0719  0.2748
 6812SOL    HW231896   1.616   2.300   4.316 -0.7131  1.7516 -0.7400
 6813SOL     OW31897   2.592   0.424   8.300  0.2985 -0.2327 -0.2958
 6813SOL    HW131898   2.683   0.408   8.322  0.3254  0.4774  0.1150
 6813SOL    HW231899   2.563   0.487   8.367 -0.0228 -0.6374 -0.0526
 6814SOL     OW31900   1.035   2.720   0.572  0.3711 -0.3189 -0.4731
 6814SOL    HW131901   0.960   2.686   0.621  0.2591 -1.8562 -1.7097
 6814SOL    HW231902   1.103   2.707   0.637 -0.7526 -1.5738  0.4609
 6815SOL     OW31903   3.140   3.590   0.431 -0.2464 -0.0151  0.5677
 6815SOL    HW131904   3.180   3.673   0.404 -0.3700  0.2334  1.1447
 6815SOL    HW231905   3.060   3.630   0.465 -0.8746 -0.8562  0.0388
 6816SOL     OW31906   2.587   2.771   7.845  0.0097 -0.5547 -0.4445
 6816SOL    HW131907   2.550   2.831   7.780  0.3350  1.8679  1.6139
 6816SOL    HW231908   2.565   2.819   7.925  1.9803  0.0515 -0.2729
 6817SOL     OW31909   1.547   1.201   6.731 -0.9746  0.6082 -0.7912
 6817SOL    HW131910   1.477   1.141   6.756  1.6892 -0.7734  3.3341
 6817SOL    HW231911   1.601   1.196   6.809  0.4061  1.2398 -1.6973
 6818SOL     OW31912   3.577   0.712   7.864  0.3751 -0.5917 -0.1947
 6818SOL    HW131913   3.527   0.690   7.786  0.9142 -0.7904 -0.4819
 6818SOL    HW231914   3.666   0.717   7.829  0.1247 -0.8384 -0.8549
 6819SOL     OW31915   4.195   0.395   4.817  0.0611  0.5529 -0.0922
 6819SOL    HW131916   4.229   0.357   4.736  0.5100  1.8995 -0.5322
 6819SOL    HW231917   4.156   0.323   4.867 -1.5966  0.7805 -1.0702
 6820SOL     OW31918   2.964   2.062   3.797 -0.2051  0.0955 -0.2957
 6820SOL    HW131919   2.876   2.098   3.789 -0.4056 -0.7906 -1.9882
 6820SOL    HW231920   2.943   1.968   3.805 -1.3907  0.5606  2.1998
 6821SOL     OW31921   4.101   2.098   2.595  0.3494 -0.1982  0.4545
 6821SOL    HW131922   4.110   2.018   2.543 -1.7891  1.1297 -1.9652
 6821SOL    HW231923   4.188   2.113   2.631  2.6643 -3.6202 -3.7586
 6822SOL     OW31924   3.484   3.559  17.223  0.1057  0.2533 -0.3299
 6822SOL    HW131925   3.444   3.493  17.280  1.2482 -0.8428 -0.7900
 6822SOL    HW231926   3.405   3.605  17.198 -0.8355 -1.5640 -0.6778
 6823SOL     OW31927   3.500   3.974  16.274  0.2815 -0.3314  0.2022
 6823SOL    HW131928   3.467   4.057  16.310  2.9827  1.6778 -1.9624
 6823SOL    HW231929   3.485   3.918  16.350 -0.4597  1.8047  1.6463
 6824SOL     OW31930   4.508   1.517  14.692 -0.3579 -0.3870 -0.4772
 6824SOL    HW131931   4.600   1.543  14.679 -0.5194  0.8048  0.7950
 6824SOL    HW231932   4.466   1.576  14.630  0.1861 -0.2528 -0.7209
 6825SOL     OW31933   1.619   4.648  15.051  0.1012  0.4941  0.0597
 6825SOL    HW131934   1.649   4.557  15.044 -2.2245 -0.3929  1.4542
 6825SOL    HW231935   1.567   4.641  14.971  1.1825 -0.0618 -0.5984
 6826SOL     OW31936   4.499   1.655   7.087 -0.0678  0.4475  0.0218
 6826SOL    HW131937   4.547   1.716   7.142 -1.4092  1.6739 -0.1633
 6826SOL    HW231938   4.473   1.582   7.143  0.2875  0.5387  0.3018
 6827SOL     OW31939   0.651   1.743  10.564  0.0309 -0.5433 -0.3485
 6827SOL    HW131940   0.679   1.652  10.576 -0.1536 -0.8524 -2.2238
 6827SOL    HW231941   0.706   1.792  10.625 -0.5585 -2.3246  1.6421
 6828SOL     OW31942   3.264   4.457   0.707 -0.0306 -0.2055  0.4754
 6828SOL    HW131943   3.269   4.443   0.802  0.4029  3.8699  1.0517
 6828SOL    HW231944   3.319   4.532   0.684  0.0793 -0.2837  0.4793
 6829SOL     OW31945   2.369   1.315   1.872  0.0367 -0.6857 -0.3304
 6829SOL    HW131946   2.289   1.367   1.873  0.2015 -0.4357  2.6322
 6829SOL    HW231947   2.375   1.266   1.790 -0.1238  0.7916 -1.2206
 6830SOL     OW31948   1.922   1.543  12.358  0.8935 -0.0996 -0.0798
 6830SOL    HW131949   1.904   1.637  12.367  0.2151 -0.4317  2.0306
 6830SOL    HW231950   1.832   1.511  12.355  0.4647  1.0121  0.7458
 6831SOL     OW31951   0.531   2.252  17.425  0.4606 -0.1722 -0.0631
 6831SOL    HW131952   0.499   2.172  17.466 -3.5317  0.2341 -2.4078
 6831SOL    HW231953   0.445   2.295  17.429 -0.3692 -1.6460 -2.0786
 6832SOL     OW31954   0.655   0.667  16.295  0.6559  0.2830 -0.8798
 6832SOL    HW131955   0.603   0.718  16.233  1.1185  0.9817 -0.6896
 6832SOL    HW231956   0.700   0.604  16.237  0.0617  0.7665 -1.8680
 6833SOL     OW31957   1.129   0.488  10.817 -0.4020  0.1164 -0.1517
 6833SOL    HW131958   1.135   0.524  10.728 -2.1482  1.2278  0.1832
 6833SOL    HW231959   1.051   0.434  10.802  0.6741 -1.4184 -0.1655
 6834SOL     OW31960   0.650   0.225   6.757  0.0368 -0.1891 -0.1564
 6834SOL    HW131961   0.591   0.223   6.832 -2.0273 -1.2299 -1.8078
 6834SOL    HW231962   0.646   0.319   6.738  0.4345 -0.2699 -0.6465
 6835SOL     OW31963   1.953   0.350  11.999  0.5639  0.1264  0.4388
 6835SOL    HW131964   1.983   0.266  12.033 -1.4832 -0.8566 -0.1260
 6835SOL    HW231965   2.022   0.403  12.037  1.3441 -0.0791 -0.6780
 6836SOL     OW31966   3.660   4.524   7.023  0.0680 -0.3271  0.0879
 6836SOL    HW131967   3.637   4.546   7.113 -0.4829 -1.1028  0.1369
 6836SOL    HW231968   3.743   4.477   7.034 -0.5270 -2.0928 -2.7467
 6837SOL     OW31969   1.370   3.050  11.326 -0.0770 -0.1538  0.1547
 6837SOL    HW131970   1.428   2.974  11.331 -0.7651 -0.5375  2.4022
 6837SOL    HW231971   1.389   3.082  11.238 -0.4637  0.2666  0.2236
 6838SOL     OW31972   1.846   3.820   7.601  0.0541  0.5791 -0.4323
 6838SOL    HW131973   1.835   3.850   7.511  1.0820 -0.4113 -0.8935
 6838SOL    HW231974   1.897   3.745   7.570 -0.5669 -0.2113  0.4226
 6839SOL     OW31975   0.443   1.257   2.641 -0.1618 -0.6184 -0.3212
 6839SOL    HW131976   0.404   1.344   2.651  0.3367 -0.2362 -1.7222
 6839SOL    HW231977   0.381   1.201   2.593 -1.9004 -0.1440  1.3928
 6840SOL     OW31978   4.554   1.384   4.078  0.3610  0.2904 -0.0115
 6840SOL    HW131979   4.564   1.448   4.148 -0.9013  1.7998 -1.1903
 6840SOL    HW231980   4.484   1.423   4.024 -0.2102  0.7043  1.0263
 6841SOL     OW31981   0.492   3.927   1.236  0.1372  0.2455  0.2947
 6841SOL    HW131982   0.460   3.883   1.157 -0.6720  0.6133  0.4136
 6841SOL    HW231983   0.582   3.943   1.210  0.1912  0.6418  0.7137
 6842SOL     OW31984   4.571   3.446  13.029 -0.1096  0.1438 -0.9256
 6842SOL    HW131985   4.607   3.521  13.076  0.2378 -0.9898  0.5987
 6842SOL    HW231986   4.648   3.391  13.041 -0.8600 -0.6940 -0.0219
 6843SOL     OW31987   0.506   0.892  15.637 -0.1151  0.2522  1.0066
 6843SOL    HW131988   0.442   0.952  15.598  2.2850  0.8327 -2.0520
 6843SOL    HW231989   0.573   0.876  15.570 -2.5726  1.3713 -1.7427
 6844SOL     OW31990   1.819   0.672   8.059 -0.4067 -0.2588 -0.1021
 6844SOL    HW131991   1.765   0.682   8.138  1.0371  2.6201  0.5492
 6844SOL    HW231992   1.882   0.744   8.071  1.1406 -1.6688  0.1646
 6845SOL     OW31993   2.372   4.184   1.429 -0.1283  0.0955 -0.2967
 6845SOL    HW131994   2.405   4.155   1.344 -1.6506  2.2568 -1.6177
 6845SOL    HW231995   2.333   4.268   1.403 -2.5271 -0.8331  0.2859
 6846SOL     OW31996   0.370   2.293   4.330 -0.2501  0.0874 -0.5483
 6846SOL    HW131997   0.465   2.298   4.323 -0.0217 -1.4589  1.5265
 6846SOL    HW231998   0.344   2.272   4.241  1.0869 -0.3586 -0.8169
 6847SOL     OW31999   1.834   4.280  12.733 -0.0460  0.2182  0.3178
 6847SOL    HW132000   1.857   4.292  12.825  1.3551  0.5707 -0.0742
 6847SOL    HW232001   1.807   4.190  12.717  1.8521 -0.1815 -0.6057
 6848SOL     OW32002   1.139   1.314   1.659 -0.5228 -0.2350 -0.0238
 6848SOL    HW132003   1.224   1.300   1.619 -0.1851 -2.2116  1.3554
 6848SOL    HW232004   1.076   1.297   1.589  0.5614 -1.5474 -0.6779
 6849SOL     OW32005   0.275   1.450   6.254 -0.0176 -0.4090 -0.3359
 6849SOL    HW132006   0.370   1.450   6.266 -0.2427 -0.0007  1.4332
 6849SOL    HW232007   0.267   1.503   6.175  2.3129  4.0712  2.4510
 6850SOL     OW32008   1.137   2.273  17.420  0.2546  0.2368  0.0828
 6850SOL    HW132009   1.072   2.295  17.487 -1.7100 -1.4018 -1.2581
 6850SOL    HW232010   1.083   2.295  17.344  0.1501  1.1028  0.4118
 6851SOL     OW32011   3.535   2.627  13.634 -0.0499  0.1553 -0.0751
 6851SOL    HW132012   3.509   2.544  13.672 -0.1733  0.3576  0.2861
 6851SOL    HW232013   3.626   2.608  13.612 -0.3135 -1.2418  0.0438
 6852SOL     OW32014   3.048   3.056   9.041  0.3866  0.2159 -0.7101
 6852SOL    HW132015   3.101   2.976   9.039  1.2978  0.8508 -1.3029
 6852SOL    HW232016   3.003   3.057   8.956 -2.5774 -1.3146  0.8308
 6853SOL     OW32017   1.234   1.498   6.702 -0.3177  0.2668  0.5113
 6853SOL    HW132018   1.262   1.585   6.675 -0.6737 -0.1286 -1.0810
 6853SOL    HW232019   1.151   1.509   6.748 -1.0759  2.1819 -1.3186
 6854SOL     OW32020   2.232   4.174   3.061 -0.0823 -0.1132 -0.1149
 6854SOL    HW132021   2.250   4.081   3.046 -1.5014 -0.5748  1.1060
 6854SOL    HW232022   2.265   4.206   2.976  0.8979  0.1139  0.3448
 6855SOL     OW32023   4.660   2.116  15.970 -0.1462 -0.1483  0.5562
 6855SOL    HW132024   0.020   2.156  15.963 -0.8267  1.4015  1.1777
 6855SOL    HW232025   4.673   2.052  16.040  1.4122  0.9558  1.2538
 6856SOL     OW32026   0.604   2.521   4.668 -0.1501  0.1125 -0.3714
 6856SOL    HW132027   0.609   2.432   4.703 -0.9050  0.6054  1.0013
 6856SOL    HW232028   0.664   2.510   4.594 -0.4660 -1.1335 -0.4346
 6857SOL     OW32029   0.373   3.414   3.908 -0.6117 -0.1431 -0.1590
 6857SOL    HW132030   0.453   3.404   3.855  0.0218 -1.6792  1.0903
 6857SOL    HW232031   0.298   3.380   3.860 -1.0088  0.6015 -0.0666
 6858SOL     OW32032   0.722   3.617  16.712 -0.5158 -0.1488  0.1393
 6858SOL    HW132033   0.757   3.577  16.633  1.3763  1.0274  0.3952
 6858SOL    HW232034   0.708   3.539  16.766 -1.5173  0.8106  1.2748
 6859SOL     OW32035   3.722   2.862   5.749 -0.4472 -0.3106  0.3199
 6859SOL    HW132036   3.730   2.803   5.824 -1.7124 -1.6258 -0.5878
 6859SOL    HW232037   3.641   2.829   5.711 -0.2576 -0.2455 -0.1321
 6860SOL     OW32038   1.692   2.850   8.190 -0.1496 -0.1000 -0.1781
 6860SOL    HW132039   1.628   2.782   8.209  1.0064 -1.2939 -0.5538
 6860SOL    HW232040   1.723   2.826   8.102  0.4040  1.2603 -0.3579
 6861SOL     OW32041   1.483   3.863   7.588  0.4836 -0.0324  0.2951
 6861SOL    HW132042   1.515   3.869   7.498 -0.9538  1.2951 -0.1282
 6861SOL    HW232043   1.393   3.831   7.577  1.3407 -2.2838 -0.2713
 6862SOL     OW32044   1.150   4.218   6.335  0.2093 -0.4403  0.1606
 6862SOL    HW132045   1.148   4.166   6.415  2.9624  0.3640  0.7585
 6862SOL    HW232046   1.185   4.303   6.362 -0.3935 -0.2051  0.1990
 6863SOL     OW32047   0.260   1.026   6.138  0.1374 -0.0278  0.4432
 6863SOL    HW132048   0.198   1.003   6.206  0.8361  0.8199  1.3675
 6863SOL    HW232049   0.342   1.014   6.186  1.6169 -0.9601 -2.3143
 6864SOL     OW32050   4.013   0.642   0.349  0.0772  0.0327 -0.2663
 6864SOL    HW132051   4.003   0.556   0.391 -1.3903 -0.0470 -0.7762
 6864SOL    HW232052   3.923   0.660   0.325  0.2974  0.9924 -0.3671
 6865SOL     OW32053   1.648   4.421  12.495 -0.1437  0.4753  0.7677
 6865SOL    HW132054   1.727   4.452  12.449  0.1331 -0.3163  0.7170
 6865SOL    HW232055   1.589   4.487  12.459 -2.3853 -0.9833  1.7560
 6866SOL     OW32056   3.149   2.971  17.398 -0.1931 -0.1572  0.0981
 6866SOL    HW132057   3.164   2.890  17.350 -4.9250 -0.0829 -1.5142
 6866SOL    HW232058   3.229   2.975  17.451 -0.7813 -1.3221  1.0511
 6867SOL     OW32059   4.523   4.372   5.206  0.2375  0.1802 -0.1765
 6867SOL    HW132060   4.529   4.468   5.211 -1.6455  0.3218 -0.8135
 6867SOL    HW232061   4.611   4.354   5.171 -0.1567 -2.8785  0.5094
 6868SOL     OW32062   3.476   3.749   7.629 -0.3300  0.0937  0.4454
 6868SOL    HW132063   3.472   3.672   7.573 -0.0346  1.1266 -0.9970
 6868SOL    HW232064   3.396   3.797   7.606 -1.1845 -0.8473  1.4812
 6869SOL     OW32065   1.836   2.075   6.198 -0.1593 -0.3319 -0.0945
 6869SOL    HW132066   1.869   2.152   6.152 -0.6549  0.3821  0.7237
 6869SOL    HW232067   1.763   2.065   6.137 -0.2983 -0.9456  0.1764
 6870SOL     OW32068   1.912   3.241   3.095 -0.2807 -0.0038  0.2276
 6870SOL    HW132069   1.829   3.286   3.079 -1.0066 -2.1572 -2.0565
 6870SOL    HW232070   1.926   3.282   3.180  1.8804  1.1082 -0.6664
 6871SOL     OW32071   1.168   1.678  10.493 -0.0027  0.8161 -0.1518
 6871SOL    HW132072   1.202   1.703  10.407  1.0289  1.8410  0.5715
 6871SOL    HW232073   1.085   1.725  10.486 -1.1936 -1.3007 -0.4930
 6872SOL     OW32074   1.722   3.180   6.536  0.0385  0.1395  0.1974
 6872SOL    HW132075   1.684   3.177   6.624 -3.2327  1.1009 -1.1838
 6872SOL    HW232076   1.692   3.092   6.514  1.3251  0.4216 -2.7060
 6873SOL     OW32077   3.280   0.479   3.226  0.0693 -0.2313 -0.6914
 6873SOL    HW132078   3.206   0.527   3.264  0.7334 -0.1008  0.4095
 6873SOL    HW232079   3.238   0.429   3.155 -2.2383  1.3912 -0.4436
 6874SOL     OW32080   4.097   3.852  16.390 -0.2787  0.2200 -0.2630
 6874SOL    HW132081   4.173   3.799  16.417  0.1278  0.3453 -1.1738
 6874SOL    HW232082   4.030   3.830  16.455 -0.6085  1.1962 -0.2818
 6875SOL     OW32083   2.714   2.834   3.588  0.5345  0.9362 -0.5561
 6875SOL    HW132084   2.771   2.806   3.659 -1.8397 -0.8828  0.6255
 6875SOL    HW232085   2.753   2.919   3.565 -0.9603  1.8841  0.4363
 6876SOL     OW32086   4.189   3.456   3.428 -0.2602 -0.2662 -0.5025
 6876SOL    HW132087   4.277   3.495   3.434 -1.2455  1.5258  2.5587
 6876SOL    HW232088   4.179   3.420   3.340  0.4890 -0.6286 -0.4467
 6877SOL     OW32089   2.214   0.920   6.492 -0.5920  0.5598  0.1247
 6877SOL    HW132090   2.281   0.987   6.504 -0.3713  0.0079  2.0540
 6877SOL    HW232091   2.244   0.855   6.556 -1.4588  0.6836  0.6673
 6878SOL     OW32092   2.870   2.268   0.415  0.8962  0.8276 -0.1278
 6878SOL    HW132093   2.833   2.183   0.440  1.7861  0.4339 -0.1750
 6878SOL    HW232094   2.847   2.262   0.322 -0.8812 -2.5382  0.5488
 6879SOL     OW32095   1.124   2.042  14.925 -0.4721 -0.1513 -0.0594
 6879SOL    HW132096   1.088   1.957  14.950  0.8582 -0.4265  0.8839
 6879SOL    HW232097   1.112   2.080  15.012  0.1388 -0.4590  0.1554
 6880SOL     OW32098   1.767   4.238   7.518  0.3804 -0.1641  0.5657
 6880SOL    HW132099   1.853   4.217   7.482 -0.0036 -1.2152  0.2520
 6880SOL    HW232100   1.791   4.314   7.570 -0.4088  1.9169 -2.1169
 6881SOL     OW32101   3.133   4.490   0.319 -0.3242  0.1408 -0.7231
 6881SOL    HW132102   3.138   4.524   0.230  2.1936 -0.2553 -0.7540
 6881SOL    HW232103   3.120   4.568   0.373 -0.1272 -1.5427  1.7585
 6882SOL     OW32104   0.214   1.616   8.196 -0.5363  0.4191 -0.0262
 6882SOL    HW132105   0.204   1.601   8.290 -1.1770 -2.1437 -0.5011
 6882SOL    HW232106   0.295   1.571   8.172 -0.1043 -0.2313  2.7579
 6883SOL     OW32107   4.384   2.904   5.159  0.0772 -0.1951  0.0014
 6883SOL    HW132108   4.451   2.882   5.223  1.1176  0.2370 -0.9486
 6883SOL    HW232109   4.416   2.991   5.136 -3.0236  1.0903  0.5459
 6884SOL     OW32110   3.387   2.267   3.683  0.3338  0.6231  0.0439
 6884SOL    HW132111   3.313   2.275   3.742 -0.7954  1.1190 -1.4236
 6884SOL    HW232112   3.427   2.352   3.695 -1.6526  1.7591 -1.2826
 6885SOL     OW32113   3.195   1.242   8.491  0.2076 -0.3088 -0.1934
 6885SOL    HW132114   3.117   1.187   8.487  0.1007 -0.3939  3.2282
 6885SOL    HW232115   3.222   1.231   8.400  0.2671 -2.1413  0.0475
 6886SOL     OW32116   4.034   4.202   6.212 -0.1280  0.1664  0.3072
 6886SOL    HW132117   3.939   4.212   6.211 -0.3043 -1.5158 -0.6626
 6886SOL    HW232118   4.059   4.273   6.270 -0.8395 -0.7332  1.7088
 6887SOL     OW32119   4.336   1.355  16.240  0.4610 -0.1788 -0.4603
 6887SOL    HW132120   4.376   1.294  16.302  0.4643 -0.4658 -0.7425
 6887SOL    HW232121   4.260   1.384  16.291  0.9607  1.6465 -0.7439
 6888SOL     OW32122   4.153   4.248   1.610  0.1911  0.0607  0.0960
 6888SOL    HW132123   4.230   4.289   1.572  1.2646  0.4692  2.7192
 6888SOL    HW232124   4.123   4.179   1.551 -2.7993  0.9429  0.5857
 6889SOL     OW32125   4.467   2.602  11.399 -0.5268 -0.3740 -0.2355
 6889SOL    HW132126   4.459   2.538  11.470  0.0860 -2.1537 -1.7499
 6889SOL    HW232127   4.403   2.563  11.339  0.9171  0.0390 -2.0461
 6890SOL     OW32128   2.248   2.283   5.232 -0.1907  0.2574  0.0677
 6890SOL    HW132129   2.277   2.219   5.297 -2.5967 -0.2716  0.6173
 6890SOL    HW232130   2.328   2.334   5.217  0.2901  0.0435  1.9110
 6891SOL     OW32131   4.638   0.995   0.446 -0.2667 -0.0836  0.2026
 6891SOL    HW132132   4.593   0.936   0.506 -2.5233  2.4904  1.0547
 6891SOL    HW232133   4.598   0.970   0.362 -0.4938 -0.7626  0.5189
 6892SOL     OW32134   0.386   3.746  12.628 -0.1591  0.2230 -0.5154
 6892SOL    HW132135   0.298   3.744  12.592  0.1397  0.8360 -1.2813
 6892SOL    HW232136   0.358   3.789  12.709 -0.0135  0.3445 -0.5290
 6893SOL     OW32137   3.834   0.926  10.776 -0.4481 -0.1414 -0.3456
 6893SOL    HW132138   3.889   1.001  10.752 -1.6266  1.1905  1.1146
 6893SOL    HW232139   3.845   0.914  10.870  1.4575 -0.0401 -0.5559
 6894SOL     OW32140   3.581   0.169   1.109  0.0935  0.0788  0.0044
 6894SOL    HW132141   3.554   0.088   1.152  1.0280 -0.0060  0.4317
 6894SOL    HW232142   3.621   0.229   1.173 -1.3968  0.4882  0.5572
 6895SOL     OW32143   1.768   3.439   1.660 -0.1459  0.1637 -0.3254
 6895SOL    HW132144   1.836   3.371   1.664  1.8399  2.1403  0.0389
 6895SOL    HW232145   1.727   3.422   1.576 -2.1470  2.7051  0.1269
 6896SOL     OW32146   2.984   3.024  14.794 -0.2858  0.2463 -0.4173
 6896SOL    HW132147   2.965   3.117  14.808 -1.2138  0.1511 -1.0318
 6896SOL    HW232148   3.068   3.022  14.840  0.1981 -0.6235 -1.3474
 6897SOL     OW32149   4.612   3.602   9.066  0.1529  0.4212 -0.7603
 6897SOL    HW132150   4.520   3.585   9.046 -0.4734  4.2918 -1.2462
 6897SOL    HW232151   4.620   3.584   9.160 -0.1543 -0.8033 -0.9720
 6898SOL     OW32152   1.728   4.178   7.194  0.0116 -0.7007  0.2906
 6898SOL    HW132153   1.661   4.239   7.163 -0.8700 -1.9263 -0.2642
 6898SOL    HW232154   1.695   4.159   7.282 -0.4298  0.3164  0.3426
 6899SOL     OW32155   0.316   0.579   4.940 -0.1198 -0.0919 -0.2855
 6899SOL    HW132156   0.317   0.651   4.877  1.8439 -1.2541 -1.5749
 6899SOL    HW232157   0.248   0.617   4.996 -1.8007 -0.9910 -1.7304
 6900SOL     OW32158   0.934   1.109   5.093 -0.1564 -0.2267  0.4553
 6900SOL    HW132159   0.851   1.136   5.132  0.8524  2.0588  1.0103
 6900SOL    HW232160   0.995   1.163   5.142  0.8596  0.4699 -1.5941
 6901SOL     OW32161   3.003   2.688   1.775  0.0383  0.2254  0.0231
 6901SOL    HW132162   3.039   2.773   1.802  0.2646  0.4913 -1.1044
 6901SOL    HW232163   3.076   2.647   1.729  0.5143 -0.0942  1.0800
 6902SOL     OW32164   2.049   3.942   5.139  0.3741  0.6257  0.4260
 6902SOL    HW132165   2.113   3.871   5.144  0.2563  0.1841 -4.4276
 6902SOL    HW232166   1.985   3.913   5.074  2.6177  3.3137 -2.9236
 6903SOL     OW32167   0.003   2.316  17.316  0.0862 -0.2231 -0.0774
 6903SOL    HW132168   4.710   2.331  17.224  0.7809  0.1627 -0.1648
 6903SOL    HW232169   4.714   2.399  17.361 -0.7998  0.1420 -1.0513
 6904SOL     OW32170   0.482   1.806   7.900 -0.2637 -0.3667  0.2619
 6904SOL    HW132171   0.448   1.841   7.982  0.8539  0.4992  0.3598
 6904SOL    HW232172   0.463   1.880   7.842 -1.5858  0.4285  1.7076
 6905SOL     OW32173   0.737   3.694   5.572 -0.1756 -0.0622  0.0351
 6905SOL    HW132174   0.765   3.604   5.586 -2.8939 -1.1341 -1.3742
 6905SOL    HW232175   0.732   3.718   5.664 -0.1841  0.1366 -0.0163
 6906SOL     OW32176   0.697   0.929   8.558  0.3846  0.4108 -0.4963
 6906SOL    HW132177   0.779   0.953   8.602  1.0519 -3.0167  0.0646
 6906SOL    HW232178   0.721   0.929   8.465  0.9431  0.5410 -0.3539
 6907SOL     OW32179   1.492   2.157   1.166 -0.1608  0.7350  0.4729
 6907SOL    HW132180   1.456   2.071   1.185  0.4004  0.5561  0.7441
 6907SOL    HW232181   1.436   2.172   1.090  1.5245 -1.0581 -1.1206
 6908SOL     OW32182   4.642   1.833  14.504  0.0923 -0.2182 -0.5085
 6908SOL    HW132183   4.708   1.872  14.448 -0.3283 -0.4276 -1.1468
 6908SOL    HW232184   4.602   1.911  14.541  1.0794  0.3113 -0.5499
 6909SOL     OW32185   4.445   2.684   5.850  0.0335 -0.3453 -0.1942
 6909SOL    HW132186   4.512   2.729   5.903 -1.5585  0.2210  1.3743
 6909SOL    HW232187   4.492   2.614   5.805  1.2325  0.6275 -0.4584
 6910SOL     OW32188   2.870   3.368   2.047 -0.1026  0.2626 -0.1736
 6910SOL    HW132189   2.919   3.286   2.045 -0.9309 -0.1695 -2.4172
 6910SOL    HW232190   2.895   3.414   2.127  0.5171  1.9953 -1.3768
 6911SOL     OW32191   2.461   1.936   1.496  0.1215  0.7861  0.2313
 6911SOL    HW132192   2.492   1.910   1.582  0.8554  0.7248 -0.0517
 6911SOL    HW232193   2.507   2.019   1.490 -0.3254  1.0594  0.6116
 6912SOL     OW32194   0.076   0.078   2.922 -0.3828  0.1714  0.3277
 6912SOL    HW132195   0.050   0.090   3.013 -1.0828 -0.0160  0.1567
 6912SOL    HW232196   0.080   0.166   2.884 -2.0071 -0.4900 -1.3757
 6913SOL     OW32197   4.019   2.475  17.680 -0.7110  0.5730  0.5802
 6913SOL    HW132198   4.108   2.439  17.675 -1.1374 -0.4289  0.3294
 6913SOL    HW232199   4.018   2.520  17.596 -1.7605  2.1041  1.4166
 6914SOL     OW32200   0.606   2.400  10.205  0.2131  0.1624  0.0234
 6914SOL    HW132201   0.634   2.314  10.176 -3.4240 -0.5444 -1.4531
 6914SOL    HW232202   0.688   2.443  10.230 -0.1161  0.7785  0.0600
 6915SOL     OW32203   1.674   0.523  13.068  0.1087 -0.3084  0.3804
 6915SOL    HW132204   1.688   0.494  13.158 -0.7183 -4.4239 -0.8376
 6915SOL    HW232205   1.742   0.475  13.021  0.8799  0.9496  0.2230
 6916SOL     OW32206   3.650   0.768   2.833  0.4039  0.2638  0.4739
 6916SOL    HW132207   3.616   0.759   2.922 -0.0405 -0.9222  0.1797
 6916SOL    HW232208   3.735   0.726   2.848  0.6915  0.7852  0.3080
 6917SOL     OW32209   0.971   1.231  15.122 -0.0059 -0.2453  0.0105
 6917SOL    HW132210   0.991   1.177  15.046 -0.7184  2.5802 -2.1800
 6917SOL    HW232211   0.970   1.157  15.183 -0.6906  0.9612  1.4672
 6918SOL     OW32212   0.341   0.332   1.759  0.0572 -0.5898 -0.1528
 6918SOL    HW132213   0.259   0.359   1.719  1.2870  1.6895 -1.1348
 6918SOL    HW232214   0.397   0.403   1.727  0.9992 -1.7024 -0.9678
 6919SOL     OW32215   3.598   2.282   3.256  0.9626 -0.5981 -0.5259
 6919SOL    HW132216   3.624   2.374   3.249  0.1465 -0.2579  0.9893
 6919SOL    HW232217   3.550   2.277   3.173 -1.4356  0.3154  0.7885
 6920SOL     OW32218   2.773   3.056   7.222  0.3273 -0.5312 -0.2313
 6920SOL    HW132219   2.699   3.020   7.272  0.8655  1.1283  1.7531
 6920SOL    HW232220   2.810   2.978   7.180  2.8284  0.4420  0.1673
 6921SOL     OW32221   3.602   2.435   4.373  0.2384  0.1148  0.1933
 6921SOL    HW132222   3.555   2.507   4.331 -0.2645 -0.2444  0.1426
 6921SOL    HW232223   3.546   2.358   4.384 -1.2629  0.9592 -1.6460
 6922SOL     OW32224   1.390   0.831   7.272 -0.0246 -0.3770 -0.0655
 6922SOL    HW132225   1.332   0.902   7.244  0.4369  0.6265  1.5143
 6922SOL    HW232226   1.385   0.828   7.367 -3.7838 -1.7279 -0.3305
 6923SOL     OW32227   2.956   1.060   7.054  0.7607 -0.4705  0.4125
 6923SOL    HW132228   2.928   1.020   7.137  0.3297  0.5061  0.7337
 6923SOL    HW232229   2.910   1.005   6.990  0.6246  1.7368 -1.3676
 6924SOL     OW32230   4.627   0.835   5.747 -0.4198 -0.0226 -0.3417
 6924SOL    HW132231   4.632   0.745   5.780 -0.0737 -0.6921 -2.2338
 6924SOL    HW232232   4.534   0.842   5.725 -0.7299  0.7112  1.2225
 6925SOL     OW32233   4.378   2.928  15.794 -0.3955 -0.1806 -0.2064
 6925SOL    HW132234   4.283   2.914  15.799 -0.4681  0.1160 -0.6963
 6925SOL    HW232235   4.397   2.860  15.730 -2.8343 -2.1561  1.1760
 6926SOL     OW32236   1.871   0.475  13.551  0.2021 -0.2834  0.2356
 6926SOL    HW132237   1.913   0.559  13.565 -0.7827 -0.2484  3.0734
 6926SOL    HW232238   1.829   0.457  13.635  1.1109  1.1683  0.9905
 6927SOL     OW32239   3.143   1.025   5.432  0.0600 -0.0872  0.1294
 6927SOL    HW132240   3.093   1.093   5.388 -2.0788 -2.6735 -1.4009
 6927SOL    HW232241   3.087   0.947   5.437  1.1821 -0.9244 -0.2089
 6928SOL     OW32242   1.209   1.657  12.234 -0.1762  0.5633  0.0303
 6928SOL    HW132243   1.221   1.596  12.162  3.3037  1.8366 -0.5086
 6928SOL    HW232244   1.283   1.716  12.215 -1.2942  2.2630  0.9547
 6929SOL     OW32245   0.872   0.149   6.903  0.2727 -0.0612  0.6216
 6929SOL    HW132246   0.933   0.222   6.892  0.0395 -0.5096 -3.5826
 6929SOL    HW232247   0.806   0.168   6.835  0.7564 -1.1116 -0.1245
 6930SOL     OW32248   0.837   1.507   1.074  0.0658 -0.3340  0.0138
 6930SOL    HW132249   0.818   1.472   0.987 -1.3841 -1.7149  0.8726
 6930SOL    HW232250   0.888   1.584   1.048 -1.3166  0.2727 -0.9146
 6931SOL     OW32251   2.105   0.704   6.011  0.6110  0.3599 -0.0152
 6931SOL    HW132252   2.160   0.656   5.947  0.5818  0.8529 -0.4095
 6931SOL    HW232253   2.139   0.673   6.095 -1.0642  1.0098  0.8771
 6932SOL     OW32254   1.928   2.919   1.737  0.3788 -0.4639  0.7307
 6932SOL    HW132255   1.834   2.911   1.752  0.2631 -1.2286 -0.4294
 6932SOL    HW232256   1.958   2.842   1.786  1.1898 -1.4378 -1.2827
 6933SOL     OW32257   4.483   2.458   6.764  0.1041 -0.1906 -0.3835
 6933SOL    HW132258   4.416   2.490   6.824  1.2568  0.3493  0.6307
 6933SOL    HW232259   4.513   2.543   6.731 -0.5968  1.3339  2.9092
 6934SOL     OW32260   3.380   4.725   9.330 -0.5405 -0.5012  0.3543
 6934SOL    HW132261   3.329   4.658   9.285  0.1827 -1.3007  0.7210
 6934SOL    HW232262   3.468   4.687   9.333 -1.2418 -2.1979 -0.6839
 6935SOL     OW32263   4.716   1.031  14.452  0.1362 -0.0215  0.0741
 6935SOL    HW132264   4.678   1.118  14.457  0.8664  0.2080  1.6331
 6935SOL    HW232265   4.633   0.983  14.449 -0.0244  0.2384  0.3056
 6936SOL     OW32266   4.496   0.992  12.079 -0.2531 -0.0075  0.1861
 6936SOL    HW132267   4.467   0.969  12.168  0.8015 -1.2243  0.2189
 6936SOL    HW232268   4.587   0.968  12.097  0.1182  1.3552  0.0618
 6937SOL     OW32269   3.850   1.022   9.626 -0.1152  0.0193 -0.0144
 6937SOL    HW132270   3.849   0.928   9.644  0.6637  0.1197  0.5434
 6937SOL    HW232271   3.943   1.046   9.627 -0.7907  2.6551  0.3236
 6938SOL     OW32272   2.943   3.582   7.918  0.3329  0.3005 -0.3912
 6938SOL    HW132273   2.914   3.491   7.926  2.5951 -0.1496  2.3783
 6938SOL    HW232274   2.997   3.581   7.839  1.3306 -1.0127  0.3061
 6939SOL     OW32275   3.575   2.932   7.150  0.0360 -0.8554  0.3832
 6939SOL    HW132276   3.506   2.865   7.156 -1.5781  0.7912  0.0647
 6939SOL    HW232277   3.656   2.882   7.164  0.8763 -0.1060 -1.7339
 6940SOL     OW32278   0.833   2.341   8.557 -0.0428  0.2297  0.6348
 6940SOL    HW132279   0.756   2.292   8.583  0.8922 -0.1706  2.6284
 6940SOL    HW232280   0.789   2.415   8.514 -0.7008  1.0579  2.7184
 6941SOL     OW32281   4.106   4.033  15.984  0.2332  0.0835 -0.4057
 6941SOL    HW132282   4.043   4.007  16.051  0.9705 -1.3547 -0.2916
 6941SOL    HW232283   4.128   4.123  16.009 -1.0498 -0.1360  1.5479
 6942SOL     OW32284   2.379   2.219   6.280  0.2682  0.0900 -0.3629
 6942SOL    HW132285   2.369   2.176   6.365  2.1927 -1.8457 -1.1167
 6942SOL    HW232286   2.473   2.200   6.271  0.0682 -1.0075 -0.1082
 6943SOL     OW32287   1.105   3.126   5.664  0.1260  0.4096  0.4034
 6943SOL    HW132288   1.010   3.130   5.679  0.1299  2.0063 -0.0328
 6943SOL    HW232289   1.136   3.211   5.694  0.2869 -0.1569  1.8773
 6944SOL     OW32290   4.067   0.336   3.622 -0.2596  0.0452 -0.2227
 6944SOL    HW132291   4.126   0.411   3.618 -0.4932  0.1938 -0.9142
 6944SOL    HW232292   3.988   0.366   3.667  0.7583  1.3891  0.6654
 6945SOL     OW32293   4.119   1.213  10.851  0.0042 -0.5099  0.1548
 6945SOL    HW132294   4.118   1.270  10.928  1.7649  1.6440 -1.3731
 6945SOL    HW232295   4.083   1.269  10.782  0.8160 -1.3165 -0.9148
 6946SOL     OW32296   0.183   0.651   5.387 -0.0959 -0.0583  0.4763
 6946SOL    HW132297   0.176   0.605   5.470 -0.8141 -0.4115  0.2149
 6946SOL    HW232298   0.091   0.662   5.362  0.0623 -0.8546 -0.4521
 6947SOL     OW32299   3.172   2.492   5.718  0.4208  0.2040 -0.2836
 6947SOL    HW132300   3.265   2.512   5.709 -0.0531  2.0644 -1.1456
 6947SOL    HW232301   3.153   2.503   5.625 -1.0217  0.9513  0.0858
 6948SOL     OW32302   2.361   2.100  10.025  0.5208 -0.0609  0.1501
 6948SOL    HW132303   2.427   2.067   9.964 -0.7422 -1.1377 -0.6483
 6948SOL    HW232304   2.413   2.150  10.087  0.3296  1.8119 -1.1896
 6949SOL     OW32305   4.206   2.874  15.000 -0.4588 -0.2739  0.1042
 6949SOL    HW132306   4.249   2.926  15.067 -1.5992 -0.2545  0.8218
 6949SOL    HW232307   4.198   2.790  15.046 -1.7663 -1.0630 -1.5219
 6950SOL     OW32308   4.165   3.885   1.069  0.1449  0.2914 -0.2910
 6950SOL    HW132309   4.198   3.920   1.152 -0.1381 -1.2203  0.4759
 6950SOL    HW232310   4.094   3.944   1.045 -0.2415 -0.1496 -0.2528
 6951SOL     OW32311   0.844   3.162  13.962  0.9183  0.3780  0.1275
 6951SOL    HW132312   0.760   3.202  13.941 -0.1202 -0.5019  2.6301
 6951SOL    HW232313   0.893   3.227  13.910 -0.9536 -0.6625 -2.9211
 6952SOL     OW32314   4.601   4.482  12.319  0.5737  0.0761  0.3315
 6952SOL    HW132315   4.521   4.432  12.302  0.3991 -0.2568  2.2147
 6952SOL    HW232316   4.602   4.534  12.238  1.7990  1.5156  1.2825
 6953SOL     OW32317   2.716   1.714   0.665  0.2137 -0.0860  0.4177
 6953SOL    HW132318   2.647   1.776   0.638  0.0889 -0.7747 -0.8705
 6953SOL    HW232319   2.781   1.740   0.600 -0.3077  0.8576  0.2724
 6954SOL     OW32320   0.050   0.974   3.096  0.4474 -0.2831 -0.5330
 6954SOL    HW132321   4.716   1.006   3.029  0.8257  1.4525 -0.0493
 6954SOL    HW232322   4.716   0.934   3.159 -0.2367  0.6658 -0.5860
 6955SOL     OW32323   4.266   2.301   5.664  0.7579 -0.2202 -0.6105
 6955SOL    HW132324   4.200   2.247   5.708  0.5206 -0.6543 -1.4852
 6955SOL    HW232325   4.328   2.316   5.735 -0.2344 -1.5038  0.5327
 6956SOL     OW32326   1.864   3.562   3.594  0.1362  0.2998 -0.0253
 6956SOL    HW132327   1.889   3.520   3.676  0.8657  2.1035  0.6842
 6956SOL    HW232328   1.769   3.557   3.600  0.3863 -4.1709  0.4743
 6957SOL     OW32329   3.862   2.393  11.395  0.2883 -0.2830 -0.1383
 6957SOL    HW132330   3.847   2.333  11.322  0.9139  0.5181 -0.9378
 6957SOL    HW232331   3.770   2.420  11.403  0.3834  0.1920 -0.6221
 6958SOL     OW32332   0.863   4.565  16.084  0.0967  0.2939  0.2719
 6958SOL    HW132333   0.886   4.541  15.994 -0.0791  0.9094  0.0581
 6958SOL    HW232334   0.908   4.492  16.127  2.0661  0.9384 -0.6751
 6959SOL     OW32335   1.619   2.545   2.746  0.4262 -0.1007  0.2233
 6959SOL    HW132336   1.559   2.497   2.688 -0.1245  1.0234 -0.1284
 6959SOL    HW232337   1.649   2.475   2.804 -0.6891  0.3560  1.3429
 6960SOL     OW32338   1.438   3.447   0.072 -0.4283 -0.0979 -0.2657
 6960SOL    HW132339   1.423   3.540   0.054  0.4150  0.1368  0.2426
 6960SOL    HW232340   1.408   3.413  17.695 -0.2851 -1.0188  0.0593
 6961SOL     OW32341   2.146   2.601   7.832 -0.6633 -0.2661  0.1057
 6961SOL    HW132342   2.189   2.617   7.748 -0.4877 -0.4133  0.1696
 6961SOL    HW232343   2.077   2.668   7.841  0.2336  0.9559 -2.1062
 6962SOL     OW32344   2.301   1.523   1.367  0.1554  0.1490 -0.5656
 6962SOL    HW132345   2.308   1.615   1.339  2.7771 -0.2604 -1.2857
 6962SOL    HW232346   2.354   1.517   1.447  0.8314  0.5956 -0.9800
 6963SOL     OW32347   3.507   3.766  16.763 -0.0628  0.6963  0.2295
 6963SOL    HW132348   3.433   3.730  16.811  2.0408 -2.7114  0.8933
 6963SOL    HW232349   3.566   3.777  16.837  0.8885  1.3115 -0.6218
 6964SOL     OW32350   3.823   2.014   9.140 -0.1136 -0.0305  0.1117
 6964SOL    HW132351   3.919   2.013   9.146 -0.0810 -0.3473 -0.4717
 6964SOL    HW232352   3.807   1.941   9.199 -0.7417 -1.1997 -1.5158
 6965SOL     OW32353   3.141   1.066  11.193 -0.0164 -0.5288  0.0705
 6965SOL    HW132354   3.135   1.117  11.112 -0.6723 -0.6536  0.0421
 6965SOL    HW232355   3.051   1.041  11.211  0.4307 -2.2009 -0.0063
 6966SOL     OW32356   0.804   0.887  16.259 -0.1126  0.2445 -0.2004
 6966SOL    HW132357   0.820   0.797  16.285  0.5953  0.8839  1.5506
 6966SOL    HW232358   0.718   0.876  16.217  0.9308 -1.4161 -1.9298
 6967SOL     OW32359   3.443   0.764   6.708 -0.2674  0.3937 -0.2997
 6967SOL    HW132360   3.495   0.810   6.643 -0.4738 -0.0301 -0.7658
 6967SOL    HW232361   3.508   0.734   6.771 -1.0657  0.7965  0.7244
 6968SOL     OW32362   4.078   3.587   6.902 -0.0381 -0.5520  0.3381
 6968SOL    HW132363   4.009   3.586   6.969  0.5961 -1.9905  0.9731
 6968SOL    HW232364   4.025   3.615   6.828 -1.8892 -4.3849  0.2072
 6969SOL     OW32365   0.109   0.852  10.206 -0.3616 -0.0998  0.2277
 6969SOL    HW132366   0.116   0.855  10.301  0.5328 -0.6611  0.1741
 6969SOL    HW232367   0.085   0.760  10.196  0.5257 -0.2448 -0.5032
 6970SOL     OW32368   1.914   4.655  11.595  0.3432 -0.4159 -0.4403
 6970SOL    HW132369   1.972   0.005  11.589 -0.9383  0.3490 -3.1947
 6970SOL    HW232370   1.827   4.684  11.569  0.6104 -0.1098 -1.0024
 6971SOL     OW32371   4.524   3.814   5.820 -0.0797  0.1712  0.2104
 6971SOL    HW132372   4.601   3.839   5.768  0.1131  1.1106  0.9471
 6971SOL    HW232373   4.568   3.778   5.896  0.7773 -2.5322 -1.5524
 6972SOL     OW32374   3.187   1.071  14.567 -0.5892  0.1130 -0.8068
 6972SOL    HW132375   3.260   1.133  14.571  0.4349 -0.9661 -3.2303
 6972SOL    HW232376   3.237   0.992  14.549 -0.1391 -0.0900  1.3321
 6973SOL     OW32377   0.304   2.771   6.966  0.7896  0.3880 -0.2800
 6973SOL    HW132378   0.240   2.835   6.996  0.6389 -0.1635  0.5631
 6973SOL    HW232379   0.367   2.812   6.907  1.9501 -1.4696 -0.3375
 6974SOL     OW32380   0.142   3.730  12.481 -0.0893  0.2891 -0.2953
 6974SOL    HW132381   0.162   3.701  12.392 -0.1079  0.3153 -0.3077
 6974SOL    HW232382   0.137   3.824  12.467  0.6048  0.0419 -2.2376
 6975SOL     OW32383   2.709   0.543   5.225  0.5723 -0.0107 -0.0701
 6975SOL    HW132384   2.680   0.610   5.163  2.3172  0.9336  0.1274
 6975SOL    HW232385   2.801   0.531   5.200  1.2117  0.5395  2.0349
 6976SOL     OW32386   0.423   1.097   5.109  0.3400 -0.3900 -0.2154
 6976SOL    HW132387   0.456   1.058   5.028 -0.1675 -0.9925 -0.1325
 6976SOL    HW232388   0.498   1.110   5.167  2.0423  2.4157 -2.9920
 6977SOL     OW32389   1.825   2.439   8.558  0.3990 -0.2148  0.4023
 6977SOL    HW132390   1.778   2.481   8.630  1.8943  2.4133 -0.1547
 6977SOL    HW232391   1.914   2.445   8.592  0.0010 -2.4167  1.7877
 6978SOL     OW32392   1.798   3.628  15.581  0.2283 -0.4611  0.1085
 6978SOL    HW132393   1.791   3.680  15.501  3.1279  0.9605  0.7835
 6978SOL    HW232394   1.744   3.673  15.646  0.8095 -0.3483  0.5146
 6979SOL     OW32395   2.205   3.820   4.124  0.3034  0.4001  0.4556
 6979SOL    HW132396   2.175   3.798   4.212  2.3775 -1.8355  0.5960
 6979SOL    HW232397   2.299   3.827   4.140  0.2338  1.7084  0.3312
 6980SOL     OW32398   0.351   2.028   2.949  0.1342  0.1655  0.2031
 6980SOL    HW132399   0.279   1.977   2.989 -0.7169  1.2076 -0.0113
 6980SOL    HW232400   0.370   1.968   2.877  2.2602 -1.2798  1.9844
 6981SOL     OW32401   2.590   3.444   8.560 -0.4456  0.6603  0.0517
 6981SOL    HW132402   2.645   3.473   8.632 -0.5507 -3.0154  1.5976
 6981SOL    HW232403   2.544   3.373   8.605 -2.1236 -0.4208 -3.3532
 6982SOL     OW32404   0.237   2.809  16.263 -0.2460  0.1484 -0.0997
 6982SOL    HW132405   0.263   2.900  16.269  0.3957 -0.2515  2.9085
 6982SOL    HW232406   0.147   2.805  16.232 -0.6227  0.3896  0.9675
 6983SOL     OW32407   2.104   3.788   5.595 -0.3346 -0.5674 -0.5418
 6983SOL    HW132408   2.160   3.711   5.601 -0.6360 -0.7252  0.2619
 6983SOL    HW232409   2.029   3.752   5.548 -0.9013  0.6915 -0.6107
 6984SOL     OW32410   0.119   2.268   7.140  0.0376  0.2023 -0.3667
 6984SOL    HW132411   0.069   2.315   7.207  0.7514 -1.2231  1.1591
 6984SOL    HW232412   0.158   2.334   7.083  1.3611 -0.3012 -0.0363
 6985SOL     OW32413   1.388   0.919   1.078  0.3519  0.5421  0.1303
 6985SOL    HW132414   1.390   0.852   1.146  0.9096 -1.2459 -1.6066
 6985SOL    HW232415   1.305   0.914   1.030 -1.3768 -0.7559  3.3033
 6986SOL     OW32416   4.619   0.593   3.235 -0.3890  0.5229  0.4387
 6986SOL    HW132417   4.597   0.585   3.142  0.1839  1.0189  0.2580
 6986SOL    HW232418   4.708   0.558   3.244 -0.5512 -0.0432 -0.1229
 6987SOL     OW32419   3.130   4.390   4.334 -0.2792 -0.1458  0.0985
 6987SOL    HW132420   3.127   4.384   4.238  0.6750 -0.4832  0.0844
 6987SOL    HW232421   3.115   4.297   4.348  0.7597 -0.1085  1.4923
 6988SOL     OW32422   0.439   1.492  17.435  0.1083  0.0316  0.2951
 6988SOL    HW132423   0.395   1.409  17.422  2.7468 -1.4053  0.4924
 6988SOL    HW232424   0.509   1.494  17.369  0.8434  0.5525  1.0883
 6989SOL     OW32425   1.501   1.365   3.115  0.0080  0.5530  0.4702
 6989SOL    HW132426   1.455   1.431   3.064  0.3565  0.1171 -0.3962
 6989SOL    HW232427   1.427   1.313   3.148 -1.3273  1.9230 -0.3737
 6990SOL     OW32428   1.068   0.013   1.821  0.3262 -0.1980  0.4764
 6990SOL    HW132429   0.986   0.051   1.789  0.6358  1.2494  1.3832
 6990SOL    HW232430   1.118   0.031   1.742 -1.8837 -3.4149 -1.6694
 6991SOL     OW32431   3.995   2.666  15.197  0.2279 -0.2256  0.0095
 6991SOL    HW132432   4.041   2.667  15.113 -0.9281 -0.3412 -0.6204
 6991SOL    HW232433   4.065   2.650  15.260 -0.0719  1.1114  0.6691
 6992SOL     OW32434   1.811   3.805   4.510  0.2685 -0.6187 -0.0956
 6992SOL    HW132435   1.816   3.721   4.556 -0.2469  0.8081  2.5643
 6992SOL    HW232436   1.827   3.779   4.419 -0.8367  0.2351 -0.5313
 6993SOL     OW32437   0.728   0.883  15.457 -0.1059 -0.4077  0.1371
 6993SOL    HW132438   0.802   0.839  15.497  0.4014  0.0628 -0.2883
 6993SOL    HW232439   0.770   0.966  15.435 -0.5925 -0.4085 -0.8213
 6994SOL     OW32440   1.129   4.086   4.790 -0.0676  0.1632  0.4048
 6994SOL    HW132441   1.068   4.102   4.719  0.2581 -1.6161 -0.2794
 6994SOL    HW232442   1.115   4.155   4.855  0.3165  0.8600 -0.2515
 6995SOL     OW32443   3.288   2.972  14.224 -0.2510 -0.0744  0.1486
 6995SOL    HW132444   3.364   3.029  14.221  1.5689 -2.4280  1.3433
 6995SOL    HW232445   3.274   2.962  14.129 -2.3456  1.7435  0.2817
 6996SOL     OW32446   0.387   4.454   2.181  0.2764  0.3926 -0.2854
 6996SOL    HW132447   0.299   4.469   2.216  1.6326  4.1336  1.6552
 6996SOL    HW232448   0.380   4.434   2.088  0.1883 -0.9720  0.0196
 6997SOL     OW32449   3.189   0.184  16.517 -0.6632  0.4293  0.2082
 6997SOL    HW132450   3.262   0.212  16.461  0.7106  0.8797  2.2263
 6997SOL    HW232451   3.235   0.196  16.600 -0.2210 -1.1648  0.1874
 6998SOL     OW32452   4.704   2.599  13.780  0.7249 -0.2344 -0.1563
 6998SOL    HW132453   0.010   2.689  13.780  0.9054 -0.2999 -0.3548
 6998SOL    HW232454   4.717   2.591  13.685 -0.6704 -2.1315 -0.1878
 6999SOL     OW32455   1.658   3.137   4.525 -0.2485  0.2089  0.1402
 6999SOL    HW132456   1.623   3.221   4.495  0.3333  0.7617  1.0187
 6999SOL    HW232457   1.732   3.138   4.464  0.4566 -0.7534  0.9795
 7000SOL     OW32458   3.299   1.134   6.028 -0.1768 -0.0031  0.3360
 7000SOL    HW132459   3.355   1.171   6.096  3.0437 -2.3012 -1.0552
 7000SOL    HW232460   3.226   1.196   6.022 -0.7416 -0.7527 -0.6338
 7001SOL     OW32461   1.718   4.103   8.324  0.2043 -0.8082  0.1186
 7001SOL    HW132462   1.762   4.054   8.394 -1.3608  0.4687  1.9711
 7001SOL    HW232463   1.752   4.059   8.245  0.1494 -3.4149  1.5300
 7002SOL     OW32464   0.173   2.233   3.604  0.1994 -0.5662 -0.3718
 7002SOL    HW132465   0.260   2.225   3.643  0.0803 -1.7344 -0.3487
 7002SOL    HW232466   0.180   2.144   3.569 -1.1688 -0.8551  0.0657
 7003SOL     OW32467   4.167   2.706   5.819 -0.1842 -0.2715  0.1862
 7003SOL    HW132468   4.124   2.726   5.902 -0.0854 -1.4296  0.5211
 7003SOL    HW232469   4.256   2.679   5.844 -0.4244 -1.4323 -0.1832
 7004SOL     OW32470   1.442   4.357   6.146  0.3479  0.0619  0.2748
 7004SOL    HW132471   1.501   4.421   6.187 -0.7141  0.3664  1.3390
 7004SOL    HW232472   1.386   4.415   6.095 -0.2123 -0.2937  0.4885
 7005SOL     OW32473   4.175   1.409   6.071  0.3516 -0.3040 -0.6641
 7005SOL    HW132474   4.252   1.352   6.067  0.7703  0.1002  1.8185
 7005SOL    HW232475   4.203   1.470   6.003  3.5531  0.1838  1.1215
 7006SOL     OW32476   1.237   2.593   5.100 -0.0198 -0.1190 -0.3300
 7006SOL    HW132477   1.299   2.532   5.059  0.5113 -0.9781  1.7269
 7006SOL    HW232478   1.291   2.655   5.150  0.4148 -2.4251  2.0635
 7007SOL     OW32479   2.599   0.985   5.755  0.1708  0.3693  0.4584
 7007SOL    HW132480   2.562   1.067   5.787 -0.7328 -0.2613  1.0124
 7007SOL    HW232481   2.686   0.987   5.796 -0.5156  2.3172  1.8144
 7008SOL     OW32482   2.070   0.730   5.416 -0.7620 -0.1724 -0.1682
 7008SOL    HW132483   2.159   0.709   5.444 -0.2806  1.2758 -0.6505
 7008SOL    HW232484   2.048   0.650   5.368  1.3660 -1.9443  1.8155
 7009SOL     OW32485   3.346   2.151   0.983 -0.3493  0.1435 -0.0255
 7009SOL    HW132486   3.431   2.174   1.023 -1.1486  0.3370  1.5626
 7009SOL    HW232487   3.345   2.056   0.992 -0.3296  0.1959  0.5643
 7010SOL     OW32488   3.053   4.275   2.926  0.4332  0.3337  0.5137
 7010SOL    HW132489   3.038   4.271   3.021 -3.7829 -1.5057 -0.1829
 7010SOL    HW232490   3.113   4.205   2.900 -1.0499 -0.7053 -0.1651
 7011SOL     OW32491   0.395   2.880  17.688 -0.1492  0.7385  0.2135
 7011SOL    HW132492   0.380   2.972  17.706 -0.0674  0.6899  0.5335
 7011SOL    HW232493   0.455   2.856   0.051 -0.7854  0.0555  0.5202
 7012SOL     OW32494   0.994   1.206   8.607 -0.2723 -0.1323  0.3835
 7012SOL    HW132495   0.974   1.157   8.687  2.5690 -1.6397  0.1722
 7012SOL    HW232496   1.010   1.295   8.639 -0.2169  0.3000 -0.8533
 7013SOL     OW32497   2.395   1.509   4.192 -0.1603 -0.1664 -0.7373
 7013SOL    HW132498   2.343   1.554   4.125 -0.0806 -0.7964 -1.2212
 7013SOL    HW232499   2.483   1.530   4.161  0.0124  0.9509  0.5296
 7014SOL     OW32500   2.808   3.466   1.032 -0.4285 -0.1277  0.1255
 7014SOL    HW132501   2.756   3.398   0.991 -0.6601  0.7493 -1.0344
 7014SOL    HW232502   2.868   3.418   1.089 -2.8110 -0.5242  2.2617
 7015SOL     OW32503   3.744   3.743   6.895  0.3208 -0.4351 -0.1947
 7015SOL    HW132504   3.709   3.812   6.951 -0.0981  0.5397 -1.6521
 7015SOL    HW232505   3.671   3.680   6.898  0.1837 -0.2246  0.8733
 7016SOL     OW32506   1.928   1.931   1.878  0.1704  0.3422  0.0657
 7016SOL    HW132507   1.870   1.866   1.918  1.2382  0.1219  1.2296
 7016SOL    HW232508   1.951   1.972   1.961  0.9563 -0.7661  0.3943
 7017SOL     OW32509   2.146   1.332   0.454  0.4580 -0.4743  0.7756
 7017SOL    HW132510   2.239   1.312   0.461  0.5902  0.4279  1.6539
 7017SOL    HW232511   2.129   1.314   0.362  1.7283  0.5012  0.3404
 7018SOL     OW32512   4.290   2.791   6.760 -0.0674 -0.3154 -0.5260
 7018SOL    HW132513   4.291   2.710   6.812  1.1005  0.3341  0.4486
 7018SOL    HW232514   4.382   2.803   6.738  0.1231 -0.6336  0.0764
 7019SOL     OW32515   1.495   3.231   2.899  0.4861 -0.1653 -0.0269
 7019SOL    HW132516   1.456   3.191   2.977  0.3676  2.3176  1.1814
 7019SOL    HW232517   1.584   3.247   2.931  0.1899  0.1381  0.6472
 7020SOL     OW32518   3.298   2.803  14.446  0.0563  0.2130 -0.1341
 7020SOL    HW132519   3.288   2.872  14.380 -2.6109  1.0907  1.1864
 7020SOL    HW232520   3.260   2.730  14.397  0.7793  0.2725 -0.7751
 7021SOL     OW32521   0.960   1.229   5.945  0.5178  0.1750  0.0178
 7021SOL    HW132522   0.935   1.261   6.032 -0.1734  0.3413 -0.2454
 7021SOL    HW232523   0.877   1.257   5.906  0.6613  2.2523  1.2008
 7022SOL     OW32524   2.363   4.616   4.974 -0.6944 -0.0196  0.1036
 7022SOL    HW132525   2.382   4.709   4.965  1.7616 -0.7934 -2.7367
 7022SOL    HW232526   2.267   4.620   4.975 -0.6250  1.6440  0.5849
 7023SOL     OW32527   0.013   3.830   5.024  0.4014 -0.3242 -0.3308
 7023SOL    HW132528   4.672   3.863   5.083 -0.1382 -2.0287  0.0098
 7023SOL    HW232529   0.064   3.906   4.998 -2.2525  1.3792 -0.5460
 7024SOL     OW32530   3.693   0.220   4.597  0.2320 -0.6100 -0.3856
 7024SOL    HW132531   3.687   0.264   4.682  0.6903 -1.8663  0.2976
 7024SOL    HW232532   3.598   0.212   4.599  0.1736  0.1833 -0.2673
 7025SOL     OW32533   4.199   3.292  17.103  0.2254  0.0710  0.1012
 7025SOL    HW132534   4.254   3.297  17.025  0.5756 -3.5633  0.1000
 7025SOL    HW232535   4.135   3.360  17.082 -0.3683  0.2918  2.5256
 7026SOL     OW32536   3.354   2.537   3.570 -0.1950 -0.0560 -0.1836
 7026SOL    HW132537   3.325   2.453   3.536  0.6768 -0.0546 -0.9251
 7026SOL    HW232538   3.449   2.532   3.585  0.2939 -1.8710 -3.9172
 7027SOL     OW32539   3.735   2.540  17.471  0.1294 -0.1332 -0.5732
 7027SOL    HW132540   3.741   2.457  17.518  0.0208 -0.0518 -0.4166
 7027SOL    HW232541   3.664   2.579  17.522  0.3240  1.1180 -1.2557
 7028SOL     OW32542   1.059   4.618   2.365  0.0443  0.8064 -0.4308
 7028SOL    HW132543   1.138   4.588   2.321 -1.0056 -0.3467 -1.5193
 7028SOL    HW232544   1.058   4.710   2.337 -2.1737  0.8529 -0.2683
 7029SOL     OW32545   0.149   3.434  10.186  0.6648 -0.6403  0.5082
 7029SOL    HW132546   0.184   3.509  10.139  0.2506 -0.5673  0.3208
 7029SOL    HW232547   0.163   3.463  10.276 -2.9302 -1.1235  1.2286
 7030SOL     OW32548   3.597   4.615   3.422  0.0801  0.3880  0.0280
 7030SOL    HW132549   3.552   4.620   3.337  0.2850 -0.2198 -0.1185
 7030SOL    HW232550   3.629   4.702   3.445 -0.0505  0.9602 -1.9161
 7031SOL     OW32551   2.591   3.384  11.357  0.4309 -0.1919 -0.2892
 7031SOL    HW132552   2.650   3.454  11.327 -3.0756  2.5087 -0.8549
 7031SOL    HW232553   2.567   3.345  11.274  0.3571 -2.2496  0.7117
 7032SOL     OW32554   2.487   3.585   6.844 -0.3174  0.7081  0.1284
 7032SOL    HW132555   2.451   3.504   6.879  0.0750  0.4306 -0.0983
 7032SOL    HW232556   2.578   3.584   6.874  0.0539 -0.9626 -1.0301
 7033SOL     OW32557   0.124   1.049   2.089 -0.0978  0.4266 -0.0211
 7033SOL    HW132558   0.217   1.031   2.103 -0.3986 -0.3754  0.9744
 7033SOL    HW232559   0.097   0.970   2.043  0.1628  0.1150  0.3608
 7034SOL     OW32560   3.735   2.375   6.852 -0.3144  0.4455 -0.4147
 7034SOL    HW132561   3.816   2.345   6.811 -0.3053  0.1437 -0.1741
 7034SOL    HW232562   3.674   2.302   6.850  1.4136 -0.9822 -0.5995
 7035SOL     OW32563   4.271   1.662   9.111 -0.0956  0.3579  0.2773
 7035SOL    HW132564   4.329   1.731   9.143 -0.8772 -0.0720  2.6257
 7035SOL    HW232565   4.320   1.584   9.135 -0.3404  0.0409 -0.2446
 7036SOL     OW32566   1.789   3.363   8.695  0.8423  0.0225 -0.3424
 7036SOL    HW132567   1.795   3.374   8.600 -1.0415  0.8931 -0.3507
 7036SOL    HW232568   1.822   3.273   8.698 -2.7527 -1.3362 -1.7340
 7037SOL     OW32569   1.438   2.726   9.909 -0.1098 -0.4632  0.2375
 7037SOL    HW132570   1.528   2.692   9.906 -0.2716 -1.1383  3.3196
 7037SOL    HW232571   1.430   2.729  10.004 -0.4033  0.4544  0.1832
 7038SOL     OW32572   1.007   2.261  12.751  0.6204 -0.7521  0.5238
 7038SOL    HW132573   0.940   2.197  12.725  0.2063 -0.3953  0.7158
 7038SOL    HW232574   1.078   2.206  12.785  1.2118  0.1007  0.6450
 7039SOL     OW32575   0.808   1.935   2.392 -0.2421  0.2521 -0.0759
 7039SOL    HW132576   0.858   1.973   2.320  0.9723  1.6300  1.5030
 7039SOL    HW232577   0.727   1.976   2.366 -1.0120 -1.6785 -0.7367
 7040SOL     OW32578   0.716   3.652   5.044 -0.5268  0.3012  1.0471
 7040SOL    HW132579   0.718   3.624   5.135  0.9924 -2.3921  0.1550
 7040SOL    HW232580   0.730   3.570   4.998 -1.6039  1.6169 -1.6142
 7041SOL     OW32581   2.111   0.514   2.645 -1.0199 -0.2012 -0.5795
 7041SOL    HW132582   2.136   0.510   2.553  2.4578  0.6808  0.3134
 7041SOL    HW232583   2.126   0.607   2.660  2.0546 -0.9107  0.7744
 7042SOL     OW32584   1.121   1.753   3.963 -0.0323  0.2918 -0.0809
 7042SOL    HW132585   1.195   1.694   3.980  0.5651  0.5843 -1.6774
 7042SOL    HW232586   1.042   1.700   3.975 -0.2247  0.5349 -0.2774
 7043SOL     OW32587   1.703   0.196   4.327  0.1638  0.0171  0.1313
 7043SOL    HW132588   1.715   0.150   4.243  1.5368  0.6931 -0.0373
 7043SOL    HW232589   1.735   0.125   4.383 -1.2333  0.1985  1.1467
 7044SOL     OW32590   3.522   0.274  10.315  0.2463  0.2163  0.1101
 7044SOL    HW132591   3.472   0.222  10.252  1.3512 -0.6502 -0.0532
 7044SOL    HW232592   3.574   0.204  10.355 -0.9582 -1.8000 -1.8821
 7045SOL     OW32593   1.308   0.218   7.497 -0.1782 -0.3059  0.7586
 7045SOL    HW132594   1.352   0.285   7.548  0.6921  0.5897 -1.1782
 7045SOL    HW232595   1.217   0.218   7.529 -0.5949  0.6956 -0.4294
 7046SOL     OW32596   4.204   4.054   4.272  0.5494  0.4367  0.2482
 7046SOL    HW132597   4.200   4.148   4.256 -0.4129  0.2834 -0.3511
 7046SOL    HW232598   4.185   4.056   4.366  0.5346 -1.1513  0.2805
 7047SOL     OW32599   2.423   3.357  15.336  0.2337  0.5480 -0.2951
 7047SOL    HW132600   2.382   3.277  15.304  0.7711 -0.2619  1.0443
 7047SOL    HW232601   2.495   3.327  15.391 -0.5583 -0.1779  0.3603
 7048SOL     OW32602   0.615   0.125   5.871  0.1342  0.0803 -0.0340
 7048SOL    HW132603   0.625   0.057   5.805 -0.3733 -1.1507  1.1726
 7048SOL    HW232604   0.529   0.102   5.906 -0.0867 -1.6166 -1.7424
 7049SOL     OW32605   3.653   0.229   8.463 -0.1203 -0.6222 -0.2920
 7049SOL    HW132606   3.676   0.164   8.530 -0.0861  0.3511  0.6340
 7049SOL    HW232607   3.728   0.230   8.403 -0.1243  0.2956 -0.2787
 7050SOL     OW32608   2.743   2.128   6.102  0.2261  0.1699  0.0102
 7050SOL    HW132609   2.652   2.099   6.091 -0.0470  0.9606  0.1380
 7050SOL    HW232610   2.782   2.070   6.037 -0.0733 -0.4514  0.3848
 7051SOL     OW32611   1.961   1.338  15.142  0.0267 -0.1957 -0.3820
 7051SOL    HW132612   1.887   1.337  15.082  0.9284 -1.5484 -1.4571
 7051SOL    HW232613   2.033   1.350  15.081  1.0382 -0.3943  0.7670
 7052SOL     OW32614   3.345   1.085   3.741  0.2628 -0.1089 -0.0162
 7052SOL    HW132615   3.331   1.148   3.671 -0.3998  1.8776  1.8884
 7052SOL    HW232616   3.370   1.010   3.687  1.7211  0.5101 -0.1765
 7053SOL     OW32617   3.368   1.151  16.663 -0.5272  0.2920  0.9823
 7053SOL    HW132618   3.365   1.077  16.724 -1.1892  0.8376  1.6207
 7053SOL    HW232619   3.311   1.125  16.590  1.9194 -3.4347  0.4215
 7054SOL     OW32620   4.365   3.391   3.724 -0.8255  0.0083  0.3239
 7054SOL    HW132621   4.291   3.419   3.670 -0.3660 -1.7693 -1.2367
 7054SOL    HW232622   4.416   3.472   3.721 -0.8606  0.0602  1.1196
 7055SOL     OW32623   3.367   0.500  15.852  0.8456 -0.1108 -0.1679
 7055SOL    HW132624   3.377   0.422  15.797 -2.4293 -1.0043  0.5544
 7055SOL    HW232625   3.430   0.553  15.803 -0.2994  2.7140  1.3886
 7056SOL     OW32626   2.879   3.780   2.086 -0.3445 -0.6014  0.5287
 7056SOL    HW132627   2.914   3.784   2.175 -0.2214  0.3123  0.4382
 7056SOL    HW232628   2.807   3.844   2.087 -2.3963 -2.8832 -2.3159
 7057SOL     OW32629   4.367   4.028   5.871  0.2869 -0.8910 -0.1785
 7057SOL    HW132630   4.408   3.947   5.839 -0.0239 -1.5736  1.1367
 7057SOL    HW232631   4.341   4.066   5.787  2.0592 -0.2488 -0.4266
 7058SOL     OW32632   3.800   1.318  13.736  0.4103  0.6243  0.0977
 7058SOL    HW132633   3.831   1.351  13.652 -2.5726  1.0690 -0.8023
 7058SOL    HW232634   3.705   1.321  13.730  0.3180 -2.4251 -0.3052
 7059SOL     OW32635   2.601   3.948   7.142 -0.1611  0.2938  0.2773
 7059SOL    HW132636   2.568   3.935   7.054  1.0570 -1.4610  0.0791
 7059SOL    HW232637   2.687   3.906   7.137  0.8548  2.5137 -1.2485
 7060SOL     OW32638   1.225   1.287   9.374 -0.2228  0.1424  0.0314
 7060SOL    HW132639   1.232   1.300   9.469  0.2825 -0.5467  0.0878
 7060SOL    HW232640   1.315   1.284   9.344 -0.6180  0.9673 -1.2607
 7061SOL     OW32641   2.812   0.623   6.221 -0.2662  0.2115 -0.2914
 7061SOL    HW132642   2.792   0.673   6.301  1.5182 -0.2611  0.4484
 7061SOL    HW232643   2.730   0.641   6.176 -0.0875 -1.4793 -1.2497
 7062SOL     OW32644   3.509   3.271   3.707 -0.8206  0.4501  0.0560
 7062SOL    HW132645   3.472   3.186   3.685 -1.6271  0.4830  1.2805
 7062SOL    HW232646   3.584   3.277   3.647 -0.6431 -0.6913  0.1776
 7063SOL     OW32647   3.188   3.528  10.614  0.2135  0.9032  0.1158
 7063SOL    HW132648   3.149   3.466  10.675 -0.6365  0.5665 -0.7738
 7063SOL    HW232649   3.157   3.615  10.640  0.5897  0.6698  1.3012
 7064SOL     OW32650   3.459   0.688   3.731 -0.6925  0.2505 -0.3679
 7064SOL    HW132651   3.484   0.771   3.690 -1.7451  1.3280  1.1777
 7064SOL    HW232652   3.506   0.630   3.671 -1.6977 -1.1909  0.2298
 7065SOL     OW32653   1.944   2.786   7.824 -0.1116 -0.2373  0.0434
 7065SOL    HW132654   1.894   2.810   7.747 -0.2512 -3.5372 -0.8884
 7065SOL    HW232655   1.868   2.753   7.872  0.1727 -1.1390 -0.1162
 7066SOL     OW32656   0.900   4.592   8.302  0.0065 -0.1361 -0.0101
 7066SOL    HW132657   0.928   4.619   8.214 -1.8122  1.9127  0.0567
 7066SOL    HW232658   0.855   4.510   8.282  0.4069 -0.1086 -1.0308
 7067SOL     OW32659   1.375   0.614   3.674 -0.0940  1.1060 -0.2035
 7067SOL    HW132660   1.420   0.698   3.676  0.7231  0.6486  0.9916
 7067SOL    HW232661   1.328   0.627   3.757 -2.1329  1.2448 -1.3664
 7068SOL     OW32662   1.634   1.130   1.728  0.1036  0.4242 -0.2919
 7068SOL    HW132663   1.558   1.175   1.690  0.5862 -0.3051 -2.1446
 7068SOL    HW232664   1.679   1.098   1.650  0.2186 -1.6739  0.6438
 7069SOL     OW32665   4.564   0.127   8.779 -0.2966  0.0364 -0.0542
 7069SOL    HW132666   4.547   0.037   8.808  0.0176 -0.7154 -2.1931
 7069SOL    HW232667   4.617   0.148   8.856 -0.6832 -1.5756  0.6561
 7070SOL     OW32668   1.625   2.769   4.568 -0.3275 -0.1171  0.2015
 7070SOL    HW132669   1.551   2.730   4.616 -0.0096 -0.3533  0.5053
 7070SOL    HW232670   1.582   2.833   4.512 -0.6629 -0.2363  0.3203
 7071SOL     OW32671   4.168   0.392   5.517  0.1070 -0.4103 -0.2940
 7071SOL    HW132672   4.226   0.446   5.572 -0.8172 -1.2484  1.5037
 7071SOL    HW232673   4.226   0.329   5.475  0.8000 -0.6057  0.9534
 7072SOL     OW32674   3.430   4.616  10.507  0.3364 -0.4278  0.4521
 7072SOL    HW132675   3.344   4.656  10.495  0.6627 -0.0887 -0.7162
 7072SOL    HW232676   3.405   4.530  10.541  1.4789 -0.9572 -0.0574
 7073SOL     OW32677   1.160   4.454   6.504  0.4608  0.7122 -0.5753
 7073SOL    HW132678   1.073   4.476   6.470 -1.0806 -0.4973  2.5396
 7073SOL    HW232679   1.156   4.489   6.593  0.4821  0.4524 -0.4703
 7074SOL     OW32680   4.198   0.589   7.595 -0.3379  0.1445  0.5711
 7074SOL    HW132681   4.120   0.540   7.622 -0.1753  0.9790  2.4947
 7074SOL    HW232682   4.182   0.665   7.651  0.0914  0.6781 -0.0253
 7075SOL     OW32683   4.484   2.205  12.585  0.8295  0.3400 -0.2129
 7075SOL    HW132684   4.411   2.207  12.647 -0.1103  3.8045 -1.4465
 7075SOL    HW232685   4.557   2.240  12.636  1.3997 -0.1532 -0.6883
 7076SOL     OW32686   2.538   3.909   3.485 -0.4677  0.0905 -0.6666
 7076SOL    HW132687   2.562   3.817   3.480 -0.4762  0.0154  0.8529
 7076SOL    HW232688   2.443   3.909   3.476 -0.4241  2.0153 -1.2077
 7077SOL     OW32689   3.592   3.709  17.012 -0.1787  0.0300 -0.3511
 7077SOL    HW132690   3.658   3.738  17.075 -0.3442 -1.7795  0.6425
 7077SOL    HW232691   3.541   3.653  17.071  1.3089 -1.1549 -0.1894
 7078SOL     OW32692   4.111   0.257  13.854 -0.3884  0.3498  0.7926
 7078SOL    HW132693   4.145   0.242  13.943 -1.0792 -1.3002  0.7776
 7078SOL    HW232694   4.186   0.307  13.823  0.5390 -0.3477  1.8933
 7079SOL     OW32695   3.787   4.386   9.529  0.1686  0.0417  0.0260
 7079SOL    HW132696   3.775   4.293   9.546  0.4801  0.0733  0.4369
 7079SOL    HW232697   3.857   4.371   9.465 -0.2563 -1.2621 -0.1310
 7080SOL     OW32698   0.995   0.085  12.288  0.2658  0.2332 -0.2420
 7080SOL    HW132699   0.996   0.144  12.212  1.7450  0.8227  0.2184
 7080SOL    HW232700   0.921   0.031  12.261  1.4181 -0.5743 -1.7847
 7081SOL     OW32701   1.251   0.215   8.553  0.6115  0.5761 -0.2938
 7081SOL    HW132702   1.214   0.152   8.491  0.5106 -0.8697  1.2285
 7081SOL    HW232703   1.317   0.166   8.602  0.2769 -1.4378 -1.8392
 7082SOL     OW32704   4.464   4.119  11.662 -0.6609  0.6814  0.2720
 7082SOL    HW132705   4.478   4.051  11.728  1.4971  0.5039 -0.3526
 7082SOL    HW232706   4.373   4.145  11.670 -0.7749 -0.2743  1.9844
 7083SOL     OW32707   1.280   0.158  17.375 -0.2395 -0.4980  1.2510
 7083SOL    HW132708   1.282   0.175  17.281 -1.9108 -0.5431  1.1997
 7083SOL    HW232709   1.363   0.114  17.391  0.5890  1.6808  2.9171
 7084SOL     OW32710   3.029   3.770   8.566 -0.0524 -0.1691 -0.0320
 7084SOL    HW132711   3.054   3.777   8.474  0.0656  0.9524  0.0814
 7084SOL    HW232712   3.085   3.833   8.610  1.4714 -1.9453  0.5519
 7085SOL     OW32713   2.290   2.804   9.557  0.4673 -0.4047 -0.1087
 7085SOL    HW132714   2.291   2.741   9.629  0.3927  1.2047  1.3062
 7085SOL    HW232715   2.322   2.880   9.606  1.5689 -1.3391  0.6380
 7086SOL     OW32716   2.772   4.513  10.302 -0.2800 -0.1880 -0.2131
 7086SOL    HW132717   2.840   4.446  10.297  0.8427  0.8572  0.9557
 7086SOL    HW232718   2.752   4.501  10.395 -1.8418  2.5576 -0.2335
 7087SOL     OW32719   3.126   3.551  15.095 -0.5972 -0.3392 -0.0275
 7087SOL    HW132720   3.197   3.605  15.130 -1.4800  1.6493 -1.3095
 7087SOL    HW232721   3.097   3.495  15.167  2.3266 -0.7052  0.8611
 7088SOL     OW32722   1.256   0.942   4.917 -0.5608 -0.2270  0.1921
 7088SOL    HW132723   1.261   0.847   4.931 -0.1711 -0.2718 -0.2520
 7088SOL    HW232724   1.326   0.965   4.978 -0.7586 -0.6224  0.5662
 7089SOL     OW32725   2.134   3.841   4.772  0.9643 -0.3858  0.2467
 7089SOL    HW132726   2.080   3.803   4.841 -1.4865 -0.3752 -1.7068
 7089SOL    HW232727   2.217   3.847   4.820  2.6929  0.5944 -2.8814
 7090SOL     OW32728   2.325   2.519  14.645  0.5958 -0.2737 -0.3352
 7090SOL    HW132729   2.363   2.432  14.659  0.1552 -0.2941  0.7290
 7090SOL    HW232730   2.404   2.572  14.638  0.9278 -0.6124  0.8424
 7091SOL     OW32731   3.098   4.184   4.990  0.2546  0.6128 -0.2577
 7091SOL    HW132732   3.028   4.130   4.954  0.0767  0.7415 -0.1060
 7091SOL    HW232733   3.064   4.273   4.976 -1.6070 -0.3151 -1.5913
 7092SOL     OW32734   3.101   2.692   6.650 -0.1498 -0.2094 -0.5326
 7092SOL    HW132735   3.110   2.601   6.624  0.7694  0.4396 -2.5238
 7092SOL    HW232736   3.113   2.744   6.570  1.6290  1.1974  0.6319
 7093SOL     OW32737   4.373   2.227   4.215  0.3763  0.1249  0.0283
 7093SOL    HW132738   4.295   2.186   4.252  1.1835 -2.1650 -0.8146
 7093SOL    HW232739   4.430   2.246   4.290  0.5093 -1.6843  0.3704
 7094SOL     OW32740   2.653   3.283   1.561 -0.9072 -0.5800 -0.3730
 7094SOL    HW132741   2.737   3.292   1.516 -1.6739  0.9933 -1.4805
 7094SOL    HW232742   2.596   3.298   1.486  1.6555  0.5745 -2.0662
 7095SOL     OW32743   4.303   2.311  16.492  0.2132  0.0145  0.0399
 7095SOL    HW132744   4.311   2.309  16.587  0.1587  2.2270  0.0756
 7095SOL    HW232745   4.393   2.299  16.463 -0.5467  0.0192 -2.3049
 7096SOL     OW32746   1.865   2.264   4.642 -0.0884 -0.3243 -0.0042
 7096SOL    HW132747   1.898   2.191   4.588 -0.9587 -0.9165  0.2664
 7096SOL    HW232748   1.771   2.255   4.626  0.1709 -1.0693 -1.1648
 7097SOL     OW32749   2.363   3.685  12.521 -0.1203  0.2861 -0.5733
 7097SOL    HW132750   2.328   3.635  12.447 -0.7793  0.3542 -0.3057
 7097SOL    HW232751   2.302   3.758  12.533  0.2334  0.7258 -1.4397
 7098SOL     OW32752   4.487   1.384   6.446 -0.3183 -0.1668  0.3072
 7098SOL    HW132753   4.564   1.358   6.395 -0.6963 -0.8255  0.0680
 7098SOL    HW232754   4.512   1.347   6.531  0.5361 -0.0872  0.0944
 7099SOL     OW32755   2.205   0.835   9.179  0.0982  0.3222  0.3222
 7099SOL    HW132756   2.204   0.929   9.163  1.4981  0.0006 -1.6334
 7099SOL    HW232757   2.282   0.833   9.236  0.2427  2.0893  0.1904
 7100SOL     OW32758   4.491   0.101   4.252  0.5860  0.3423  0.1507
 7100SOL    HW132759   4.528   0.187   4.273 -0.4987  0.9389 -0.3506
 7100SOL    HW232760   4.467   0.113   4.160  0.0384  0.4820  0.3151
 7101SOL     OW32761   1.396   3.486   9.006 -0.0188  0.4106 -0.1015
 7101SOL    HW132762   1.471   3.441   8.966  0.1509  0.7311 -0.1417
 7101SOL    HW232763   1.319   3.456   8.958  0.1839  1.5862 -1.1407
 7102SOL     OW32764   0.477   0.910  17.511 -0.1283 -0.0556  0.2082
 7102SOL    HW132765   0.486   0.983  17.572  2.4340  0.4783 -0.8079
 7102SOL    HW232766   0.389   0.877  17.527 -1.2775  3.1266  0.5967
 7103SOL     OW32767   3.219   1.284   5.060  0.1002  0.4974 -0.3178
 7103SOL    HW132768   3.146   1.229   5.087  1.9148 -1.7701  0.0242
 7103SOL    HW232769   3.225   1.281   4.965 -2.2240  0.9648 -0.4803
 7104SOL     OW32770   1.385   2.393   7.772 -0.2259  0.0448 -0.1955
 7104SOL    HW132771   1.377   2.328   7.702  1.9687  0.6545 -1.0129
 7104SOL    HW232772   1.473   2.369   7.801 -0.5143 -0.9264 -0.1362
 7105SOL     OW32773   2.235   0.974   7.655  0.3245 -0.1876  0.0932
 7105SOL    HW132774   2.246   0.898   7.598  0.7341 -1.4724  1.8868
 7105SOL    HW232775   2.224   1.039   7.586 -1.6835 -0.4815  0.1478
 7106SOL     OW32776   0.328   4.279   7.751  0.3715  0.2170 -0.1961
 7106SOL    HW132777   0.251   4.268   7.695  0.5805 -0.1733 -0.4050
 7106SOL    HW232778   0.396   4.266   7.685  1.2969 -0.1341  0.8229
 7107SOL     OW32779   2.530   2.710   0.163 -0.6851  0.3508 -0.0313
 7107SOL    HW132780   2.526   2.766   0.086  0.8594 -0.4242 -0.6694
 7107SOL    HW232781   2.449   2.727   0.211 -1.2899  0.7639 -1.2251
 7108SOL     OW32782   1.255   1.017   2.742 -0.2975 -0.2939  0.1732
 7108SOL    HW132783   1.194   1.086   2.715 -1.1402 -1.2319 -0.3356
 7108SOL    HW232784   1.298   1.051   2.821  0.7079 -0.0073 -0.4859
 7109SOL     OW32785   2.866   3.862  10.129 -0.3183  0.9545 -0.2473
 7109SOL    HW132786   2.795   3.902  10.180  2.3663  1.9714  2.6598
 7109SOL    HW232787   2.871   3.772  10.162 -0.7114  1.3036  0.7589
 7110SOL     OW32788   3.351   3.998   0.112  0.8792 -0.5976  0.1646
 7110SOL    HW132789   3.295   3.963   0.042 -0.3361 -0.3679  1.0312
 7110SOL    HW232790   3.435   4.024   0.073  0.9269 -0.0183  0.6622
 7111SOL     OW32791   0.838   0.376   8.364 -0.7582 -0.6520 -0.3792
 7111SOL    HW132792   0.752   0.352   8.330 -1.0233  1.8569 -1.4449
 7111SOL    HW232793   0.859   0.295   8.411 -1.2399 -1.8728 -2.2610
 7112SOL     OW32794   3.740   3.749   4.960 -0.5331  0.0374  0.4793
 7112SOL    HW132795   3.743   3.820   5.023  1.4348  2.4665 -2.3853
 7112SOL    HW232796   3.646   3.747   4.946 -0.5250  0.9849  0.3290
 7113SOL     OW32797   1.764   0.644   7.049  0.3336  0.1367  0.1219
 7113SOL    HW132798   1.831   0.616   7.110  1.1358 -1.6904 -1.6018
 7113SOL    HW232799   1.764   0.740   7.051 -0.3091  0.0936  1.8051
 7114SOL     OW32800   2.239   0.336   1.106  0.0218  0.5691  0.1432
 7114SOL    HW132801   2.232   0.427   1.135  0.5575  0.1537  1.6092
 7114SOL    HW232802   2.150   0.328   1.073 -0.3534  1.9232  0.8004
 7115SOL     OW32803   3.071   3.015   3.105  0.7419 -0.1705 -0.5005
 7115SOL    HW132804   3.053   2.922   3.117 -1.7165  0.2924 -0.4072
 7115SOL    HW232805   3.160   3.018   3.138  0.0728  0.6355  1.2391
 7116SOL     OW32806   0.442   4.438   2.766  0.0871 -0.3367 -0.2170
 7116SOL    HW132807   0.371   4.476   2.818 -0.1069  0.9386 -1.4067
 7116SOL    HW232808   0.475   4.375   2.831 -0.5354 -1.3621 -0.8929
 7117SOL     OW32809   2.809   2.255  14.274 -0.1440  0.3283  0.2860
 7117SOL    HW132810   2.741   2.187  14.283  1.3866 -1.2665 -0.2555
 7117SOL    HW232811   2.799   2.306  14.355 -0.3422  0.7388  0.0016
 7118SOL     OW32812   3.228   3.139   5.925  0.0151 -0.3946 -0.2202
 7118SOL    HW132813   3.265   3.200   5.989 -1.2816 -0.1774  0.3210
 7118SOL    HW232814   3.174   3.080   5.977 -0.4679  0.4283  0.2168
 7119SOL     OW32815   3.763   1.609   8.015  0.1219  0.2182  0.1526
 7119SOL    HW132816   3.806   1.531   8.049 -0.8836  0.0896  1.0961
 7119SOL    HW232817   3.672   1.612   8.045 -0.4750 -0.8484 -1.5371
 7120SOL     OW32818   1.199   2.691   8.860  0.1469  0.1136 -0.3731
 7120SOL    HW132819   1.248   2.727   8.934  0.9272 -0.6897 -0.4944
 7120SOL    HW232820   1.120   2.669   8.910 -1.1793  1.4906 -1.8603
 7121SOL     OW32821   3.318   0.917  10.597  0.5471  0.1889 -0.3565
 7121SOL    HW132822   3.329   1.008  10.570 -1.4646  0.7492  0.6525
 7121SOL    HW232823   3.224   0.927  10.612  0.3927 -0.9238 -0.6008
 7122SOL     OW32824   1.568   2.389   0.408  0.0450  0.0730 -0.5318
 7122SOL    HW132825   1.626   2.340   0.466  0.0854 -0.2387 -0.8342
 7122SOL    HW232826   1.624   2.450   0.361  2.1673 -1.2785  0.2416
 7123SOL     OW32827   2.981   2.854   7.991 -0.0788  0.1908  0.0760
 7123SOL    HW132828   2.973   2.947   8.013  2.3242  0.2615  0.5848
 7123SOL    HW232829   2.963   2.818   8.078 -3.4019  1.3962 -0.1124
 7124SOL     OW32830   2.883   2.186  11.959  0.2048 -0.0868 -0.3580
 7124SOL    HW132831   2.830   2.150  12.031  1.5632 -1.4519 -0.0272
 7124SOL    HW232832   2.939   2.110  11.942  0.7987  0.1983  0.3438
 7125SOL     OW32833   3.108   4.383   5.559  0.1387 -0.1444  0.5659
 7125SOL    HW132834   3.166   4.368   5.484  0.0132  2.0547  0.0351
 7125SOL    HW232835   3.024   4.348   5.529  0.0828 -1.3421  2.1394
 7126SOL     OW32836   1.383   3.603   3.452 -0.4220  0.4499  0.6420
 7126SOL    HW132837   1.411   3.672   3.512  1.8752  0.5733 -0.5593
 7126SOL    HW232838   1.304   3.645   3.418  0.5261  0.1109 -1.9711
 7127SOL     OW32839   3.341   2.805  16.554  0.7685 -0.1278 -0.2166
 7127SOL    HW132840   3.325   2.829  16.463 -0.7034  2.4518  0.7148
 7127SOL    HW232841   3.263   2.846  16.590 -0.6190 -1.3847 -1.8272
 7128SOL     OW32842   3.407   1.541  17.262  0.1973  0.0785 -0.0006
 7128SOL    HW132843   3.503   1.546  17.254  0.1977 -2.1960 -1.7644
 7128SOL    HW232844   3.403   1.528  17.356  0.1074 -0.9893 -0.1450
 7129SOL     OW32845   1.202   3.408   8.820  0.6171  0.6173 -0.0108
 7129SOL    HW132846   1.160   3.326   8.848  1.5253  0.3015  0.4258
 7129SOL    HW232847   1.229   3.388   8.730  2.2331  1.2249  0.3474
 7130SOL     OW32848   0.238   3.658   1.499  0.4485 -0.0351 -0.5053
 7130SOL    HW132849   0.246   3.750   1.472  2.5649 -0.6451 -1.9834
 7130SOL    HW232850   0.315   3.625   1.452  1.7165 -0.6642  2.0328
 7131SOL     OW32851   2.702   1.270   7.501 -0.3553 -0.2351  0.5299
 7131SOL    HW132852   2.658   1.243   7.581 -0.3765 -0.9056  0.2901
 7131SOL    HW232853   2.710   1.364   7.517 -0.4713 -0.0960 -0.2170
 7132SOL     OW32854   4.173   1.802  12.767  0.4392 -0.2865 -0.1794
 7132SOL    HW132855   4.230   1.728  12.746  0.9134  0.9640 -3.2797
 7132SOL    HW232856   4.220   1.846  12.838 -1.5496  0.9753  0.3212
 7133SOL     OW32857   0.865   4.299  15.886 -0.0232 -0.4655  1.0634
 7133SOL    HW132858   0.878   4.233  15.955 -1.6568 -1.3019  0.5610
 7133SOL    HW232859   0.867   4.240  15.811 -0.7474  0.0688  0.6279
 7134SOL     OW32860   1.842   2.076   5.825 -0.2209 -0.3380 -0.6432
 7134SOL    HW132861   1.784   2.000   5.818  0.4517 -0.9318  0.2305
 7134SOL    HW232862   1.926   2.043   5.857  0.3342  1.8942  0.2283
 7135SOL     OW32863   3.534   0.968   1.188 -0.0234 -0.4328 -0.8207
 7135SOL    HW132864   3.618   0.986   1.144 -0.4564  0.2425 -1.3701
 7135SOL    HW232865   3.524   0.877   1.159 -0.8689 -0.5800 -0.0456
 7136SOL     OW32866   1.641   2.054   7.446 -0.1923  0.0163 -1.0713
 7136SOL    HW132867   1.718   2.034   7.500  0.9085 -2.2043 -3.4512
 7136SOL    HW232868   1.692   2.068   7.366  1.8701 -0.0207  0.2336
 7137SOL     OW32869   1.975   1.024   4.831 -0.6758  0.5127  0.2874
 7137SOL    HW132870   2.034   1.097   4.847 -0.3384  0.5580 -1.0981
 7137SOL    HW232871   1.917   1.071   4.771 -0.8951  1.0129  0.8898
 7138SOL     OW32872   0.949   3.651   7.934 -0.3812  0.1567  0.2489
 7138SOL    HW132873   0.870   3.637   7.882 -0.7842 -0.7979  1.0966
 7138SOL    HW232874   0.931   3.619   8.023 -2.5280  2.7097  0.7140
 7139SOL     OW32875   0.297   2.403  15.608  0.6038  0.0427 -0.1641
 7139SOL    HW132876   0.269   2.410  15.516  0.7365 -1.3902 -0.3163
 7139SOL    HW232877   0.241   2.333  15.641  1.4615  0.2827  1.7559
 7140SOL     OW32878   0.548   0.832   5.525  0.3495  0.0538 -0.1038
 7140SOL    HW132879   0.519   0.746   5.557 -0.6105  0.5433  0.3280
 7140SOL    HW232880   0.466   0.867   5.492 -0.4575 -1.7179  0.0290
 7141SOL     OW32881   1.149   1.695   1.204 -0.2467  0.4476 -0.0269
 7141SOL    HW132882   1.137   1.652   1.288 -0.1340  0.0263 -0.2253
 7141SOL    HW232883   1.127   1.787   1.221 -2.9767 -0.7306  2.7689
 7142SOL     OW32884   3.049   4.450   2.719 -0.2341  0.4857  0.7014
 7142SOL    HW132885   2.968   4.492   2.748  0.4350  0.6531  2.3156
 7142SOL    HW232886   3.062   4.379   2.781  0.0273  0.1399  0.2484
 7143SOL     OW32887   2.759   1.271   3.541 -0.2589 -0.2128 -0.4671
 7143SOL    HW132888   2.766   1.365   3.525 -1.4506 -0.6624 -3.4865
 7143SOL    HW232889   2.699   1.235   3.476  0.1887 -0.9182 -0.4863
 7144SOL     OW32890   4.576   0.916  15.747 -0.3101  0.5529 -0.4264
 7144SOL    HW132891   4.494   0.962  15.733 -0.5133  0.1431 -0.5946
 7144SOL    HW232892   4.621   0.930  15.664  0.8818  0.3695  0.1933
 7145SOL     OW32893   2.847   2.158   1.689  0.2934  0.4987 -0.5043
 7145SOL    HW132894   2.826   2.235   1.637 -0.2725  0.5188 -0.2409
 7145SOL    HW232895   2.882   2.103   1.618 -0.6385 -0.5549 -0.1460
 7146SOL     OW32896   4.636   1.331   4.831 -0.3667 -0.5520  0.0011
 7146SOL    HW132897   4.675   1.365   4.751  0.0234 -0.2433  0.3234
 7146SOL    HW232898   4.642   1.240   4.801 -0.8834 -1.0462  1.3746
 7147SOL     OW32899   3.353   0.730  15.204  0.0725 -0.2277  0.3062
 7147SOL    HW132900   3.339   0.786  15.127 -1.8424 -0.7751  0.2679
 7147SOL    HW232901   3.313   0.779  15.275 -0.9389  1.3479 -1.3458
 7148SOL     OW32902   3.586   3.491   5.646 -0.0538 -0.6893  0.1847
 7148SOL    HW132903   3.652   3.548   5.606 -1.4081  0.6579 -0.1552
 7148SOL    HW232904   3.525   3.484   5.572 -0.6519  0.6401  0.5549
 7149SOL     OW32905   0.583   2.106   3.487  0.1826  0.0222  0.2839
 7149SOL    HW132906   0.668   2.073   3.518  0.7057  2.1164  1.0307
 7149SOL    HW232907   0.609   2.159   3.412  1.0479  0.3282  0.8000
 7150SOL     OW32908   3.046   1.534   4.452  0.1688 -0.6393  0.5775
 7150SOL    HW132909   3.101   1.507   4.378 -2.0841 -0.4970 -1.1509
 7150SOL    HW232910   3.051   1.630   4.447  2.5567 -0.8447 -1.2405
 7151SOL     OW32911   3.715   2.494   1.988 -0.2588 -0.5496  0.0966
 7151SOL    HW132912   3.695   2.483   2.081 -0.3213  1.5534  0.3207
 7151SOL    HW232913   3.802   2.535   1.984  0.0885 -1.1456  1.4446
 7152SOL     OW32914   2.727   3.613   4.893 -0.1355 -0.1715 -1.0571
 7152SOL    HW132915   2.809   3.643   4.855 -0.7429  1.2220 -1.2729
 7152SOL    HW232916   2.751   3.526   4.925 -1.3302  0.1012  0.5442
 7153SOL     OW32917   0.231   3.256  11.672  0.0492  0.0660 -0.2007
 7153SOL    HW132918   0.230   3.300  11.587 -0.2483 -1.1660 -0.8278
 7153SOL    HW232919   0.138   3.244  11.692  0.3658 -2.0848 -0.0159
 7154SOL     OW32920   1.803   2.774   6.457 -0.0853 -0.4494 -0.6811
 7154SOL    HW132921   1.745   2.745   6.526 -1.0771  1.5782 -0.6638
 7154SOL    HW232922   1.747   2.815   6.391 -0.0373 -0.8504 -0.9768
 7155SOL     OW32923   2.745   1.761   4.859  0.2807  0.5671  0.3811
 7155SOL    HW132924   2.797   1.723   4.929 -1.2437 -2.8238 -0.3383
 7155SOL    HW232925   2.662   1.791   4.897 -0.5005 -2.3403  1.0199
 7156SOL     OW32926   3.018   0.525   5.886  0.2187  0.0739 -0.0968
 7156SOL    HW132927   2.984   0.440   5.856 -0.7980 -0.6489  3.0264
 7156SOL    HW232928   3.055   0.501   5.971 -0.4033 -1.0105 -0.1190
 7157SOL     OW32929   0.254   3.702   6.203  0.1325  0.3590  0.8859
 7157SOL    HW132930   0.276   3.720   6.294  0.3589 -1.9309  1.2783
 7157SOL    HW232931   0.199   3.623   6.207 -0.4219  0.5920 -1.9254
 7158SOL     OW32932   1.920   1.246  16.078 -0.0406  0.4330 -0.9443
 7158SOL    HW132933   1.872   1.315  16.032  0.7502  1.8528  0.3667
 7158SOL    HW232934   1.983   1.298  16.129 -1.4136  0.7624  0.4276
 7159SOL     OW32935   1.865   0.891  13.076 -0.5811 -0.3346 -0.0553
 7159SOL    HW132936   1.923   0.964  13.099  0.9003 -1.5025 -0.1382
 7159SOL    HW232937   1.912   0.826  13.128 -0.1368  0.0036 -0.0303
 7160SOL     OW32938   3.081   1.785   1.523 -0.0872  0.0830  0.4978
 7160SOL    HW132939   3.036   1.704   1.547 -0.5935  0.5171  1.0487
 7160SOL    HW232940   3.170   1.752   1.523 -0.4767 -0.9563 -0.7623
 7161SOL     OW32941   1.792   3.145   2.820 -0.3031 -0.0748 -0.2247
 7161SOL    HW132942   1.800   3.196   2.740  0.1467  0.6736  0.2966
 7161SOL    HW232943   1.883   3.153   2.849 -0.1623 -0.3866 -0.5880
 7162SOL     OW32944   4.666   2.594   8.186 -0.2529 -0.4136 -0.5579
 7162SOL    HW132945   4.629   2.638   8.109 -0.6036  0.2223 -0.0330
 7162SOL    HW232946   4.617   2.512   8.180  0.3298 -0.4678 -4.5929
 7163SOL     OW32947   0.021   2.699   7.288 -0.1504 -0.6312  0.1535
 7163SOL    HW132948   0.006   2.794   7.279  1.4779 -0.6542 -2.6788
 7163SOL    HW232949   4.684   2.658   7.230 -2.5532  2.5569  0.4813
 7164SOL     OW32950   0.085   2.223  15.654  0.2958 -0.2832  0.0202
 7164SOL    HW132951   4.717   2.213  15.662  0.0055  1.5165 -1.1668
 7164SOL    HW232952   0.106   2.132  15.633  0.9541 -0.3614  1.0278
 7165SOL     OW32953   2.130   1.085   9.128  0.3983 -0.1728 -0.2785
 7165SOL    HW132954   2.070   1.153   9.158  1.3513  1.8687 -2.9001
 7165SOL    HW232955   2.097   1.056   9.043 -1.3710  0.0692  0.3268
 7166SOL     OW32956   3.238   4.397   3.296 -1.2650  0.0569  0.1883
 7166SOL    HW132957   3.258   4.369   3.385  1.0050 -0.7155 -0.5584
 7166SOL    HW232958   3.239   4.311   3.252  1.7684 -0.0934  0.6031
 7167SOL     OW32959   1.728   0.711   4.151 -0.8523 -0.1970 -0.2811
 7167SOL    HW132960   1.789   0.708   4.224 -0.9761  0.1033 -0.1616
 7167SOL    HW232961   1.659   0.769   4.185 -1.0203 -0.8677  0.5104
 7168SOL     OW32962   4.627   0.029   3.908 -0.0260  0.5611 -0.5660
 7168SOL    HW132963   4.564   4.695   3.869 -0.0721  0.6890 -0.6931
 7168SOL    HW232964   4.689   4.685   3.926 -0.7426 -0.6925 -3.0679
 7169SOL     OW32965   0.909   1.868  14.793  0.0976 -0.0746 -0.1586
 7169SOL    HW132966   0.844   1.873  14.723 -1.0096  0.3830  0.9022
 7169SOL    HW232967   0.935   1.960  14.796  3.1804 -0.8620 -2.8144
 7170SOL     OW32968   4.028   1.991   6.844  0.2103 -0.0525 -0.1010
 7170SOL    HW132969   4.037   1.902   6.810  0.3605 -0.2386  0.4194
 7170SOL    HW232970   3.962   1.984   6.913 -0.9258  1.8242 -0.9725
 7171SOL     OW32971   3.439   0.667   6.257 -0.9257 -0.1641  0.4896
 7171SOL    HW132972   3.428   0.628   6.344  0.6107  0.4406  0.9498
 7171SOL    HW232973   3.527   0.647   6.225 -0.2552 -1.6375  3.2117
 7172SOL     OW32974   2.064   0.963  16.716 -0.2076  0.2295 -0.1294
 7172SOL    HW132975   2.012   0.890  16.681  0.3210 -1.4488  2.5208
 7172SOL    HW232976   2.036   0.956  16.808  1.4333  2.0749  0.5051
 7173SOL     OW32977   4.014   2.648  13.929  0.1378  0.0687  0.4393
 7173SOL    HW132978   3.972   2.733  13.920  2.7994  1.7930  4.3276
 7173SOL    HW232979   4.104   2.678  13.937  0.6757 -1.7713  1.5490
 7174SOL     OW32980   1.540   4.043   0.419  0.9649  0.1184  0.2821
 7174SOL    HW132981   1.555   3.966   0.473  0.9058  0.1485  0.3415
 7174SOL    HW232982   1.588   4.020   0.339  2.1447  0.5672  0.8668
 7175SOL     OW32983   2.484   4.354   4.049 -0.7775 -0.2685 -0.0413
 7175SOL    HW132984   2.393   4.324   4.046 -0.8402 -0.0743 -0.0967
 7175SOL    HW232985   2.481   4.443   4.084  1.7325 -0.3728  0.4878
 7176SOL     OW32986   2.206   0.163   7.555 -0.1813  0.0342  0.7054
 7176SOL    HW132987   2.144   0.178   7.626 -0.0150 -0.9817  1.0666
 7176SOL    HW232988   2.163   0.195   7.476  1.9596 -0.4696 -0.6886
 7177SOL     OW32989   0.104   4.493   2.237 -0.5146  0.5916 -0.8186
 7177SOL    HW132990   0.102   4.399   2.217 -0.7672  0.0986  1.4822
 7177SOL    HW232991   0.055   4.498   2.319  0.5621  1.6991 -0.2571
 7178SOL     OW32992   1.091   3.667  13.498  0.1734 -0.0422 -0.0465
 7178SOL    HW132993   1.007   3.705  13.471  1.1741  2.4160  0.3341
 7178SOL    HW232994   1.152   3.740  13.486 -0.5052  0.5098 -0.1334
 7179SOL     OW32995   3.180   3.186   4.172 -0.1229 -0.2274 -1.1199
 7179SOL    HW132996   3.085   3.201   4.176 -0.3799 -1.5745 -2.1442
 7179SOL    HW232997   3.187   3.161   4.080  0.9114 -0.9922 -0.8351
 7180SOL     OW32998   3.889   1.942  17.249 -0.4436 -0.4691  0.0338
 7180SOL    HW132999   3.806   1.947  17.297  0.9089 -1.7208  2.4700
 7180SOL    HW233000   3.936   1.874  17.297  0.5942  0.2497  0.0321
 7181SOL     OW33001   4.284   3.798   6.911  0.3133  0.4553 -0.4482
 7181SOL    HW133002   4.244   3.841   6.986  1.3265  1.1882 -0.3310
 7181SOL    HW233003   4.224   3.724   6.901  1.5732 -0.5822 -0.4959
 7182SOL     OW33004   1.562   4.183   4.774 -0.8981  0.6373  0.1565
 7182SOL    HW133005   1.556   4.263   4.722  0.3688  1.7331  1.7153
 7182SOL    HW233006   1.489   4.202   4.833  0.7616  2.9233  1.4330
 7183SOL     OW33007   3.763   3.557   1.039 -0.0972  0.8778 -0.4653
 7183SOL    HW133008   3.823   3.485   1.018 -2.0512 -0.6752 -0.6636
 7183SOL    HW233009   3.785   3.587   1.128  0.1361  0.6556 -0.4465
 7184SOL     OW33010   0.578   1.675   1.590  0.5926  0.5198 -0.3955
 7184SOL    HW133011   0.571   1.654   1.497  0.2039 -0.2599 -0.1961
 7184SOL    HW233012   0.493   1.713   1.612  1.2293  2.7611 -1.8608
 7185SOL     OW33013   3.838   3.718  16.536  0.2452  0.2878  0.5234
 7185SOL    HW133014   3.907   3.681  16.591 -0.4647 -0.6457  0.7933
 7185SOL    HW233015   3.767   3.655  16.547 -1.0609  1.7029  0.1666
 7186SOL     OW33016   2.334   2.823   8.582 -0.0561  0.1496 -0.0044
 7186SOL    HW133017   2.275   2.873   8.525 -0.2583 -0.2717 -0.1587
 7186SOL    HW233018   2.408   2.883   8.586 -1.3684  1.7159  0.8471
 7187SOL     OW33019   1.540   1.810   4.251 -0.1675  0.8674  0.1654
 7187SOL    HW133020   1.517   1.859   4.330  0.7373 -0.0134  0.9745
 7187SOL    HW233021   1.466   1.827   4.193 -1.1412 -0.6735  0.9583
 7188SOL     OW33022   1.653   3.384   8.287  0.4182 -0.3323  0.2996
 7188SOL    HW133023   1.724   3.405   8.348 -1.2187  1.3892  1.6023
 7188SOL    HW233024   1.668   3.293   8.262  1.0932  0.0177 -0.5976
 7189SOL     OW33025   2.423   2.150   9.749 -0.2083 -0.8179  0.1338
 7189SOL    HW133026   2.400   2.183   9.662 -1.7897 -0.4142  0.7195
 7189SOL    HW233027   2.421   2.234   9.794  1.1604 -0.4981 -0.4064
 7190SOL     OW33028   2.526   0.456   1.540  0.2475 -0.0438  0.3269
 7190SOL    HW133029   2.606   0.406   1.526  0.5224  0.2915  0.7056
 7190SOL    HW233030   2.552   0.530   1.595  0.1921 -0.5315  0.9993
 7191SOL     OW33031   4.657   4.201  14.357 -0.0766 -0.2617  0.1039
 7191SOL    HW133032   4.673   4.209  14.263  1.9226  2.5803  0.7036
 7191SOL    HW233033   0.016   4.167  14.381  0.6098  2.1095  1.0775
 7192SOL     OW33034   2.396   3.924   7.848  0.4722 -0.0545 -0.1293
 7192SOL    HW133035   2.437   3.997   7.894  2.0486 -2.6552  2.5725
 7192SOL    HW233036   2.415   3.952   7.759  0.4321  0.6135  0.0683
 7193SOL     OW33037   1.401   1.676   4.000 -0.3112  0.6166  0.2568
 7193SOL    HW133038   1.473   1.735   3.979 -0.1743  0.7597  1.0964
 7193SOL    HW233039   1.385   1.626   3.921 -0.2452 -0.7235  1.0933
 7194SOL     OW33040   1.286   0.540   7.160  0.5922  0.2583 -0.6471
 7194SOL    HW133041   1.300   0.628   7.196 -1.5632  0.8042 -1.1395
 7194SOL    HW233042   1.245   0.564   7.076 -0.6184 -1.6752 -0.5945
 7195SOL     OW33043   1.972   2.952   2.632  0.4664 -0.1659  0.0479
 7195SOL    HW133044   1.895   2.898   2.650 -0.2806  0.9255  0.1158
 7195SOL    HW233045   1.972   2.971   2.538 -2.3547 -0.8818 -0.0819
 7196SOL     OW33046   2.719   0.038   4.870  0.0048  0.6925  0.3336
 7196SOL    HW133047   2.730   4.677   4.907  0.8036  0.1528 -1.2021
 7196SOL    HW233048   2.789   0.032   4.805 -0.8539  1.5107 -0.6755
 7197SOL     OW33049   0.836   2.803   8.059 -0.2604  0.8407 -0.3599
 7197SOL    HW133050   0.892   2.805   8.136 -1.8324 -0.8406  0.8159
 7197SOL    HW233051   0.876   2.725   8.021 -0.9345  0.7107 -0.7963
 7198SOL     OW33052   0.701   1.515   3.322  0.4281  0.5947 -0.3313
 7198SOL    HW133053   0.622   1.495   3.371  0.1236 -0.2000 -1.1521
 7198SOL    HW233054   0.656   1.531   3.239 -1.9774 -2.3193  0.3927
 7199SOL     OW33055   4.533   0.949  12.356 -0.1180  0.0567  0.0316
 7199SOL    HW133056   4.509   0.988  12.440  1.2828  1.1810 -0.0809
 7199SOL    HW233057   4.601   1.005  12.318  1.3547 -0.8514  1.3305
 7200SOL     OW33058   4.481   1.822   9.207  0.4588 -0.4022 -0.7185
 7200SOL    HW133059   4.576   1.805   9.210  0.0984 -2.3587  0.3745
 7200SOL    HW233060   4.475   1.886   9.278  0.6370  0.1864 -1.2441
 7201SOL     OW33061   4.441   2.238   6.618  0.2886 -0.0875  0.0453
 7201SOL    HW133062   4.476   2.309   6.672 -1.1446  1.3851 -0.9550
 7201SOL    HW233063   4.363   2.208   6.665  0.2154  0.5811  0.3555
 7202SOL     OW33064   2.954   2.943   1.460  0.3341  0.1042  0.5464
 7202SOL    HW133065   2.981   2.928   1.550  0.9161  2.1972  0.7120
 7202SOL    HW233066   3.043   2.968   1.433 -0.1245  0.6047 -0.4955
 7203SOL     OW33067   1.496   2.094  11.239  0.0090 -0.3426 -0.0592
 7203SOL    HW133068   1.451   2.159  11.185 -0.7744 -0.3280  0.6093
 7203SOL    HW233069   1.518   2.148  11.315 -2.5112  0.7057 -0.0721
 7204SOL     OW33070   3.313   2.327   3.373 -0.2456 -0.4156 -0.8553
 7204SOL    HW133071   3.334   2.405   3.322  1.7529 -0.8094 -0.6639
 7204SOL    HW233072   3.364   2.259   3.328  0.5823  0.5272 -1.3500
 7205SOL     OW33073   3.526   3.415  13.576  0.4339  0.5862 -0.4515
 7205SOL    HW133074   3.613   3.380  13.557  0.3326  0.0107  0.1780
 7205SOL    HW233075   3.516   3.472  13.499  0.8320 -0.7859 -1.5198
 7206SOL     OW33076   2.373   2.729   6.495  0.8630 -0.0390  0.1990
 7206SOL    HW133077   2.283   2.712   6.469  0.1889 -1.7484  3.6203
 7206SOL    HW233078   2.385   2.816   6.458 -1.4201  0.7907  1.4202
 7207SOL     OW33079   1.685   1.019   4.555 -0.5707  0.2430  0.0173
 7207SOL    HW133080   1.730   1.101   4.577  0.4756 -0.5841  0.9131
 7207SOL    HW233081   1.746   0.949   4.577 -0.2278  0.3696 -0.5395
 7208SOL     OW33082   0.146   4.068   6.386  0.4285 -0.2787 -0.4075
 7208SOL    HW133083   0.175   4.049   6.475  0.5975  0.6427 -0.2673
 7208SOL    HW233084   0.213   4.119   6.341 -0.9739  1.2799 -0.7494
 7209SOL     OW33085   0.582   0.500   3.915  0.0298  0.6237 -0.1446
 7209SOL    HW133086   0.674   0.523   3.896 -0.2579  1.4158 -0.5977
 7209SOL    HW233087   0.578   0.407   3.893  0.0560  0.8360 -1.0781
 7210SOL     OW33088   4.256   1.634  14.856  0.7339  0.1723 -0.3098
 7210SOL    HW133089   4.280   1.727  14.861 -1.5287  0.6841  0.9638
 7210SOL    HW233090   4.211   1.630  14.772 -0.5598  0.7707  0.3523
 7211SOL     OW33091   4.357   3.259  13.834  0.2353 -0.1877  0.2229
 7211SOL    HW133092   4.300   3.241  13.908  0.3997 -2.1478 -0.1155
 7211SOL    HW233093   4.309   3.324  13.783 -1.4623 -0.8396  1.0162
 7212SOL     OW33094   1.188   2.412   0.921  1.0437  0.2087 -0.2917
 7212SOL    HW133095   1.222   2.500   0.907 -0.1836  0.7278  0.0375
 7212SOL    HW233096   1.207   2.362   0.842 -1.4073 -1.5372  0.2440
 7213SOL     OW33097   1.058   1.193  10.534 -0.6781  0.1498 -0.1934
 7213SOL    HW133098   1.060   1.247  10.455  1.8435 -0.0217 -0.2211
 7213SOL    HW233099   1.148   1.163  10.538 -1.4636 -2.3184 -0.9891
 7214SOL     OW33100   3.249   3.867   0.653  0.1557 -0.6817  0.5012
 7214SOL    HW133101   3.311   3.940   0.652 -0.3847 -0.2537 -1.6418
 7214SOL    HW233102   3.172   3.923   0.666  1.1658  0.4232  1.7888
 7215SOL     OW33103   4.036   3.711  12.914  0.1829 -0.1738 -0.2645
 7215SOL    HW133104   4.082   3.687  12.833 -1.1149 -1.4363 -0.6296
 7215SOL    HW233105   3.944   3.699  12.890  0.5377  1.3894 -2.4288
 7216SOL     OW33106   2.730   3.572   1.918  0.0844 -0.7164  0.0550
 7216SOL    HW133107   2.800   3.511   1.940  1.6368  0.3961 -1.8833
 7216SOL    HW233108   2.756   3.647   1.972 -0.6263  1.2475 -2.3443
 7217SOL     OW33109   2.789   0.072   3.918  0.3143 -0.0341  1.2198
 7217SOL    HW133110   2.749   0.105   3.838 -1.9723 -0.4742  2.1733
 7217SOL    HW233111   2.873   0.038   3.887 -0.1743  0.3119 -0.4623
 7218SOL     OW33112   0.515   1.928   6.898 -0.2595 -0.3087 -0.4935
 7218SOL    HW133113   0.511   1.885   6.983  0.3350 -0.1595 -0.3868
 7218SOL    HW233114   0.433   1.976   6.905 -0.0212 -0.1178  1.0233
 7219SOL     OW33115   0.606   3.922   3.194  0.1426 -0.4929  0.4906
 7219SOL    HW133116   0.524   3.926   3.145  0.2958 -0.9774  0.1982
 7219SOL    HW233117   0.677   3.906   3.131 -0.4709  0.4398 -0.4357
 7220SOL     OW33118   2.257   4.363  12.318  0.3150  0.4099  0.8651
 7220SOL    HW133119   2.166   4.343  12.296  1.5686 -1.1249 -2.8707
 7220SOL    HW233120   2.307   4.349  12.238  1.3076 -0.9928  1.7415
 7221SOL     OW33121   1.719   0.695   5.179 -0.2767 -0.1135 -0.0810
 7221SOL    HW133122   1.766   0.771   5.145  0.7635  0.5438  2.7956
 7221SOL    HW233123   1.718   0.633   5.107  2.0654 -0.8868  0.5544
 7222SOL     OW33124   0.529   1.219  17.290  0.2069 -0.4419 -0.2199
 7222SOL    HW133125   0.470   1.218  17.366 -1.2269  2.3001 -1.3281
 7222SOL    HW233126   0.596   1.152  17.309  0.6339  0.0060 -0.1590
 7223SOL     OW33127   2.946   1.989   8.517  0.1429  0.4960 -0.5004
 7223SOL    HW133128   2.995   1.920   8.562 -0.4179 -0.2068 -0.9474
 7223SOL    HW233129   2.919   1.927   8.449 -0.8154  0.3049  0.0449
 7224SOL     OW33130   2.319   0.538   4.527 -0.2591 -0.3075 -0.4391
 7224SOL    HW133131   2.316   0.630   4.554  0.8897 -1.2629  3.0044
 7224SOL    HW233132   2.375   0.547   4.450 -1.2356 -0.1838 -1.1342
 7225SOL     OW33133   1.941   3.879  16.366 -0.2242 -0.3355 -0.1180
 7225SOL    HW133134   1.927   3.971  16.344  0.0465 -0.3603 -0.4007
 7225SOL    HW233135   2.015   3.857  16.309  0.2643  0.8190  0.0864
 7226SOL     OW33136   3.540   0.029   4.416  0.6732 -0.1173  0.3877
 7226SOL    HW133137   3.628   0.049   4.385  0.0229  1.3371 -0.5334
 7226SOL    HW233138   3.483   0.106   4.404  0.8763  0.3532  2.3509
 7227SOL     OW33139   3.613   2.573   2.754 -0.6277 -0.1848 -0.5113
 7227SOL    HW133140   3.587   2.660   2.726 -2.2974 -0.6906 -0.5253
 7227SOL    HW233141   3.686   2.552   2.697 -2.1037 -1.6949 -1.8436
 7228SOL     OW33142   0.572   0.573   5.105 -0.4317 -0.1286 -0.5112
 7228SOL    HW133143   0.531   0.540   5.184  0.7323  0.1924  0.2294
 7228SOL    HW233144   0.489   0.578   5.057  0.0160 -1.7163 -1.4688
 7229SOL     OW33145   0.791   0.103  13.565  0.2056 -0.1679 -0.2446
 7229SOL    HW133146   0.846   0.033  13.602 -0.0682 -0.1015  0.2953
 7229SOL    HW233147   0.809   0.177  13.622  0.0632 -1.9681  2.1499
 7230SOL     OW33148   1.731   0.031   4.113  0.0907  0.4549  0.2296
 7230SOL    HW133149   1.638   0.008   4.102  0.5993 -1.1420 -0.8062
 7230SOL    HW233150   1.756   4.720   4.029 -0.4377  0.2469  0.1607
 7231SOL     OW33151   0.822   0.413   1.402  0.5155  0.6818 -0.6048
 7231SOL    HW133152   0.830   0.485   1.340 -0.1559  2.1283  1.0012
 7231SOL    HW233153   0.898   0.428   1.457  1.1072 -3.4580 -0.2717
 7232SOL     OW33154   0.447   2.802   5.933  0.8256 -0.3502  0.1115
 7232SOL    HW133155   0.534   2.841   5.930  0.8215 -0.1376  2.3647
 7232SOL    HW233156   0.395   2.850   5.869  1.5180  1.0170  0.5935
 7233SOL     OW33157   0.866   2.486  12.493  0.5020  0.2954  0.7987
 7233SOL    HW133158   0.827   2.541  12.426  1.5208 -0.2820 -0.2621
 7233SOL    HW233159   0.870   2.405  12.444 -0.8821  0.7429 -0.0626
 7234SOL     OW33160   1.992   2.060   8.452  1.2554  0.0996  0.2646
 7234SOL    HW133161   2.084   2.040   8.435  1.0875 -1.0352  0.6746
 7234SOL    HW233162   1.984   2.138   8.397  4.4799 -0.6346 -1.2557
 7235SOL     OW33163   4.373   2.054   1.155  0.1010 -0.3362 -0.1885
 7235SOL    HW133164   4.360   2.121   1.221 -0.6890 -0.7955  0.1240
 7235SOL    HW233165   4.353   2.105   1.076 -0.6853 -1.2484 -0.5812
 7236SOL     OW33166   1.906   4.708  14.452 -0.2932 -0.3910  0.5566
 7236SOL    HW133167   1.901   4.687  14.545  0.8344 -2.2196  0.2044
 7236SOL    HW233168   1.819   4.683  14.422 -0.8362  2.5968 -0.3785
 7237SOL     OW33169   0.758   3.266   6.752  0.1949 -0.4013  0.1020
 7237SOL    HW133170   0.734   3.200   6.817 -0.9768  0.1214  0.1906
 7237SOL    HW233171   0.814   3.326   6.802 -2.2452  1.3526  0.7289
 7238SOL     OW33172   3.700   3.776   2.056 -0.5138 -0.5758  0.0845
 7238SOL    HW133173   3.682   3.685   2.080 -0.9425 -0.3078  0.7895
 7238SOL    HW233174   3.731   3.806   2.142  0.2783 -0.3839 -0.2669
 7239SOL     OW33175   1.108   4.340  17.042 -0.3899  0.2140  0.3538
 7239SOL    HW133176   1.086   4.294  17.123  1.9483  1.2551  1.5667
 7239SOL    HW233177   1.179   4.290  17.003  0.4778  0.3879  1.6994
 7240SOL     OW33178   1.508   2.022   5.076 -0.4605 -0.1397  0.3203
 7240SOL    HW133179   1.601   2.030   5.100  0.2711  0.6701 -2.8787
 7240SOL    HW233180   1.524   1.973   4.995 -1.7603 -1.0843  0.6249
 7241SOL     OW33181   4.322   3.716  16.471 -0.0423 -0.1017 -0.2093
 7241SOL    HW133182   4.336   3.644  16.410  0.2283 -1.9125  2.0099
 7241SOL    HW233183   4.279   3.664  16.538  0.6302  1.7195  1.6216
 7242SOL     OW33184   4.102   2.256   7.482  0.1887  0.1039 -0.1471
 7242SOL    HW133185   4.130   2.175   7.438 -1.0248 -0.8409  0.7979
 7242SOL    HW233186   4.180   2.270   7.535 -2.0544  1.7403  2.7116
 7243SOL     OW33187   0.651   1.866   1.994  0.2406  0.3147  0.6814
 7243SOL    HW133188   0.723   1.855   1.932  1.2918 -0.7556  2.0892
 7243SOL    HW233189   0.628   1.951   1.956  2.5325  0.9040  0.5630
 7244SOL     OW33190   4.242   1.479   6.398  0.2090 -0.1369  0.0067
 7244SOL    HW133191   4.189   1.409   6.436 -0.1884 -0.9557 -2.0663
 7244SOL    HW233192   4.331   1.453   6.423  1.3559  2.2832 -1.5386
 7245SOL     OW33193   0.516   3.612   8.296 -0.6064 -0.3631  0.0211
 7245SOL    HW133194   0.484   3.577   8.379 -0.7623  1.1129  0.5868
 7245SOL    HW233195   0.454   3.563   8.243 -0.9008  0.0667 -0.0322
 7246SOL     OW33196   2.737   2.402   7.217 -0.0628  0.7250 -0.6223
 7246SOL    HW133197   2.799   2.337   7.249 -0.4914  1.1763  1.1388
 7246SOL    HW233198   2.793   2.480   7.206 -1.3620  1.6124 -0.8776
 7247SOL     OW33199   3.194   3.326   6.302  0.1634  0.4557  0.6737
 7247SOL    HW133200   3.198   3.419   6.325 -0.5870  0.3985  1.0447
 7247SOL    HW233201   3.245   3.317   6.222  0.6221 -0.7341  1.0952
 7248SOL     OW33202   1.096   0.412   5.430  0.2087  0.0468 -0.1317
 7248SOL    HW133203   1.076   0.323   5.459 -2.0979  1.0883  1.5141
 7248SOL    HW233204   1.009   0.452   5.436  1.3137  2.6403 -1.2021
 7249SOL     OW33205   3.095   2.098   5.837 -0.0769 -0.1044  0.1878
 7249SOL    HW133206   3.179   2.142   5.851  0.2179 -0.6030 -0.0201
 7249SOL    HW233207   3.045   2.161   5.785  2.7380 -0.7554 -3.3361
 7250SOL     OW33208   2.483   2.992   5.046  0.1375 -0.6664  0.6968
 7250SOL    HW133209   2.443   3.078   5.062  0.3061 -1.0484  3.0834
 7250SOL    HW233210   2.458   2.980   4.954 -1.1329 -0.7084  1.0450
 7251SOL     OW33211   3.458   4.617   3.187  0.5255  0.2597 -0.4092
 7251SOL    HW133212   3.381   4.584   3.234  2.7794 -1.7750  1.8735
 7251SOL    HW233213   3.416   4.637   3.103  0.8901  1.5681 -0.2813
 7252SOL     OW33214   0.798   2.889  13.069 -0.0658  0.4131  0.0832
 7252SOL    HW133215   0.785   2.957  13.003  0.5411  2.3764  1.9657
 7252SOL    HW233216   0.715   2.895  13.117 -0.9750 -2.8236 -1.1133
 7253SOL     OW33217   3.742   1.293  16.577 -0.2775 -0.5813 -0.0827
 7253SOL    HW133218   3.770   1.348  16.504 -0.1771  0.4292  0.7229
 7253SOL    HW233219   3.688   1.230  16.529  1.4826 -2.0122 -0.1965
 7254SOL     OW33220   2.503   2.580  10.266 -0.1668  0.4445  0.5398
 7254SOL    HW133221   2.492   2.644  10.196  1.4577 -1.3189 -1.3446
 7254SOL    HW233222   2.571   2.622  10.318  0.9256 -3.0239  1.9296
 7255SOL     OW33223   4.178   1.847   8.345  0.3284  0.3804  0.3389
 7255SOL    HW133224   4.145   1.767   8.304 -0.6647  1.0783 -0.2390
 7255SOL    HW233225   4.216   1.899   8.274 -0.4431  0.3439 -0.1028
 7256SOL     OW33226   4.005   2.068  17.059  0.4733 -0.3988 -0.0240
 7256SOL    HW133227   3.962   2.153  17.049 -0.5367 -1.1017 -1.6961
 7256SOL    HW233228   3.962   2.033  17.137  2.6791  0.6021  1.6507
 7257SOL     OW33229   2.211   0.716  10.110  0.7158 -0.3321 -0.6602
 7257SOL    HW133230   2.262   0.692  10.188 -0.2935 -1.2054 -0.2532
 7257SOL    HW233231   2.230   0.809  10.106  0.3790 -0.2745 -0.9269
 7258SOL     OW33232   4.387   1.683   1.019 -0.8141 -0.2873  0.6959
 7258SOL    HW133233   4.410   1.594   1.048 -0.5591 -0.9546 -1.5367
 7258SOL    HW233234   4.468   1.728   1.043  0.0363 -0.5679 -1.7136
 7259SOL     OW33235   4.716   2.544  17.446  0.4714 -0.6705  0.0448
 7259SOL    HW133236   4.629   2.557  17.483  0.0401  0.8643 -1.4926
 7259SOL    HW233237   0.037   2.570  17.524  1.2130 -1.1798 -0.2415
 7260SOL     OW33238   0.979   3.470   6.172 -0.3096 -0.1324 -0.0174
 7260SOL    HW133239   0.975   3.461   6.268 -0.1937  2.3899  0.2185
 7260SOL    HW233240   0.885   3.481   6.158 -0.2052  1.7981  0.8034
 7261SOL     OW33241   4.100   2.814   1.707  0.3783 -0.1792 -0.5947
 7261SOL    HW133242   4.192   2.828   1.685  0.4785 -0.5053 -0.3912
 7261SOL    HW233243   4.076   2.742   1.648 -0.0108  0.7482 -1.5669
 7262SOL     OW33244   0.770   3.026   1.950 -0.8567 -0.4138  0.5557
 7262SOL    HW133245   0.715   3.020   1.871 -0.9426 -1.5394  0.7104
 7262SOL    HW233246   0.813   2.942   1.934 -0.7208 -0.3361  0.5140
 7263SOL     OW33247   3.088   1.930   7.842 -0.3632  0.4103 -0.4169
 7263SOL    HW133248   3.092   1.853   7.786  1.7449 -1.0695  1.8228
 7263SOL    HW233249   3.148   1.912   7.914  1.1428 -0.9415 -1.9926
 7264SOL     OW33250   0.607   3.992   2.227  0.4486  0.1035 -0.4833
 7264SOL    HW133251   0.693   4.020   2.195  0.2837 -0.4583 -1.4023
 7264SOL    HW233252   0.554   4.047   2.169 -3.0525 -1.7222  0.9844
 7265SOL     OW33253   0.276   3.907   1.432  0.2943 -0.1887 -0.6932
 7265SOL    HW133254   0.307   3.950   1.352  2.4000  0.8150  0.6509
 7265SOL    HW233255   0.351   3.910   1.492 -0.4360 -0.1109  0.2190
 7266SOL     OW33256   4.050   1.932  15.343 -0.0569 -0.3474 -0.0843
 7266SOL    HW133257   4.096   1.989  15.405  2.5216  0.5761 -2.8300
 7266SOL    HW233258   4.059   1.972  15.256  1.3892 -0.7662 -0.1205
 7267SOL     OW33259   2.890   4.170   3.211  0.1750  0.4019 -0.6399
 7267SOL    HW133260   2.846   4.146   3.293  0.6610 -1.2927 -0.8831
 7267SOL    HW233261   2.817   4.208   3.163 -0.0787  2.6684  1.5647
 7268SOL     OW33262   4.632   0.953   6.815  0.7316 -0.4298 -0.2428
 7268SOL    HW133263   4.650   1.001   6.896  0.6771  1.8750 -1.6135
 7268SOL    HW233264   4.555   1.003   6.788  1.1637  0.9998  1.1373
 7269SOL     OW33265   1.103   1.216   3.779 -0.3094  0.2131 -0.3000
 7269SOL    HW133266   1.194   1.244   3.770  0.6381 -2.7795 -0.1312
 7269SOL    HW233267   1.059   1.301   3.772  1.1154  1.1253  2.0185
 7270SOL     OW33268   4.668   1.781   7.300  0.0639 -0.1338  0.2992
 7270SOL    HW133269   0.009   1.848   7.312 -0.9531  1.4715 -2.9763
 7270SOL    HW233270   4.690   1.711   7.361 -0.2568 -0.5416 -0.0571
 7271SOL     OW33271   1.547   1.151   2.158 -0.0449 -0.3317  0.0628
 7271SOL    HW133272   1.640   1.137   2.173 -0.2272 -1.3525  0.2502
 7271SOL    HW233273   1.555   1.189   2.071  0.8930 -2.5270 -0.8119
 7272SOL     OW33274   4.688   2.722   1.193 -0.4040  0.0691 -0.3096
 7272SOL    HW133275   4.618   2.696   1.134 -0.4030 -0.1271 -0.2253
 7272SOL    HW233276   4.724   2.636   1.216  0.5554  0.1696 -1.3838
 7273SOL     OW33277   0.437   2.041   5.278  0.3321 -0.2974  0.1354
 7273SOL    HW133278   0.348   2.046   5.314 -0.1332  3.6783 -1.6284
 7273SOL    HW233279   0.490   2.009   5.351  0.1122 -0.7803  0.0872
 7274SOL     OW33280   2.543   3.887   6.329 -0.1850  0.6553  0.3903
 7274SOL    HW133281   2.604   3.857   6.261 -1.8345  1.5962 -1.5133
 7274SOL    HW233282   2.590   3.969   6.347  0.4074  0.8574 -2.0870
 7275SOL     OW33283   3.556   1.128  16.428 -0.0498  0.8468  0.2906
 7275SOL    HW133284   3.467   1.121  16.462 -0.4512  0.7305 -0.7945
 7275SOL    HW233285   3.539   1.171  16.344  1.1850  0.8687  0.0512
 7276SOL     OW33286   0.708   2.383  17.252 -0.0968  0.0923 -0.3233
 7276SOL    HW133287   0.654   2.326  17.307  0.9590  1.1094  1.7772
 7276SOL    HW233288   0.645   2.425  17.194 -0.1811  0.3956 -0.0167
 7277SOL     OW33289   1.262   1.915   2.638  0.5263  0.4633  0.3213
 7277SOL    HW133290   1.298   1.833   2.603 -2.1655 -2.1661  3.6896
 7277SOL    HW233291   1.239   1.949   2.551  1.1145  0.0102 -0.0135
 7278SOL     OW33292   3.725   0.941   0.968 -0.6913 -0.1776 -0.5900
 7278SOL    HW133293   3.748   0.904   0.883  2.5191  0.0130  0.1668
 7278SOL    HW233294   3.808   0.977   0.999 -1.7722  1.6280  0.2164
 7279SOL     OW33295   1.981   2.478   8.847 -0.5000 -0.1013 -0.5925
 7279SOL    HW133296   1.954   2.533   8.920 -2.3067 -1.0401 -0.5797
 7279SOL    HW233297   2.032   2.541   8.795 -0.0933 -0.2267 -0.3442
 7280SOL     OW33298   1.980   2.010   1.355  0.4234 -0.5008  0.1012
 7280SOL    HW133299   1.945   2.025   1.443  0.9644  1.3875  0.0010
 7280SOL    HW233300   1.988   2.100   1.323  0.9283 -0.7979 -0.6150
 7281SOL     OW33301   3.615   1.454  17.447 -0.7221 -0.3780  0.0559
 7281SOL    HW133302   3.677   1.383  17.430  0.1319  0.3324  0.2309
 7281SOL    HW233303   3.567   1.413  17.519 -1.6739 -0.9853 -0.9294
 7282SOL     OW33304   1.546   4.536  10.008 -0.3556 -0.5450 -0.3625
 7282SOL    HW133305   1.537   4.485   9.928 -0.9468  0.0342 -0.6622
 7282SOL    HW233306   1.577   4.620   9.973 -0.4384 -0.2184  0.3445
 7283SOL     OW33307   0.206   2.462   8.247 -0.6162  0.3644 -0.3872
 7283SOL    HW133308   0.258   2.533   8.209  1.2493 -1.0344 -0.4176
 7283SOL    HW233309   0.117   2.490   8.222  0.1958  2.5437 -0.8912
 7284SOL     OW33310   4.621   0.270  16.525 -0.3249  0.0595 -0.1475
 7284SOL    HW133311   4.662   0.199  16.476  0.9325  1.0817 -0.5912
 7284SOL    HW233312   4.677   0.272  16.603  0.6985 -0.9502 -0.8635
 7285SOL     OW33313   0.435   0.439   2.093  0.2917 -0.3036 -0.0507
 7285SOL    HW133314   0.427   0.450   2.187 -0.7524 -0.0905 -0.1652
 7285SOL    HW233315   0.483   0.518   2.068  1.2125 -1.2506 -1.3120
 7286SOL     OW33316   0.992   3.127   7.448  0.0847 -0.1370  0.0664
 7286SOL    HW133317   0.998   3.033   7.462  0.5839 -0.2340 -0.8101
 7286SOL    HW233318   1.060   3.166   7.502  0.7110 -1.1800  0.0229
 7287SOL     OW33319   2.507   0.075  12.257  0.8234  0.0872  0.2578
 7287SOL    HW133320   2.510   0.166  12.227  0.1681 -0.2840 -0.8861
 7287SOL    HW233321   2.581   0.036  12.210  0.0810 -1.2313  0.1957
 7288SOL     OW33322   3.308   4.590   1.946 -0.1796  0.5350 -0.1360
 7288SOL    HW133323   3.390   4.572   1.901  0.5483  1.1347  0.9650
 7288SOL    HW233324   3.338   4.600   2.037 -1.1511  1.1270  0.1273
 7289SOL     OW33325   3.744   0.830   3.879 -0.0529  0.3969  0.0167
 7289SOL    HW133326   3.816   0.893   3.886  2.6788 -2.6520 -0.4571
 7289SOL    HW233327   3.770   0.754   3.932 -0.2016  1.5044  1.6886
 7290SOL     OW33328   0.827   2.017   6.089 -0.0911 -0.3184 -0.5464
 7290SOL    HW133329   0.738   2.054   6.094 -1.4471 -3.0847 -4.1510
 7290SOL    HW233330   0.871   2.046   6.169 -2.1257  0.0384  0.4434
 7291SOL     OW33331   1.710   1.896  16.894 -0.5063 -0.3827  0.1858
 7291SOL    HW133332   1.802   1.910  16.875 -1.1730  2.5562 -0.8693
 7291SOL    HW233333   1.669   1.895  16.808  0.7907  2.1381 -0.4510
 7292SOL     OW33334   3.410   2.887   7.734 -0.0437  0.0433 -0.2560
 7292SOL    HW133335   3.391   2.936   7.654 -0.0711  1.3361  0.5401
 7292SOL    HW233336   3.463   2.816   7.700 -0.1408 -0.9979  1.7459
 7293SOL     OW33337   4.370   0.047   8.334 -0.1924 -0.6778 -0.3846
 7293SOL    HW133338   4.430   0.079   8.401 -0.5540 -0.6067 -0.0963
 7293SOL    HW233339   4.281   0.060   8.368  0.2514  0.7793  0.2214
 7294SOL     OW33340   0.027   2.821   6.885 -0.0924 -0.2725 -0.4745
 7294SOL    HW133341   0.088   2.826   6.812  0.1814  1.1244 -0.1493
 7294SOL    HW233342   0.063   2.891   6.940  1.3421 -2.4316  1.3656
 7295SOL     OW33343   1.608   3.175  13.302 -0.7478 -0.2053  0.0683
 7295SOL    HW133344   1.664   3.251  13.319  0.7947 -0.8777 -2.0034
 7295SOL    HW233345   1.584   3.161  13.394  0.7709  1.5954  0.7318
 7296SOL     OW33346   2.564   3.293   5.994 -0.1115  0.2615 -0.1680
 7296SOL    HW133347   2.626   3.254   5.933  0.8581  1.0586  0.2976
 7296SOL    HW233348   2.537   3.374   5.950  2.7209  1.2055 -0.1658
 7297SOL     OW33349   3.045   2.397   4.110 -0.2117  0.4119 -0.3263
 7297SOL    HW133350   2.963   2.348   4.102  0.2887 -0.6615  1.0727
 7297SOL    HW233351   3.106   2.345   4.059 -0.9397 -0.8553  0.0914
 7298SOL     OW33352   0.702   3.005   4.638 -0.0590 -0.2970  0.2090
 7298SOL    HW133353   0.722   3.094   4.609  0.2984 -0.9777 -1.6770
 7298SOL    HW233354   0.660   2.973   4.558 -0.6149 -0.7785  0.6962
 7299SOL     OW33355   2.792   4.622   6.614 -0.0596 -0.2713  0.0759
 7299SOL    HW133356   2.848   4.654   6.685 -0.9365 -1.1985  1.1913
 7299SOL    HW233357   2.729   4.693   6.608  0.6930  0.6705  3.2193
 7300SOL     OW33358   3.880   0.835   8.755  0.2166  0.5205 -0.5464
 7300SOL    HW133359   3.785   0.848   8.757 -0.0917 -1.8828  0.6640
 7300SOL    HW233360   3.896   0.809   8.664  0.8469  0.8638 -0.5331
 7301SOL     OW33361   2.365   1.823   2.868 -0.2840 -0.3010  0.4036
 7301SOL    HW133362   2.433   1.756   2.874 -1.7160 -1.7573  0.3218
 7301SOL    HW233363   2.308   1.788   2.936 -1.3648 -3.9185 -2.4182
 7302SOL     OW33364   0.154   4.518  12.595 -0.4406  0.1647 -0.6280
 7302SOL    HW133365   0.063   4.493  12.579 -0.1422 -1.0569 -0.4037
 7302SOL    HW233366   0.194   4.489  12.513  0.1257 -0.0779 -0.2685
 7303SOL     OW33367   1.382   1.987  11.849 -0.0244  0.1975  0.2362
 7303SOL    HW133368   1.469   2.027  11.855  0.3842 -0.6381 -0.2111
 7303SOL    HW233369   1.335   2.038  11.783  0.0433 -1.5097 -1.1178
 7304SOL     OW33370   0.104   2.238   1.694  0.5377 -0.3416  0.1754
 7304SOL    HW133371   0.123   2.206   1.783  1.3333  1.0988  0.5317
 7304SOL    HW233372   0.049   2.314   1.713 -2.5343 -2.5453  0.0856
 7305SOL     OW33373   3.531   2.374  12.330 -0.1092  0.2792  0.0357
 7305SOL    HW133374   3.569   2.318  12.262 -0.5793  1.7647 -1.4587
 7305SOL    HW233375   3.493   2.445  12.276  0.7821 -1.0203 -2.2930
 7306SOL     OW33376   4.278   2.538   0.177  0.3365 -0.2886 -0.1919
 7306SOL    HW133377   4.299   2.458   0.129  1.4237 -1.1198  1.6942
 7306SOL    HW233378   4.340   2.535   0.250 -0.9174  0.0464  0.8997
 7307SOL     OW33379   4.656   0.551   5.793  0.0500 -0.4412 -0.3280
 7307SOL    HW133380   4.691   0.492   5.726  1.4314  2.1854 -1.8825
 7307SOL    HW233381   4.697   0.510   5.870  2.2153 -0.1156 -1.3118
 7308SOL     OW33382   1.353   0.511   6.716 -0.0527 -0.2384 -0.0449
 7308SOL    HW133383   1.377   0.543   6.629  1.8143 -1.3253  0.0800
 7308SOL    HW233384   1.438   0.524   6.758 -0.9472 -0.0680  1.7334
 7309SOL     OW33385   1.617   2.633  14.766 -0.3901 -0.1698 -0.0488
 7309SOL    HW133386   1.640   2.667  14.680 -0.6689 -0.2092 -0.1398
 7309SOL    HW233387   1.693   2.579  14.785 -0.8352 -0.6211  0.4352
 7310SOL     OW33388   2.514   3.602  15.277 -0.1876  0.6886 -0.7654
 7310SOL    HW133389   2.485   3.511  15.276  0.9699  0.2890  2.5088
 7310SOL    HW233390   2.464   3.626  15.356  2.3994 -2.7243  1.9103
 7311SOL     OW33391   4.586   0.605  10.152 -0.3737  0.4405  0.3050
 7311SOL    HW133392   4.560   0.651  10.231 -0.5765 -0.9933  1.0734
 7311SOL    HW233393   4.665   0.559  10.181 -1.1464 -0.5483  0.8391
 7312SOL     OW33394   1.052   3.523   7.295  0.1443  0.1521 -0.1374
 7312SOL    HW133395   0.984   3.571   7.343  0.9323 -1.6328  2.7596
 7312SOL    HW233396   1.087   3.603   7.254  1.3480  0.3928  1.3380
 7313SOL     OW33397   0.099   1.347   3.485 -0.2108 -0.1907  0.0166
 7313SOL    HW133398   0.130   1.259   3.464  5.0861  1.3951  1.0816
 7313SOL    HW233399   0.042   1.371   3.412 -1.3243 -1.0610  0.6014
 7314SOL     OW33400   2.186   1.786   3.495  0.0133  0.0460  0.9062
 7314SOL    HW133401   2.205   1.809   3.404 -0.2926  1.3915  1.1815
 7314SOL    HW233402   2.225   1.865   3.532  0.3819 -0.1305  0.8901
 7315SOL     OW33403   3.653   1.226  15.384 -0.5669 -0.6191 -0.4554
 7315SOL    HW133404   3.697   1.191  15.461  2.7020  1.3878 -1.4065
 7315SOL    HW233405   3.667   1.152  15.324 -2.2351 -1.5228  0.2657
 7316SOL     OW33406   4.670   2.039   2.576  0.5260  0.2998 -0.1383
 7316SOL    HW133407   4.686   2.027   2.482 -0.4907  1.6453 -0.4818
 7316SOL    HW233408   4.680   2.134   2.580  3.7688 -0.1563  2.4290
 7317SOL     OW33409   3.597   2.019   5.518 -0.0690 -0.8602  0.0576
 7317SOL    HW133410   3.631   2.021   5.607  0.9796 -0.5234 -0.3572
 7317SOL    HW233411   3.529   2.086   5.526 -0.1175 -1.1171  1.8401
 7318SOL     OW33412   0.246   4.419  11.432  0.0176  0.2646 -0.3975
 7318SOL    HW133413   0.160   4.378  11.420  1.0089 -1.9639  0.0280
 7318SOL    HW233414   0.221   4.511  11.422 -0.9103 -0.0129 -0.6271
 7319SOL     OW33415   4.043   2.819   5.253  0.5166 -0.7181  0.4158
 7319SOL    HW133416   4.016   2.892   5.308 -1.3190 -1.8609  1.0161
 7319SOL    HW233417   3.989   2.747   5.286  1.8013 -1.8710  0.0299
 7320SOL     OW33418   1.312   2.513  15.851  0.2381 -0.1996 -0.0792
 7320SOL    HW133419   1.238   2.463  15.886  0.1086 -0.4289 -0.6939
 7320SOL    HW233420   1.375   2.492  15.920  0.7420 -2.0159 -1.1000
 7321SOL     OW33421   1.601   0.574   6.826  0.2643 -0.4829  0.7244
 7321SOL    HW133422   1.655   0.584   6.905  0.7407  0.5954  0.2484
 7321SOL    HW233423   1.681   0.566   6.775 -1.3321 -1.4987 -1.6032
 7322SOL     OW33424   1.175   2.057  15.901  0.2959 -0.0247 -0.6138
 7322SOL    HW133425   1.103   2.054  15.838  1.7548  1.4890 -2.3477
 7322SOL    HW233426   1.198   1.966  15.916 -1.3831 -0.3680 -0.0563
 7323SOL     OW33427   1.045   2.082  13.327  0.1701 -0.0195  0.4239
 7323SOL    HW133428   1.099   2.003  13.321 -1.2284 -1.0472  1.1410
 7323SOL    HW233429   1.108   2.143  13.362 -1.5285  1.7595  0.3701
 7324SOL     OW33430   2.396   4.659   1.162 -0.0281  0.0875 -0.3538
 7324SOL    HW133431   2.414   0.026   1.173  1.6381 -0.4114  1.1004
 7324SOL    HW233432   2.330   4.638   1.228 -0.9588  0.6281 -1.0985
 7325SOL     OW33433   4.498   1.489  14.994 -0.4155 -0.2105 -0.2621
 7325SOL    HW133434   4.426   1.552  14.996 -0.7050 -0.4288 -3.7890
 7325SOL    HW233435   4.522   1.502  14.902 -1.9310 -0.3146 -0.6711
 7326SOL     OW33436   0.548   1.522  12.757 -0.0332 -0.2955 -0.8657
 7326SOL    HW133437   0.625   1.494  12.708 -0.5014 -1.7506 -0.7636
 7326SOL    HW233438   0.537   1.448  12.817  0.2823 -1.0070 -1.7011
 7327SOL     OW33439   2.183   0.799   2.993 -0.3044 -0.2197  0.3048
 7327SOL    HW133440   2.115   0.865   3.002 -0.3191 -0.4065  1.5607
 7327SOL    HW233441   2.142   0.720   2.958 -0.1570  0.0911 -0.5829
 7328SOL     OW33442   3.920   3.673   6.690 -0.1151 -0.5425  0.0874
 7328SOL    HW133443   3.851   3.659   6.624  1.3148 -0.0872 -1.4874
 7328SOL    HW233444   3.869   3.707   6.764 -1.5253 -0.8199 -0.7501
 7329SOL     OW33445   1.265   2.931   9.343 -0.0899  0.2891  0.4777
 7329SOL    HW133446   1.261   2.892   9.256 -0.7271 -0.5356  0.8808
 7329SOL    HW233447   1.342   2.896   9.387  0.4889 -0.5882 -1.2488
 7330SOL     OW33448   0.796   2.639   3.177 -0.6889  0.0092 -0.2298
 7330SOL    HW133449   0.890   2.631   3.158 -0.9723 -1.7972 -0.8795
 7330SOL    HW233450   0.790   2.699   3.251  0.6436 -1.0422  0.7506
 7331SOL     OW33451   0.117   4.469  13.980  0.1691  0.0373 -0.3354
 7331SOL    HW133452   0.107   4.396  14.042  3.5713  0.1340  0.3309
 7331SOL    HW233453   0.189   4.517  14.021 -1.7486  1.7704  0.9876
 7332SOL     OW33454   4.097   2.820   8.248 -0.3604  0.4439 -0.1811
 7332SOL    HW133455   4.078   2.906   8.286  1.7327 -0.0078  1.8815
 7332SOL    HW233456   4.192   2.823   8.249 -0.4591  2.8659  0.5510
 7333SOL     OW33457   3.036   4.554   8.241 -0.4356 -0.2133 -0.3969
 7333SOL    HW133458   3.019   4.461   8.255 -1.5513  0.2439  1.2803
 7333SOL    HW233459   3.118   4.562   8.191 -1.3239 -1.9091 -2.1278
 7334SOL     OW33460   1.300   3.990  15.472 -0.5300 -0.4157 -0.1892
 7334SOL    HW133461   1.320   4.041  15.550  0.5740  0.2446 -0.9100
 7334SOL    HW233462   1.373   3.929  15.461 -1.2758 -1.3983  0.2705
 7335SOL     OW33463   0.289   3.957   6.051 -0.0124  0.6416  0.3221
 7335SOL    HW133464   0.237   3.893   6.098 -1.7030  0.6695 -1.5122
 7335SOL    HW233465   0.374   3.943   6.093 -0.0151 -0.0519  0.0990
 7336SOL     OW33466   1.574   0.577   1.442 -0.1494 -0.1107  0.0404
 7336SOL    HW133467   1.667   0.552   1.433 -0.6626 -1.4991 -1.5405
 7336SOL    HW233468   1.541   0.502   1.491 -0.6072  1.1658  1.6663
 7337SOL     OW33469   0.320   3.713   8.954 -0.6440 -0.4373 -0.5951
 7337SOL    HW133470   0.273   3.766   8.889  2.0508  0.2237 -1.9866
 7337SOL    HW233471   0.258   3.640   8.963  0.1359 -0.7867  1.8092
 7338SOL     OW33472   1.634   1.458   3.824  0.2285 -0.6736 -0.9643
 7338SOL    HW133473   1.711   1.428   3.776  1.8047  1.5789  0.2023
 7338SOL    HW233474   1.589   1.522   3.768  2.7999  2.9581  1.1209
 7339SOL     OW33475   0.325   4.005   0.482 -0.4375 -0.1335 -0.0949
 7339SOL    HW133476   0.348   3.964   0.398 -0.8839  0.4688 -0.5163
 7339SOL    HW233477   0.230   3.992   0.480 -0.3328 -1.0506  1.4830
 7340SOL     OW33478   3.561   4.433   8.152  0.1706  0.6109  0.4078
 7340SOL    HW133479   3.615   4.512   8.155 -0.3850  1.0949 -2.2819
 7340SOL    HW233480   3.595   4.399   8.070 -0.9968 -0.0594  0.1952
 7341SOL     OW33481   3.379   0.076   8.033 -0.5022 -0.4669  0.1529
 7341SOL    HW133482   3.382   0.086   8.129  0.3830 -1.1673  0.1977
 7341SOL    HW233483   3.356   0.161   7.997 -1.5464  0.0940  2.1156
 7342SOL     OW33484   2.095   1.502   7.251  0.6493  0.5885  0.2698
 7342SOL    HW133485   2.053   1.440   7.191 -0.6304 -0.0132  1.7578
 7342SOL    HW233486   2.184   1.468   7.250  0.0966 -0.9425  1.4981
 7343SOL     OW33487   1.029   2.142   1.706  0.0248  0.0144 -0.7085
 7343SOL    HW133488   1.056   2.082   1.637  0.8107 -1.5638  0.9742
 7343SOL    HW233489   1.087   2.217   1.690  0.0093  0.6167  2.0632
 7344SOL     OW33490   0.501   0.687   9.907  0.0239  0.5804 -0.2312
 7344SOL    HW133491   0.571   0.746   9.877  0.4790 -0.6610 -1.5850
 7344SOL    HW233492   0.519   0.601   9.869 -0.3996  0.2478  0.3243
 7345SOL     OW33493   0.251   1.174  14.334 -0.0485  0.5011  0.0106
 7345SOL    HW133494   0.240   1.160  14.240 -0.8072 -0.1785  0.2066
 7345SOL    HW233495   0.347   1.179  14.340  0.0179  0.3050 -0.8074
 7346SOL     OW33496   4.109   0.128  15.812 -0.2432  0.0352  0.4781
 7346SOL    HW133497   4.089   0.219  15.788  0.1910  0.1564  0.5736
 7346SOL    HW233498   4.185   0.109  15.756 -0.7853  0.0744 -0.2709
 7347SOL     OW33499   2.958   1.192   7.979 -0.2414  0.3241 -0.0761
 7347SOL    HW133500   2.949   1.260   8.047 -1.1120 -0.3498  0.4851
 7347SOL    HW233501   2.877   1.142   7.991  1.0825 -1.4493  1.4498
 7348SOL     OW33502   1.933   1.115  15.317 -0.3795 -0.1068 -0.2545
 7348SOL    HW133503   1.852   1.082  15.277 -0.0678  1.2139 -1.9430
 7348SOL    HW233504   1.936   1.200  15.273  2.0972  0.5267  1.1677
 7349SOL     OW33505   4.045   0.983  16.972 -0.4090 -0.6629 -0.5451
 7349SOL    HW133506   4.006   0.899  16.947 -2.5338  0.1293  0.1212
 7349SOL    HW233507   3.970   1.029  17.009  0.8371  1.0550 -0.1934
 7350SOL     OW33508   1.148   1.326   4.140  1.1335 -0.4596 -0.0062
 7350SOL    HW133509   1.099   1.367   4.069  2.7475 -0.3886 -1.0824
 7350SOL    HW233510   1.174   1.396   4.201  1.1146  0.5552 -1.1604
 7351SOL     OW33511   4.012   2.146   1.062  0.1860 -0.1470  0.0663
 7351SOL    HW133512   3.939   2.083   1.057  0.0162 -0.0453  1.2651
 7351SOL    HW233513   4.057   2.110   1.139  1.0274  0.0722 -0.3247
 7352SOL     OW33514   0.494   0.634  17.233 -0.5340 -0.5538 -0.1751
 7352SOL    HW133515   0.459   0.636  17.321  2.5146 -0.0570  1.0379
 7352SOL    HW233516   0.563   0.699  17.222 -0.0250 -1.1769 -0.6819
 7353SOL     OW33517   1.338   1.223   7.799 -0.6453  0.0509 -0.5505
 7353SOL    HW133518   1.367   1.142   7.840  0.3132 -0.0575 -1.4363
 7353SOL    HW233519   1.315   1.272   7.878 -0.5507 -0.1252 -0.4136
 7354SOL     OW33520   1.664   0.301  17.545  0.2068  0.4316 -0.6014
 7354SOL    HW133521   1.622   0.222  17.578  2.9889 -0.6952  0.2298
 7354SOL    HW233522   1.594   0.359  17.516  0.8421  1.3960 -0.2208
 7355SOL     OW33523   0.652   3.632   7.932 -0.3764 -0.1039 -0.8396
 7355SOL    HW133524   0.601   3.620   8.012  1.2605 -0.9554  0.0685
 7355SOL    HW233525   0.644   3.724   7.908 -0.7201  0.5068  1.5910
 7356SOL     OW33526   3.534   4.501  11.449  0.0360 -0.2006  0.5079
 7356SOL    HW133527   3.509   4.582  11.493  0.5273 -1.7303  3.6278
 7356SOL    HW233528   3.626   4.523  11.438  0.2233 -1.1451  0.1879
 7357SOL     OW33529   2.330   2.327  15.059  0.2221  0.1165  0.1366
 7357SOL    HW133530   2.421   2.298  15.055 -1.1736 -4.1037 -0.5551
 7357SOL    HW233531   2.336   2.404  15.002 -1.2647 -0.0677 -0.2747
 7358SOL     OW33532   4.600   3.497   4.097  0.4932 -0.3799 -0.1191
 7358SOL    HW133533   4.642   3.498   4.012  0.6870 -1.3197 -0.0424
 7358SOL    HW233534   4.672   3.472   4.155  1.4491 -1.2918 -1.7119
 7359SOL     OW33535   3.451   2.967   6.884  0.0253 -0.0291  0.1998
 7359SOL    HW133536   3.470   2.874   6.880  0.5509  0.0900 -0.1107
 7359SOL    HW233537   3.493   2.995   6.966 -0.2756  1.7349 -0.2440
 7360SOL     OW33538   1.392   4.084   5.028  0.2871 -0.3459 -0.8359
 7360SOL    HW133539   1.318   4.108   5.083 -0.6249  0.8943 -2.6036
 7360SOL    HW233540   1.380   4.151   4.961  1.9906 -1.2350 -2.0639
 7361SOL     OW33541   0.111   2.592   6.538 -0.1369  0.4401 -0.0066
 7361SOL    HW133542   0.196   2.591   6.582  0.4949  2.5431 -1.1828
 7361SOL    HW233543   0.064   2.538   6.602 -2.5530  2.7539  0.2004
 7362SOL     OW33544   2.994   3.599  10.945  0.3378  0.1662 -0.7907
 7362SOL    HW133545   3.038   3.520  10.912 -0.3811 -1.3495  1.8391
 7362SOL    HW233546   2.937   3.621  10.872 -0.4761  3.8002  0.9289
 7363SOL     OW33547   1.466   1.151   4.226  0.2470  0.0668  0.0720
 7363SOL    HW133548   1.480   1.194   4.142  0.2261  2.7634  1.4295
 7363SOL    HW233549   1.466   1.228   4.284 -2.0309 -1.5676  2.2583
 7364SOL     OW33550   3.619   3.593   2.298 -0.4916 -0.1491 -0.5166
 7364SOL    HW133551   3.714   3.598   2.287 -0.4778  0.6000 -0.0533
 7364SOL    HW233552   3.608   3.611   2.392 -1.4388 -2.8339 -0.1035
 7365SOL     OW33553   1.859   4.584   3.536  0.4810 -0.0850  0.0794
 7365SOL    HW133554   1.810   4.519   3.485 -0.0219  0.7284 -0.4647
 7365SOL    HW233555   1.809   4.663   3.517  0.5492 -0.0094  0.2175
 7366SOL     OW33556   0.862   2.431  11.335 -0.0096 -0.1477 -0.6951
 7366SOL    HW133557   0.946   2.475  11.343 -0.8753  0.7266  3.6903
 7366SOL    HW233558   0.849   2.380  11.415 -1.1986 -0.1552 -0.8934
 7367SOL     OW33559   2.081   1.796   2.967  0.2010  0.1409  0.3756
 7367SOL    HW133560   2.093   1.867   2.905  3.3934  0.4942  1.4067
 7367SOL    HW233561   2.096   1.724   2.905  0.7958  1.0308 -0.5260
 7368SOL     OW33562   1.553   0.947  11.248 -0.0390 -0.2163 -0.2651
 7368SOL    HW133563   1.537   1.038  11.276 -1.5333  0.0167 -1.8795
 7368SOL    HW233564   1.549   0.962  11.154  1.0777  1.1600 -0.0905
 7369SOL     OW33565   4.581   1.960   8.068 -0.2024 -0.2688 -0.2930
 7369SOL    HW133566   4.658   2.007   8.102 -0.2866  0.8721 -1.6442
 7369SOL    HW233567   4.629   1.883   8.039 -1.1326 -0.7450 -0.5565
 7370SOL     OW33568   2.788   0.963   6.856  0.3967  0.2136 -0.6720
 7370SOL    HW133569   2.720   0.998   6.913  1.3839 -1.0191  1.2576
 7370SOL    HW233570   2.747   0.884   6.820 -1.0289 -0.8349  3.2884
 7371SOL     OW33571   0.751   1.379   6.858  0.1475  0.4573  0.9430
 7371SOL    HW133572   0.694   1.396   6.932 -0.6281  0.2654  0.3982
 7371SOL    HW233573   0.712   1.446   6.802 -1.6500  0.2406  1.9241
 7372SOL     OW33574   2.056   0.270   7.867  0.2846  0.3496 -0.1065
 7372SOL    HW133575   1.989   0.288   7.802  0.4915  0.0648 -0.4040
 7372SOL    HW233576   2.073   0.177   7.848 -2.8242 -0.1601 -0.3259
 7373SOL     OW33577   1.527   1.400  11.512  0.2894  0.4425  0.2751
 7373SOL    HW133578   1.519   1.307  11.491 -2.4054  0.7985 -0.1742
 7373SOL    HW233579   1.542   1.389  11.606 -1.4533 -1.8549  0.2843
 7374SOL     OW33580   2.776   2.879   9.145 -0.2481 -0.1597 -0.2774
 7374SOL    HW133581   2.703   2.828   9.181 -1.1169  2.2589  1.3885
 7374SOL    HW233582   2.728   2.956   9.113  0.3757  0.6564  0.7674
 7375SOL     OW33583   0.540   1.011   4.862 -0.3631  0.1900 -0.2306
 7375SOL    HW133584   0.481   0.992   4.790  2.1467 -0.2698 -2.1588
 7375SOL    HW233585   0.596   0.935   4.876 -1.0383 -0.5577 -1.6869
 7376SOL     OW33586   1.931   1.145   5.947 -0.1340  0.1207  0.3078
 7376SOL    HW133587   1.927   1.146   5.851 -0.0182 -0.1212  0.2998
 7376SOL    HW233588   1.907   1.057   5.975  1.1359  0.1569  1.5283
 7377SOL     OW33589   4.621   4.589   1.839 -0.1072 -0.0227  0.6654
 7377SOL    HW133590   4.533   4.562   1.810  0.1092  0.1504 -0.1403
 7377SOL    HW233591   4.619   4.559   1.930 -2.4742 -0.9673  0.3216
 7378SOL     OW33592   1.957   1.856   8.147 -0.1210 -0.1308 -0.0670
 7378SOL    HW133593   2.041   1.873   8.105 -1.5733  0.8384 -2.6072
 7378SOL    HW233594   1.929   1.779   8.097  2.7132 -1.5264  0.5024
 7379SOL     OW33595   0.467   2.175   0.046  0.1502 -0.5603  0.1942
 7379SOL    HW133596   0.429   2.106   0.100  2.3971 -1.0821  1.1245
 7379SOL    HW233597   0.453   2.143  17.665 -1.0147 -0.8734  0.4926
 7380SOL     OW33598   2.870   0.196   8.649  0.2586 -0.0784  0.1116
 7380SOL    HW133599   2.927   0.223   8.721 -0.0531 -1.7996  0.9964
 7380SOL    HW233600   2.932   0.157   8.587 -0.8997 -1.3479 -0.2301
 7381SOL     OW33601   4.455   2.499  14.760  0.3059  0.2528 -0.1299
 7381SOL    HW133602   4.478   2.440  14.832  4.5274  1.9969 -0.0676
 7381SOL    HW233603   4.360   2.507  14.763  0.0660 -1.2949 -3.9199
 7382SOL     OW33604   1.385   2.204   8.434  0.4511  0.0089 -0.1665
 7382SOL    HW133605   1.363   2.264   8.505 -2.1669  2.4443 -2.9974
 7382SOL    HW233606   1.475   2.228   8.413  0.7423  0.3631  1.5695
 7383SOL     OW33607   1.391   2.821   2.844  0.6544  0.2394  0.6803
 7383SOL    HW133608   1.344   2.904   2.848  0.5381  0.1599  0.9109
 7383SOL    HW233609   1.475   2.859   2.819  0.3268  0.2054 -0.5004
 7384SOL     OW33610   0.581   4.256   1.528  0.3829 -0.0706 -0.0517
 7384SOL    HW133611   0.572   4.350   1.513  2.5700 -0.5714 -4.4420
 7384SOL    HW233612   0.506   4.224   1.477  0.6478  1.2272 -1.2700
 7385SOL     OW33613   4.504   0.695  12.423 -0.4520 -0.0232 -0.1192
 7385SOL    HW133614   4.433   0.681  12.486  0.0000  0.1777  0.4401
 7385SOL    HW233615   4.506   0.788  12.403 -0.5203 -0.3363 -1.5604
 7386SOL     OW33616   0.781   0.177   4.951  0.6888 -0.0751 -0.0239
 7386SOL    HW133617   0.845   0.128   5.003 -0.2957  0.2318  1.4646
 7386SOL    HW233618   0.766   0.256   5.002  1.1219  0.3366 -0.5298
 7387SOL     OW33619   2.014   4.282  12.231 -0.7748  0.0526  0.9892
 7387SOL    HW133620   1.940   4.227  12.204  0.7043 -1.3047 -0.3073
 7387SOL    HW233621   2.036   4.328  12.150 -0.0241 -0.0725  1.1285
 7388SOL     OW33622   0.992   3.503   5.860  0.2473  0.1059 -0.0275
 7388SOL    HW133623   1.082   3.474   5.876  1.2134  1.8024 -2.3551
 7388SOL    HW233624   0.991   3.596   5.881 -1.8532 -0.7349  3.4865
 7389SOL     OW33625   1.350   0.550  13.365  0.4443  0.2314  0.4473
 7389SOL    HW133626   1.311   0.617  13.422 -0.0996 -0.4173  0.8426
 7389SOL    HW233627   1.398   0.597  13.297 -0.7826 -0.5834 -0.9787
 7390SOL     OW33628   0.285   1.497   2.730  0.3671 -0.0833 -0.1354
 7390SOL    HW133629   0.265   1.546   2.809 -0.4797 -2.4068  1.0877
 7390SOL    HW233630   0.354   1.557   2.701 -0.1564  0.3882 -0.4129
 7391SOL     OW33631   0.231   4.073   2.900  0.2867  0.1821 -0.1441
 7391SOL    HW133632   0.224   3.986   2.861  0.4235 -1.7787  4.1473
 7391SOL    HW233633   0.177   4.049   2.975  2.5420  0.0288  1.4444
 7392SOL     OW33634   1.519   2.519  16.053  0.1334 -0.3592 -0.5703
 7392SOL    HW133635   1.607   2.520  16.014  0.9027  0.7411  1.2285
 7392SOL    HW233636   1.522   2.468  16.134  2.8510  0.8405  0.0801
 7393SOL     OW33637   1.978   2.487   2.642  0.2921 -0.2557 -0.1151
 7393SOL    HW133638   1.947   2.551   2.706 -1.6069  0.3291 -1.6056
 7393SOL    HW233639   1.894   2.448   2.615  0.0630 -1.5176  2.3910
 7394SOL     OW33640   4.006   1.640   9.027 -0.5620 -0.2537  0.7793
 7394SOL    HW133641   3.993   1.734   9.014  0.9185  0.0728  1.6075
 7394SOL    HW233642   4.101   1.631   9.016 -0.5629  1.2372 -0.4165
 7395SOL     OW33643   0.677   1.848   4.445  0.1380 -0.1156 -0.1599
 7395SOL    HW133644   0.667   1.920   4.382 -0.9436 -0.1448 -0.0160
 7395SOL    HW233645   0.772   1.856   4.456 -0.1863  0.9442  1.8389
 7396SOL     OW33646   1.003   1.754   5.791 -0.0321  0.4046  0.1123
 7396SOL    HW133647   0.917   1.780   5.824  0.2355  2.6440 -0.9058
 7396SOL    HW233648   1.002   1.664   5.823  1.7928 -0.3034 -1.7488
 7397SOL     OW33649   0.513   1.417   2.233  0.1359  0.4007 -0.1682
 7397SOL    HW133650   0.554   1.481   2.175  0.3199  0.4765  0.0443
 7397SOL    HW233651   0.483   1.475   2.303 -3.4554 -0.3845 -1.0049
 7398SOL     OW33652   1.537   0.154   5.196 -0.1576  0.2992  0.0635
 7398SOL    HW133653   1.551   0.241   5.157  0.0348  0.3046  0.1480
 7398SOL    HW233654   1.447   0.134   5.170  0.1721  0.8046 -1.5090
 7399SOL     OW33655   1.468   4.658   7.641  0.3375 -0.0622  0.4412
 7399SOL    HW133656   1.474   0.024   7.618  0.0623  0.1150  1.0969
 7399SOL    HW233657   1.503   4.668   7.729  2.5566 -1.1905 -0.2837
 7400SOL     OW33658   0.875   1.139  13.368  0.1949  0.3086  0.5701
 7400SOL    HW133659   0.780   1.148  13.363  0.3400  0.8184 -1.4211
 7400SOL    HW233660   0.897   1.230  13.351 -0.2677  0.5088  1.0412
 7401SOL     OW33661   2.477   0.670   1.977  0.2865  0.6393 -0.6585
 7401SOL    HW133662   2.426   0.627   1.909 -1.2789  0.2678  0.7532
 7401SOL    HW233663   2.456   0.762   1.961 -1.6422  0.2871 -0.1954
 7402SOL     OW33664   2.543   2.261   5.440 -0.1503  0.0532 -0.3944
 7402SOL    HW133665   2.525   2.183   5.387 -2.0493 -1.3853  2.3528
 7402SOL    HW233666   2.624   2.297   5.405  1.0180  0.3729  2.6605
 7403SOL     OW33667   0.107   4.315  16.520 -0.1160  0.7012  0.9315
 7403SOL    HW133668   0.168   4.330  16.593  0.4014 -1.9226  1.0156
 7403SOL    HW233669   0.052   4.248  16.559 -2.0032  1.0654 -1.0961
 7404SOL     OW33670   2.752   2.410   6.048  0.4486 -0.3868  0.9021
 7404SOL    HW133671   2.744   2.320   6.078 -0.2031 -0.7360 -0.3502
 7404SOL    HW233672   2.836   2.410   6.001 -0.1802 -3.0543 -0.1866
 7405SOL     OW33673   3.342   4.401   6.345  0.0908 -0.0120  0.0959
 7405SOL    HW133674   3.366   4.360   6.428  0.7426  0.3331  0.0755
 7405SOL    HW233675   3.429   4.427   6.316  0.0090  1.8608  1.5041
 7406SOL     OW33676   1.204   1.683   0.822  0.3792  0.2242  0.6541
 7406SOL    HW133677   1.286   1.675   0.871  1.6311 -1.1152 -1.6504
 7406SOL    HW233678   1.228   1.681   0.730 -2.2074 -1.2133 -0.0047
 7407SOL     OW33679   4.688   1.918   0.689  0.1399  0.3306 -0.2026
 7407SOL    HW133680   4.640   1.939   0.609  2.1751  0.6938 -1.3240
 7407SOL    HW233681   4.642   1.970   0.755  0.3134 -0.6919  0.7140
 7408SOL     OW33682   0.919   1.424   7.626  0.4414  0.0151 -0.0215
 7408SOL    HW133683   0.837   1.409   7.580  0.0536  3.6496 -0.4989
 7408SOL    HW233684   0.968   1.477   7.563  0.3013 -1.6936 -1.5642
 7409SOL     OW33685   0.819   3.887   5.386  0.1150 -0.0113 -0.8856
 7409SOL    HW133686   0.801   3.822   5.453  0.1337  2.1683  1.2220
 7409SOL    HW233687   0.813   3.826   5.312  0.8236  0.4438 -1.3208
 7410SOL     OW33688   0.297   1.557   3.446 -0.0380 -0.3106 -0.0197
 7410SOL    HW133689   0.239   1.494   3.490 -1.3856  2.6420  2.3925
 7410SOL    HW233690   0.381   1.556   3.492  0.7346 -1.3462 -1.4588
 7411SOL     OW33691   2.478   3.443   2.675  0.8067 -0.2012 -0.3544
 7411SOL    HW133692   2.546   3.381   2.648  0.8340 -1.2305  2.0795
 7411SOL    HW233693   2.499   3.452   2.768  1.0112 -0.8952 -0.3375
 7412SOL     OW33694   0.546   3.753  10.641  0.0174  0.0255 -0.1761
 7412SOL    HW133695   0.635   3.772  10.671 -0.1437  0.3595  0.0921
 7412SOL    HW233696   0.498   3.825  10.682 -1.0835 -1.3476  0.9296
 7413SOL     OW33697   1.986   0.696   6.864  0.7363 -0.2905 -0.7252
 7413SOL    HW133698   1.998   0.601   6.863  0.3775 -0.3629  1.9827
 7413SOL    HW233699   1.891   0.708   6.867  1.0276  1.1974  1.8545
 7414SOL     OW33700   3.174   1.137   6.410 -0.5389 -0.2508 -0.1904
 7414SOL    HW133701   3.189   1.079   6.485 -1.7049  0.5671  0.6723
 7414SOL    HW233702   3.171   1.216   6.463  0.0176 -2.4536  3.1394
 7415SOL     OW33703   3.592   3.473   3.267 -0.9309 -0.1201 -0.5666
 7415SOL    HW133704   3.618   3.478   3.359  1.7323 -3.7074 -1.1147
 7415SOL    HW233705   3.582   3.378   3.258 -0.6101 -0.0434 -1.7870
 7416SOL     OW33706   0.536   0.401   1.295  0.5016 -0.7241  0.2274
 7416SOL    HW133707   0.564   0.394   1.386  0.6077  1.2154  0.3282
 7416SOL    HW233708   0.448   0.435   1.310  1.0968  1.4118 -1.1213
 7417SOL     OW33709   3.102   1.442  15.464 -0.1368  0.3973 -0.2908
 7417SOL    HW133710   3.092   1.530  15.429  0.6790  0.5281 -0.2076
 7417SOL    HW233711   3.079   1.460  15.555 -1.8243  3.5077 -1.3493
 7418SOL     OW33712   1.266   1.566   4.212 -0.1226 -0.1288 -0.1052
 7418SOL    HW133713   1.305   1.622   4.145 -4.2156  1.8551 -0.8352
 7418SOL    HW233714   1.329   1.570   4.284  0.2409 -0.7968 -0.3873
 7419SOL     OW33715   0.177   1.765   3.340 -0.1844  0.0847  0.3379
 7419SOL    HW133716   0.082   1.769   3.348 -0.2860  0.8607 -1.3710
 7419SOL    HW233717   0.198   1.681   3.382 -1.5310  0.1385  1.1477
 7420SOL     OW33718   0.212   2.726  10.128 -0.3394 -0.2085 -0.7438
 7420SOL    HW133719   0.291   2.675  10.112  0.9283  1.5157  0.0511
 7420SOL    HW233720   0.249   2.805  10.167  0.7723 -1.0079 -0.1828
 7421SOL     OW33721   3.428   0.233  11.937  0.0531 -0.0144 -0.1595
 7421SOL    HW133722   3.521   0.249  11.923 -0.2650  1.0616 -1.0410
 7421SOL    HW233723   3.380   0.299  11.887  2.5048  0.9547 -1.2481
 7422SOL     OW33724   0.755   2.513   5.790  0.0260  0.1495  0.3324
 7422SOL    HW133725   0.839   2.558   5.784  0.5377 -1.0615 -1.7129
 7422SOL    HW233726   0.736   2.482   5.701 -1.1524  0.3105  0.5267
 7423SOL     OW33727   3.732   0.557  11.902  0.3014  0.0563 -0.1712
 7423SOL    HW133728   3.809   0.501  11.897 -0.9024 -1.6429 -0.0178
 7423SOL    HW233729   3.751   0.600  11.985  0.3280 -0.8846  0.3079
 7424SOL     OW33730   1.171   4.632   3.347 -0.7140 -0.0011  0.6285
 7424SOL    HW133731   1.134   4.641   3.259 -1.0206  0.6172  0.8250
 7424SOL    HW233732   1.115   4.565   3.386  0.0106 -0.0224  1.6231
 7425SOL     OW33733   1.327   1.221   1.445 -0.3046 -0.3513 -0.2555
 7425SOL    HW133734   1.303   1.128   1.438  1.8718 -1.0490  1.3397
 7425SOL    HW233735   1.326   1.247   1.354  1.4581 -2.1454 -0.7995
 7426SOL     OW33736   3.417   2.043  12.059  0.4303  0.3032 -0.2626
 7426SOL    HW133737   3.414   2.024  11.965  0.3446 -1.5067  0.1145
 7426SOL    HW233738   3.386   1.959  12.092 -0.7199  0.3502 -1.2238
 7427SOL     OW33739   4.340   0.254   3.876  0.2390  0.6675  0.2781
 7427SOL    HW133740   4.353   0.163   3.851 -0.4136  0.8551 -0.7430
 7427SOL    HW233741   4.402   0.307   3.826 -0.0527  1.4937  0.7824
 7428SOL     OW33742   3.945   3.597  10.064 -0.0664  0.4369  0.5118
 7428SOL    HW133743   3.968   3.585   9.972 -0.5800  0.9097  0.3175
 7428SOL    HW233744   3.851   3.608  10.049  0.3749  1.4635 -1.4449
 7429SOL     OW33745   3.423   0.673   1.198  0.1589 -0.0901 -0.5426
 7429SOL    HW133746   3.414   0.583   1.227 -1.8510  0.6188  0.9926
 7429SOL    HW233747   3.515   0.670   1.171  0.4124 -0.9967  0.4285
 7430SOL     OW33748   1.607   0.530  10.340  0.2702  0.0609 -0.5400
 7430SOL    HW133749   1.574   0.552  10.427  1.2297  0.4292 -0.2656
 7430SOL    HW233750   1.613   0.435  10.336  0.7813  0.0693 -0.0556
 7431SOL     OW33751   3.521   2.358   2.442 -0.1866 -0.2155  0.1792
 7431SOL    HW133752   3.502   2.293   2.509  1.3090 -0.6228  0.2003
 7431SOL    HW233753   3.451   2.336   2.380  0.7140 -1.0425 -0.5434
 7432SOL     OW33754   2.580   3.634  11.998 -0.0502 -0.3242  0.6960
 7432SOL    HW133755   2.642   3.706  11.990 -2.0127  1.1973 -0.8334
 7432SOL    HW233756   2.621   3.567  11.943 -0.7272 -1.1118  1.1399
 7433SOL     OW33757   2.090   1.549   4.658  0.4229 -0.4326 -0.0095
 7433SOL    HW133758   2.062   1.525   4.570  0.6547  0.8498 -0.4413
 7433SOL    HW233759   2.113   1.642   4.651 -0.5438 -0.1976 -0.0650
 7434SOL     OW33760   0.725   1.236   1.544 -0.4606 -0.9388  0.2755
 7434SOL    HW133761   0.687   1.297   1.480 -1.4687  0.3117  2.0808
 7434SOL    HW233762   0.737   1.298   1.615 -0.9053  0.2779 -0.7131
 7435SOL     OW33763   0.017   0.222   7.013 -0.1863 -0.4777  0.3147
 7435SOL    HW133764   4.679   0.202   7.081  0.2626  3.2533  1.8617
 7435SOL    HW233765   0.030   0.315   7.029 -1.3532 -0.0229 -1.4177
 7436SOL     OW33766   0.249   0.228   2.709  0.6030 -0.3940  0.2297
 7436SOL    HW133767   0.295   0.154   2.750 -1.1041 -2.3473 -1.4143
 7436SOL    HW233768   0.237   0.194   2.620 -0.7642 -0.5300  0.4760
 7437SOL     OW33769   2.197   4.651   3.993 -0.0691 -0.2095  0.1254
 7437SOL    HW133770   2.266   4.717   3.986 -1.1628  0.8795 -0.3831
 7437SOL    HW233771   2.147   4.663   4.073  1.8293 -1.3330  1.4817
 7438SOL     OW33772   3.942   1.573   9.279 -0.5015 -0.1333 -0.0987
 7438SOL    HW133773   3.903   1.487   9.263  0.0769  0.1543 -2.9444
 7438SOL    HW233774   3.971   1.592   9.190  0.4831 -0.8600  0.0725
 7439SOL     OW33775   3.795   1.477   5.717  0.0689 -0.0203  0.1407
 7439SOL    HW133776   3.878   1.433   5.701  1.0231  1.6243  0.5727
 7439SOL    HW233777   3.742   1.443   5.645  0.0148  0.8913 -0.2486
 7440SOL     OW33778   0.825   3.840   3.476  0.1101  0.0660 -0.3755
 7440SOL    HW133779   0.883   3.809   3.407 -0.5581 -1.5600 -0.2003
 7440SOL    HW233780   0.794   3.763   3.522 -1.5971  0.5147 -0.7473
 7441SOL     OW33781   3.354   0.541  16.115 -0.1367 -0.9436  0.4355
 7441SOL    HW133782   3.450   0.537  16.109 -0.2820 -0.5154 -1.8952
 7441SOL    HW233783   3.337   0.534  16.022 -0.9138  1.5610  0.4025
 7442SOL     OW33784   0.402   1.799   6.111  0.2234 -0.4928  0.0500
 7442SOL    HW133785   0.323   1.751   6.086  1.1660 -2.4489  0.7811
 7442SOL    HW233786   0.459   1.784   6.036 -0.8191  0.4739 -0.9279
 7443SOL     OW33787   0.377   0.721   1.812 -0.1133  0.0511 -1.0513
 7443SOL    HW133788   0.459   0.673   1.821 -1.0829 -1.0454  2.0260
 7443SOL    HW233789   0.393   0.772   1.733  0.0918  1.5313 -0.0621
 7444SOL     OW33790   2.798   1.055   8.321 -0.1104  0.3012  0.1654
 7444SOL    HW133791   2.749   0.975   8.301  0.0482  0.4948 -0.9944
 7444SOL    HW233792   2.875   1.013   8.359 -0.7967 -1.1144 -0.0092
 7445SOL     OW33793   3.881   2.889  13.901  0.4484  0.7425  0.2671
 7445SOL    HW133794   3.803   2.883  13.956 -1.2189 -0.3273 -2.2098
 7445SOL    HW233795   3.912   2.979  13.894 -2.0801  1.5034 -1.4138
 7446SOL     OW33796   3.005   2.321  12.836 -0.6308 -0.1066  0.0813
 7446SOL    HW133797   3.095   2.298  12.858 -1.0735 -0.0910  1.8824
 7446SOL    HW233798   3.026   2.383  12.766  0.0861  1.1050  1.3688
 7447SOL     OW33799   2.001   2.899  12.643  1.0119  0.4629  0.1640
 7447SOL    HW133800   1.941   2.907  12.717  0.3259 -0.2486 -0.3048
 7447SOL    HW233801   2.082   2.912  12.692  0.0642  1.4784  1.4490
 7448SOL     OW33802   0.579   2.522  11.319 -0.0140 -0.4243 -0.4285
 7448SOL    HW133803   0.577   2.538  11.413  1.8886 -0.6760 -0.3459
 7448SOL    HW233804   0.674   2.515  11.309 -0.2705 -3.5234 -0.5039
 7449SOL     OW33805   2.957   3.697   4.804 -0.1347 -0.1249 -0.4205
 7449SOL    HW133806   2.993   3.755   4.736  0.8290  1.2617  1.2629
 7449SOL    HW233807   2.995   3.612   4.781 -4.4409 -2.0529 -0.3881
 7450SOL     OW33808   2.758   0.602   0.726  0.3547  0.2310 -0.1511
 7450SOL    HW133809   2.692   0.656   0.770  0.3815 -0.1073  0.3002
 7450SOL    HW233810   2.764   0.628   0.634 -0.1086 -1.6754 -0.7365
 7451SOL     OW33811   1.886   1.870   5.551 -0.0954 -0.3187  0.0424
 7451SOL    HW133812   1.815   1.820   5.511 -2.1536  1.2035  1.8561
 7451SOL    HW233813   1.897   1.936   5.482 -0.1518 -1.3404 -0.9623
 7452SOL     OW33814   2.242   2.846   6.764 -0.2890 -0.9909 -0.2590
 7452SOL    HW133815   2.323   2.826   6.717  1.3968  1.7518  1.4428
 7452SOL    HW233816   2.228   2.937   6.736  1.8101  0.1807  2.4775
 7453SOL     OW33817   0.113   0.394   7.597  0.4544  0.0333 -0.2002
 7453SOL    HW133818   0.137   0.487   7.607  0.2894 -0.0369  0.8441
 7453SOL    HW233819   0.191   0.355   7.636 -0.2962 -0.8347  0.4102
 7454SOL     OW33820   1.435   1.253   8.649 -0.5057  0.2759  0.2554
 7454SOL    HW133821   1.462   1.172   8.606 -2.2612 -0.7703  1.1359
 7454SOL    HW233822   1.368   1.221   8.710 -0.0047  0.3548  0.8409
 7455SOL     OW33823   0.101   0.211  14.924  0.3993 -0.4928 -0.0107
 7455SOL    HW133824   0.163   0.245  14.989  1.6240 -1.4322 -0.6925
 7455SOL    HW233825   0.170   0.194  14.860  1.4988  0.2514  0.9653
 7456SOL     OW33826   1.605   1.235   2.836 -0.0075  0.1796  0.2520
 7456SOL    HW133827   1.586   1.239   2.930 -1.4086  0.7150 -0.0435
 7456SOL    HW233828   1.555   1.307   2.798 -2.9565 -3.1439 -2.1702
 7457SOL     OW33829   3.244   2.056   4.231  0.7627  0.1269  0.5827
 7457SOL    HW133830   3.215   2.138   4.190  1.7824  1.2561  2.0820
 7457SOL    HW233831   3.216   2.057   4.322  2.4245  0.3004  1.1020
 7458SOL     OW33832   2.468   0.954   6.730  0.1295 -0.4664  0.2266
 7458SOL    HW133833   2.498   0.914   6.648 -0.0041  0.6125 -0.3461
 7458SOL    HW233834   2.504   0.887   6.787 -0.6020 -0.3265  0.8476
 7459SOL     OW33835   2.033   1.077   0.152 -0.4732  0.5925  0.1212
 7459SOL    HW133836   1.947   1.088   0.113  0.3258 -1.8431 -2.3929
 7459SOL    HW233837   2.064   1.167   0.162  0.6738  0.1470  0.6626
 7460SOL     OW33838   4.217   4.123   7.179 -0.1043 -0.1498  0.0464
 7460SOL    HW133839   4.230   4.188   7.248 -1.2197  0.7451 -0.5787
 7460SOL    HW233840   4.306   4.089   7.181  0.4742  1.2974 -0.7030
 7461SOL     OW33841   4.300   2.464   5.443 -0.3495 -0.2829 -0.1879
 7461SOL    HW133842   4.382   2.505   5.470 -0.6068 -1.1814  1.9475
 7461SOL    HW233843   4.273   2.443   5.532  3.4726 -1.7117  0.6205
 7462SOL     OW33844   0.803   0.051  17.281  0.0700 -0.4763  0.1402
 7462SOL    HW133845   0.782   4.721  17.355  1.9309  1.4548  2.1547
 7462SOL    HW233846   0.844   4.713  17.224  1.0287  0.2166  0.0368
 7463SOL     OW33847   0.433   0.495   8.832 -0.9856  0.6479  0.3246
 7463SOL    HW133848   0.496   0.470   8.900 -2.0378 -0.5731  0.8577
 7463SOL    HW233849   0.467   0.565   8.776 -0.7633 -1.1718 -1.8308
 7464SOL     OW33850   4.601   4.246   7.748  0.1067 -0.2073 -0.3554
 7464SOL    HW133851   4.669   4.282   7.805  0.1582 -0.4796 -0.2419
 7464SOL    HW233852   4.611   4.153   7.768 -0.7874 -0.7154 -2.3716
 7465SOL     OW33853   3.235   3.889  11.693  0.3464 -0.3629  0.0711
 7465SOL    HW133854   3.275   3.915  11.610  0.8438 -1.4326 -0.0111
 7465SOL    HW233855   3.290   3.813  11.712  1.5222  1.0878  2.4811
 7466SOL     OW33856   0.241   1.991   3.480 -0.0565 -0.2405  0.5784
 7466SOL    HW133857   0.328   1.971   3.516  0.1761 -1.5741 -0.7236
 7466SOL    HW233858   0.218   1.906   3.441  1.1835 -0.7477  0.9340
 7467SOL     OW33859   3.452   0.763   7.598  0.1044 -0.5935 -0.6270
 7467SOL    HW133860   3.526   0.725   7.552 -0.3119 -0.3331 -1.5197
 7467SOL    HW233861   3.390   0.694   7.573  1.4797 -1.8023 -0.7307
 7468SOL     OW33862   1.591   1.240   7.981 -0.1636 -0.1417 -0.6011
 7468SOL    HW133863   1.501   1.250   8.013 -0.4907 -3.1804 -0.5828
 7468SOL    HW233864   1.583   1.159   7.931  0.9024  0.2610 -1.4084
 7469SOL     OW33865   1.903   2.141  12.150  0.0380  0.1794 -0.6138
 7469SOL    HW133866   1.957   2.184  12.083 -0.1922  0.8168 -0.3903
 7469SOL    HW233867   1.814   2.172  12.137 -0.0452 -0.9748 -2.9074
 7470SOL     OW33868   0.683   0.743  17.475 -0.1701 -0.2100 -0.4982
 7470SOL    HW133869   0.623   0.818  17.483  0.8387  0.5004  0.4267
 7470SOL    HW233870   0.742   0.789  17.416 -2.5782  3.3268 -0.1477
 7471SOL     OW33871   0.648   4.527   2.180 -0.1105  0.0834  0.0962
 7471SOL    HW133872   0.555   4.508   2.192 -0.3038  2.6426  2.4792
 7471SOL    HW233873   0.679   4.439   2.159  0.0288  0.3759 -0.9473
 7472SOL     OW33874   4.421   0.706   2.306  0.2490 -0.4401  0.6824
 7472SOL    HW133875   4.332   0.732   2.281  1.0861  0.8272 -0.9587
 7472SOL    HW233876   4.482   0.740   2.240  0.2857  0.0781  0.9787
 7473SOL     OW33877   4.626   2.661   6.375  0.0992  0.1277  0.5319
 7473SOL    HW133878   4.562   2.591   6.367 -1.2394  1.3644  0.4369
 7473SOL    HW233879   4.671   2.627   6.452 -1.1152 -2.8420 -0.0658
 7474SOL     OW33880   4.303   1.274  15.939 -0.0571  0.0143  0.2380
 7474SOL    HW133881   4.330   1.219  16.013 -0.1530  1.0816  1.0537
 7474SOL    HW233882   4.243   1.335  15.981 -1.3184 -1.2808  0.3507
 7475SOL     OW33883   1.062   3.636   6.841  0.0129 -0.4870  0.4945
 7475SOL    HW133884   1.082   3.728   6.830  0.3814 -0.7380 -1.0096
 7475SOL    HW233885   0.992   3.623   6.905 -2.0716 -1.3984 -1.9860
 7476SOL     OW33886   4.038   1.611   2.689  0.7671 -0.1334  0.0859
 7476SOL    HW133887   4.094   1.544   2.650 -0.2138 -0.2517 -1.1332
 7476SOL    HW233888   4.086   1.687   2.657  0.6580 -0.0183  0.1945
 7477SOL     OW33889   3.773   3.624  11.177 -0.0342 -0.1524  0.0065
 7477SOL    HW133890   3.724   3.615  11.258  0.1313 -1.1520 -0.0070
 7477SOL    HW233891   3.714   3.664  11.114  0.7494  0.8410 -0.1046
 7478SOL     OW33892   0.697   2.921   5.999 -0.1278 -0.0202  0.3695
 7478SOL    HW133893   0.748   3.000   6.013  0.4453 -0.4072  0.4367
 7478SOL    HW233894   0.728   2.901   5.910  0.7948  0.9192  0.4903
 7479SOL     OW33895   2.393   1.513   2.708 -0.5192  0.0379 -0.0650
 7479SOL    HW133896   2.380   1.445   2.642  1.2707  2.0188 -2.4517
 7479SOL    HW233897   2.384   1.457   2.785 -1.4682 -0.0661 -0.2574
 7480SOL     OW33898   4.267   1.337   8.955  0.1900  0.0545 -0.1592
 7480SOL    HW133899   4.336   1.398   8.982  1.2738 -1.7842  1.2666
 7480SOL    HW233900   4.272   1.277   9.030 -0.1473  1.1477  0.7442
 7481SOL     OW33901   3.989   2.116   1.912  0.1447 -1.1903 -0.0938
 7481SOL    HW133902   3.894   2.113   1.920  0.1281 -3.6782 -1.2117
 7481SOL    HW233903   4.000   2.028   1.874  0.2546 -1.4298  0.4973
 7482SOL     OW33904   1.974   4.324  13.676 -0.1510  0.5975  0.0370
 7482SOL    HW133905   2.050   4.279  13.640 -0.1675 -0.1426  0.9417
 7482SOL    HW233906   2.018   4.385  13.736  0.0334  1.6797 -1.1833
 7483SOL     OW33907   4.636   3.797   7.774  0.5532  0.5304  0.4928
 7483SOL    HW133908   4.713   3.854   7.776  0.8862  0.0448  2.1137
 7483SOL    HW233909   4.564   3.860   7.774  0.6637  0.6253 -3.0298
 7484SOL     OW33910   3.411   0.886   8.539  0.0120 -0.2576 -0.0346
 7484SOL    HW133911   3.353   0.873   8.464 -0.9937  1.2543  0.4984
 7484SOL    HW233912   3.463   0.806   8.528  1.4263  0.6847 -0.2292
 7485SOL     OW33913   4.006   4.596   6.531 -0.1583 -0.0709 -0.3142
 7485SOL    HW133914   4.069   4.668   6.534 -0.2185 -0.0377  0.1640
 7485SOL    HW233915   3.942   4.632   6.470  0.1635 -0.1591 -0.7026
 7486SOL     OW33916   3.668   2.351  13.905  0.3247 -0.0619 -0.9045
 7486SOL    HW133917   3.597   2.362  13.842  1.5960 -0.3114 -2.3601
 7486SOL    HW233918   3.641   2.277  13.960 -0.0735  0.8933  0.2168
 7487SOL     OW33919   0.079   4.597   2.725 -0.3705 -0.2797 -0.2249
 7487SOL    HW133920   0.084   4.660   2.797 -0.5776 -1.4710  0.8313
 7487SOL    HW233921   0.170   4.579   2.701  0.0030 -1.2693  1.9315
 7488SOL     OW33922   1.602   2.349   3.314  0.0963  0.1939  0.1375
 7488SOL    HW133923   1.518   2.315   3.280  1.0524 -1.6273 -0.4359
 7488SOL    HW233924   1.607   2.306   3.400  2.9499 -0.9447 -0.5931
 7489SOL     OW33925   0.438   3.067   7.061  0.6122  0.3404 -0.2840
 7489SOL    HW133926   0.450   3.157   7.093 -0.4819  0.3245  0.1967
 7489SOL    HW233927   0.485   3.065   6.978 -2.1594 -1.0773 -1.8229
 7490SOL     OW33928   2.245   1.063  15.428 -0.9825 -0.4931  0.6385
 7490SOL    HW133929   2.150   1.055  15.423 -0.9216 -0.6232 -0.2750
 7490SOL    HW233930   2.266   1.151  15.397 -1.0944 -1.3074 -1.7391
 7491SOL     OW33931   3.614   1.199  17.688 -0.2389  0.1797 -0.0278
 7491SOL    HW133932   3.647   1.255   0.050  1.5206 -1.8217  0.7660
 7491SOL    HW233933   3.569   1.140   0.041 -1.4834  1.8849  0.6945
 7492SOL     OW33934   0.744   4.166   6.824  0.1606  0.4982  0.3466
 7492SOL    HW133935   0.837   4.153   6.809  0.2144  1.4880 -0.1676
 7492SOL    HW233936   0.750   4.262   6.821  0.6271  0.4441 -0.3670
 7493SOL     OW33937   3.784   3.682   6.312 -0.3725 -0.5072 -0.0090
 7493SOL    HW133938   3.814   3.599   6.274  2.4281  1.0097 -1.0712
 7493SOL    HW233939   3.725   3.646   6.378  0.1445 -0.1552  0.6502
 7494SOL     OW33940   0.813   3.161   5.669  0.2597 -0.8735 -0.2787
 7494SOL    HW133941   0.727   3.180   5.632  0.2283  0.0382  0.2682
 7494SOL    HW233942   0.787   3.078   5.710 -1.8602  0.5816  1.3487
 7495SOL     OW33943   4.106   1.455  12.857  0.4574 -0.7830  0.0074
 7495SOL    HW133944   4.165   1.529  12.866 -1.1414  0.6184 -0.8791
 7495SOL    HW233945   4.040   1.494  12.914 -1.1894 -1.0125 -1.7159
 7496SOL     OW33946   0.588   1.572   4.537  0.1251 -0.0780 -0.6966
 7496SOL    HW133947   0.650   1.501   4.556 -1.1125 -0.9046  0.2422
 7496SOL    HW233948   0.642   1.623   4.477  1.0594 -0.9488 -0.6086
 7497SOL     OW33949   3.686   2.884   1.970 -0.6407  0.4834  0.4832
 7497SOL    HW133950   3.730   2.969   1.974  0.7401 -0.3647  3.1116
 7497SOL    HW233951   3.703   2.843   2.055  0.4671  0.2842  0.1734
 7498SOL     OW33952   0.647   2.289   4.339  0.3069  0.0216  0.1512
 7498SOL    HW133953   0.723   2.266   4.285 -0.4294  0.2774 -0.9894
 7498SOL    HW233954   0.686   2.357   4.394 -1.0793 -0.3375  1.5859
 7499SOL     OW33955   2.541   2.136   7.548 -0.6355 -0.1050  0.1543
 7499SOL    HW133956   2.602   2.174   7.610  0.3409  1.0624 -1.5139
 7499SOL    HW233957   2.513   2.050   7.579 -1.3963  0.2826  0.5633
 7500SOL     OW33958   3.651   1.889   4.638 -0.1512 -0.0253 -0.4309
 7500SOL    HW133959   3.712   1.819   4.618  1.3965  0.6444  1.9404
 7500SOL    HW233960   3.710   1.958   4.671 -0.4933  0.5124 -0.9433
 7501SOL     OW33961   2.132   0.365   3.379 -0.1499 -0.6078 -0.1343
 7501SOL    HW133962   2.139   0.356   3.475 -0.1653  0.3164 -0.0494
 7501SOL    HW233963   2.227   0.363   3.366 -0.3021 -1.5348 -1.0333
 7502SOL     OW33964   0.743   0.466   1.116 -0.2317  0.2632 -0.2506
 7502SOL    HW133965   0.680   0.457   1.188 -1.6372  0.1939 -1.4812
 7502SOL    HW233966   0.728   0.552   1.077  2.7528  0.2318 -1.4682
 7503SOL     OW33967   4.120   1.026   9.932  0.6676 -0.6919  0.0489
 7503SOL    HW133968   4.045   1.049   9.986  1.0211 -0.2054  0.3428
 7503SOL    HW233969   4.158   0.965   9.995  0.7196 -0.9884 -0.2684
 7504SOL     OW33970   3.494   3.100  11.638 -0.2035  0.2125  0.1231
 7504SOL    HW133971   3.561   3.037  11.609 -1.6311 -1.2854  0.0995
 7504SOL    HW233972   3.545   3.156  11.696  0.4671 -1.2551  0.9569
 7505SOL     OW33973   3.966   1.874   3.126  0.1208 -0.3054  0.2690
 7505SOL    HW133974   3.911   1.848   3.201 -1.9609  0.6360 -0.9213
 7505SOL    HW233975   3.919   1.846   3.048  1.3229 -3.0603  0.5490
 7506SOL     OW33976   2.607   4.543  13.432 -0.5616 -0.4559  0.6834
 7506SOL    HW133977   2.532   4.565  13.488  0.2826  0.3540  1.4861
 7506SOL    HW233978   2.655   4.625  13.444  0.8103 -0.7979 -2.5780
 7507SOL     OW33979   4.507   3.919   4.861 -0.4613 -0.2400  0.5827
 7507SOL    HW133980   4.547   3.835   4.837 -1.3636 -0.5112  0.0335
 7507SOL    HW233981   4.418   3.895   4.836  0.3467 -0.7962 -1.7344
 7508SOL     OW33982   1.071   4.611  17.130  0.3479 -0.0513  0.6774
 7508SOL    HW133983   1.077   4.518  17.108  2.4889  0.3908 -0.6435
 7508SOL    HW233984   1.074   4.614  17.226  0.0211 -0.4246  0.6967
 7509SOL     OW33985   0.867   1.535   2.466  0.5363  0.5505  0.1667
 7509SOL    HW133986   0.847   1.473   2.397  0.0405 -1.5132  2.1657
 7509SOL    HW233987   0.863   1.475   2.541  1.9784  1.0129  0.6112
 7510SOL     OW33988   3.044   2.682   6.080 -0.6435  0.4115  0.0252
 7510SOL    HW133989   3.005   2.637   6.006 -0.8131 -0.7557  0.8135
 7510SOL    HW233990   3.073   2.606   6.132 -2.9375 -0.6633 -0.2954
 7511SOL     OW33991   2.892   1.935   5.946  0.1068  0.3098  0.2366
 7511SOL    HW133992   2.987   1.920   5.953  0.1837  0.4995 -0.4182
 7511SOL    HW233993   2.896   1.952   5.852 -1.0154  0.7940  0.2777
 7512SOL     OW33994   3.481   3.559   1.071  0.0005 -0.5397 -0.2943
 7512SOL    HW133995   3.441   3.595   0.992  0.5216  1.6604  0.4513
 7512SOL    HW233996   3.571   3.557   1.037 -1.2179 -0.7192 -3.4583
 7513SOL     OW33997   2.050   1.610  14.644  0.3332  0.0701  0.0374
 7513SOL    HW133998   2.006   1.529  14.620  0.0551 -0.5264  2.6014
 7513SOL    HW233999   2.143   1.586  14.652  0.4869 -0.1252 -2.3302
 7514SOL     OW34000   1.990   3.586   7.875  0.1506 -0.5407 -0.0934
 7514SOL    HW134001   2.063   3.639   7.906  1.4506 -2.1316 -0.4219
 7514SOL    HW234002   1.916   3.647   7.876 -0.1922 -0.9815  1.3266
 7515SOL     OW34003   2.575   4.349   5.577  0.1022 -0.4416  0.1925
 7515SOL    HW134004   2.544   4.408   5.646 -0.3312 -2.4463  1.7165
 7515SOL    HW234005   2.543   4.402   5.503  1.6188 -0.0391 -0.1658
 7516SOL     OW34006   0.444   4.429   7.280 -0.0441  0.0943  0.5979
 7516SOL    HW134007   0.458   4.522   7.293 -0.0864  0.0472  0.9851
 7516SOL    HW234008   0.533   4.404   7.256  0.0261  1.6364 -0.7161
 7517SOL     OW34009   2.659   3.395  11.792 -0.1108 -0.2354 -0.1922
 7517SOL    HW134010   2.605   3.345  11.731 -3.8598  0.8920  2.1711
 7517SOL    HW234011   2.715   3.451  11.738 -0.1918 -0.9764 -1.0434
 7518SOL     OW34012   3.038   3.666   6.766 -0.0200 -0.4424 -0.2900
 7518SOL    HW134013   3.049   3.601   6.696  1.6565  0.5372 -0.9335
 7518SOL    HW234014   2.943   3.674   6.767  0.1027  0.5858  2.2788
 7519SOL     OW34015   3.789   2.672   0.998 -0.4840  0.3035  0.0239
 7519SOL    HW134016   3.761   2.757   1.031  0.1695  0.4882  0.1002
 7519SOL    HW234017   3.774   2.609   1.068  0.7554 -2.6768 -2.3836
 7520SOL     OW34018   2.337   3.425   5.856  0.0093  0.2626 -0.1328
 7520SOL    HW134019   2.385   3.495   5.902 -1.1699  1.8674 -1.3383
 7520SOL    HW234020   2.307   3.377   5.933  1.1883 -0.3099 -0.0357
 7521SOL     OW34021   3.901   0.120   7.511 -0.1767 -0.0732 -0.0616
 7521SOL    HW134022   3.969   0.079   7.456 -0.1820 -2.2028  1.5292
 7521SOL    HW234023   3.871   0.189   7.452  1.6641 -1.0623 -2.1818
 7522SOL     OW34024   2.717   1.167   0.291 -0.1444 -0.3677  0.4125
 7522SOL    HW134025   2.689   1.149   0.381 -1.8494  0.0980 -0.0064
 7522SOL    HW234026   2.811   1.171   0.303 -0.4950  1.3898  2.7120
 7523SOL     OW34027   0.778   2.077  13.309 -0.1045 -0.1531 -0.4002
 7523SOL    HW134028   0.776   2.053  13.216  1.6326  0.9587 -0.7314
 7523SOL    HW234029   0.873   2.067  13.321 -0.6320 -1.8462  2.3384
 7524SOL     OW34030   3.583   3.688   2.856  0.5883  0.5074  0.4373
 7524SOL    HW134031   3.499   3.713   2.818  1.8397  0.3172 -2.4560
 7524SOL    HW234032   3.636   3.749   2.804  1.0339 -0.3299 -0.0873
 7525SOL     OW34033   3.961   1.768   6.151  0.2632 -0.2595  0.0501
 7525SOL    HW134034   3.872   1.770   6.116  0.0040  2.3082  0.8391
 7525SOL    HW234035   4.017   1.781   6.074  1.0004  0.3364  0.6848
 7526SOL     OW34036   2.764   0.156   6.381 -0.2397 -0.5831 -0.7923
 7526SOL    HW134037   2.835   0.153   6.317  0.8929  0.5552  0.4148
 7526SOL    HW234038   2.717   0.077   6.353 -3.4807  0.8755  0.4821
 7527SOL     OW34039   3.836   3.658   8.421  0.4055  0.5659  0.0713
 7527SOL    HW134040   3.927   3.651   8.448 -0.5978 -1.4809  2.9416
 7527SOL    HW234041   3.816   3.735   8.475  2.1699  1.1499 -0.0974
 7528SOL     OW34042   4.339   4.154   5.606 -0.2788  0.6742  0.4748
 7528SOL    HW134043   4.329   4.089   5.537 -0.4449  0.3639  0.7886
 7528SOL    HW234044   4.412   4.206   5.573  0.3154  1.1683  2.5953
 7529SOL     OW34045   3.482   0.978  11.207  0.4750 -0.1710 -0.0773
 7529SOL    HW134046   3.459   0.984  11.114 -0.3318  0.7790  0.1826
 7529SOL    HW234047   3.573   1.005  11.197  1.0950 -1.3116  2.4776
 7530SOL     OW34048   1.542   2.779   3.257 -0.0677  0.0115  0.4907
 7530SOL    HW134049   1.481   2.740   3.320  0.7009 -3.5166 -0.9345
 7530SOL    HW234050   1.624   2.766   3.304  0.3379 -2.6072 -0.9426
 7531SOL     OW34051   4.318   2.252   7.028  0.4833  0.6480 -0.2861
 7531SOL    HW134052   4.379   2.296   7.086  0.5188 -1.3087  1.1399
 7531SOL    HW234053   4.277   2.323   6.977  0.3016 -1.3710 -2.9494
 7532SOL     OW34054   1.668   0.703  10.948  0.1047  0.0533 -0.0727
 7532SOL    HW134055   1.734   0.717  11.016  0.8707  0.4520 -0.9010
 7532SOL    HW234056   1.608   0.776  10.966  0.2935  0.2524 -0.2490
 7533SOL     OW34057   0.851   2.635   0.790  0.1869 -0.1131  0.0778
 7533SOL    HW134058   0.826   2.727   0.801  0.1415 -0.2031  0.7492
 7533SOL    HW234059   0.787   2.595   0.850 -0.1351  0.3501  0.0489
 7534SOL     OW34060   4.405   1.626   2.460 -0.0686  0.3870  0.1701
 7534SOL    HW134061   4.451   1.576   2.393  0.4573 -0.3691  1.0833
 7534SOL    HW234062   4.467   1.634   2.533 -1.8790 -4.6919  2.3215
 7535SOL     OW34063   4.604   1.676   9.523 -0.2661 -0.6524  0.7017
 7535SOL    HW134064   4.585   1.613   9.454 -3.3252 -0.5521  1.4329
 7535SOL    HW234065   4.613   1.753   9.466 -1.3640 -2.3911 -1.8053
 7536SOL     OW34066   3.698   2.394   5.317  0.1217  0.0276 -0.6334
 7536SOL    HW134067   3.724   2.301   5.318  1.3474  0.3867  1.5478
 7536SOL    HW234068   3.782   2.440   5.312 -0.1318  0.3976 -1.4395
 7537SOL     OW34069   1.930   3.196  12.106 -0.1661 -0.1246  0.4099
 7537SOL    HW134070   1.860   3.258  12.127 -0.9587 -0.1853 -2.0386
 7537SOL    HW234071   1.957   3.224  12.018 -1.3277  0.2696  0.1690
 7538SOL     OW34072   0.701   2.709  16.723  0.4058  0.0791 -0.0785
 7538SOL    HW134073   0.765   2.671  16.664  0.0553 -0.7809  0.1021
 7538SOL    HW234074   0.749   2.687  16.803  1.9439  0.5677 -0.8688
 7539SOL     OW34075   2.932   1.144   6.667  0.4175 -0.0041 -0.3145
 7539SOL    HW134076   2.882   1.070   6.701 -1.4211  1.7657  0.9037
 7539SOL    HW234077   3.023   1.128   6.689  0.7567  1.6855 -0.4566
 7540SOL     OW34078   0.775   3.597   7.475 -0.8476 -0.6378  0.4902
 7540SOL    HW134079   0.772   3.666   7.541  2.1177  1.2649 -1.3653
 7540SOL    HW234080   0.819   3.529   7.526  2.4809  0.4426 -0.9508
 7541SOL     OW34081   2.563   3.976  15.634  0.2380 -0.3159 -0.2046
 7541SOL    HW134082   2.609   4.058  15.614  0.3728 -0.6475 -1.2730
 7541SOL    HW234083   2.477   3.993  15.596  0.6271  0.1236 -0.9008
 7542SOL     OW34084   1.777   2.749   3.365  0.2368  0.8302 -0.4248
 7542SOL    HW134085   1.746   2.769   3.454  1.7891 -0.4237  0.3901
 7542SOL    HW234086   1.868   2.777   3.380  0.1285  0.0489  1.6351
 7543SOL     OW34087   4.090   2.162   5.118 -0.5317 -0.0117  0.1840
 7543SOL    HW134088   4.112   2.138   5.028  1.6515  1.0102  0.4646
 7543SOL    HW234089   4.163   2.218   5.144  0.1268  0.4377 -2.6276
 7544SOL     OW34090   2.956   2.570  10.413  0.4019  0.2035  0.3414
 7544SOL    HW134091   3.029   2.591  10.470  0.2558  0.8225  0.3006
 7544SOL    HW234092   3.010   2.565  10.334  0.8806  0.8420  0.6216
 7545SOL     OW34093   3.673   0.838  10.553 -0.4140 -0.3140  0.1816
 7545SOL    HW134094   3.685   0.907  10.619  1.5234  0.8271 -1.3508
 7545SOL    HW234095   3.762   0.806  10.540 -0.1922  0.2939  0.1755
 7546SOL     OW34096   2.792   1.590  10.889 -0.1345 -0.3314 -0.5482
 7546SOL    HW134097   2.794   1.679  10.925 -0.3493 -0.1493 -0.9932
 7546SOL    HW234098   2.830   1.544  10.963  0.6153 -1.0596 -1.3940
 7547SOL     OW34099   3.756   3.459   4.879 -0.3350 -0.0445  0.4500
 7547SOL    HW134100   3.772   3.542   4.925  0.0094  1.1716 -1.8834
 7547SOL    HW234101   3.843   3.442   4.843  0.4280 -2.0304  3.2452
 7548SOL     OW34102   3.914   3.482   5.617 -0.5684  0.0307  0.1218
 7548SOL    HW134103   3.959   3.563   5.641  0.1682 -0.7180  1.2589
 7548SOL    HW234104   3.986   3.420   5.627 -1.5801 -1.1125  0.3000
 7549SOL     OW34105   1.522   4.665   7.923 -0.2592  0.8294  0.3660
 7549SOL    HW134106   1.475   4.584   7.906 -1.9362  1.5120  1.7755
 7549SOL    HW234107   1.457   0.001   7.954 -1.8823 -0.5459 -0.3249
 7550SOL     OW34108   0.138   4.002   2.050  0.2305  0.4534  0.1195
 7550SOL    HW134109   0.061   3.973   2.100  0.0975 -1.1939 -1.0443
 7550SOL    HW234110   0.185   3.921   2.031 -0.7146  0.5081 -2.3664
 7551SOL     OW34111   3.682   0.841   5.959  0.5808 -0.1307  0.2470
 7551SOL    HW134112   3.663   0.921   5.909  1.0884 -0.5701 -0.6484
 7551SOL    HW234113   3.760   0.806   5.916 -0.1318 -0.7398 -0.5561
 7552SOL     OW34114   2.821   3.812  13.549  0.8907 -0.0568 -0.0997
 7552SOL    HW134115   2.796   3.905  13.547 -2.1883 -0.8926 -1.7206
 7552SOL    HW234116   2.768   3.773  13.480  0.1724 -0.9461  0.9550
 7553SOL     OW34117   3.752   3.934   5.149 -0.8035 -0.2464  0.3851
 7553SOL    HW134118   3.723   4.023   5.170  1.3229  0.4637  0.3533
 7553SOL    HW234119   3.835   3.923   5.196 -1.0662  1.4883  1.2317
 7554SOL     OW34120   0.483   3.422   6.415 -0.4870 -0.5584 -0.3755
 7554SOL    HW134121   0.514   3.343   6.459  0.3340  0.1349  0.2740
 7554SOL    HW234122   0.418   3.450   6.479 -0.4955 -2.2289  0.3370
 7555SOL     OW34123   0.058   0.219  10.588 -0.2026  0.1860 -0.0004
 7555SOL    HW134124   0.046   0.167  10.509  0.1310 -0.2295  0.2227
 7555SOL    HW234125   0.152   0.232  10.575 -0.4982  1.6733 -0.6723
 7556SOL     OW34126   0.117   3.052   9.966  0.1180  0.4533 -0.1942
 7556SOL    HW134127   0.166   3.135   9.964 -0.5520  0.8400 -0.4489
 7556SOL    HW234128   0.052   3.069  10.034 -0.1610  2.2097 -0.8893
 7557SOL     OW34129   2.715   1.211   5.474  0.0803 -0.4401 -0.1085
 7557SOL    HW134130   2.802   1.228   5.509 -0.3013  0.5136  0.3553
 7557SOL    HW234131   2.716   1.118   5.498  1.3728 -0.4685 -0.2737
 7558SOL     OW34132   2.370   0.231   5.537  0.7377  0.2732  0.1820
 7558SOL    HW134133   2.285   0.275   5.538 -0.5108 -2.1820  0.8428
 7558SOL    HW234134   2.425   0.276   5.472 -0.3883 -0.4620 -1.2832
 7559SOL     OW34135   4.324   0.690  12.666 -0.2777  0.3783 -0.9481
 7559SOL    HW134136   4.280   0.775  12.663 -2.8638 -0.9131  0.2637
 7559SOL    HW234137   4.358   0.695  12.756  1.3202 -1.2585 -1.4672
 7560SOL     OW34138   2.119   3.072   8.573  1.2507  0.0593  0.6239
 7560SOL    HW134139   2.104   3.037   8.485 -2.6402  0.0965  1.2525
 7560SOL    HW234140   2.165   3.150   8.543 -1.4396  1.8174  1.1357
 7561SOL     OW34141   1.591   2.145  10.283 -0.0903  0.0542 -0.4635
 7561SOL    HW134142   1.511   2.127  10.333  1.1398 -0.3518  1.3971
 7561SOL    HW234143   1.579   2.090  10.206 -1.5286 -1.4267  0.7868
 7562SOL     OW34144   2.968   2.464   2.774  0.0672 -0.3362 -0.2139
 7562SOL    HW134145   3.052   2.435   2.739  1.0325  0.4874  1.3679
 7562SOL    HW234146   2.919   2.474   2.693  1.7671 -1.3750 -1.3540
 7563SOL     OW34147   4.684   1.384  12.168 -0.2300  0.4548  0.5938
 7563SOL    HW134148   4.620   1.454  12.164 -1.9122 -1.1309  0.0293
 7563SOL    HW234149   0.012   1.396  12.091  0.7705  0.4768  1.2936
 7564SOL     OW34150   4.215   2.782   8.641  0.3499  0.5181 -0.0320
 7564SOL    HW134151   4.285   2.750   8.585  0.2892 -0.1465  0.2785
 7564SOL    HW234152   4.207   2.711   8.704 -0.5343  0.2470 -0.4488
 7565SOL     OW34153   3.079   1.687   5.985  0.4707  0.6907 -0.4662
 7565SOL    HW134154   3.087   1.690   6.080 -0.4456  1.5891 -0.4235
 7565SOL    HW234155   3.019   1.615   5.966 -0.9307  1.5425  0.7953
 7566SOL     OW34156   2.727   3.338  16.868 -0.1506  0.4865 -0.0494
 7566SOL    HW134157   2.788   3.373  16.803  1.7273  1.4185  2.1776
 7566SOL    HW234158   2.694   3.413  16.918  0.8622  0.2685  0.9412
 7567SOL     OW34159   3.587   4.563   9.432 -0.1781  0.5200 -0.3323
 7567SOL    HW134160   3.644   4.487   9.418  1.8207  2.4958 -2.8492
 7567SOL    HW234161   3.558   4.553   9.523 -0.9993  0.1956 -0.6278
 7568SOL     OW34162   1.465   1.412  16.336  0.2758 -0.1590  0.1539
 7568SOL    HW134163   1.490   1.389  16.425 -0.2358 -2.3986 -0.2676
 7568SOL    HW234164   1.536   1.379  16.280 -0.2903 -0.7179 -0.2289
 7569SOL     OW34165   2.824   3.967   6.922 -0.3071  0.0538 -0.3128
 7569SOL    HW134166   2.856   3.965   6.833  0.2061 -0.2211 -0.1190
 7569SOL    HW234167   2.871   4.038   6.966  1.9940 -1.3453 -0.5471
 7570SOL     OW34168   1.797   2.453   1.454  0.5388  0.4031  0.3317
 7570SOL    HW134169   1.715   2.406   1.441 -0.9626  2.8562  0.9023
 7570SOL    HW234170   1.810   2.425   1.544  0.5026 -0.0549  0.1934
 7571SOL     OW34171   0.962   0.031   2.082  0.2881  0.1362  0.6483
 7571SOL    HW134172   0.979   4.668   2.112 -0.0765 -1.0205 -2.6913
 7571SOL    HW234173   1.004   0.027   1.996 -0.3366 -5.0703  0.5326
 7572SOL     OW34174   3.736   0.193  14.969 -0.8283  0.9772  0.0770
 7572SOL    HW134175   3.648   0.155  14.977 -0.4802  0.5522  1.8997
 7572SOL    HW234176   3.722   0.264  15.031  0.3364  1.5969 -0.3694
 7573SOL     OW34177   0.362   3.362   6.188  0.2558  0.3727 -0.0165
 7573SOL    HW134178   0.426   3.359   6.260 -0.6616 -0.2650  0.7810
 7573SOL    HW234179   0.392   3.433   6.131 -1.2747  2.3148  1.5921
 7574SOL     OW34180   0.059   2.851  14.133 -0.7466 -0.1546 -0.0102
 7574SOL    HW134181   0.127   2.800  14.089  3.1730  3.7558  1.5596
 7574SOL    HW234182   0.081   2.935  14.091 -0.5574 -0.5046 -0.6137
 7575SOL     OW34183   3.200   4.490   3.760  0.0049 -0.3030  0.4161
 7575SOL    HW134184   3.241   4.517   3.677 -0.2378 -2.0577 -0.2780
 7575SOL    HW234185   3.280   4.484   3.812  0.2706 -0.5342 -0.0233
 7576SOL     OW34186   0.193   2.509   2.269 -0.5552  0.4954  0.9168
 7576SOL    HW134187   0.277   2.481   2.230 -1.0944 -2.2346  1.7362
 7576SOL    HW234188   0.154   2.422   2.276 -0.4793  0.2650 -1.3882
 7577SOL     OW34189   2.163   1.095   6.858 -0.1034  0.2752  0.2285
 7577SOL    HW134190   2.082   1.085   6.808  0.1964  0.1226 -0.2275
 7577SOL    HW234191   2.210   1.156   6.800 -1.8147 -0.4934 -1.9437
 7578SOL     OW34192   2.870   3.114   3.259  0.5345  0.1447 -0.3085
 7578SOL    HW134193   2.806   3.168   3.212  0.4678  0.0504 -0.3257
 7578SOL    HW234194   2.918   3.072   3.188 -1.4383  1.3841 -2.4010
 7579SOL     OW34195   2.204   0.287  10.576 -0.5198 -0.2229  0.3685
 7579SOL    HW134196   2.254   0.315  10.500  1.1056 -1.0129  1.1639
 7579SOL    HW234197   2.237   0.334  10.652  3.4459 -1.3702 -0.6596
 7580SOL     OW34198   3.994   2.473   4.334  0.5989  0.1403  0.1922
 7580SOL    HW134199   4.062   2.506   4.393 -0.2934  1.0324  0.7432
 7580SOL    HW234200   3.922   2.478   4.398  0.4094  1.0425 -0.0874
 7581SOL     OW34201   0.253   4.607   1.776 -0.3292  0.7584 -0.2407
 7581SOL    HW134202   0.341   4.627   1.808  0.3151 -2.1165 -0.1728
 7581SOL    HW234203   0.203   4.623   1.856 -0.5400 -3.4375  0.4936
 7582SOL     OW34204   0.119   3.535   8.943  0.4137 -0.2850 -0.1814
 7582SOL    HW134205   0.037   3.548   8.990  0.4174  0.7736 -0.4892
 7582SOL    HW234206   0.115   3.440   8.928 -0.0306 -0.1367 -0.9943
 7583SOL     OW34207   1.455   2.462   8.209 -0.4993  0.3128 -0.1034
 7583SOL    HW134208   1.460   2.379   8.162  0.0945 -0.7345  1.8319
 7583SOL    HW234209   1.372   2.447   8.253  0.6506 -1.1459  1.5489
 7584SOL     OW34210   3.343   4.694   2.799  0.1787 -0.0812 -0.4690
 7584SOL    HW134211   3.316   4.643   2.722 -1.9372  0.3924 -0.0375
 7584SOL    HW234212   3.398   4.629   2.843 -0.3368  0.7831  1.3996
 7585SOL     OW34213   3.750   3.365   7.479 -0.9842 -0.0712 -0.0667
 7585SOL    HW134214   3.734   3.308   7.554 -1.2418  1.0807  0.7552
 7585SOL    HW234215   3.759   3.451   7.520 -0.8791 -1.6185  3.1209
 7586SOL     OW34216   1.412   2.423   1.491 -0.7051  0.0914 -0.5869
 7586SOL    HW134217   1.372   2.509   1.489 -2.3459 -0.6248  1.4551
 7586SOL    HW234218   1.460   2.434   1.573  3.6273 -0.2222 -3.0851
 7587SOL     OW34219   1.683   0.819   3.379 -0.1863  0.2865 -0.2388
 7587SOL    HW134220   1.671   0.865   3.462 -0.1709 -0.6040  0.2587
 7587SOL    HW234221   1.688   0.729   3.414  0.5717  0.5209  0.2691
 7588SOL     OW34222   2.948   1.390  10.496  0.1298 -0.3940  0.0726
 7588SOL    HW134223   2.883   1.365  10.562 -0.6726  0.8628 -0.2467
 7588SOL    HW234224   3.008   1.438  10.554 -1.0087 -0.5622  1.3990
 7589SOL     OW34225   4.418   2.107   6.367  0.3249 -1.0323  0.0804
 7589SOL    HW134226   4.425   2.135   6.458  0.1613  1.1124 -0.5820
 7589SOL    HW234227   4.476   2.031   6.371  0.7221 -0.7416 -0.1842
 7590SOL     OW34228   0.884   1.491  15.193  0.2038 -0.2061 -0.0740
 7590SOL    HW134229   0.857   1.552  15.125 -1.0352 -0.2899  0.3513
 7590SOL    HW234230   0.906   1.410  15.147 -3.7212 -0.3131 -1.7414
 7591SOL     OW34231   1.413   2.090   5.670 -0.0148  0.8430 -0.0498
 7591SOL    HW134232   1.339   2.058   5.619 -0.5177  0.3820  0.9852
 7591SOL    HW234233   1.466   2.129   5.600 -0.4347  0.3394 -0.6502
 7592SOL     OW34234   0.965   0.699   7.988 -0.0848  0.6430 -0.1662
 7592SOL    HW134235   0.986   0.718   8.079 -0.9108 -1.8874  0.5636
 7592SOL    HW234236   0.998   0.774   7.939 -0.7996 -0.0079 -1.6513
 7593SOL     OW34237   3.874   1.209  10.642  0.7210 -0.5419  0.5890
 7593SOL    HW134238   3.783   1.185  10.625  0.9204  1.4598 -3.3613
 7593SOL    HW234239   3.882   1.226  10.736 -1.1068 -2.8564  1.1532
 7594SOL     OW34240   0.336   1.362   7.634  0.0755 -0.0354  0.0128
 7594SOL    HW134241   0.245   1.347   7.662  1.2303 -1.9163  2.7530
 7594SOL    HW234242   0.331   1.456   7.615 -1.2889 -0.0709  0.1519
 7595SOL     OW34243   4.201   2.850  17.353  0.0990  0.5029  0.3564
 7595SOL    HW134244   4.208   2.922  17.291 -1.3490  0.1868 -0.1730
 7595SOL    HW234245   4.110   2.820  17.349  0.2697  0.2898 -1.8418
 7596SOL     OW34246   1.830   4.460   2.958 -0.6364  0.6902  0.4855
 7596SOL    HW134247   1.900   4.495   2.902 -1.6204 -1.9117 -2.3792
 7596SOL    HW234248   1.870   4.411   3.029 -1.2996  0.4656  0.7046
 7597SOL     OW34249   3.688   1.982  10.963 -0.7184  0.1347  0.3477
 7597SOL    HW134250   3.772   1.936  10.966 -1.6779 -1.4800  2.4682
 7597SOL    HW234251   3.722   2.059  10.917 -1.0809  0.7703  1.1372
 7598SOL     OW34252   3.781   0.597  13.091 -0.2571  0.4589 -0.2052
 7598SOL    HW134253   3.778   0.616  13.185  1.0118  0.4732 -0.1684
 7598SOL    HW234254   3.848   0.651  13.049  0.1663 -0.7272 -1.0398
 7599SOL     OW34255   2.295   0.318   3.054  0.3605 -0.0274 -0.0026
 7599SOL    HW134256   2.272   0.242   3.107  0.9076 -1.9727 -2.5847
 7599SOL    HW234257   2.242   0.308   2.975 -0.3630  1.8745  0.2372
 7600SOL     OW34258   0.263   3.194   2.459  0.0640 -0.0854  0.6535
 7600SOL    HW134259   0.206   3.121   2.434 -1.4648  1.3222 -0.0049
 7600SOL    HW234260   0.226   3.272   2.418 -1.7587 -1.7397 -0.8284
 7601SOL     OW34261   1.009   3.972  16.964  0.7072 -0.0659 -0.2368
 7601SOL    HW134262   1.044   4.027  16.893  0.1919 -0.9166 -1.1564
 7601SOL    HW234263   0.945   3.912  16.925 -0.3633  2.1030 -1.8590
 7602SOL     OW34264   1.323   4.223   7.235  0.7460  0.3044 -0.1079
 7602SOL    HW134265   1.401   4.245   7.286 -1.0588  1.2247  2.2647
 7602SOL    HW234266   1.342   4.282   7.162  0.3665 -0.6559 -0.9753
 7603SOL     OW34267   1.627   1.178  13.829 -0.0615  0.2800  0.4809
 7603SOL    HW134268   1.591   1.232  13.899 -0.0350 -0.3443  0.9782
 7603SOL    HW234269   1.566   1.195  13.757 -0.4716 -2.8755  0.0573
 7604SOL     OW34270   1.305   2.186   8.171  0.0085  0.0916 -0.0182
 7604SOL    HW134271   1.389   2.177   8.125  0.8593 -1.2675  1.7664
 7604SOL    HW234272   1.347   2.173   8.256  0.3252 -0.3525 -0.2422
 7605SOL     OW34273   4.436   4.345   7.573  0.5446 -0.4000 -0.1776
 7605SOL    HW134274   4.514   4.321   7.623 -0.7023  0.5156  2.2100
 7605SOL    HW234275   4.397   4.258   7.563 -3.3324  1.4735 -1.3078
 7606SOL     OW34276   1.585   1.563   6.460  0.0693  0.3480 -0.5341
 7606SOL    HW134277   1.667   1.555   6.411  0.4088  2.8109 -0.3674
 7606SOL    HW234278   1.559   1.471   6.457  0.5767  0.2054 -0.6772
 7607SOL     OW34279   1.335   2.958   4.856 -0.2339 -0.0653  0.1430
 7607SOL    HW134280   1.393   3.019   4.902 -0.3072 -0.5132  0.8386
 7607SOL    HW234281   1.346   2.882   4.914  0.3494  1.2205  1.7157
 7608SOL     OW34282   1.422   2.613  13.440  0.0536  0.1778 -0.2100
 7608SOL    HW134283   1.448   2.521  13.432 -1.3324 -0.3273  0.9134
 7608SOL    HW234284   1.349   2.621  13.379  0.3907  0.2741 -0.5978
 7609SOL     OW34285   1.362   2.328  16.238  0.4733 -0.1695  0.6275
 7609SOL    HW134286   1.356   2.416  16.273  4.9650  0.2891  0.2053
 7609SOL    HW234287   1.270   2.308  16.253  0.0304  0.1103 -1.6691
 7610SOL     OW34288   0.859   0.362  16.668  0.1804  0.4806  0.9290
 7610SOL    HW134289   0.797   0.410  16.723 -0.0040  1.3316 -0.0200
 7610SOL    HW234290   0.943   0.350  16.714  1.1534  0.9098 -0.7274
 7611SOL     OW34291   0.222   4.661   3.753 -0.1920 -0.2563 -0.3738
 7611SOL    HW134292   0.279   0.012   3.760  0.2926 -0.5218 -1.3824
 7611SOL    HW234293   0.185   4.651   3.666  0.5425  1.5325 -0.8942
 7612SOL     OW34294   2.628   4.050  10.252 -0.9892 -0.1312 -0.4523
 7612SOL    HW134295   2.624   4.144  10.267 -2.1231  0.0508 -1.8672
 7612SOL    HW234296   2.609   4.022  10.342 -1.3101  0.0690 -0.4567
 7613SOL     OW34297   3.060   4.271   8.248 -0.6249  0.1239  0.2831
 7613SOL    HW134298   3.153   4.259   8.266 -0.4217 -0.5142 -1.1870
 7613SOL    HW234299   3.046   4.239   8.159  1.0947  0.8652 -0.2393
 7614SOL     OW34300   2.351   3.074   8.962 -0.7608  0.1295  0.2590
 7614SOL    HW134301   2.339   3.001   8.902 -0.4127  0.1617  0.1511
 7614SOL    HW234302   2.262   3.109   8.958 -0.6246  0.5045  0.4266
 7615SOL     OW34303   0.923   1.382   8.263 -0.7370 -0.0848 -0.6887
 7615SOL    HW134304   0.991   1.381   8.331 -2.9073 -2.9819  1.4609
 7615SOL    HW234305   0.876   1.459   8.293 -1.2814 -0.5560 -0.3265
 7616SOL     OW34306   4.185   3.183  14.455 -0.4271  0.4447  0.1122
 7616SOL    HW134307   4.257   3.135  14.414 -0.1634 -0.1355  1.2584
 7616SOL    HW234308   4.146   3.113  14.507  2.3072 -0.3106  1.0985
 7617SOL     OW34309   1.579   3.726  11.472  0.3868 -0.4390  0.0167
 7617SOL    HW134310   1.592   3.821  11.479 -3.7255  0.1517 -0.3204
 7617SOL    HW234311   1.560   3.700  11.562 -2.1286  0.6356 -0.2055
 7618SOL     OW34312   0.428   1.190   4.524 -0.0842 -0.2776 -0.4208
 7618SOL    HW134313   0.412   1.281   4.551  0.3994 -0.4690  0.5229
 7618SOL    HW234314   0.468   1.203   4.438  1.5643 -1.5699  0.1555
 7619SOL     OW34315   4.255   1.213  14.588 -0.4092  0.0470  0.5572
 7619SOL    HW134316   4.280   1.282  14.527 -1.4025 -1.0490 -1.0878
 7619SOL    HW234317   4.328   1.220  14.650  1.2274  1.3304 -1.5218
 7620SOL     OW34318   4.249   2.881  15.419 -0.4595 -0.3666  0.1005
 7620SOL    HW134319   4.174   2.917  15.373 -0.1770  0.0768 -0.0080
 7620SOL    HW234320   4.318   2.875  15.353  1.7028  2.7026  2.1443
 7621SOL     OW34321   1.315   2.311  14.824  0.5100  0.4418 -0.4179
 7621SOL    HW134322   1.333   2.336  14.733 -0.4345 -0.8113 -0.9428
 7621SOL    HW234323   1.222   2.327  14.835  0.1682 -2.6396  1.0383
 7622SOL     OW34324   3.326   3.940  11.438 -0.1490 -0.4806 -0.9810
 7622SOL    HW134325   3.346   3.933  11.344 -0.9847 -1.3457 -1.0885
 7622SOL    HW234326   3.363   4.028  11.444  0.0484 -0.6502  0.2871
 7623SOL     OW34327   3.150   1.220   4.463 -0.1657  0.7110 -0.4086
 7623SOL    HW134328   3.203   1.293   4.494 -0.9658  1.0390  0.1654
 7623SOL    HW234329   3.211   1.150   4.486 -2.3798 -0.8597  0.7167
 7624SOL     OW34330   2.317   1.552   5.356  0.5528  0.2198 -0.1933
 7624SOL    HW134331   2.246   1.493   5.379  1.1929  0.0249  1.2700
 7624SOL    HW234332   2.326   1.513   5.268  0.9211 -1.8228  0.7502
 7625SOL     OW34333   2.462   3.097   6.707  0.6729 -0.2669 -0.0174
 7625SOL    HW134334   2.403   3.117   6.634  0.5222  1.4245  0.5851
 7625SOL    HW234335   2.460   3.001   6.711 -0.1375 -0.1750  1.8590
 7626SOL     OW34336   0.914   4.084  16.089 -0.3022  0.7074  0.9734
 7626SOL    HW134337   0.862   4.066  16.168 -1.9900 -0.5050 -0.4283
 7626SOL    HW234338   1.007   4.072  16.108 -0.0975  0.0701 -0.4518
 7627SOL     OW34339   1.351   0.087  11.561 -0.4510 -0.5812  0.5579
 7627SOL    HW134340   1.411   0.150  11.522  0.7610 -0.2192  3.0504
 7627SOL    HW234341   1.333   0.134  11.642  0.2467 -0.2972  0.5439
 7628SOL     OW34342   3.703   1.713  17.243 -0.7606  0.2507 -0.3586
 7628SOL    HW134343   3.721   1.620  17.253 -2.4440  0.3830  3.6818
 7628SOL    HW234344   3.784   1.741  17.200 -1.1385  3.0973  0.7564
 7629SOL     OW34345   1.528   0.278   2.587  0.4759  0.1075  0.2131
 7629SOL    HW134346   1.554   0.293   2.678 -2.9605  1.8610  0.9240
 7629SOL    HW234347   1.497   0.188   2.597 -1.0803  0.5260 -0.8073
 7630SOL     OW34348   1.040   0.856  10.758 -0.1966  0.4233  0.4202
 7630SOL    HW134349   0.970   0.795  10.736 -0.3602  0.4258  0.9283
 7630SOL    HW234350   1.119   0.817  10.722 -1.6595 -0.8622 -1.4007
 7631SOL     OW34351   1.403   4.243   5.869 -0.3854  0.2151 -0.8178
 7631SOL    HW134352   1.336   4.293   5.915 -1.2182 -1.4046 -0.2497
 7631SOL    HW234353   1.450   4.205   5.943 -0.1677  0.0281 -1.0507
 7632SOL     OW34354   2.118   0.613  12.433  1.4973 -0.4893 -0.0829
 7632SOL    HW134355   2.119   0.566  12.517  0.7898  0.1675  0.2901
 7632SOL    HW234356   2.118   0.700  12.473 -0.1770 -0.0146 -1.1636
 7633SOL     OW34357   2.551   0.566   7.954 -0.1507 -0.3280 -0.5335
 7633SOL    HW134358   2.494   0.494   7.980  1.0935 -0.3737  2.0012
 7633SOL    HW234359   2.577   0.535   7.867 -2.1363 -0.5912 -1.0465
 7634SOL     OW34360   2.176   4.676  15.488  0.4560 -0.2762  0.1657
 7634SOL    HW134361   2.085   4.687  15.516  0.1187 -2.2623 -0.1689
 7634SOL    HW234362   2.186   0.039  15.456 -0.2205 -0.1528  0.2836
 7635SOL     OW34363   4.361   2.977   7.314  0.3147 -0.8805 -0.0682
 7635SOL    HW134364   4.314   2.901   7.349 -1.3423  0.6906  1.0542
 7635SOL    HW234365   4.329   3.055   7.359 -0.0291 -0.4822 -1.0025
 7636SOL     OW34366   2.271   4.489   0.868 -0.1940  0.2233 -0.6421
 7636SOL    HW134367   2.342   4.550   0.891  0.3147 -1.3735  1.9628
 7636SOL    HW234368   2.306   4.404   0.894  1.3412  1.2112  0.5010
 7637SOL     OW34369   2.211   2.588   8.288 -0.4787  0.1975  0.6252
 7637SOL    HW134370   2.248   2.523   8.228  1.3771  0.1969  1.7605
 7637SOL    HW234371   2.189   2.523   8.355  0.1391 -0.3569  0.2870
 7638SOL     OW34372   1.953   3.015   4.967  0.2039  0.1363 -0.4621
 7638SOL    HW134373   1.902   2.992   5.045  0.9270 -0.3935 -0.1400
 7638SOL    HW234374   1.905   2.976   4.894  0.7278 -2.6443  0.6778
 7639SOL     OW34375   4.669   3.254  11.616  0.1973 -0.1522  0.0358
 7639SOL    HW134376   4.621   3.172  11.621  0.5725 -0.2241  2.6926
 7639SOL    HW234377   4.697   3.251  11.525  0.0883 -2.1950  0.0752
 7640SOL     OW34378   3.205   0.370   8.018 -0.0937  0.7176  0.3525
 7640SOL    HW134379   3.255   0.413   8.088  1.1072 -1.4052  0.8018
 7640SOL    HW234380   3.208   0.433   7.947 -0.6704 -2.6312 -2.6266
 7641SOL     OW34381   0.663   0.100   6.237 -0.7165 -0.6046 -0.5175
 7641SOL    HW134382   0.731   0.162   6.212 -1.4544  0.8019  0.9841
 7641SOL    HW234383   0.673   0.105   6.332 -0.9773  0.7642 -0.5687
 7642SOL     OW34384   3.697   0.114   3.499  0.1885  0.1814  0.0503
 7642SOL    HW134385   3.657   0.187   3.452  1.7229 -0.2373 -1.9113
 7642SOL    HW234386   3.789   0.130   3.478  0.3336  0.0375  0.5706
 7643SOL     OW34387   4.058   0.881  11.258  0.2697 -0.1164  0.3292
 7643SOL    HW134388   4.072   0.862  11.351 -1.6433  1.2039  0.8923
 7643SOL    HW234389   4.133   0.933  11.229  1.1207 -2.8296 -2.3034
 7644SOL     OW34390   3.173   3.005   6.835 -0.3662  0.3128  0.2720
 7644SOL    HW134391   3.263   2.974   6.827  0.4780  2.3054  2.3320
 7644SOL    HW234392   3.171   3.094   6.801  1.1911  0.4391  0.5028
 7645SOL     OW34393   0.986   2.971   5.457 -0.1864  0.0678 -0.2681
 7645SOL    HW134394   1.017   3.032   5.524 -0.4252  0.9941 -1.0080
 7645SOL    HW234395   1.035   2.901   5.502 -0.2369  1.2703  1.6597
 7646SOL     OW34396   1.752   3.272   9.941 -0.4894  0.2996 -0.3436
 7646SOL    HW134397   1.703   3.201   9.984  0.6791 -1.4270 -1.8513
 7646SOL    HW234398   1.816   3.285  10.011  1.6374 -0.1955 -2.2060
 7647SOL     OW34399   1.869   2.761   4.484 -0.5609  0.1170  0.3702
 7647SOL    HW134400   1.784   2.753   4.528 -0.5327 -0.6783  0.2651
 7647SOL    HW234401   1.900   2.671   4.492 -1.1033 -0.1810 -0.9074
 7648SOL     OW34402   1.297   1.203  11.035 -0.1807 -0.2054  0.2014
 7648SOL    HW134403   1.272   1.124  10.987  0.8820 -0.2004 -0.3525
 7648SOL    HW234404   1.230   1.262  11.001 -0.2338 -1.2198 -1.4428
 7649SOL     OW34405   3.815   2.022   6.221 -0.9947  0.6831 -0.6656
 7649SOL    HW134406   3.829   1.928   6.225 -0.6870  0.7001 -1.2817
 7649SOL    HW234407   3.864   2.055   6.296 -1.2607  0.6647 -0.4844
 7650SOL     OW34408   0.689   0.092   6.513  0.0208 -0.2353  0.4706
 7650SOL    HW134409   0.659   0.012   6.556  1.9001 -1.0839  0.2403
 7650SOL    HW234410   0.693   0.150   6.589  2.7661  0.5636 -0.2754
 7651SOL     OW34411   1.059   2.101   7.464  0.2292  0.4179 -0.3931
 7651SOL    HW134412   1.041   2.074   7.374  0.8411  0.8045 -0.6279
 7651SOL    HW234413   1.024   2.024   7.509  2.5740 -0.8149 -0.6956
 7652SOL     OW34414   1.294   3.587  10.299 -0.5832 -0.6113 -0.9353
 7652SOL    HW134415   1.291   3.588  10.204  0.0460 -0.7367 -0.9552
 7652SOL    HW234416   1.344   3.509  10.324  2.5813  1.2455 -1.5284
 7653SOL     OW34417   1.793   0.418  11.081 -0.1757 -0.3040  0.1898
 7653SOL    HW134418   1.853   0.348  11.108  2.4601  1.3643 -1.2908
 7653SOL    HW234419   1.775   0.450  11.169 -0.3421 -0.5211  0.2350
 7654SOL     OW34420   2.819   0.150  17.443  0.8143 -0.3529 -0.5837
 7654SOL    HW134421   2.883   0.217  17.421  0.6405 -0.2043 -0.6284
 7654SOL    HW234422   2.749   0.187  17.391  0.5442 -0.7874 -0.5282
 7655SOL     OW34423   2.895   3.862   5.919 -0.0731  0.0398 -0.0489
 7655SOL    HW134424   2.903   3.767   5.931 -1.0626 -0.2077 -1.3273
 7655SOL    HW234425   2.803   3.883   5.935  0.5203  2.6388 -0.2036
 7656SOL     OW34426   4.543   4.167   4.716 -0.2515 -0.2117  0.3937
 7656SOL    HW134427   4.597   4.195   4.789  1.3311 -0.6571 -0.6035
 7656SOL    HW234428   4.511   4.084   4.753 -1.4069  1.2779  2.7306
 7657SOL     OW34429   3.694   2.901  16.551 -0.2085  0.4060  1.2286
 7657SOL    HW134430   3.636   2.971  16.521 -1.2782 -1.2906 -0.5445
 7657SOL    HW234431   3.751   2.878  16.478  0.6120  3.6315  0.8313
 7658SOL     OW34432   0.040   4.597   6.423 -0.0378  0.2666  0.3843
 7658SOL    HW134433   0.101   4.573   6.353  0.3647 -0.7444  1.0861
 7658SOL    HW234434   0.062   4.689   6.438 -1.4872  0.7729 -0.6211
 7659SOL     OW34435   3.152   1.906   1.781  0.8855 -0.0132  0.3955
 7659SOL    HW134436   3.161   1.878   1.690 -1.2796  3.3401 -0.8515
 7659SOL    HW234437   3.186   1.826   1.822  0.2333  0.2628  1.4889
 7660SOL     OW34438   0.656   3.351   5.303  0.4627  0.5339  0.0155
 7660SOL    HW134439   0.657   3.444   5.325  0.6029  0.2843  1.0614
 7660SOL    HW234440   0.748   3.350   5.278  0.5275  1.7029  0.1838
 7661SOL     OW34441   4.270   2.253   7.738 -0.1173 -0.0186 -0.1144
 7661SOL    HW134442   4.272   2.348   7.734 -1.0434 -0.0840 -2.1768
 7661SOL    HW234443   4.361   2.239   7.764 -0.4098 -1.6944  0.0462
 7662SOL     OW34444   2.156   2.872  13.630 -0.7328  0.1206 -0.1366
 7662SOL    HW134445   2.226   2.921  13.674 -1.6997  2.4504 -1.1964
 7662SOL    HW234446   2.188   2.791  13.670  1.8268  0.3053 -1.7961
 7663SOL     OW34447   2.592   0.342   5.384  0.5898  0.3051  0.7424
 7663SOL    HW134448   2.635   0.257   5.378 -1.6398 -0.8633  1.3614
 7663SOL    HW234449   2.640   0.396   5.321 -0.5501  0.8300  0.3177
 7664SOL     OW34450   0.493   2.150  14.905  0.2153  0.0225 -0.3036
 7664SOL    HW134451   0.577   2.149  14.859  0.7345 -1.3193  0.6739
 7664SOL    HW234452   0.446   2.215  14.853  0.7412 -0.4306 -1.3431
 7665SOL     OW34453   4.629   2.143   4.499 -0.0121  0.3960  0.5698
 7665SOL    HW134454   4.704   2.099   4.539  1.5117  1.9281 -0.6090
 7665SOL    HW234455   4.671   2.220   4.461  0.3045 -1.2117 -2.3555
 7666SOL     OW34456   1.368   3.936  15.182  0.1159  0.0062 -0.3808
 7666SOL    HW134457   1.428   3.869  15.217 -0.4731 -0.0912  0.4265
 7666SOL    HW234458   1.339   3.983  15.259 -2.4112 -2.4630  0.1613
 7667SOL     OW34459   1.968   3.307   6.580 -0.0447 -0.0880 -0.6858
 7667SOL    HW134460   1.877   3.292   6.553 -0.2965 -3.2907  1.9571
 7667SOL    HW234461   1.990   3.390   6.537  2.5853 -0.7209 -0.5579
 7668SOL     OW34462   1.472   0.180   3.577 -0.7443 -0.6680  0.3041
 7668SOL    HW134463   1.514   0.235   3.643  0.0720 -0.7340 -0.1656
 7668SOL    HW234464   1.416   0.122   3.629 -2.9793  1.8323  0.6586
 7669SOL     OW34465   0.438   3.653   4.106 -0.3527  0.4493 -0.3210
 7669SOL    HW134466   0.385   3.609   4.040  1.7497  0.1798 -1.8091
 7669SOL    HW234467   0.442   3.594   4.181  2.2334 -0.9554 -1.5686
 7670SOL     OW34468   0.104   1.326   4.056  0.6052 -0.7131 -0.4151
 7670SOL    HW134469   0.133   1.329   4.148 -0.6926  0.7939 -0.0508
 7670SOL    HW234470   0.009   1.331   4.060  0.7336  0.3101  1.5323
 7671SOL     OW34471   1.283   1.517   3.824 -0.1803 -0.1802 -0.1472
 7671SOL    HW134472   1.319   1.452   3.763  2.3565  0.3535  0.7548
 7671SOL    HW234473   1.199   1.537   3.784  0.0434  0.9309 -0.0570
 7672SOL     OW34474   1.715   3.131   8.221  0.0971 -0.5903  0.4444
 7672SOL    HW134475   1.752   3.164   8.140  0.7126 -1.7094  0.2597
 7672SOL    HW234476   1.693   3.040   8.198 -1.1713  0.0188 -0.7691
 7673SOL     OW34477   2.838   1.684  17.551  0.1363  0.4154 -1.1805
 7673SOL    HW134478   2.836   1.768  17.596  0.1941 -1.3269  2.0988
 7673SOL    HW234479   2.781   1.706  17.477 -0.4293 -0.3999 -0.9812
 7674SOL     OW34480   4.257   1.875   4.923 -0.3167  0.1577 -0.7792
 7674SOL    HW134481   4.316   1.831   4.861 -0.6513 -3.1830  1.2521
 7674SOL    HW234482   4.222   1.942   4.865 -1.5172 -0.6558 -1.0042
 7675SOL     OW34483   4.531   2.190   7.834  0.1073 -0.6325 -0.0624
 7675SOL    HW134484   4.529   2.129   7.908  2.3338 -1.1703 -0.4497
 7675SOL    HW234485   4.622   2.217   7.838 -0.3064  0.9579 -1.3173
 7676SOL     OW34486   0.963   2.096   3.059  0.2687 -0.1296 -0.0320
 7676SOL    HW134487   1.002   2.174   3.019  1.4282 -0.2018  0.9647
 7676SOL    HW234488   0.988   2.031   2.993 -1.6169 -0.2194 -0.6788
 7677SOL     OW34489   4.443   0.850   8.396 -0.5433  0.4092  0.1816
 7677SOL    HW134490   4.422   0.939   8.426  0.6028  0.2731  1.4198
 7677SOL    HW234491   4.360   0.805   8.409  0.5211 -0.5678  3.6181
 7678SOL     OW34492   2.504   2.994   9.184  0.0509 -0.1407 -0.7747
 7678SOL    HW134493   2.428   2.964   9.235  0.0082  2.6989  0.8632
 7678SOL    HW234494   2.465   3.029   9.104  0.0155  1.0162 -0.2603
 7679SOL     OW34495   3.169   3.614   2.548 -0.3672  0.0709  0.4227
 7679SOL    HW134496   3.106   3.683   2.526 -2.0646 -0.9855  1.9263
 7679SOL    HW234497   3.109   3.541   2.566  0.4984 -0.3005  1.8210
 7680SOL     OW34498   0.048   4.357   7.094 -0.3778  0.2933  0.0605
 7680SOL    HW134499   0.046   4.384   7.186  1.2760 -0.3267  0.2725
 7680SOL    HW234500   0.012   4.436   7.052 -0.0185  0.3213 -0.2027
 7681SOL     OW34501   1.004   4.708  13.965 -0.0668 -0.0715 -0.2821
 7681SOL    HW134502   0.924   0.016  13.926 -0.4641 -0.5369  0.1149
 7681SOL    HW234503   1.041   0.057  14.011 -0.9243  0.3239 -0.2350
 7682SOL     OW34504   1.335   2.596  10.577  0.4400 -0.2808  0.3755
 7682SOL    HW134505   1.315   2.689  10.587 -1.8141 -0.7243  0.1395
 7682SOL    HW234506   1.285   2.591  10.495  0.9497  0.8635  0.0070
 7683SOL     OW34507   3.892   2.605   5.353 -0.1254 -0.1788  0.4907
 7683SOL    HW134508   3.826   2.626   5.419  0.2929 -2.0664  1.5148
 7683SOL    HW234509   3.962   2.577   5.412  0.1211 -0.7794 -0.0830
 7684SOL     OW34510   0.995   3.911   4.997  0.7501  0.3309  0.0832
 7684SOL    HW134511   1.075   3.938   4.951  1.2395  0.7497  1.1707
 7684SOL    HW234512   0.943   3.882   4.922  0.1899 -1.8783  1.3208
 7685SOL     OW34513   4.588   0.698   1.788 -0.1430  0.2860  0.0582
 7685SOL    HW134514   4.513   0.644   1.813 -1.0235  0.7683 -1.5227
 7685SOL    HW234515   4.574   0.710   1.694 -2.5441 -2.2072  0.0983
 7686SOL     OW34516   1.516   1.540  15.592  0.1674  0.3529  0.2128
 7686SOL    HW134517   1.532   1.451  15.560 -1.7532  0.0571  0.1221
 7686SOL    HW234518   1.606   1.546  15.624  0.4058  2.1970 -0.8150
 7687SOL     OW34519   4.598   2.935   8.279 -0.3858  0.2647  0.0681
 7687SOL    HW134520   4.528   2.982   8.234  1.7539  1.2846 -2.1601
 7687SOL    HW234521   4.638   2.880   8.212 -0.0697 -1.1526  1.4008
 7688SOL     OW34522   0.982   3.615   2.564  0.1752  0.3951  0.1290
 7688SOL    HW134523   0.967   3.647   2.474 -0.4004  2.4245  0.9417
 7688SOL    HW234524   0.930   3.676   2.616  1.4246 -0.9190  2.8614
 7689SOL     OW34525   3.082   4.253   7.959 -0.3521  0.1827 -0.5635
 7689SOL    HW134526   3.112   4.174   7.916 -1.2114 -0.6469  0.3596
 7689SOL    HW234527   3.137   4.312   7.907 -1.8231  0.6335 -1.6443
 7690SOL     OW34528   3.877   3.228  14.037  0.5092  0.2345 -0.0326
 7690SOL    HW134529   3.935   3.275  14.098 -0.4960 -0.3705  1.3848
 7690SOL    HW234530   3.932   3.251  13.962 -0.7647  0.0673 -1.0078
 7691SOL     OW34531   3.988   4.231   2.477  0.1369  1.2206  0.1433
 7691SOL    HW134532   4.059   4.294   2.466 -1.2039  3.2418  3.2785
 7691SOL    HW234533   3.934   4.255   2.401 -1.6680 -1.8946  0.4347
 7692SOL     OW34534   0.110   0.536   3.604 -0.0652  0.1455  0.1323
 7692SOL    HW134535   0.139   0.506   3.518 -0.3690  2.6572 -0.8393
 7692SOL    HW234536   0.124   0.461   3.662 -0.2228 -1.7307 -2.2498
 7693SOL     OW34537   2.926   1.912   9.416  0.2343  0.4984  0.3779
 7693SOL    HW134538   2.901   1.845   9.353  0.5611  0.5937  0.1498
 7693SOL    HW234539   2.884   1.878   9.496 -0.6997  2.1909  0.6140
 7694SOL     OW34540   4.555   3.157   6.983 -0.1623  0.4111 -0.2097
 7694SOL    HW134541   4.463   3.175   7.002 -0.3204  0.7760 -1.3291
 7694SOL    HW234542   4.588   3.246   6.974 -1.6907  1.2083  2.0030
 7695SOL     OW34543   1.744   1.883   9.757 -0.2674 -0.0303 -0.5930
 7695SOL    HW134544   1.734   1.903   9.850  0.7715 -0.7629 -0.3169
 7695SOL    HW234545   1.654   1.883   9.725  0.2509  1.3857 -2.0309
 7696SOL     OW34546   2.460   3.772   4.177  0.4184 -0.2291  0.3447
 7696SOL    HW134547   2.478   3.769   4.271  1.4704  0.1151  0.1530
 7696SOL    HW234548   2.539   3.739   4.135  0.2971 -0.6452  0.4387
 7697SOL     OW34549   1.655   4.321   8.087  0.0888 -0.1134 -0.3954
 7697SOL    HW134550   1.590   4.313   8.017 -0.0091 -0.2554 -0.2878
 7697SOL    HW234551   1.637   4.244   8.141 -0.8697 -0.4782 -1.2283
 7698SOL     OW34552   2.645   0.660   7.099  0.1869 -0.0471 -0.1219
 7698SOL    HW134553   2.661   0.734   7.158  1.4069  0.8767 -1.6100
 7698SOL    HW234554   2.556   0.635   7.124  0.1719 -0.3492 -0.4815
 7699SOL     OW34555   2.908   2.517   5.569 -0.4615 -0.3373  0.1595
 7699SOL    HW134556   2.892   2.609   5.550 -1.2833 -0.3275  0.8616
 7699SOL    HW234557   2.922   2.475   5.485 -1.8693 -2.2822  0.8921
 7700SOL     OW34558   0.635   3.365   3.466  0.4299 -0.3281  0.3551
 7700SOL    HW134559   0.599   3.391   3.382 -0.5218 -1.0546  0.5323
 7700SOL    HW234560   0.657   3.274   3.444 -1.5214 -0.8085  0.3401
 7701SOL     OW34561   2.163   1.031   3.900  0.2710  0.2013 -0.7459
 7701SOL    HW134562   2.103   0.963   3.930  1.8383 -0.2362  1.3843
 7701SOL    HW234563   2.169   1.088   3.976  0.5405 -1.1881  0.2720
 7702SOL     OW34564   1.066   3.987  13.641  0.2421 -0.8667 -0.4875
 7702SOL    HW134565   1.084   3.983  13.735 -4.1903 -1.8848  0.2873
 7702SOL    HW234566   1.122   3.919  13.601  2.8210  2.2253 -2.1326
 7703SOL     OW34567   0.540   2.723   2.581 -0.4634 -0.0278 -0.6399
 7703SOL    HW134568   0.626   2.725   2.540 -0.9290  0.6432 -1.5954
 7703SOL    HW234569   0.503   2.808   2.557 -0.8628  0.1308  0.5199
 7704SOL     OW34570   3.462   1.667  10.932 -0.2647  0.5451 -0.1290
 7704SOL    HW134571   3.537   1.609  10.945 -0.5185  0.3057  0.2911
 7704SOL    HW234572   3.439   1.679  11.024 -0.5161  1.7700 -0.3623
 7705SOL     OW34573   2.547   0.852   6.472  0.2102  0.5069  0.2275
 7705SOL    HW134574   2.514   0.825   6.387  1.4938 -2.5272  0.6827
 7705SOL    HW234575   2.635   0.816   6.469 -0.6959 -1.2221 -5.0476
 7706SOL     OW34576   0.026   4.265   4.863 -0.2945 -0.6430  0.3462
 7706SOL    HW134577   0.029   4.270   4.959  1.5969 -2.4607  0.3946
 7706SOL    HW234578   0.109   4.309   4.844 -1.6436  2.6689  2.2566
 7707SOL     OW34579   3.862   0.415   5.361 -0.2895 -0.2708  0.1797
 7707SOL    HW134580   3.788   0.462   5.322 -1.0806 -2.1088 -0.5548
 7707SOL    HW234581   3.928   0.483   5.348 -1.8022  1.4967  1.8302
 7708SOL     OW34582   2.154   0.760   2.474 -0.5068  0.5478  0.3570
 7708SOL    HW134583   2.119   0.715   2.396  0.6262 -1.9809  1.3064
 7708SOL    HW234584   2.094   0.833   2.485  0.2056  0.7021  3.1052
 7709SOL     OW34585   1.262   4.151  15.686  0.2908 -0.0596 -0.1908
 7709SOL    HW134586   1.321   4.185  15.753 -0.3821  0.6324  0.0486
 7709SOL    HW234587   1.207   4.225  15.659  1.3948  1.0370  0.5993
 7710SOL     OW34588   1.371   2.098   1.714 -0.4167  0.5615 -0.2139
 7710SOL    HW134589   1.336   2.125   1.800  3.1109  1.7836  0.8475
 7710SOL    HW234590   1.463   2.121   1.730 -0.9284  1.6997  1.1078
 7711SOL     OW34591   2.914   0.748  14.022 -0.5027  0.1871  0.8818
 7711SOL    HW134592   2.857   0.685  13.978  1.6010 -1.1285  0.0180
 7711SOL    HW234593   2.857   0.759  14.098  0.4241 -4.1428  2.1838
 7712SOL     OW34594   1.702   1.996  14.108  0.1889  0.1797 -0.0935
 7712SOL    HW134595   1.644   2.002  14.183  0.1739  1.1258 -0.1846
 7712SOL    HW234596   1.764   1.937  14.151  0.6344 -0.0916 -1.0816
 7713SOL     OW34597   0.098   3.266   8.932  0.1668 -0.6357  0.5171
 7713SOL    HW134598   0.140   3.290   9.014 -0.2569  0.3194  0.4529
 7713SOL    HW234599   0.117   3.172   8.936  0.5116 -0.5500  0.9136
 7714SOL     OW34600   0.086   2.513  14.751  0.1585 -0.0972  0.2710
 7714SOL    HW134601   0.031   2.588  14.774  3.0005  1.7858  0.9590
 7714SOL    HW234602   0.067   2.449  14.820 -1.6269  1.7090  1.4507
 7715SOL     OW34603   4.470   3.736   2.930 -0.2042 -0.5307  0.4734
 7715SOL    HW134604   4.398   3.675   2.948 -1.6925  1.5710  1.5823
 7715SOL    HW234605   4.422   3.819   2.932  1.5907  0.5403 -0.7607
 7716SOL     OW34606   0.810   2.454   7.224 -0.0868 -0.4783  0.6123
 7716SOL    HW134607   0.719   2.466   7.199 -0.3271 -0.4031  1.5536
 7716SOL    HW234608   0.856   2.486   7.146 -1.9211 -2.9991 -1.5459
 7717SOL     OW34609   3.900   4.401   7.022  0.8555 -0.0728 -0.1823
 7717SOL    HW134610   3.936   4.350   6.949  2.1381 -0.3849  0.6592
 7717SOL    HW234611   3.907   4.347   7.100  1.2419  0.6440  0.2850
 7718SOL     OW34612   0.441   4.644  14.302  0.0109  0.4012 -0.0329
 7718SOL    HW134613   0.403   0.004  14.290 -1.2560 -0.2618 -0.7969
 7718SOL    HW234614   0.526   4.679  14.330  0.7120 -1.3372  0.0432
 7719SOL     OW34615   3.833   1.901  14.546  0.6168 -0.1385  0.1518
 7719SOL    HW134616   3.845   1.843  14.471  0.1613 -2.0909  1.5986
 7719SOL    HW234617   3.747   1.928  14.515  0.1083 -1.9187  0.0276
 7720SOL     OW34618   3.171   2.928   8.738  0.0974  0.0916  0.5915
 7720SOL    HW134619   3.162   2.858   8.673 -1.2585 -0.3130  1.2233
 7720SOL    HW234620   3.105   2.986   8.700 -1.2298 -2.4392 -0.9641
 7721SOL     OW34621   3.154   2.423  15.979 -0.3537 -0.5134  0.3926
 7721SOL    HW134622   3.244   2.393  15.967 -0.2787 -0.9063  1.8964
 7721SOL    HW234623   3.146   2.437  16.074  1.1404  1.1541  0.2758
 7722SOL     OW34624   2.638   3.849   4.758  0.2972 -0.2866  0.5404
 7722SOL    HW134625   2.646   3.755   4.771 -1.9347 -0.5934 -0.2294
 7722SOL    HW234626   2.727   3.868   4.731  0.6109 -2.9977 -0.2345
 7723SOL     OW34627   1.877   2.535   7.967  0.1866  0.0246  0.4181
 7723SOL    HW134628   1.905   2.522   8.058  1.0815  2.3963  0.4731
 7723SOL    HW234629   1.957   2.511   7.921 -1.6013 -1.9919 -1.6922
 7724SOL     OW34630   0.736   4.057   4.212 -0.0921  0.6342 -0.3104
 7724SOL    HW134631   0.827   4.079   4.192  0.0576  1.3636  1.1520
 7724SOL    HW234632   0.694   4.143   4.222 -0.6362  0.1620  1.4745
 7725SOL     OW34633   0.236   1.550   7.133  0.1951 -0.1130 -0.4134
 7725SOL    HW134634   0.202   1.600   7.059  2.1478  3.1040  0.8415
 7725SOL    HW234635   0.209   1.600   7.210  1.3184  0.9731 -0.7282
 7726SOL     OW34636   0.384   3.944   2.385  0.2661  0.1048 -0.0518
 7726SOL    HW134637   0.405   4.001   2.458 -0.2346  0.2759 -0.0389
 7726SOL    HW234638   0.455   3.964   2.324  1.7201 -1.0050  1.2763
 7727SOL     OW34639   2.808   2.082  13.072 -0.3867  0.1345  0.5395
 7727SOL    HW134640   2.900   2.079  13.098  0.5152  1.5949 -2.4680
 7727SOL    HW234641   2.765   2.040  13.146 -2.4293  1.6499  0.2118
 7728SOL     OW34642   1.238   3.365   6.873 -0.1387 -0.3234  0.0389
 7728SOL    HW134643   1.159   3.390   6.824  0.5464 -0.3398 -1.0784
 7728SOL    HW234644   1.229   3.270   6.879  1.2623 -0.4922 -0.4854
 7729SOL     OW34645   2.673   3.235   0.086 -0.1500 -0.4562  0.1622
 7729SOL    HW134646   2.600   3.221   0.147 -0.6591 -0.7310 -0.5004
 7729SOL    HW234647   2.725   3.157   0.106  0.4888 -0.0646  0.0045
 7730SOL     OW34648   0.698   0.585   2.111  0.0610  0.4452 -0.4956
 7730SOL    HW134649   0.739   0.656   2.161 -0.4095  1.2737 -1.2796
 7730SOL    HW234650   0.780   0.537   2.100 -0.2728  0.1423 -1.6649
 7731SOL     OW34651   2.451   1.323   7.651  0.3146 -0.7175 -0.5564
 7731SOL    HW134652   2.443   1.417   7.636 -0.4189 -0.7059 -0.0973
 7731SOL    HW234653   2.514   1.318   7.724  1.2030 -1.7700 -1.3880
 7732SOL     OW34654   4.063   0.321   4.200 -0.6106  0.5003 -0.2145
 7732SOL    HW134655   4.085   0.237   4.158 -1.0521 -0.5888  1.7535
 7732SOL    HW234656   4.037   0.290   4.287 -0.3053  0.3981 -0.1586
 7733SOL     OW34657   3.327   1.865   0.986 -0.1557  0.5231  0.4834
 7733SOL    HW134658   3.258   1.824   1.038 -0.3485 -0.5065 -0.5913
 7733SOL    HW234659   3.405   1.809   0.994 -1.0297 -0.6292  0.8550
 7734SOL     OW34660   1.355   3.556   6.639  0.6423 -0.2391  0.0449
 7734SOL    HW134661   1.266   3.587   6.656  0.2888  1.2874 -4.4948
 7734SOL    HW234662   1.351   3.489   6.707  0.0041  0.5864  0.8106
 7735SOL     OW34663   3.032   2.577   3.260 -0.1701 -0.1425 -0.2892
 7735SOL    HW134664   3.025   2.643   3.192 -1.2627 -1.4862 -1.4897
 7735SOL    HW234665   3.127   2.590   3.270 -0.2792 -0.7512  1.6182
 7736SOL     OW34666   2.529   1.560   3.121  0.7089  0.1361  0.3396
 7736SOL    HW134667   2.547   1.653   3.132 -0.3664  0.2574  1.1235
 7736SOL    HW234668   2.558   1.566   3.030  0.8603  3.1846  0.5748
 7737SOL     OW34669   2.896   0.117   9.859  0.2394 -0.0007  1.1670
 7737SOL    HW134670   2.928   0.101   9.948  1.1391 -0.8467  0.6935
 7737SOL    HW234671   2.903   0.028   9.825  0.3320  0.2430  0.5436
 7738SOL     OW34672   2.916   4.503   2.154  0.0864 -0.3902  0.2577
 7738SOL    HW134673   2.911   4.569   2.223 -0.8846 -0.1781 -0.0206
 7738SOL    HW234674   2.940   4.568   2.088 -1.4658 -0.1213 -0.0373
 7739SOL     OW34675   2.665   2.970   8.205 -0.1853  0.0156  0.1796
 7739SOL    HW134676   2.757   2.955   8.181 -0.5347 -1.2785 -0.3888
 7739SOL    HW234677   2.671   2.959   8.300  2.6844  0.2464  0.0164
 7740SOL     OW34678   3.200   1.833   2.983  0.0326 -0.3676  0.7044
 7740SOL    HW134679   3.235   1.744   2.984  1.0946  0.0522  0.8200
 7740SOL    HW234680   3.131   1.824   2.918  1.7905 -2.7211 -0.7778
 7741SOL     OW34681   3.421   2.597   2.468 -0.4319  0.0677  0.2711
 7741SOL    HW134682   3.473   2.518   2.456 -1.2282 -0.6236  1.4064
 7741SOL    HW234683   3.387   2.622   2.382 -1.0154 -2.3486 -0.2082
 7742SOL     OW34684   3.030   4.622   1.957  0.2152 -0.4190 -0.7755
 7742SOL    HW134685   3.013   4.587   1.869 -0.0179  0.8726 -1.2317
 7742SOL    HW234686   3.125   4.627   1.962 -0.0117  0.7094  2.3022
 7743SOL     OW34687   1.841   3.948  14.800  0.4420  0.0155  0.2950
 7743SOL    HW134688   1.847   3.886  14.727 -0.3561  0.1594  0.1095
 7743SOL    HW234689   1.912   4.007  14.775  0.7076 -0.2887  0.3308
 7744SOL     OW34690   3.608   1.719  12.658 -0.3210  0.5451  0.3715
 7744SOL    HW134691   3.604   1.637  12.708  0.4380  1.4230  1.8675
 7744SOL    HW234692   3.523   1.715  12.615 -0.8844 -0.1916  1.5735
 7745SOL     OW34693   4.457   0.495   3.809 -0.2715 -0.5265 -0.6363
 7745SOL    HW134694   4.446   0.522   3.718  0.1950  1.2692 -0.1534
 7745SOL    HW234695   4.521   0.425   3.796  0.0204 -0.2698 -0.5726
 7746SOL     OW34696   1.871   3.352   5.174  0.5883  0.1669 -0.3324
 7746SOL    HW134697   1.873   3.427   5.233  2.4023 -0.2925  0.1974
 7746SOL    HW234698   1.818   3.295   5.229  0.3507  0.6779 -0.0363
 7747SOL     OW34699   2.477   3.010   9.889 -0.3908  0.2959  0.5675
 7747SOL    HW134700   2.462   3.032   9.797 -1.0333  0.7427  0.7752
 7747SOL    HW234701   2.556   3.058   9.911  0.1221  0.1966 -1.0789
 7748SOL     OW34702   1.601   4.316   5.098  0.0551  0.0292 -0.5759
 7748SOL    HW134703   1.642   4.231   5.114  0.7056  0.1468 -1.6032
 7748SOL    HW234704   1.680   4.368   5.082 -0.2506  0.1212 -1.7882
 7749SOL     OW34705   2.540   1.849   0.432 -0.7759  0.9104  0.4509
 7749SOL    HW134706   2.553   1.895   0.515 -2.5555 -0.3390  1.4130
 7749SOL    HW234707   2.447   1.868   0.417 -1.0891  0.7884  2.2774
 7750SOL     OW34708   2.953   2.148   0.833 -0.2709  0.3191 -0.0368
 7750SOL    HW134709   2.870   2.197   0.841  0.1439  0.9468  0.4218
 7750SOL    HW234710   2.991   2.181   0.752 -2.1187  0.5236 -0.8297
 7751SOL     OW34711   0.671   4.654  14.005  0.2161 -0.4389  0.2586
 7751SOL    HW134712   0.726   4.603  13.945 -0.2274 -0.8166  0.1702
 7751SOL    HW234713   0.686   0.015  13.971  1.3300 -1.5969 -2.2494
 7752SOL     OW34714   0.301   3.934   5.780  0.2841 -0.0270  0.2331
 7752SOL    HW134715   0.382   3.971   5.745 -0.1796  1.3060  0.5948
 7752SOL    HW234716   0.317   3.941   5.874  0.5257 -1.3281  0.2913
 7753SOL     OW34717   0.705   3.964   7.889 -0.4386 -0.2238 -0.3092
 7753SOL    HW134718   0.790   3.996   7.921  0.7202 -0.9289 -2.7170
 7753SOL    HW234719   0.648   4.026   7.934  0.3779 -0.1717  0.6540
 7754SOL     OW34720   4.075   2.987   2.587 -0.3584 -0.2028  0.3595
 7754SOL    HW134721   4.154   3.016   2.541  0.7525 -2.2001  1.0024
 7754SOL    HW234722   4.069   2.895   2.562 -1.8262  0.6224 -2.3455
 7755SOL     OW34723   2.043   0.676   1.572 -0.1304 -0.6018 -0.6403
 7755SOL    HW134724   2.088   0.693   1.656  0.6192 -0.1271 -1.1360
 7755SOL    HW234725   2.055   0.762   1.532  0.4666 -0.9237 -1.1608
 7756SOL     OW34726   3.057   2.735  13.307  0.2230 -0.0031 -0.1714
 7756SOL    HW134727   3.088   2.765  13.393 -1.1980  2.3325 -0.4811
 7756SOL    HW234728   3.031   2.645  13.328  0.9045  0.3168  2.0879
 7757SOL     OW34729   2.236   4.449   4.310 -1.0211  0.2070 -0.1712
 7757SOL    HW134730   2.182   4.380   4.271 -0.7931 -0.1476  0.1429
 7757SOL    HW234731   2.207   4.521   4.254 -2.1996 -0.0198  0.1614
 7758SOL     OW34732   1.828   0.847   5.733  0.3414  0.4282  0.0570
 7758SOL    HW134733   1.809   0.831   5.825 -2.0653  1.8429 -0.2211
 7758SOL    HW234734   1.892   0.919   5.737  2.2286 -1.3117  1.0150
 7759SOL     OW34735   3.783   4.325   6.428  0.0224  0.7218 -0.0478
 7759SOL    HW134736   3.811   4.362   6.512  0.1118  0.7943 -0.1095
 7759SOL    HW234737   3.830   4.242   6.434 -2.3357 -0.8090 -2.8289
 7760SOL     OW34738   2.464   4.587   6.973  0.3455  0.2204  0.0525
 7760SOL    HW134739   2.489   4.672   7.008 -0.4094  0.8473 -0.9306
 7760SOL    HW234740   2.522   4.541   7.034  0.5914  0.9718  0.3737
 7761SOL     OW34741   0.229   0.532   6.152 -0.4993 -0.7124  0.7547
 7761SOL    HW134742   0.273   0.586   6.218 -0.8685 -0.6955  0.9861
 7761SOL    HW234743   0.166   0.496   6.214  1.0801 -0.4834  2.4942
 7762SOL     OW34744   0.701   1.017   6.047 -0.5187  0.3553 -0.1866
 7762SOL    HW134745   0.693   1.088   5.983 -1.0758  1.1246  0.7299
 7762SOL    HW234746   0.782   1.042   6.091  0.3383  2.0326 -2.7270
 7763SOL     OW34747   1.123   4.143   0.329 -0.3558  0.0500  0.5566
 7763SOL    HW134748   1.148   4.051   0.323  1.6307  0.6188  0.2306
 7763SOL    HW234749   1.175   4.170   0.405  1.1611  1.5660 -1.0334
 7764SOL     OW34750   1.147   0.898  14.800  0.1122 -0.2607 -0.0168
 7764SOL    HW134751   1.118   0.810  14.780 -0.2618  0.0048 -0.6201
 7764SOL    HW234752   1.182   0.924  14.715  1.7480 -0.2527  0.6547
 7765SOL     OW34753   0.260   4.715   4.140 -0.2243 -0.0482 -0.3615
 7765SOL    HW134754   0.210   4.647   4.097 -0.4048 -0.8149  1.0687
 7765SOL    HW234755   0.194   0.057   4.137  0.1665  0.1081 -5.7571
 7766SOL     OW34756   1.394   2.554  16.394 -0.2584 -0.3241  0.0568
 7766SOL    HW134757   1.319   2.571  16.451  0.1224 -1.2066  0.8292
 7766SOL    HW234758   1.403   2.643  16.360 -2.3398 -0.7464 -1.5376
 7767SOL     OW34759   0.084   0.978   5.007  0.3056  0.5510  0.0951
 7767SOL    HW134760   0.019   1.018   4.950 -1.2756 -0.5495  1.1193
 7767SOL    HW234761   0.144   0.953   4.936  0.2142  0.2077  0.1394
 7768SOL     OW34762   4.635   0.399  11.760 -0.0228 -0.1959  0.0472
 7768SOL    HW134763   4.570   0.331  11.740 -0.1643  0.3273 -1.2877
 7768SOL    HW234764   4.637   0.377  11.853  3.2908 -1.4774 -0.3407
 7769SOL     OW34765   0.605   1.892   1.043 -0.5684 -0.2037  0.4444
 7769SOL    HW134766   0.517   1.856   1.038 -0.2019 -0.9726 -0.3987
 7769SOL    HW234767   0.643   1.850   0.966  0.0227 -1.9276  1.6706
 7770SOL     OW34768   4.287   1.225   8.171 -0.4979 -0.0708 -0.2628
 7770SOL    HW134769   4.308   1.318   8.184  1.7775 -0.5620 -0.4010
 7770SOL    HW234770   4.273   1.208   8.264 -1.7367  0.3774 -0.3697
 7771SOL     OW34771   3.061   3.758   6.266 -0.0412 -0.0394  0.2072
 7771SOL    HW134772   3.101   3.743   6.180 -1.2393 -0.5727 -0.2590
 7771SOL    HW234773   3.092   3.844   6.294  0.7389 -0.5695  0.9842
 7772SOL     OW34774   1.791   2.248   8.863 -0.0404  0.3031  0.5225
 7772SOL    HW134775   1.833   2.178   8.813  0.1690  0.5164  0.4047
 7772SOL    HW234776   1.863   2.310   8.870 -0.9910  1.7174 -2.2948
 7773SOL     OW34777   3.537   3.004  15.644  0.0579  0.2151  0.1415
 7773SOL    HW134778   3.599   2.946  15.600 -0.7525  0.8263 -1.8519
 7773SOL    HW234779   3.501   3.062  15.576 -2.0052 -1.2701 -0.0256
 7774SOL     OW34780   3.793   3.853   7.710 -0.0604  0.2767  0.2535
 7774SOL    HW134781   3.867   3.874   7.767 -0.7446  1.2285  0.7922
 7774SOL    HW234782   3.734   3.928   7.723  0.0627  0.2113  1.1607
 7775SOL     OW34783   3.507   0.293   2.107  0.1657  0.3023 -0.0514
 7775SOL    HW134784   3.457   0.273   2.027  0.4000  0.2974 -0.1989
 7775SOL    HW234785   3.574   0.225   2.097  0.1197  0.3608 -0.8021
 7776SOL     OW34786   1.365   4.428   3.518  0.3157  0.1576 -0.2241
 7776SOL    HW134787   1.292   4.411   3.577 -1.6060  0.8769 -2.3865
 7776SOL    HW234788   1.360   4.524   3.511 -0.6054  0.1916  0.8750
 7777SOL     OW34789   0.657   2.202   2.453 -0.3301 -0.1952  0.7459
 7777SOL    HW134790   0.691   2.208   2.542 -0.5361 -2.9945  1.0320
 7777SOL    HW234791   0.738   2.205   2.402 -0.5530 -0.6055  0.3704
 7778SOL     OW34792   2.067   4.263   4.205 -0.2461 -0.0687 -0.2306
 7778SOL    HW134793   2.092   4.197   4.140 -2.8912 -0.5193 -0.7709
 7778SOL    HW234794   1.973   4.260   4.219 -0.0089  0.0254  1.3377
 7779SOL     OW34795   4.558   1.501   3.626  0.3619  0.1126  0.8089
 7779SOL    HW134796   4.584   1.566   3.691 -1.6848  3.6744 -1.9780
 7779SOL    HW234797   4.574   1.545   3.543 -0.3369 -2.0434 -0.4849
 7780SOL     OW34798   1.392   0.920  14.954  0.0951 -0.0156  0.0869
 7780SOL    HW134799   1.412   0.989  14.891  1.2684 -0.0571  0.4245
 7780SOL    HW234800   1.302   0.902  14.927  0.9945  0.1395 -3.0170
 7781SOL     OW34801   3.954   3.037   6.113  0.2305 -0.1558  0.2831
 7781SOL    HW134802   3.982   3.123   6.080 -0.4163 -0.6673 -1.5497
 7781SOL    HW234803   4.012   3.018   6.186 -1.6182  1.2825  2.1589
 7782SOL     OW34804   2.400   1.714   2.111  0.0855  0.1647 -0.5825
 7782SOL    HW134805   2.334   1.660   2.155  1.2093 -1.4630 -0.8911
 7782SOL    HW234806   2.478   1.689   2.160 -0.5312 -0.7464 -0.0725
 7783SOL     OW34807   2.267   1.665   6.010  0.2222  0.8276 -0.1360
 7783SOL    HW134808   2.296   1.584   6.052 -0.8100  0.5396  0.0239
 7783SOL    HW234809   2.173   1.665   6.025  0.4084  0.5981  0.9793
 7784SOL     OW34810   2.700   4.579  10.561  0.3359 -0.5550  0.2512
 7784SOL    HW134811   2.626   4.640  10.550  1.9226  0.9870 -1.9175
 7784SOL    HW234812   2.716   4.608  10.650 -1.4902 -2.7188  1.2982
 7785SOL     OW34813   4.546   0.359   8.355 -0.5298  0.3487  0.1963
 7785SOL    HW134814   4.596   0.284   8.386 -0.1742  0.5061 -0.0005
 7785SOL    HW234815   4.531   0.412   8.434  0.4999 -1.6253  1.7078
 7786SOL     OW34816   4.564   4.117  11.412 -0.2655  0.3290 -0.1861
 7786SOL    HW134817   4.511   4.129  11.490 -1.6794  0.4635 -1.1698
 7786SOL    HW234818   4.568   4.023  11.396 -0.5982 -0.2306  3.0194
 7787SOL     OW34819   1.807   0.540   5.652 -0.1973 -0.0599  0.4071
 7787SOL    HW134820   1.789   0.631   5.677 -0.9073 -0.4646  1.3663
 7787SOL    HW234821   1.745   0.530   5.580  2.1550  1.9019 -1.9049
 7788SOL     OW34822   4.363   0.136   6.668  0.0574 -0.4045  0.4528
 7788SOL    HW134823   4.403   0.223   6.668  2.1843 -1.3853 -1.3085
 7788SOL    HW234824   4.440   0.084   6.647  0.2538  1.0842 -2.4358
 7789SOL     OW34825   0.552   0.879  15.254  0.0058  0.0130 -0.5718
 7789SOL    HW134826   0.518   0.790  15.268  1.4091 -0.3991  0.1904
 7789SOL    HW234827   0.619   0.888  15.322  0.8287  0.3860 -1.4376
 7790SOL     OW34828   0.850   4.008   5.671  0.3293 -0.6208  0.7072
 7790SOL    HW134829   0.915   3.938   5.659  2.6910  1.5077  1.0742
 7790SOL    HW234830   0.843   4.006   5.767  0.1370 -2.0386  0.6628
 7791SOL     OW34831   0.104   1.823   0.340 -0.7199  0.3647 -1.0422
 7791SOL    HW134832   0.196   1.827   0.312 -0.4836 -0.1581 -0.3460
 7791SOL    HW234833   0.118   1.776   0.422  2.7064  2.2031 -0.5763
 7792SOL     OW34834   4.467   0.717  10.373  0.5978 -0.1073 -0.1122
 7792SOL    HW134835   4.444   0.764  10.452 -2.3397  0.8208 -1.5255
 7792SOL    HW234836   4.389   0.731  10.320  1.5064  0.4371 -1.3245
 7793SOL     OW34837   3.295   1.812  12.021  0.0703 -0.1632  0.1469
 7793SOL    HW134838   3.243   1.769  11.953  1.3613 -1.7646  0.1751
 7793SOL    HW234839   3.297   1.752  12.095 -1.9571 -0.8560 -0.3657
 7794SOL     OW34840   3.893   1.479   0.079 -0.3498 -0.6978 -0.3418
 7794SOL    HW134841   3.989   1.479   0.080 -0.3516 -1.5061  0.9346
 7794SOL    HW234842   3.882   1.386   0.059 -1.9624 -0.4820 -0.4595
 7795SOL     OW34843   1.534   1.626   7.417 -0.1315 -0.1602  0.1640
 7795SOL    HW134844   1.606   1.684   7.442  0.4066 -0.5804 -0.4001
 7795SOL    HW234845   1.475   1.622   7.492  0.9453  1.8191  1.1107
 7796SOL     OW34846   4.235   3.219   9.554  0.2719 -0.0867 -0.3230
 7796SOL    HW134847   4.262   3.159   9.623 -0.3406  0.3009  0.2481
 7796SOL    HW234848   4.203   3.159   9.487 -0.7779  0.2275 -0.1117
 7797SOL     OW34849   3.997   1.871  10.211  0.3539 -0.0790 -0.0360
 7797SOL    HW134850   3.979   1.778  10.197  1.8193 -0.4025  0.1661
 7797SOL    HW234851   4.003   1.895  10.118  0.0717 -0.7963 -0.2404
 7798SOL     OW34852   0.591   3.944   4.444  0.0861  0.4195  0.5236
 7798SOL    HW134853   0.676   3.902   4.459 -0.4553 -1.0086 -0.5276
 7798SOL    HW234854   0.611   3.993   4.364  0.1536  1.4765  1.1825
 7799SOL     OW34855   1.519   2.813  12.037 -0.5184  0.0280 -0.1250
 7799SOL    HW134856   1.602   2.855  12.060  0.5227 -0.9224 -2.1669
 7799SOL    HW234857   1.526   2.740  12.099  0.5078 -0.3440 -0.6873
 7800SOL     OW34858   3.867   3.274  12.325  0.5301  0.2652 -0.1263
 7800SOL    HW134859   3.949   3.228  12.345  0.8078  1.4583  1.5224
 7800SOL    HW234860   3.857   3.318  12.409  0.6139  1.7632 -0.9168
 7801SOL     OW34861   3.376   0.142  13.535  0.2191 -0.4902 -0.6239
 7801SOL    HW134862   3.370   0.047  13.521  1.6182 -0.6625 -0.0599
 7801SOL    HW234863   3.341   0.172  13.451  0.8061  0.2774 -0.5905
 7802SOL     OW34864   2.889   3.971   3.024  0.0589 -0.3234 -0.1064
 7802SOL    HW134865   2.888   4.035   3.095 -2.8088 -0.5832  0.1088
 7802SOL    HW234866   2.866   4.032   2.954  1.0486 -2.4626 -2.2835
 7803SOL     OW34867   0.602   4.454  17.450 -0.3491  0.5737 -0.1841
 7803SOL    HW134868   0.535   4.399  17.410 -0.1490  0.6919 -0.6804
 7803SOL    HW234869   0.549   4.534  17.463  0.6385  1.3045 -0.6374
 7804SOL     OW34870   1.568   0.887   3.645  0.2138  0.8512  0.3028
 7804SOL    HW134871   1.605   0.822   3.705  0.0966 -0.7623 -1.3953
 7804SOL    HW234872   1.547   0.949   3.715 -0.7632  1.0863 -0.2025
 7805SOL     OW34873   3.244   0.075   3.466  0.6473  0.2610 -0.0431
 7805SOL    HW134874   3.270   0.109   3.552 -0.3902 -0.0963  0.4104
 7805SOL    HW234875   3.284   4.715   3.477  0.4739  0.1632 -0.1799
 7806SOL     OW34876   0.976   2.537   6.159 -0.2644  0.4092  0.0246
 7806SOL    HW134877   1.057   2.517   6.112 -0.9242 -0.8858 -0.5646
 7806SOL    HW234878   0.990   2.465   6.221 -2.1823 -0.8411 -1.0163
 7807SOL     OW34879   4.035   3.130   3.251  0.8937  0.5497 -0.3949
 7807SOL    HW134880   4.050   3.036   3.252 -1.4794  0.1484 -1.5181
 7807SOL    HW234881   4.039   3.147   3.345  0.2277  1.4661 -0.5241
 7808SOL     OW34882   1.230   0.013   1.597 -0.0617 -0.1945 -0.0490
 7808SOL    HW134883   1.269   4.652   1.591 -2.8108 -1.1638 -3.9087
 7808SOL    HW234884   1.173   0.017   1.520 -1.2873  2.6822  1.0048
 7809SOL     OW34885   1.119   0.396   1.484 -0.5446  0.1987 -0.7022
 7809SOL    HW134886   1.170   0.466   1.524 -1.3587  0.3349  0.1070
 7809SOL    HW234887   1.140   0.323   1.543  1.5981  1.0518 -0.4152
 7810SOL     OW34888   4.496   4.579   4.902  0.4636  0.1965 -0.6327
 7810SOL    HW134889   4.562   4.600   4.835  0.8348  1.2065  0.0564
 7810SOL    HW234890   4.548   4.600   4.980  0.7996 -2.2279 -0.1954
 7811SOL     OW34891   2.592   4.019   4.306 -0.0273 -0.2652  0.1470
 7811SOL    HW134892   2.575   4.044   4.397 -0.3063  1.0542 -0.2669
 7811SOL    HW234893   2.501   4.024   4.274  0.6558  2.7278 -1.3834
 7812SOL     OW34894   3.311   3.977  16.764 -0.1337 -0.6737 -0.8007
 7812SOL    HW134895   3.369   3.986  16.840 -1.9197  0.9642  0.3837
 7812SOL    HW234896   3.375   3.944  16.702 -0.3728  0.4294 -1.6366
 7813SOL     OW34897   0.212   1.220   6.974  0.2921  0.1307 -0.7498
 7813SOL    HW134898   0.265   1.146   7.004  1.0290  0.6753 -0.7387
 7813SOL    HW234899   0.120   1.193   6.972  0.7764 -1.7182  0.7983
 7814SOL     OW34900   3.669   3.486   5.907  0.5769  0.3069  0.2844
 7814SOL    HW134901   3.685   3.392   5.916  2.2418  0.5070 -0.7021
 7814SOL    HW234902   3.637   3.492   5.816  1.3671 -0.2575 -0.0273
 7815SOL     OW34903   1.092   2.268   7.803  0.1162 -0.1290  0.3867
 7815SOL    HW134904   1.070   2.205   7.871  1.7326  0.2358  1.2540
 7815SOL    HW234905   1.178   2.297   7.834  1.0955 -0.4468 -2.0985
 7816SOL     OW34906   1.758   3.787  15.375 -0.1977  0.2962 -0.3573
 7816SOL    HW134907   1.783   3.880  15.379 -0.0211  0.0773  3.2500
 7816SOL    HW234908   1.803   3.760  15.295  0.2467 -0.2686  0.0859
 7817SOL     OW34909   3.262   2.462  12.232 -0.3287  0.0865  0.1516
 7817SOL    HW134910   3.342   2.513  12.223 -0.6033  0.6059  0.6353
 7817SOL    HW234911   3.215   2.511  12.300 -2.3332 -0.1922 -1.0268
 7818SOL     OW34912   0.515   4.520  10.262 -0.1693  0.1192  0.0636
 7818SOL    HW134913   0.472   4.446  10.307 -1.2427  0.9169  0.3399
 7818SOL    HW234914   0.606   4.489  10.262 -0.7611 -1.6425 -0.0931
 7819SOL     OW34915   1.452   1.242  10.657 -0.1530  0.4877 -0.6102
 7819SOL    HW134916   1.383   1.185  10.624 -1.4845  1.7841 -0.0751
 7819SOL    HW234917   1.411   1.321  10.621  0.5395  1.4409  0.7340
 7820SOL     OW34918   0.963   0.234  12.071 -0.5961 -0.2334  0.0610
 7820SOL    HW134919   0.929   0.269  11.988 -0.1699  1.2097  0.5060
 7820SOL    HW234920   1.009   0.309  12.109 -2.7917  1.6334 -0.9734
 7821SOL     OW34921   3.923   0.652  14.425  0.5365  0.1705  0.4709
 7821SOL    HW134922   3.868   0.730  14.415 -1.6543 -1.6362 -1.5968
 7821SOL    HW234923   4.012   0.687  14.421  0.4760  0.3851  1.0184
 7822SOL     OW34924   1.738   1.000  15.155 -0.0430 -0.6600  0.0772
 7822SOL    HW134925   1.676   1.072  15.146  4.1329  2.8811 -0.5967
 7822SOL    HW234926   1.768   0.990  15.065 -0.8589 -2.0829 -0.0298
 7823SOL     OW34927   1.641   0.628   2.698 -0.5636 -0.3720 -0.0018
 7823SOL    HW134928   1.707   0.566   2.667  1.1522  1.2693  0.3855
 7823SOL    HW234929   1.640   0.618   2.793  1.1793 -0.7703 -0.0354
 7824SOL     OW34930   3.049   3.381   2.797  0.5231 -0.5905 -0.0144
 7824SOL    HW134931   3.016   3.358   2.883 -0.7122  0.3017 -0.2531
 7824SOL    HW234932   3.140   3.405   2.817  0.1279  0.9485 -0.0598
 7825SOL     OW34933   3.482   2.545   8.631  0.1435 -0.0529  0.5034
 7825SOL    HW134934   3.523   2.556   8.545 -1.4204 -3.8078 -0.7097
 7825SOL    HW234935   3.462   2.452   8.628 -1.6780  0.4138 -1.4683
 7826SOL     OW34936   0.844   4.223   7.574 -0.2295 -0.3419  0.1341
 7826SOL    HW134937   0.935   4.219   7.545 -0.3532  0.7464 -0.4227
 7826SOL    HW234938   0.862   4.156   7.640 -0.4010 -0.4989  0.0211
 7827SOL     OW34939   1.814   4.104   1.795  0.3831 -0.3653 -0.2163
 7827SOL    HW134940   1.863   4.050   1.733 -0.3628  0.8676 -1.8801
 7827SOL    HW234941   1.850   4.079   1.880 -0.5533  1.0962  0.5991
 7828SOL     OW34942   1.285   0.109   2.238 -0.2223  0.4484 -0.6689
 7828SOL    HW134943   1.337   0.170   2.186  0.4301 -0.5188 -1.1459
 7828SOL    HW234944   1.352   0.041   2.243 -1.2460 -0.5756 -0.9305
 7829SOL     OW34945   0.763   4.102   1.724 -0.3897  0.0180  0.2069
 7829SOL    HW134946   0.719   4.152   1.655 -2.8770 -1.8669  0.4622
 7829SOL    HW234947   0.804   4.177   1.768  0.0651 -1.2056  1.8442
 7830SOL     OW34948   0.651   0.667  13.914  0.0849  0.3107 -0.0972
 7830SOL    HW134949   0.724   0.705  13.963 -0.4256 -1.7208  2.2212
 7830SOL    HW234950   0.699   0.636  13.837 -0.7126 -0.8105 -0.1290
 7831SOL     OW34951   2.648   3.510   2.902  0.0719 -0.1722  0.5350
 7831SOL    HW134952   2.671   3.427   2.859 -0.1743 -1.7938  3.5037
 7831SOL    HW234953   2.736   3.545   2.915  0.9701 -2.0942 -0.3242
 7832SOL     OW34954   3.096   1.689   2.135  0.4973 -0.2917 -0.1069
 7832SOL    HW134955   3.042   1.662   2.061 -0.3477 -1.9525  1.1108
 7832SOL    HW234956   3.027   1.670   2.200  0.8825  2.6563  1.1819
 7833SOL     OW34957   1.168   3.817  15.043 -0.6081  0.3761  0.2032
 7833SOL    HW134958   1.244   3.866  15.074  0.2714 -1.4642  0.9655
 7833SOL    HW234959   1.110   3.826  15.118 -2.0524  1.8587 -1.1008
 7834SOL     OW34960   4.118   3.812  10.000 -0.0423 -0.1047 -0.3544
 7834SOL    HW134961   4.084   3.861   9.925  0.7162  1.1305  0.1065
 7834SOL    HW234962   4.061   3.737  10.015 -0.1658  0.1691  0.5552
 7835SOL     OW34963   2.283   2.075   4.535 -0.7842 -0.3305  0.0930
 7835SOL    HW134964   2.356   2.046   4.590 -0.8541  1.2759  1.0346
 7835SOL    HW234965   2.326   2.068   4.450 -0.2001 -0.0187  0.3584
 7836SOL     OW34966   3.511   0.787   2.605  0.0805  0.0236  0.3063
 7836SOL    HW134967   3.559   0.774   2.687  0.6140 -1.1736 -0.2009
 7836SOL    HW234968   3.566   0.746   2.538 -0.1650  1.0208 -0.5040
 7837SOL     OW34969   0.197   4.403  10.502  0.4007 -0.4465 -0.4044
 7837SOL    HW134970   0.109   4.405  10.540  1.0219 -1.0448  1.0820
 7837SOL    HW234971   0.190   4.482  10.448  0.0314 -1.0911 -1.2954
 7838SOL     OW34972   4.437   0.360   6.179  0.1779  0.3159  0.2813
 7838SOL    HW134973   4.446   0.453   6.198 -0.8117  0.9259 -2.1772
 7838SOL    HW234974   4.370   0.344   6.246  1.4390 -0.1996  1.4113
 7839SOL     OW34975   4.215   0.888   8.130 -0.5557 -0.3184 -0.3458
 7839SOL    HW134976   4.227   0.972   8.085 -0.0793 -1.4744 -2.4022
 7839SOL    HW234977   4.212   0.916   8.221 -0.7326 -2.0665  0.1854
 7840SOL     OW34978   2.090   1.066   3.263 -0.2464 -0.1877 -0.2942
 7840SOL    HW134979   2.180   1.098   3.251  0.3880 -2.0848 -0.5792
 7840SOL    HW234980   2.040   1.143   3.237 -2.2107 -0.5301  2.4392
 7841SOL     OW34981   3.773   1.044   4.826 -0.3208  0.0782  0.4613
 7841SOL    HW134982   3.707   1.079   4.885  0.0610 -0.0335  0.9539
 7841SOL    HW234983   3.790   0.954   4.854 -0.1844 -0.0674 -0.0930
 7842SOL     OW34984   3.438   3.628   5.174  0.0346 -0.0097 -0.0228
 7842SOL    HW134985   3.485   3.684   5.112 -2.5880 -0.7931 -2.7084
 7842SOL    HW234986   3.437   3.545   5.126  1.2373  0.4495 -0.8411
 7843SOL     OW34987   3.973   0.837   6.709 -0.2154  0.1233  0.4695
 7843SOL    HW134988   3.902   0.783   6.675  0.5198 -0.2307 -0.5058
 7843SOL    HW234989   4.006   0.780   6.778  1.4964  0.7364  0.1415
 7844SOL     OW34990   0.155   2.977   7.069 -0.1106 -0.2084  0.9163
 7844SOL    HW134991   0.216   3.050   7.082 -0.0598  0.1035 -1.1629
 7844SOL    HW234992   0.107   2.987   7.151 -0.0236 -0.2182  0.9689
 7845SOL     OW34993   1.772   1.046   4.134 -0.1873  0.6644  0.2532
 7845SOL    HW134994   1.809   1.106   4.199  0.2717  1.1914 -0.5031
 7845SOL    HW234995   1.689   1.025   4.177 -1.4818  0.6711 -2.2499
 7846SOL     OW34996   2.832   1.722   6.787 -0.2523  0.1603 -0.2369
 7846SOL    HW134997   2.772   1.770   6.843 -0.4368 -0.1490 -0.1663
 7846SOL    HW234998   2.799   1.632   6.793 -1.4606  0.6825  1.0251
 7847SOL     OW34999   1.419   4.556   8.274  0.2476 -0.1276 -0.2929
 7847SOL    HW135000   1.424   4.647   8.244  1.1198 -0.6239 -1.6376
 7847SOL    HW235001   1.390   4.502   8.201  3.8664 -0.0539 -1.7476
 7848SOL     OW35002   2.330   2.484   7.999  0.3628  0.3683  0.4370
 7848SOL    HW135003   2.386   2.462   7.925 -0.9713  0.3188 -0.5628
 7848SOL    HW235004   2.266   2.531   7.946 -2.0289 -2.0934  1.1735
 7849SOL     OW35005   0.445   1.495   8.188 -0.8053  0.5251 -0.1381
 7849SOL    HW135006   0.467   1.408   8.223  4.1364  0.8990 -2.2791
 7849SOL    HW235007   0.526   1.516   8.142 -1.4973 -0.0919 -1.6378
 7850SOL     OW35008   1.694   2.650   2.394  0.1567 -0.0890 -0.1447
 7850SOL    HW135009   1.686   2.709   2.319 -0.7522 -2.1244 -1.6127
 7850SOL    HW235010   1.706   2.713   2.466 -0.7948 -0.3478  0.2339
 7851SOL     OW35011   2.709   0.334   1.981 -0.2548  0.3132  0.4037
 7851SOL    HW135012   2.745   0.246   1.965  0.9379  0.8605  0.0889
 7851SOL    HW235013   2.640   0.320   2.045 -1.3886 -1.9255 -1.3184
 7852SOL     OW35014   2.258   3.025   2.148  0.1507 -0.5263 -0.3588
 7852SOL    HW135015   2.186   2.968   2.174 -0.2882  0.2730  0.1921
 7852SOL    HW235016   2.342   2.980   2.161  0.4755  0.1994  0.0960
 7853SOL     OW35017   2.821   3.089   3.536  0.4126  0.4106 -0.0717
 7853SOL    HW135018   2.831   3.089   3.441  1.0613 -0.8388 -0.0076
 7853SOL    HW235019   2.749   3.151   3.549  0.3189  0.3557 -0.3280
 7854SOL     OW35020   3.471   2.831   5.392  0.5099 -0.6905  0.9021
 7854SOL    HW135021   3.500   2.807   5.304  0.1037 -2.0099  1.1273
 7854SOL    HW235022   3.390   2.876   5.372  0.4042 -1.7187 -0.9697
 7855SOL     OW35023   4.182   1.138   6.979  0.7079 -0.0342  0.2393
 7855SOL    HW135024   4.107   1.097   7.023 -0.0051 -0.9718 -1.8386
 7855SOL    HW235025   4.155   1.228   6.960  0.2851  0.3369  2.6528
 7856SOL     OW35026   2.129   1.063   7.406 -0.1097 -0.1441 -0.0780
 7856SOL    HW135027   2.192   1.134   7.418  0.7722 -1.0648  0.6936
 7856SOL    HW235028   2.059   1.127   7.394  0.9868  1.5073  2.3246
 7857SOL     OW35029   0.615   2.601   2.275 -0.4610  0.1662 -0.5317
 7857SOL    HW135030   0.585   2.551   2.351 -1.1988 -0.6680 -1.3748
 7857SOL    HW235031   0.681   2.539   2.243 -0.9937  0.1132 -1.5272
 7858SOL     OW35032   1.048   1.067   4.813  0.0970 -0.1772 -1.1774
 7858SOL    HW135033   1.135   1.032   4.835 -0.6375 -2.0414 -1.2003
 7858SOL    HW235034   1.015   1.065   4.903 -0.0176 -0.3516 -1.2222
 7859SOL     OW35035   3.598   2.192   2.957 -0.4761 -0.0675  0.4730
 7859SOL    HW135036   3.550   2.275   2.946 -0.9776 -0.1323  2.0760
 7859SOL    HW235037   3.528   2.126   2.955  0.4881 -1.1821  3.4154
 7860SOL     OW35038   0.074   3.156   0.481 -0.0135 -0.3009 -0.6229
 7860SOL    HW135039   0.097   3.205   0.401  0.6803  0.0764 -0.1985
 7860SOL    HW235040   0.159   3.157   0.525  0.7547 -0.2147 -2.1160
 7861SOL     OW35041   0.968   2.914   2.207  0.0366  0.0729 -0.1829
 7861SOL    HW135042   1.051   2.939   2.247  0.0041  0.7933 -0.5685
 7861SOL    HW235043   0.990   2.909   2.114 -0.6041 -0.4952 -0.3068
 7862SOL     OW35044   0.759   2.132  14.900 -0.1784  0.5185  0.2421
 7862SOL    HW135045   0.776   2.083  14.980  0.6096  1.0121  0.3755
 7862SOL    HW235046   0.802   2.212  14.929 -0.9575  0.1224  2.5289
 7863SOL     OW35047   3.767   3.406  15.332 -0.4693 -0.3404 -0.7493
 7863SOL    HW135048   3.823   3.330  15.341 -0.8138 -0.2949  1.6302
 7863SOL    HW235049   3.700   3.390  15.398  0.2883 -0.7622 -0.0911
 7864SOL     OW35050   2.034   3.224   7.275  0.3629 -0.0965  0.4376
 7864SOL    HW135051   2.042   3.280   7.352  0.6296 -0.1476  0.4445
 7864SOL    HW235052   2.124   3.197   7.257  0.0707 -2.1539  1.9356
 7865SOL     OW35053   0.508   1.472   0.000 -0.2262  0.4057  0.0138
 7865SOL    HW135054   0.506   1.506  17.618  0.2891  0.0610 -0.1337
 7865SOL    HW235055   0.431   1.417   0.011 -0.5374  1.2640  2.1887
 7866SOL     OW35056   2.831   2.329   2.272  0.0647  0.1600 -0.1775
 7866SOL    HW135057   2.836   2.237   2.246  1.9694 -0.5069  2.5901
 7866SOL    HW235058   2.903   2.366   2.220  0.4974  1.8138  1.5937
 7867SOL     OW35059   1.950   1.960   3.589  0.1455  0.0917 -0.2394
 7867SOL    HW135060   1.958   2.009   3.507 -0.6709 -0.3498 -0.5801
 7867SOL    HW235061   2.001   1.882   3.567  1.5817  0.5002  1.6353
 7868SOL     OW35062   0.940   4.691   7.740 -0.1223  0.0577  0.2060
 7868SOL    HW135063   0.877   0.036   7.735  2.1587  2.1931  2.4218
 7868SOL    HW235064   0.902   4.620   7.689 -0.5369  1.3802 -1.3165
 7869SOL     OW35065   3.150   2.601   5.074 -0.1106  0.2867  0.4000
 7869SOL    HW135066   3.150   2.695   5.052  2.1008 -0.1654 -1.6086
 7869SOL    HW235067   3.240   2.582   5.047  0.6283  1.9003  1.6779
 7870SOL     OW35068   4.345   1.045   3.682 -0.0335  0.2052 -0.1486
 7870SOL    HW135069   4.413   1.070   3.744 -0.5080  0.7020  0.1668
 7870SOL    HW235070   4.361   1.123   3.627 -1.5544 -1.0809 -2.4139
 7871SOL     OW35071   3.059   2.612  12.371  0.4060  0.3016 -0.7387
 7871SOL    HW135072   3.020   2.648  12.291 -0.1582  0.2780 -0.4730
 7871SOL    HW235073   2.990   2.635  12.432  1.2038 -0.6766  0.5155
 7872SOL     OW35074   0.784   2.185   2.699  0.2908  0.2662  0.3078
 7872SOL    HW135075   0.758   2.223   2.783 -0.6175  0.1444  0.0724
 7872SOL    HW235076   0.750   2.096   2.707 -0.1015  0.3820 -0.1281
 7873SOL     OW35077   2.551   2.128  14.105  0.0321  0.2252 -0.4571
 7873SOL    HW135078   2.514   2.216  14.102 -0.1506  0.0914 -2.0774
 7873SOL    HW235079   2.541   2.099  14.196  1.3793 -0.6912 -0.6071
 7874SOL     OW35080   0.770   3.529   9.755 -0.0522  0.3671  0.1158
 7874SOL    HW135081   0.675   3.540   9.761 -0.0702  0.8450 -1.0193
 7874SOL    HW235082   0.787   3.448   9.803 -0.9144  1.1810  1.8036
 7875SOL     OW35083   3.817   0.356  10.927  0.2992 -0.4448  0.2960
 7875SOL    HW135084   3.844   0.440  10.964  1.7057 -0.3363 -0.9653
 7875SOL    HW235085   3.887   0.293  10.947 -0.7091 -1.9903 -1.0412
 7876SOL     OW35086   3.207   1.852   8.538  0.8911  0.1799  0.0655
 7876SOL    HW135087   3.232   1.782   8.598 -0.7986  2.0687  3.0008
 7876SOL    HW235088   3.294   1.890   8.524 -0.3989  2.9369 -0.4808
 7877SOL     OW35089   3.403   2.313   6.863 -0.6778 -0.3357  0.8337
 7877SOL    HW135090   3.415   2.226   6.902  0.4482 -0.3684  0.4166
 7877SOL    HW235091   3.472   2.365   6.904  0.2088 -1.8876  1.2855
 7878SOL     OW35092   2.862   3.490   3.554  0.6719  0.1944  0.0753
 7878SOL    HW135093   2.837   3.564   3.498  0.4379 -0.2980 -0.4638
 7878SOL    HW235094   2.951   3.519   3.572  0.5426  0.4614  0.2993
 7879SOL     OW35095   0.453   1.179   3.701  0.5228 -0.0466 -0.4663
 7879SOL    HW135096   0.408   1.173   3.785  0.7322  0.7154 -0.2995
 7879SOL    HW235097   0.436   1.090   3.672 -0.1538  0.5779 -2.0273
 7880SOL     OW35098   3.515   3.118   7.985  0.7895 -0.3389  0.4701
 7880SOL    HW135099   3.425   3.090   7.967  1.0599 -0.4594 -0.7551
 7880SOL    HW235100   3.501   3.210   7.960 -0.0753 -0.3740  0.8592
 7881SOL     OW35101   4.238   0.667   7.199  0.1009  0.2535 -0.0566
 7881SOL    HW135102   4.302   0.603   7.228  0.3053  0.7767  0.6664
 7881SOL    HW235103   4.167   0.612   7.230 -0.4067  0.5678 -0.6580
 7882SOL     OW35104   3.839   0.594   8.896 -0.7305  0.0797 -0.1313
 7882SOL    HW135105   3.823   0.536   8.821 -1.1835 -0.4935  0.4127
 7882SOL    HW235106   3.843   0.679   8.851 -0.7833  0.4554  0.5857
 7883SOL     OW35107   0.376   2.560  17.387 -0.3900  0.4146 -0.5053
 7883SOL    HW135108   0.402   2.597  17.302 -3.7167  2.7885 -0.4903
 7883SOL    HW235109   0.345   2.474  17.358  0.3000 -0.3417  1.0459
 7884SOL     OW35110   1.018   2.969  14.613 -0.0904  0.6480  0.1146
 7884SOL    HW135111   1.046   2.993  14.701  0.6769 -1.5139  0.4664
 7884SOL    HW235112   1.094   2.994  14.561 -1.0552  3.1388 -0.0644
 7885SOL     OW35113   1.669   1.996  16.107 -0.1343  0.1216 -0.2353
 7885SOL    HW135114   1.728   2.065  16.077  0.7479 -0.4952  0.0662
 7885SOL    HW235115   1.584   2.038  16.120 -0.2326 -0.0489 -0.3242
 7886SOL     OW35116   0.668   0.468  14.474  1.2905  0.0977  0.2482
 7886SOL    HW135117   0.692   0.381  14.444  0.5239  0.5506 -1.7274
 7886SOL    HW235118   0.750   0.513  14.492  1.0873  0.7166 -0.3459
 7887SOL     OW35119   2.052   1.246   2.116  0.1347  0.3100 -0.3637
 7887SOL    HW135120   2.009   1.319   2.071 -0.4016  0.0681 -0.2529
 7887SOL    HW235121   2.061   1.190   2.039  1.6494 -0.6003  0.4902
 7888SOL     OW35122   0.848   3.655   4.530  0.0911 -0.1614  0.1174
 7888SOL    HW135123   0.811   3.623   4.447 -3.0033  0.6994  1.1748
 7888SOL    HW235124   0.806   3.605   4.600  0.2454 -0.2720  0.1308
 7889SOL     OW35125   4.370   3.102   5.501 -0.0888 -0.2804  0.6727
 7889SOL    HW135126   4.311   3.044   5.550 -1.5369  0.3806 -0.2675
 7889SOL    HW235127   4.414   3.040   5.444 -2.0992 -0.7432 -0.3631
 7890SOL     OW35128   1.420   1.706   6.597 -0.4237 -0.4243 -0.3927
 7890SOL    HW135129   1.465   1.647   6.537  4.0360  2.1288  0.4771
 7890SOL    HW235130   1.491   1.754   6.639  0.1121 -0.5107 -1.2141
 7891SOL     OW35131   0.895   2.856   7.479  0.4579  0.1193 -0.2292
 7891SOL    HW135132   0.856   2.849   7.392  2.4579  1.5948 -1.2605
 7891SOL    HW235133   0.921   2.765   7.492 -1.0758 -0.4341 -1.1076
 7892SOL     OW35134   0.506   1.883  14.612  0.4747 -0.1015 -0.1547
 7892SOL    HW135135   0.597   1.895  14.588  0.5621  0.1628  0.2920
 7892SOL    HW235136   0.517   1.880  14.707  0.0086  0.1203 -0.0934
 7893SOL     OW35137   2.930   0.016   5.905  0.5367 -0.2643  0.2679
 7893SOL    HW135138   3.018   4.719   5.872 -0.0265 -2.4370  0.2918
 7893SOL    HW235139   2.892   4.666   5.948  0.3742 -0.2545  0.1435
 7894SOL     OW35140   0.317   2.247   8.793  0.1996  0.0919 -0.0288
 7894SOL    HW135141   0.231   2.231   8.755 -0.1778  0.0208  0.8390
 7894SOL    HW235142   0.374   2.205   8.729 -1.0480  3.3418 -3.1978
 7895SOL     OW35143   0.705   0.974   1.653 -0.2442  0.0182 -0.5643
 7895SOL    HW135144   0.614   0.949   1.637 -0.3571  0.3559 -0.4500
 7895SOL    HW235145   0.713   1.057   1.608  0.1969  0.5162  0.4403
 7896SOL     OW35146   2.839   0.347   6.724 -0.5537 -0.2709  0.1878
 7896SOL    HW135147   2.875   0.423   6.770 -0.7105 -0.4082  0.5398
 7896SOL    HW235148   2.757   0.386   6.694 -1.1803 -1.3602  0.4804
 7897SOL     OW35149   2.893   0.135   7.134 -0.5034 -0.4223 -0.4119
 7897SOL    HW135150   2.870   0.065   7.195  1.9019 -1.5702 -0.8187
 7897SOL    HW235151   2.866   0.216   7.178 -2.6793 -1.4791  0.2224
 7898SOL     OW35152   0.285   0.215   4.688  0.4107 -0.7953 -0.1654
 7898SOL    HW135153   0.354   0.253   4.741  1.0346 -2.2497  0.0789
 7898SOL    HW235154   0.216   0.194   4.752  0.3674 -0.7815 -0.2074
 7899SOL     OW35155   0.118   2.023  15.451 -0.2317  0.4320  0.4091
 7899SOL    HW135156   0.061   1.953  15.418 -1.3006  1.4958 -0.0091
 7899SOL    HW235157   0.196   1.994  15.405  0.6405  4.6139 -0.7401
 7900SOL     OW35158   2.961   4.376   0.477  0.5728  0.1771 -0.0572
 7900SOL    HW135159   3.031   4.406   0.420  0.5534 -0.0361 -0.1923
 7900SOL    HW235160   2.950   4.290   0.435  1.5491  0.7274 -1.4082
 7901SOL     OW35161   2.773   3.004   0.184  0.3343  0.2634  0.2978
 7901SOL    HW135162   2.805   2.992   0.274  1.2445  0.9503  0.0679
 7901SOL    HW235163   2.678   3.005   0.191  0.5863  0.3987  4.0818
 7902SOL     OW35164   0.195   3.163   1.042 -0.1765 -0.1270 -0.1102
 7902SOL    HW135165   0.154   3.169   0.956  1.3435 -2.2714 -0.9736
 7902SOL    HW235166   0.124   3.110   1.077 -0.2698  0.1961  0.1890
 7903SOL     OW35167   1.761   3.803   1.902  0.3026 -0.3129  0.0097
 7903SOL    HW135168   1.769   3.714   1.937 -1.4685  0.4125  2.1814
 7903SOL    HW235169   1.838   3.814   1.845 -1.0377  1.2357 -1.4843
 7904SOL     OW35170   1.973   4.470   8.447  0.2421 -0.3749  0.6795
 7904SOL    HW135171   1.952   4.532   8.517 -1.7329 -0.7045  0.3687
 7904SOL    HW235172   2.044   4.428   8.496  0.7176 -1.4271 -0.9259
 7905SOL     OW35173   2.231   2.685   7.588 -0.2785 -0.0020  0.2488
 7905SOL    HW135174   2.320   2.657   7.563  0.1634  0.6839  1.0434
 7905SOL    HW235175   2.233   2.779   7.567 -0.3101  0.4195  2.1963
 7906SOL     OW35176   0.313   1.740   5.227  0.2553  0.4576  0.2838
 7906SOL    HW135177   0.273   1.781   5.151  2.4496 -2.8272 -2.6340
 7906SOL    HW235178   0.350   1.666   5.180  0.0390  0.8164 -0.4566
 7907SOL     OW35179   1.161   4.557   4.234 -0.2497 -0.0694 -0.6916
 7907SOL    HW135180   1.251   4.536   4.210 -1.1636 -2.9194 -1.6261
 7907SOL    HW235181   1.127   4.589   4.150  1.4432 -1.1342 -1.7825
 7908SOL     OW35182   1.462   2.603   3.034  0.1230 -0.6138 -0.6132
 7908SOL    HW135183   1.446   2.671   2.968 -0.8575  0.1090  0.3762
 7908SOL    HW235184   1.471   2.648   3.118 -0.0048 -2.3731  0.3423
 7909SOL     OW35185   0.634   3.225   4.190 -0.2332  0.3688 -0.8692
 7909SOL    HW135186   0.578   3.302   4.178  1.2328  1.5229 -0.3947
 7909SOL    HW235187   0.715   3.264   4.225 -0.8007  0.1465  0.6964
 7910SOL     OW35188   3.458   2.197   7.573 -0.1059  0.4136  0.4742
 7910SOL    HW135189   3.476   2.273   7.628  1.5054  0.0179  0.5020
 7910SOL    HW235190   3.536   2.146   7.593 -0.2564 -0.0795 -0.1883
 7911SOL     OW35191   3.402   1.106   5.233 -0.0757 -0.3523  0.2652
 7911SOL    HW135192   3.348   1.027   5.229  0.1349 -0.5552  1.3827
 7911SOL    HW235193   3.339   1.162   5.189 -1.0356 -1.2995  0.4312
 7912SOL     OW35194   4.409   3.100   8.162  0.2932  0.0246  0.4162
 7912SOL    HW135195   4.398   3.169   8.096 -1.3303 -0.3082  0.3386
 7912SOL    HW235196   4.356   3.138   8.233  1.4220  2.6925 -0.1654
 7913SOL     OW35197   2.748   1.869   7.017 -0.3161  0.1318  0.0780
 7913SOL    HW135198   2.671   1.923   7.037 -0.2770 -0.0495  0.7083
 7913SOL    HW235199   2.814   1.924   6.975 -0.5849  1.5617  1.5669
 7914SOL     OW35200   3.494   1.147   8.535  0.8140  0.9740  0.0259
 7914SOL    HW135201   3.443   1.145   8.616  0.7233  1.8931 -0.0033
 7914SOL    HW235202   3.477   1.062   8.496  1.8492  0.2133  1.2404
 7915SOL     OW35203   3.129   0.462   8.544 -0.1131  0.0658  0.0289
 7915SOL    HW135204   3.190   0.415   8.602  1.4760  0.3141 -1.4205
 7915SOL    HW235205   3.154   0.419   8.462 -4.0453 -0.1530 -1.0512
 7916SOL     OW35206   0.370   0.895   3.586  0.6503 -0.2154 -0.0913
 7916SOL    HW135207   0.281   0.922   3.604  1.4654  1.8078  0.8822
 7916SOL    HW235208   0.352   0.819   3.530  0.2663 -0.1326 -0.0761
 7917SOL     OW35209   0.099   2.600   0.217 -0.1269 -0.1072 -0.0154
 7917SOL    HW135210   0.086   2.539   0.289  0.0445 -0.8199 -0.5768
 7917SOL    HW235211   0.043   2.672   0.243  1.8754  0.7813  1.8713
 7918SOL     OW35212   0.749   3.483   2.056 -0.3667 -0.2145 -0.5263
 7918SOL    HW135213   0.789   3.561   2.017 -1.0016  0.2350 -0.2763
 7918SOL    HW235214   0.822   3.425   2.075 -1.0244 -0.6169  0.7224
 7919SOL     OW35215   1.066   0.092   7.225 -0.7209 -0.2458  0.2469
 7919SOL    HW135216   0.974   0.075   7.247 -0.6064 -0.5605  0.4805
 7919SOL    HW235217   1.061   0.188   7.227  0.0235 -0.2326  1.6708
 7920SOL     OW35218   1.369   4.540  11.478  0.0874  0.2744 -0.4819
 7920SOL    HW135219   1.353   4.632  11.502  2.3653  0.7613 -0.8837
 7920SOL    HW235220   1.304   4.495  11.531  1.8212 -0.0629  1.3068
 7921SOL     OW35221   4.194   0.777   7.810 -0.0667  0.7512  0.1456
 7921SOL    HW135222   4.254   0.710   7.841 -1.6413 -0.4490  0.5837
 7921SOL    HW235223   4.260   0.842   7.785  2.0326 -1.1642  0.7426
 7922SOL     OW35224   2.046   2.448  14.612 -0.3185  0.1485  0.1489
 7922SOL    HW135225   1.990   2.505  14.560  0.7228  0.2359 -0.8584
 7922SOL    HW235226   2.133   2.483  14.598  0.2837 -0.5752  2.0100
 7923SOL     OW35227   2.032   2.661  10.295  0.5109  0.8012  0.1707
 7923SOL    HW135228   2.096   2.594  10.319 -1.3835 -1.0768 -0.0891
 7923SOL    HW235229   1.994   2.690  10.378 -0.1059  2.6065 -0.7361
 7924SOL     OW35230   2.474   2.010   4.707  0.5373  0.4614  0.2803
 7924SOL    HW135231   2.488   1.998   4.801  2.0506 -1.9822 -0.2814
 7924SOL    HW235232   2.552   2.056   4.676 -0.9410  1.6816 -1.6682
 7925SOL     OW35233   4.268   0.888   3.914 -0.0887  0.1251  0.2674
 7925SOL    HW135234   4.325   0.920   3.985  1.1789 -0.5752 -0.4401
 7925SOL    HW235235   4.293   0.937   3.836 -0.4728 -1.4319 -0.8332
 7926SOL     OW35236   0.765   2.206  10.104  0.0044 -0.2405  0.0552
 7926SOL    HW135237   0.845   2.244  10.067  0.9015 -0.3186  1.9159
 7926SOL    HW235238   0.808   2.163  10.178  0.9083  1.5146  0.5571
 7927SOL     OW35239   4.580   0.332   2.437 -0.3206  0.2481  0.4216
 7927SOL    HW135240   4.645   0.403   2.437  0.0638 -0.1045  0.4176
 7927SOL    HW235241   4.519   0.364   2.371 -1.1561  0.3700  1.2578
 7928SOL     OW35242   0.541   3.169  13.425 -0.4739 -0.2086 -0.0681
 7928SOL    HW135243   0.582   3.242  13.471 -2.0907  0.4796  0.2780
 7928SOL    HW235244   0.461   3.205  13.387 -0.3926 -0.3411 -0.3628
 7929SOL     OW35245   1.585   4.219   4.421  0.5602 -0.6991  0.2317
 7929SOL    HW135246   1.577   4.293   4.481  0.8065 -1.8502  1.7084
 7929SOL    HW235247   1.592   4.143   4.479  0.3659 -1.0764 -0.2345
 7930SOL     OW35248   3.698   0.136   3.789 -0.1518  0.0203  0.2174
 7930SOL    HW135249   3.666   0.050   3.818  0.6188  0.3368  2.0457
 7930SOL    HW235250   3.660   0.148   3.702 -2.8780  1.7942  1.6603
 7931SOL     OW35251   0.816   2.002   0.004 -0.1157  0.6950  0.3884
 7931SOL    HW135252   0.792   2.044  17.629 -0.2747 -2.4500 -1.2058
 7931SOL    HW235253   0.737   1.949   0.017  1.2913 -1.1820  1.3465
 7932SOL     OW35254   4.204   0.278   1.394 -0.1011  0.2747 -0.5097
 7932SOL    HW135255   4.189   0.320   1.478 -0.0966 -0.1798 -0.2816
 7932SOL    HW235256   4.294   0.247   1.403 -0.5132 -0.7237  0.1965
 7933SOL     OW35257   4.059   1.059  16.349 -0.4699 -0.0421  0.2158
 7933SOL    HW135258   4.073   1.088  16.258  0.0208 -0.4402  0.1649
 7933SOL    HW235259   3.998   0.986  16.342 -0.2547 -0.0889 -1.1811
 7934SOL     OW35260   3.306   0.077   0.863 -0.5687  0.2986  0.1333
 7934SOL    HW135261   3.363   0.046   0.793 -0.6286  1.7416 -0.5542
 7934SOL    HW235262   3.242   0.117   0.804 -0.1408  0.5735 -0.1426
 7935SOL     OW35263   2.005   2.498   7.538  0.6363 -0.5012 -0.0471
 7935SOL    HW135264   1.993   2.578   7.486 -2.0447  0.2158  1.6893
 7935SOL    HW235265   2.082   2.527   7.587 -1.9863  0.2059  3.6343
 7936SOL     OW35266   3.415   0.234   4.213  0.1232  0.2669  0.3770
 7936SOL    HW135267   3.322   0.254   4.225  0.5868  4.5085 -3.0974
 7936SOL    HW235268   3.449   0.290   4.283  1.9943  1.0545 -1.1574
 7937SOL     OW35269   3.734   1.875   8.374  0.1337 -0.6025 -0.1095
 7937SOL    HW135270   3.757   1.883   8.282  3.1503  1.6192  0.7893
 7937SOL    HW235271   3.720   1.781   8.375 -1.0915 -0.4175  1.1631
 7938SOL     OW35272   0.126   0.114   5.443  0.3916  0.1308  0.4757
 7938SOL    HW135273   0.216   0.090   5.419 -0.5810 -1.4345 -1.6127
 7938SOL    HW235274   0.078   0.051   5.388 -0.0740  0.8131  0.1080
 7939SOL     OW35275   2.505   2.625   5.566 -0.0047 -0.0127 -0.1630
 7939SOL    HW135276   2.504   2.540   5.610  0.5903 -0.1757 -0.4663
 7939SOL    HW235277   2.519   2.671   5.648  2.1051  0.9444 -1.0814
 7940SOL     OW35278   4.230   0.438   3.374 -0.6712 -0.4494 -0.1054
 7940SOL    HW135279   4.320   0.463   3.396 -1.0472  0.2189  0.6420
 7940SOL    HW235280   4.180   0.499   3.427  0.7634 -0.5967  1.4367
 7941SOL     OW35281   0.512   3.063   0.213 -0.1828 -0.6819  0.1680
 7941SOL    HW135282   0.570   3.117   0.267 -0.8686 -1.1849  1.4082
 7941SOL    HW235283   0.444   3.127   0.194 -0.6708 -1.0331  0.7246
 7942SOL     OW35284   3.167   0.972   2.371 -0.3885 -1.0725  0.4649
 7942SOL    HW135285   3.162   0.931   2.457 -0.5298  0.4595  1.1897
 7942SOL    HW235286   3.240   0.921   2.336  0.2508 -0.4892  0.9521
 7943SOL     OW35287   1.283   1.846   3.632  0.0443 -0.8291  0.4607
 7943SOL    HW135288   1.343   1.779   3.664 -0.2827 -1.7273 -0.8141
 7943SOL    HW235289   1.246   1.882   3.713  2.4986 -0.4057  1.4059
 7944SOL     OW35290   4.002   2.953  14.849 -1.2467 -0.1054 -0.4273
 7944SOL    HW135291   3.936   2.949  14.918 -2.5290  2.2513 -1.5472
 7944SOL    HW235292   4.072   2.919  14.906  0.6318 -0.1930 -2.7596
 7945SOL     OW35293   4.458   4.680   5.240 -0.0226 -0.1675 -0.3291
 7945SOL    HW135294   4.475   0.047   5.229  0.1618 -0.1670 -0.0443
 7945SOL    HW235295   4.382   4.659   5.186 -2.2683  3.6570  1.3152
 7946SOL     OW35296   0.740   3.001  10.267 -0.9236  0.3264  0.0657
 7946SOL    HW135297   0.661   3.055  10.269 -1.0641  0.1667 -1.1612
 7946SOL    HW235298   0.812   3.049  10.308  0.3114 -1.2989 -0.1521
 7947SOL     OW35299   3.592   0.647   8.265 -0.0396 -0.0335  0.1705
 7947SOL    HW135300   3.673   0.607   8.235 -0.3333  0.2062 -0.9482
 7947SOL    HW235301   3.580   0.708   8.192 -0.8256  0.4273  0.6787
 7948SOL     OW35302   1.906   3.342  11.132 -0.3204 -0.0259  0.3386
 7948SOL    HW135303   1.930   3.257  11.095  0.5704  0.7176 -0.8009
 7948SOL    HW235304   1.977   3.359  11.193 -1.1645  0.3050  1.2305
 7949SOL     OW35305   3.255   4.102  10.717 -0.2515 -0.2733 -0.0384
 7949SOL    HW135306   3.343   4.113  10.754 -0.3878  2.2562 -0.5139
 7949SOL    HW235307   3.275   4.092  10.624 -2.3968 -0.7596 -0.4530
 7950SOL     OW35308   2.327   1.993   8.836 -0.7202  0.1494 -0.0956
 7950SOL    HW135309   2.300   2.067   8.781  0.8890  1.1844  0.5116
 7950SOL    HW235310   2.252   1.934   8.834 -0.2278 -0.5080  0.7458
 7951SOL     OW35311   4.695   1.807   2.704  0.2294 -0.3410  0.3289
 7951SOL    HW135312   4.663   1.895   2.682  0.3502 -0.4675 -0.3435
 7951SOL    HW235313   0.041   1.802   2.643  0.0223  0.2528  0.0372
 7952SOL     OW35314   4.017   1.873   7.769 -0.1835 -0.0441  0.3811
 7952SOL    HW135315   3.985   1.955   7.732 -3.6426 -0.9268  1.3545
 7952SOL    HW235316   4.056   1.828   7.694 -0.9042 -0.5134  0.2884
 7953SOL     OW35317   1.932   3.898   3.126 -0.5926  0.4624  0.2848
 7953SOL    HW135318   1.996   3.864   3.188 -1.0638  0.9142  1.0146
 7953SOL    HW235319   1.859   3.836   3.130 -1.6475  1.8097  1.8539
 7954SOL     OW35320   2.213   2.193   7.681 -0.5258  0.1709 -0.9277
 7954SOL    HW135321   2.287   2.173   7.739 -0.8889  0.4216 -0.3862
 7954SOL    HW235322   2.262   2.215   7.602 -0.3235  0.7288 -0.6471
 7955SOL     OW35323   4.524   2.921   6.412 -0.4401 -0.1185  0.4263
 7955SOL    HW135324   4.615   2.942   6.395  0.0576 -1.3403  1.5734
 7955SOL    HW235325   4.526   2.826   6.414  3.5524 -0.0206 -0.4503
 7956SOL     OW35326   0.427   2.938   2.043 -0.1354 -0.0213  0.0717
 7956SOL    HW135327   0.348   2.981   2.077 -0.9608 -0.5660 -1.1738
 7956SOL    HW235328   0.444   2.976   1.957  2.9579  0.2517  0.8135
 7957SOL     OW35329   4.390   2.178  13.923 -0.2274  0.3335 -0.4519
 7957SOL    HW135330   4.366   2.268  13.904  1.6472  0.7085 -1.0520
 7957SOL    HW235331   4.474   2.176  13.878  0.0906 -0.7250  0.1674
 7958SOL     OW35332   1.797   3.833   3.467 -1.1096  0.6502 -0.1688
 7958SOL    HW135333   1.836   3.749   3.491 -0.3818  0.8921 -0.5189
 7958SOL    HW235334   1.745   3.806   3.391  1.6523  0.3412 -1.9500
 7959SOL     OW35335   1.135   3.117  17.083 -0.3903 -0.3349  0.0873
 7959SOL    HW135336   1.061   3.130  17.025  0.4279 -0.1154 -0.9052
 7959SOL    HW235337   1.167   3.203  17.111 -0.7818 -0.2715  0.3358
 7960SOL     OW35338   2.576   4.303  10.320 -0.2486  0.3856  0.3035
 7960SOL    HW135339   2.653   4.354  10.297  0.7379 -0.8996  0.7535
 7960SOL    HW235340   2.506   4.365  10.301  1.1749  2.8609  3.1133
 7961SOL     OW35341   3.550   0.168   7.108  0.2964 -0.0983  0.3011
 7961SOL    HW135342   3.516   0.080   7.122 -3.9533  1.7346  1.6388
 7961SOL    HW235343   3.645   0.179   7.106  0.3445 -0.1444  2.8697
 7962SOL     OW35344   3.017   2.010  16.272  0.5969  0.7907  0.4569
 7962SOL    HW135345   3.013   2.017  16.176  0.0655  0.2355  0.4355
 7962SOL    HW235346   2.935   2.044  16.309 -0.3228  0.7834 -1.5340
 7963SOL     OW35347   4.001   2.137   1.580 -0.9407  0.5905  0.2026
 7963SOL    HW135348   3.933   2.192   1.619 -0.3581  1.5966 -0.2117
 7963SOL    HW235349   4.023   2.076   1.651 -1.2657  0.8346  0.5143
 7964SOL     OW35350   1.144   2.486   0.201  0.4407  0.1405 -0.0596
 7964SOL    HW135351   1.116   2.577   0.207  1.0809  0.3751 -0.6988
 7964SOL    HW235352   1.239   2.498   0.203  0.4953 -0.2757 -0.1901
 7965SOL     OW35353   1.317   1.261   8.068  0.5477 -0.0264  0.2623
 7965SOL    HW135354   1.335   1.275   8.161  3.0125  1.2423 -0.4210
 7965SOL    HW235355   1.224   1.284   8.078 -0.2670 -3.9755  1.9218
 7966SOL     OW35356   3.861   3.476   0.316 -0.3392  0.4881  0.0857
 7966SOL    HW135357   3.899   3.393   0.343 -1.1107  0.6950  1.7893
 7966SOL    HW235358   3.914   3.480   0.236  1.5242  0.6598  1.3517
 7967SOL     OW35359   1.757   0.357   4.542 -0.6621 -0.2239 -0.6344
 7967SOL    HW135360   1.735   0.443   4.508 -1.4743 -0.4626 -0.7062
 7967SOL    HW235361   1.742   0.302   4.464 -0.0770 -1.4768  0.1294
 7968SOL     OW35362   0.396   4.315  17.342 -0.0391 -0.3951  0.2663
 7968SOL    HW135363   0.350   4.234  17.366  1.1652 -0.6294  1.8416
 7968SOL    HW235364   0.323   4.370  17.313  1.3101  1.4412  0.3858
 7969SOL     OW35365   2.407   0.334  12.835 -0.0668  0.1252 -0.1760
 7969SOL    HW135366   2.445   0.248  12.854 -1.6412 -0.5084  0.0693
 7969SOL    HW235367   2.479   0.382  12.876 -0.5492  1.1045 -0.4619
 7970SOL     OW35368   3.958   2.147   7.707  0.2711 -0.3961 -0.5015
 7970SOL    HW135369   4.017   2.205   7.658  1.1300 -1.9829 -1.3185
 7970SOL    HW235370   3.984   2.185   7.791 -1.8551 -1.1411  0.4943
 7971SOL     OW35371   4.633   2.758   4.213 -0.2575 -0.2158  0.2072
 7971SOL    HW135372   4.682   2.720   4.286 -2.0255 -2.1881  0.3591
 7971SOL    HW235373   4.545   2.722   4.221  0.1675 -1.1273  0.7552
 7972SOL     OW35374   2.697   0.901   4.319 -0.2364  0.4527 -0.0478
 7972SOL    HW135375   2.739   0.828   4.366  0.0157 -0.2343 -1.3416
 7972SOL    HW235376   2.765   0.911   4.252  1.3604  0.9440  1.6356
 7973SOL     OW35377   3.337   2.613   6.041  0.3945  0.9664  0.1316
 7973SOL    HW135378   3.418   2.658   6.017  0.3339  0.3519 -1.2133
 7973SOL    HW235379   3.343   2.617   6.137  2.6010 -1.0302  0.0635
 7974SOL     OW35380   3.144   3.712  11.439 -0.4235 -0.3792  0.2811
 7974SOL    HW135381   3.210   3.781  11.446 -0.6728 -0.3713  2.4244
 7974SOL    HW235382   3.086   3.748  11.371  0.0358  2.5720  1.4588
 7975SOL     OW35383   0.566   3.195  10.328  0.2319  1.1019 -0.2911
 7975SOL    HW135384   0.620   3.270  10.303  0.0351  0.7907 -1.6479
 7975SOL    HW235385   0.597   3.169  10.415 -1.7806 -0.8296 -0.1522
 7976SOL     OW35386   2.260   3.181   5.737  0.2844  1.0501  0.0464
 7976SOL    HW135387   2.167   3.191   5.717 -0.3460 -1.1163  1.7947
 7976SOL    HW235388   2.274   3.241   5.810  0.2551 -1.4924  2.1430
 7977SOL     OW35389   4.251   1.809   2.056 -0.0520 -0.0948  0.0443
 7977SOL    HW135390   4.329   1.780   2.009 -0.7971  1.2492 -2.0418
 7977SOL    HW235391   4.289   1.842   2.137 -0.1441  0.8761 -0.3070
 7978SOL     OW35392   4.029   1.381  16.956 -0.1924  0.0913  0.5697
 7978SOL    HW135393   3.969   1.418  17.021 -0.0859  1.9114 -0.3500
 7978SOL    HW235394   3.980   1.314  16.908 -0.4433  0.7034 -0.0362
 7979SOL     OW35395   0.964   0.844   3.703 -0.0300 -0.0678  0.0571
 7979SOL    HW135396   1.030   0.891   3.651  0.0288  0.8295  0.9577
 7979SOL    HW235397   0.962   0.760   3.657 -2.4749  1.5254 -2.6970
 7980SOL     OW35398   2.409   2.333   0.713  0.4256 -0.7619  0.3274
 7980SOL    HW135399   2.418   2.312   0.621  0.7060 -1.4806  0.5163
 7980SOL    HW235400   2.315   2.349   0.724  0.1273 -2.4734  0.3269
 7981SOL     OW35401   4.664   3.426   0.066 -0.5745 -0.1287 -0.3656
 7981SOL    HW135402   4.582   3.464   0.097 -0.6786  0.3088 -1.1687
 7981SOL    HW235403   4.660   3.454  17.682  1.1545  1.0259 -0.0966
 7982SOL     OW35404   3.121   1.514   7.474  0.3816  0.0096 -0.2097
 7982SOL    HW135405   3.050   1.529   7.536 -0.0305  3.7580 -1.5549
 7982SOL    HW235406   3.081   1.473   7.397  0.8548  0.7388 -0.8460
 7983SOL     OW35407   2.737   0.304  16.770 -0.0550 -0.0495  0.1972
 7983SOL    HW135408   2.668   0.343  16.717 -1.7143  0.2128  2.6058
 7983SOL    HW235409   2.732   0.345  16.856 -0.1504 -0.5077  0.4110
 7984SOL     OW35410   2.807   2.386   4.376  0.3472  0.6990 -0.1646
 7984SOL    HW135411   2.785   2.395   4.283 -2.2861 -1.8135  0.2333
 7984SOL    HW235412   2.751   2.312   4.397  1.4335 -0.5557 -1.5892
 7985SOL     OW35413   4.008   4.648   7.088 -0.2379  0.3434 -0.4953
 7985SOL    HW135414   4.055   4.655   7.005  2.5263  2.5833  1.2869
 7985SOL    HW235415   3.961   4.565   7.077 -1.4162  0.7367  1.5076
 7986SOL     OW35416   1.809   1.580  12.628 -0.1619 -0.3024 -0.0098
 7986SOL    HW135417   1.794   1.657  12.573 -1.5379 -0.5209  0.0669
 7986SOL    HW235418   1.889   1.599  12.678  0.7754 -0.8374 -1.3165
 7987SOL     OW35419   4.666   2.005   3.539  0.1525  0.2481 -0.3077
 7987SOL    HW135420   0.034   2.012   3.550  0.2956  1.1580 -2.1916
 7987SOL    HW235421   4.648   1.959   3.621 -0.9457 -0.0213 -0.6933
 7988SOL     OW35422   4.711   2.870   3.239  0.2399 -0.5896  0.5473
 7988SOL    HW135423   4.636   2.836   3.289 -0.7611  0.0638 -0.4911
 7988SOL    HW235424   0.057   2.854   3.299  0.9606  0.1170 -0.1427
 7989SOL     OW35425   0.089   1.289   1.988 -0.4040  0.8813 -0.1890
 7989SOL    HW135426   0.133   1.205   2.002 -1.3432  0.8366  2.3949
 7989SOL    HW235427   4.723   1.264   1.985  0.6044 -2.5400 -2.6361
 7990SOL     OW35428   2.256   0.359   1.445  0.6631  0.1045  0.2195
 7990SOL    HW135429   2.229   0.272   1.474 -0.5015  0.6560  0.8068
 7990SOL    HW235430   2.350   0.344   1.447  0.7638  0.1379 -3.0329
 7991SOL     OW35431   1.134   0.516  10.051  0.0857  0.3367  0.2379
 7991SOL    HW135432   1.063   0.556  10.000 -1.4214 -0.6936  1.5463
 7991SOL    HW235433   1.132   0.424  10.025  2.2228  0.1377  0.7597
 7992SOL     OW35434   4.213   0.383  12.765  0.0603 -0.5974 -0.7758
 7992SOL    HW135435   4.172   0.469  12.773 -0.4809 -0.9203 -0.0191
 7992SOL    HW235436   4.157   0.315  12.802  0.6402  0.7574  2.6393
 7993SOL     OW35437   0.852   2.712  12.871  0.1136 -0.5039 -0.3303
 7993SOL    HW135438   0.802   2.633  12.888 -0.6865  0.1207  0.1947
 7993SOL    HW235439   0.838   2.762  12.952  1.8287  1.2851 -1.1403
 7994SOL     OW35440   1.950   2.395   2.205 -0.1139  0.0454 -0.5074
 7994SOL    HW135441   1.946   2.320   2.265  0.0074 -1.0260 -1.8427
 7994SOL    HW235442   2.038   2.430   2.211  0.6963 -2.3308  1.5321
 7995SOL     OW35443   1.753   0.396  13.796  0.5077  0.2946 -0.4276
 7995SOL    HW135444   1.682   0.459  13.801  1.1391  0.9248  0.8230
 7995SOL    HW235445   1.798   0.420  13.878 -0.9009  0.2067  0.3629
 7996SOL     OW35446   3.464   0.247   0.653 -0.5259  0.0203 -0.1850
 7996SOL    HW135447   3.436   0.305   0.724  2.5472 -0.7881  1.6873
 7996SOL    HW235448   3.515   0.307   0.598 -2.0047  0.5247 -1.0145
 7997SOL     OW35449   0.669   1.208  15.094 -0.5239 -0.4509  0.5731
 7997SOL    HW135450   0.658   1.276  15.027  2.3226  0.4185  1.0074
 7997SOL    HW235451   0.763   1.197  15.101 -0.1320  2.4634 -0.2557
 7998SOL     OW35452   0.906   4.593   6.820  0.4774 -0.0180 -0.0719
 7998SOL    HW135453   0.982   4.590   6.763  2.1902 -1.0836  2.2623
 7998SOL    HW235454   0.895   4.685   6.845  2.5601 -0.2129  1.5430
 7999SOL     OW35455   3.368   2.890   6.530  0.4231  0.0306  0.1872
 7999SOL    HW135456   3.405   2.865   6.445 -1.9549  1.4417 -1.2599
 7999SOL    HW235457   3.284   2.922   6.499  0.7219 -0.0188 -0.6855
 8000SOL     OW35458   3.962   0.583  10.724  0.1184  0.2742  0.4831
 8000SOL    HW135459   3.867   0.569  10.720  0.3768 -0.5549 -3.3450
 8000SOL    HW235460   3.955   0.658  10.665 -1.5676 -0.8478 -0.7595
 8001SOL     OW35461   2.141   1.213  11.004  0.6308 -0.1408 -0.9092
 8001SOL    HW135462   2.115   1.260  11.084 -2.6956 -2.0377 -0.8568
 8001SOL    HW235463   2.055   1.185  10.972 -0.7864  2.1277  0.8992
 8002SOL     OW35464   0.099   3.410   2.816  1.3634  0.3166 -0.3281
 8002SOL    HW135465   0.187   3.392   2.781  1.0587  0.0977 -0.9832
 8002SOL    HW235466   0.035   3.359   2.767  1.4962 -0.1732  0.0171
 8003SOL     OW35467   1.702   0.745   2.403 -0.0721 -0.1517  0.1927
 8003SOL    HW135468   1.723   0.686   2.331 -0.4995  0.0554 -0.1016
 8003SOL    HW235469   1.709   0.682   2.475  1.1985  0.4358  0.5930
 8004SOL     OW35470   3.437   1.377   2.023  0.0714 -0.1335 -0.5947
 8004SOL    HW135471   3.445   1.361   1.929 -1.0291 -1.3528 -0.4909
 8004SOL    HW235472   3.375   1.449   2.032  0.5239  0.6619 -4.0671
 8005SOL     OW35473   0.390   0.219   0.376 -0.1626 -0.0503 -0.4949
 8005SOL    HW135474   0.317   0.266   0.416 -0.4880 -0.5172 -0.5390
 8005SOL    HW235475   0.452   0.219   0.449 -1.3717 -0.8469  0.5364
 8006SOL     OW35476   1.618   1.508  11.113 -0.3530  0.1132  0.1929
 8006SOL    HW135477   1.524   1.496  11.126 -0.3161 -0.4182 -0.0433
 8006SOL    HW235478   1.626   1.521  11.019 -0.9712  1.3248  0.3019
 8007SOL     OW35479   0.774   0.368  11.867 -0.3047  0.4581  0.1646
 8007SOL    HW135480   0.802   0.459  11.867 -0.9441  0.6561  0.3431
 8007SOL    HW235481   0.781   0.342  11.775  2.1994  1.0679  0.1708
 8008SOL     OW35482   4.189   0.821   4.787 -0.2433  0.2964  0.1110
 8008SOL    HW135483   4.212   0.896   4.733  0.8608 -0.7791 -0.9156
 8008SOL    HW235484   4.192   0.851   4.878  0.4896 -1.9672  0.8496
 8009SOL     OW35485   3.346   3.338   2.351  0.1121  0.7986 -0.5643
 8009SOL    HW135486   3.418   3.339   2.414  0.1126 -0.0501 -0.5473
 8009SOL    HW235487   3.344   3.431   2.329 -2.8060  0.8696  0.0400
 8010SOL     OW35488   3.412   3.686  11.753  0.6358 -0.9220 -0.5031
 8010SOL    HW135489   3.433   3.638  11.673  0.6545  0.8194 -1.5309
 8010SOL    HW235490   3.502   3.693  11.785  0.7829 -2.1187 -0.6376
 8011SOL     OW35491   1.013   0.787   8.247  0.2726  0.0248  0.4880
 8011SOL    HW135492   1.108   0.793   8.245  0.3647 -1.6447 -0.2890
 8011SOL    HW235493   0.994   0.848   8.319 -0.1051  0.0964  0.3312
 8012SOL     OW35494   3.250   3.789  15.541 -0.3505  0.1517  0.1593
 8012SOL    HW135495   3.311   3.769  15.469  0.7147  1.8971  0.5858
 8012SOL    HW235496   3.168   3.787  15.492  1.1040 -0.1068 -2.2597
 8013SOL     OW35497   0.362   3.129  13.810 -0.7664 -0.0675 -0.6022
 8013SOL    HW135498   0.431   3.084  13.761  1.4500  0.2436  2.2708
 8013SOL    HW235499   0.414   3.182  13.870  0.1724 -1.7224  0.0283
 8014SOL     OW35500   1.213   1.881   0.424 -0.7727  0.2463  0.0563
 8014SOL    HW135501   1.224   1.901   0.517  1.6601  1.8615 -0.5881
 8014SOL    HW235502   1.224   1.966   0.382  0.1945  0.2003  0.2106
 8015SOL     OW35503   1.972   3.617   2.576  0.0999 -0.2227  0.0659
 8015SOL    HW135504   1.978   3.555   2.649 -0.8227 -1.6926 -1.1010
 8015SOL    HW235505   2.062   3.614   2.542 -0.9845  1.8012 -3.0264
 8016SOL     OW35506   1.504   1.527  16.037 -0.2144  0.1693 -0.3599
 8016SOL    HW135507   1.504   1.603  16.095  0.1613  1.0673 -1.5270
 8016SOL    HW235508   1.491   1.454  16.098 -0.0311 -0.1067 -0.6538
 8017SOL     OW35509   1.404   3.104   7.972  0.4981  0.0298  0.2308
 8017SOL    HW135510   1.435   3.180   7.922  2.4342 -0.2987  0.9156
 8017SOL    HW235511   1.445   3.035   7.921  0.1911  1.5844 -2.0968
 8018SOL     OW35512   1.050   0.288   3.203  0.7180  0.0040 -0.2875
 8018SOL    HW135513   1.068   0.222   3.137  0.4438 -0.6891  0.3383
 8018SOL    HW235514   1.093   0.250   3.280  1.3459  2.1500  0.4258
 8019SOL     OW35515   2.514   4.534   5.411  0.0955 -0.1964  0.3673
 8019SOL    HW135516   2.467   4.606   5.453  0.4151  0.2993 -0.1223
 8019SOL    HW235517   2.523   4.578   5.326 -1.7184 -0.2814  0.1302
 8020SOL     OW35518   4.108   3.717   2.367 -0.0161 -0.0237 -0.0029
 8020SOL    HW135519   4.132   3.801   2.406 -4.5433  0.8503  0.9601
 8020SOL    HW235520   4.188   3.694   2.321  1.5612  0.9733  2.2097
 8021SOL     OW35521   3.215   0.120   6.345  0.3629  0.7204 -0.0763
 8021SOL    HW135522   3.141   0.165   6.305  0.2321  0.5399 -0.0386
 8021SOL    HW235523   3.183   0.030   6.345  0.6170  0.6262  0.3752
 8022SOL     OW35524   0.018   3.294   4.939 -0.3658 -0.2004  0.0501
 8022SOL    HW135525   4.706   3.381   4.932  0.3487  0.0623 -0.5939
 8022SOL    HW235526   0.111   3.306   4.919 -0.6706  1.6980 -0.1586
 8023SOL     OW35527   3.362   3.375  17.389  0.4260  0.2231  1.0053
 8023SOL    HW135528   3.304   3.431  17.440  0.0348  1.5758 -0.9313
 8023SOL    HW235529   3.301   3.320  17.339  0.7970  0.8092 -0.1078
 8024SOL     OW35530   4.527   2.418   4.068  0.3260 -0.0778  0.7487
 8024SOL    HW135531   4.446   2.451   4.030  1.0956  0.1670 -0.6906
 8024SOL    HW235532   4.489   2.338   4.104 -0.8310 -0.1986 -0.7256
 8025SOL     OW35533   1.822   3.576   2.940 -0.2094 -0.5698  0.0584
 8025SOL    HW135534   1.819   3.648   2.876 -4.5176 -2.2046 -1.5813
 8025SOL    HW235535   1.898   3.526   2.912  1.0595  0.6371  1.3365
 8026SOL     OW35536   0.901   4.504  13.078 -0.7200  0.2699 -0.2380
 8026SOL    HW135537   0.906   4.589  13.122  0.4733  0.1662 -0.1658
 8026SOL    HW235538   0.950   4.525  12.998 -1.4061 -0.3130 -0.8033
 8027SOL     OW35539   4.646   1.218   8.599 -0.4333  0.6729  0.7066
 8027SOL    HW135540   4.634   1.123   8.592 -2.9448  1.1323 -1.0376
 8027SOL    HW235541   4.576   1.242   8.660 -0.7372 -0.2323  0.7115
 8028SOL     OW35542   3.730   2.157   9.834 -0.2362 -0.3024 -0.0869
 8028SOL    HW135543   3.801   2.208   9.874  0.0324 -2.0496  1.6591
 8028SOL    HW235544   3.715   2.086   9.897 -0.2131  0.6221  0.9661
 8029SOL     OW35545   0.221   3.635  11.711  0.1497 -0.3452  0.1655
 8029SOL    HW135546   0.312   3.606  11.717  0.2761  0.0563  0.2010
 8029SOL    HW235547   0.211   3.659  11.803  0.1962  1.7975 -0.3906
 8030SOL     OW35548   2.606   3.027   3.807  0.2620 -0.1333  0.0147
 8030SOL    HW135549   2.620   3.099   3.869 -1.3708  2.0915 -2.2412
 8030SOL    HW235550   2.664   3.040   3.732  0.8154  2.5370  0.9355
 8031SOL     OW35551   2.007   3.564   6.465  0.2335  0.8182  0.5500
 8031SOL    HW135552   2.048   3.558   6.378 -0.9423  1.8335 -0.0703
 8031SOL    HW235553   1.926   3.612   6.451  1.0775  2.0592 -0.1178
 8032SOL     OW35554   4.155   0.018   6.850 -0.0752 -0.1623 -0.4465
 8032SOL    HW135555   4.190   4.687   6.782 -2.7323 -0.2402 -1.7355
 8032SOL    HW235556   4.213   0.093   6.838 -2.0243  1.6959  1.7890
 8033SOL     OW35557   3.831   1.875   9.895  0.4961 -0.1237  0.2202
 8033SOL    HW135558   3.877   1.791   9.889  1.2717  0.1879  1.6522
 8033SOL    HW235559   3.902   1.937   9.912  0.7195  0.0870 -1.5132
 8034SOL     OW35560   3.456   3.699   3.396 -0.4700  0.0327  0.0669
 8034SOL    HW135561   3.484   3.640   3.326 -0.1019  2.6437 -1.9789
 8034SOL    HW235562   3.400   3.639   3.445  0.7940 -0.4367  0.9564
 8035SOL     OW35563   3.601   1.105  10.590  0.4596 -0.8885  0.4847
 8035SOL    HW135564   3.523   1.160  10.583  0.1355 -1.3144  0.7438
 8035SOL    HW235565   3.593   1.029  10.533  3.4839 -0.0542 -1.0785
 8036SOL     OW35566   2.639   4.603  13.056 -0.2743  0.1615  0.2980
 8036SOL    HW135567   2.662   4.692  13.032 -4.5667  1.5622  1.5067
 8036SOL    HW235568   2.675   4.592  13.144 -1.6886 -0.7329  0.7681
 8037SOL     OW35569   0.463   0.322   4.360 -0.1291 -0.1003  0.1864
 8037SOL    HW135570   0.478   0.376   4.437  2.5498 -2.7154  1.5172
 8037SOL    HW235571   0.540   0.360   4.316 -0.4050 -1.8579 -1.7922
 8038SOL     OW35572   1.476   1.879   3.293  0.3270  0.3322 -0.8196
 8038SOL    HW135573   1.445   1.796   3.328  3.1056 -1.4105 -2.4872
 8038SOL    HW235574   1.412   1.897   3.225 -1.0949 -0.7793  0.2416
 8039SOL     OW35575   3.691   4.546   7.308 -0.5331  0.1732  0.0892
 8039SOL    HW135576   3.753   4.532   7.380 -2.4614 -3.0910  1.1039
 8039SOL    HW235577   3.607   4.519   7.345 -0.1546 -0.3584  0.5555
 8040SOL     OW35578   1.187   1.395   7.349 -0.4101 -0.0634  0.2594
 8040SOL    HW135579   1.140   1.332   7.294  1.2437 -0.4892 -0.6506
 8040SOL    HW235580   1.239   1.336   7.404  0.1515  0.2411  0.0467
 8041SOL     OW35581   3.662   0.426   5.630  0.4864  0.2939 -0.1238
 8041SOL    HW135582   3.570   0.435   5.654  0.7543  1.1988  0.5312
 8041SOL    HW235583   3.658   0.334   5.604  1.3829  0.5915 -1.3006
 8042SOL     OW35584   3.547   0.053   5.846  0.2298 -0.1911 -0.1818
 8042SOL    HW135585   3.607   0.048   5.920 -1.6711 -0.1673  1.3460
 8042SOL    HW235586   3.457   0.057   5.877  0.1023 -0.6822 -0.4816
 8043SOL     OW35587   2.833   1.415   3.864  0.4045 -0.4434  0.5356
 8043SOL    HW135588   2.777   1.363   3.807  2.3542 -2.7690  0.7463
 8043SOL    HW235589   2.919   1.396   3.828  0.2541 -0.7264  0.3268
 8044SOL     OW35590   2.923   0.329   7.702  0.3531  0.2132 -0.4233
 8044SOL    HW135591   2.953   0.274   7.775  1.9243  1.3444 -0.2181
 8044SOL    HW235592   2.914   0.257   7.641 -1.4265  0.5452 -0.5698
 8045SOL     OW35593   2.464   4.137   4.967 -0.1279  0.6283  0.1459
 8045SOL    HW135594   2.472   4.213   4.909 -2.8687  1.4700  0.8926
 8045SOL    HW235595   2.377   4.104   4.944  1.3972 -2.4251 -1.2645
 8046SOL     OW35596   1.820   3.280  14.340 -0.4764 -0.4232 -0.8247
 8046SOL    HW135597   1.866   3.196  14.345  1.2221  0.5574 -0.1047
 8046SOL    HW235598   1.776   3.279  14.425  1.3993  2.2640  0.1647
 8047SOL     OW35599   1.841   1.247   8.541  0.5226 -0.1397 -0.2306
 8047SOL    HW135600   1.826   1.336   8.509  1.3310 -0.4462 -1.4626
 8047SOL    HW235601   1.781   1.184   8.500 -0.5415  0.3603  0.5411
 8048SOL     OW35602   0.421   3.156   4.705  0.2765 -0.0353  0.1763
 8048SOL    HW135603   0.380   3.114   4.629  3.0159  1.5837 -2.1854
 8048SOL    HW235604   0.434   3.076   4.756  0.0002  0.6323  1.2906
 8049SOL     OW35605   0.756   2.557   0.222  0.1635 -0.2061 -0.5641
 8049SOL    HW135606   0.786   2.648   0.223  2.2137 -0.9195  0.8925
 8049SOL    HW235607   0.814   2.515   0.285  1.4035  1.3344 -0.6579
 8050SOL     OW35608   1.745   0.686  12.239  0.2783 -0.1195 -0.4735
 8050SOL    HW135609   1.781   0.773  12.255 -0.6109 -0.0013  0.8963
 8050SOL    HW235610   1.736   0.700  12.144  2.0260 -1.5736 -0.8528
 8051SOL     OW35611   0.375   0.322   7.708  0.5828 -0.2015 -0.0311
 8051SOL    HW135612   0.422   0.382   7.767 -1.0282  0.4890  0.5444
 8051SOL    HW235613   0.378   0.240   7.757  0.7321 -1.2592 -1.8159
 8052SOL     OW35614   4.253   3.097   4.802 -0.2688  0.7686 -0.3731
 8052SOL    HW135615   4.176   3.154   4.809 -0.6761  0.2682 -0.8274
 8052SOL    HW235616   4.240   3.043   4.725  0.5831 -0.9828  0.6985
 8053SOL     OW35617   0.998   4.455  16.327  0.4867  1.0628 -0.8056
 8053SOL    HW135618   1.006   4.546  16.356  0.1357  0.7193  0.3971
 8053SOL    HW235619   1.076   4.451  16.272  0.5835 -1.3390 -0.4815
 8054SOL     OW35620   1.753   1.274   7.639 -0.4446 -0.6313 -0.2418
 8054SOL    HW135621   1.794   1.342   7.585 -1.4498  0.3708  0.2465
 8054SOL    HW235622   1.669   1.268   7.593 -0.4614  1.2806 -0.4805
 8055SOL     OW35623   2.563   1.433   4.871 -0.0483 -0.3730 -0.2462
 8055SOL    HW135624   2.491   1.414   4.811 -1.0291 -0.3644  0.9340
 8055SOL    HW235625   2.532   1.520   4.892  2.5423 -0.1665  2.7361
 8056SOL     OW35626   3.269   1.862   8.003 -0.8715 -0.0648 -0.7383
 8056SOL    HW135627   3.355   1.897   8.028 -0.5451 -2.3357  1.3078
 8056SOL    HW235628   3.268   1.788   8.063 -1.3246  0.1571 -0.4699
 8057SOL     OW35629   0.553   0.004   4.856  0.3361  0.6094 -0.4726
 8057SOL    HW135630   0.541   0.024   4.764  0.2237 -0.7858 -0.7644
 8057SOL    HW235631   0.611   0.075   4.884  1.1176 -0.3759  0.4486
 8058SOL     OW35632   2.115   0.192   6.810 -0.1080 -0.4118 -0.3035
 8058SOL    HW135633   2.099   0.116   6.753 -0.0968  0.0182 -0.8789
 8058SOL    HW235634   2.105   0.151   6.896  0.5984  0.9971  0.4375
 8059SOL     OW35635   2.036   2.038   0.298  0.4784 -0.4627 -0.2208
 8059SOL    HW135636   1.989   2.111   0.339 -0.8317 -1.1134 -0.5403
 8059SOL    HW235637   1.975   1.968   0.324  0.3699 -0.2677  0.0448
 8060SOL     OW35638   4.501   1.090   8.831  0.0074  0.4027 -0.6736
 8060SOL    HW135639   4.497   1.141   8.912  1.3054  0.4769 -0.6616
 8060SOL    HW235640   4.572   1.031   8.857  0.2181  0.7447 -0.4735
 8061SOL     OW35641   2.220   3.920   3.501 -0.2069 -0.2197 -0.9155
 8061SOL    HW135642   2.192   3.832   3.525 -2.2241  0.6922  0.0712
 8061SOL    HW235643   2.174   3.961   3.575  0.0237  0.2026 -1.0035
 8062SOL     OW35644   0.840   3.523  13.604  0.0629  0.1776  0.6029
 8062SOL    HW135645   0.929   3.497  13.581 -1.3846 -2.1935 -2.2745
 8062SOL    HW235646   0.864   3.594  13.665  1.3664  0.7027 -0.5128
 8063SOL     OW35647   2.258   3.199  11.771 -0.4038  0.7373  0.5189
 8063SOL    HW135648   2.234   3.120  11.723  0.0420 -0.4575  2.2914
 8063SOL    HW235649   2.295   3.151  11.845  2.7677 -2.4714 -3.1422
 8064SOL     OW35650   2.682   0.365   2.727 -0.1807  0.2294  0.4114
 8064SOL    HW135651   2.665   0.319   2.644  2.0132 -0.1695  0.1996
 8064SOL    HW235652   2.593   0.372   2.761 -0.5453  0.8336 -0.6587
 8065SOL     OW35653   0.002   4.009   7.447 -0.3111 -0.1271  0.2761
 8065SOL    HW135654   0.067   3.969   7.504  2.0909  1.5299 -1.3263
 8065SOL    HW235655   0.017   3.969   7.361  0.0119  1.4325 -0.4032
 8066SOL     OW35656   4.467   0.006   5.956  0.0586 -0.0995  0.0346
 8066SOL    HW135657   4.549   4.706   5.916 -1.6131 -1.3689 -2.5137
 8066SOL    HW235658   4.405   4.712   5.886 -0.0536  1.6019 -0.3788
 8067SOL     OW35659   0.465   4.455   6.527 -0.1178 -0.3124 -0.0790
 8067SOL    HW135660   0.521   4.511   6.580 -1.8030  0.3593  1.0012
 8067SOL    HW235661   0.438   4.401   6.601  2.1943 -0.0250  0.9696
 8068SOL     OW35662   0.937   3.091   8.719  0.1309 -0.4458 -0.0443
 8068SOL    HW135663   0.959   3.118   8.808 -1.1800 -2.0814  0.7650
 8068SOL    HW235664   1.015   3.038   8.703  1.0197  1.8957 -3.5902
 8069SOL     OW35665   4.476   1.994  14.657 -0.2334  0.1950 -0.5122
 8069SOL    HW135666   4.459   2.086  14.678 -1.1842 -0.6285  2.3793
 8069SOL    HW235667   4.484   1.960  14.746 -1.7892  0.3161 -0.3371
 8070SOL     OW35668   4.064   4.303  16.105  0.5414 -0.1164 -0.3788
 8070SOL    HW135669   4.151   4.343  16.108  1.2493 -1.7002  0.1188
 8070SOL    HW235670   4.079   4.251  16.184 -0.6669  1.8301  1.1272
 8071SOL     OW35671   2.299   4.457  11.698  0.2376  0.1074  0.6071
 8071SOL    HW135672   2.286   4.460  11.603  0.6152 -0.6740  0.5281
 8071SOL    HW235673   2.210   4.475  11.728 -0.4560  0.6132 -1.7770
 8072SOL     OW35674   4.127   0.961  15.845  0.4258 -0.5596  0.1167
 8072SOL    HW135675   4.208   0.994  15.807  0.7790  2.3154  3.4643
 8072SOL    HW235676   4.065   1.033  15.836  2.6158  1.3428  0.5047
 8073SOL     OW35677   0.135   1.862  12.978  0.0618  0.2069 -0.9204
 8073SOL    HW135678   0.226   1.890  12.990  0.1226 -0.7825  0.9375
 8073SOL    HW235679   0.087   1.924  13.033 -0.5278  0.4717 -1.7306
 8074SOL     OW35680   3.504   3.848   1.611  0.4331  0.0719  0.1732
 8074SOL    HW135681   3.469   3.935   1.629 -0.4562 -0.6530  2.0093
 8074SOL    HW235682   3.500   3.852   1.516 -0.9297  2.1552  0.3180
 8075SOL     OW35683   0.013   4.297   4.510 -0.1934 -0.4297 -0.7518
 8075SOL    HW135684   4.686   4.221   4.532 -2.4768  1.4952  0.1964
 8075SOL    HW235685   0.103   4.268   4.526 -0.5650 -0.1215  1.8473
 8076SOL     OW35686   1.396   2.592   3.928 -0.2433  0.5524  0.3264
 8076SOL    HW135687   1.415   2.519   3.986 -2.0722 -0.1728  0.0108
 8076SOL    HW235688   1.475   2.644   3.944  0.6331 -1.4857  2.6473
 8077SOL     OW35689   0.919   1.380   6.170  0.3369 -0.3063 -0.3907
 8077SOL    HW135690   0.885   1.469   6.177  2.6171  0.5092  0.3147
 8077SOL    HW235691   0.882   1.342   6.249  0.2430 -1.1339 -0.8296
 8078SOL     OW35692   0.109   3.017   7.595 -0.1155  0.2557  0.6090
 8078SOL    HW135693   0.068   3.028   7.681  0.7561 -1.1987  1.2066
 8078SOL    HW235694   0.062   2.936   7.576  0.8066  0.1057 -0.9894
 8079SOL     OW35695   3.076   0.612   8.258  0.7177  0.4001  0.7424
 8079SOL    HW135696   3.125   0.530   8.267 -0.4080 -0.6620 -2.8979
 8079SOL    HW235697   3.040   0.601   8.170  0.4617  1.8637  0.6624
 8080SOL     OW35698   1.927   1.358  13.777  0.3415 -0.2626  0.1591
 8080SOL    HW135699   1.883   1.294  13.722 -0.1140 -0.4631  0.7528
 8080SOL    HW235700   1.854   1.410  13.809  1.0602  1.4730 -1.0699
 8081SOL     OW35701   0.843   0.392   7.361  0.0141 -0.6536 -0.2374
 8081SOL    HW135702   0.935   0.411   7.347  0.0165  0.5287  1.3526
 8081SOL    HW235703   0.834   0.371   7.454 -0.6133  0.4525 -0.0472
 8082SOL     OW35704   1.001   4.422   3.387 -0.3913  0.2561  0.1067
 8082SOL    HW135705   1.029   4.334   3.414  0.2898  0.5153  0.2549
 8082SOL    HW235706   0.996   4.418   3.291 -1.8784  2.0906  0.1023
 8083SOL     OW35707   3.976   1.786   2.078 -0.4664  0.3464 -1.3321
 8083SOL    HW135708   4.068   1.799   2.053 -0.4299 -0.4578 -1.6434
 8083SOL    HW235709   3.972   1.844   2.153 -1.2000 -3.0892  1.2948
 8084SOL     OW35710   0.479   0.337   4.883  0.1773  0.1625  0.3461
 8084SOL    HW135711   0.441   0.425   4.880  2.3737  1.0766 -0.6575
 8084SOL    HW235712   0.549   0.346   4.819 -0.9146  1.4611 -0.6542
 8085SOL     OW35713   0.603   3.088  10.950  0.4176 -0.2239  0.0040
 8085SOL    HW135714   0.672   3.042  10.903  0.5045  0.3322 -0.3981
 8085SOL    HW235715   0.533   3.023  10.956 -0.4204  0.8332  1.8207
 8086SOL     OW35716   4.102   1.676  15.280 -0.1281 -0.4448  0.2934
 8086SOL    HW135717   4.081   1.763  15.312 -1.0202 -0.5282 -0.0602
 8086SOL    HW235718   4.073   1.620  15.352 -1.5118  0.2040  0.2370
 8087SOL     OW35719   4.623   2.276   3.150  0.4789 -0.4790 -0.4752
 8087SOL    HW135720   4.688   2.303   3.085  1.2131  0.2803  0.5715
 8087SOL    HW235721   4.646   2.183   3.156  0.6224 -0.5564 -2.1005
 8088SOL     OW35722   1.514   2.109   2.467  0.2190 -0.1761 -0.2478
 8088SOL    HW135723   1.574   2.088   2.396 -2.4141  1.1562 -2.8592
 8088SOL    HW235724   1.434   2.073   2.430 -0.0637  0.5305 -0.3405
 8089SOL     OW35725   3.678   3.052  16.974  0.5864 -0.0208 -0.3058
 8089SOL    HW135726   3.734   3.005  16.912  1.1626 -1.1672  1.0743
 8089SOL    HW235727   3.728   3.052  17.056 -0.2095  0.6411  0.1800
 8090SOL     OW35728   4.202   3.464  10.463  0.1495  0.1742 -0.6603
 8090SOL    HW135729   4.188   3.539  10.406  2.5803  0.7033 -0.5638
 8090SOL    HW235730   4.296   3.476  10.481 -0.1836  1.0963  0.4917
 8091SOL     OW35731   1.297   4.719   3.702 -0.1744  0.1160  0.5195
 8091SOL    HW135732   1.349   4.652   3.747 -2.4805 -2.3539 -0.4861
 8091SOL    HW235733   1.239   0.018   3.774  0.0307 -0.3697  0.8550
 8092SOL     OW35734   2.927   3.079   2.830  0.2288 -0.0043 -0.2285
 8092SOL    HW135735   3.007   3.097   2.782  0.9407 -2.7780 -0.0528
 8092SOL    HW235736   2.956   3.058   2.919 -1.1428  2.1952  0.7297
 8093SOL     OW35737   1.636   1.180   5.194 -0.3777  0.3121  0.7947
 8093SOL    HW135738   1.546   1.208   5.208 -0.2952  0.3213  1.3307
 8093SOL    HW235739   1.651   1.123   5.270 -0.8442 -0.1287  0.5554
 8094SOL     OW35740   0.692   1.500   5.829 -0.2985 -0.8754 -0.0583
 8094SOL    HW135741   0.714   1.430   5.890  1.4376  1.7892  2.3986
 8094SOL    HW235742   0.750   1.484   5.754  0.1510  0.8884 -0.0959
 8095SOL     OW35743   0.517   4.500   7.561 -0.0584  0.2278  0.5629
 8095SOL    HW135744   0.539   4.568   7.497  0.4228 -0.4771 -0.0241
 8095SOL    HW235745   0.439   4.533   7.605 -0.5805 -0.2508 -0.0042
 8096SOL     OW35746   1.249   0.301   8.274  0.6241  0.3624 -0.1661
 8096SOL    HW135747   1.261   0.293   8.369 -0.3340 -1.6288 -0.2175
 8096SOL    HW235748   1.173   0.359   8.265  0.6138  0.7081  2.0947
 8097SOL     OW35749   0.764   1.267   4.103  0.0915  0.0248  0.3709
 8097SOL    HW135750   0.779   1.201   4.170  2.0949 -0.4136 -0.4999
 8097SOL    HW235751   0.733   1.224   4.023  1.3883 -1.5100  0.6949
 8098SOL     OW35752   1.745   1.018  10.162  0.3805  0.5003  0.6108
 8098SOL    HW135753   1.676   1.062  10.212  0.5315 -0.8524  2.0281
 8098SOL    HW235754   1.701   0.997  10.080  1.1610 -0.1629  0.3569
 8099SOL     OW35755   4.229   1.183  15.491  0.3123 -0.1010  0.2096
 8099SOL    HW135756   4.265   1.237  15.420  0.3556  0.3600  0.5862
 8099SOL    HW235757   4.199   1.104  15.445 -1.6096 -0.2369  1.6989
 8100SOL     OW35758   0.453   1.133  15.204 -0.4444  0.5486  0.4925
 8100SOL    HW135759   0.472   1.040  15.188 -0.7128  0.1847  2.2892
 8100SOL    HW235760   0.540   1.163  15.178 -1.2532  0.2595 -2.5136
 8101SOL     OW35761   0.827   1.747   7.698  0.2048  0.3558 -0.1156
 8101SOL    HW135762   0.796   1.712   7.614 -0.3071 -1.0081  0.6421
 8101SOL    HW235763   0.751   1.800   7.719 -0.0359  0.4499 -1.1977
 8102SOL     OW35764   3.440   1.343   2.560 -0.1956 -0.6105 -0.9677
 8102SOL    HW135765   3.526   1.385   2.551 -0.7711  0.8518  0.2245
 8102SOL    HW235766   3.466   1.264   2.606  0.9621 -0.0234 -0.6112
 8103SOL     OW35767   0.004   1.333   8.106  0.3801 -0.1392  0.4401
 8103SOL    HW135768   4.717   1.344   8.200  1.5139 -2.7833  0.9108
 8103SOL    HW235769   0.094   1.358   8.085  0.2264  0.3748  0.4051
 8104SOL     OW35770   2.460   0.128   4.812  0.1638  0.0027 -0.2449
 8104SOL    HW135771   2.551   0.112   4.836  0.2311 -0.5588 -0.8831
 8104SOL    HW235772   2.460   0.221   4.788 -1.0188 -0.3390 -1.5790
 8105SOL     OW35773   2.073   4.177   6.885 -0.3678 -0.9591  0.2120
 8105SOL    HW135774   2.122   4.245   6.932 -0.0729 -0.3222 -1.0147
 8105SOL    HW235775   2.151   4.139   6.845  0.9849 -0.0315  1.9776
 8106SOL     OW35776   0.356   1.428   6.886  0.6060 -0.1742 -0.6134
 8106SOL    HW135777   0.292   1.361   6.910  0.6492  0.1468  0.3929
 8106SOL    HW235778   0.395   1.440   6.972 -2.2239  1.4751  0.4426
 8107SOL     OW35779   3.863   4.251   5.851  0.3470 -0.3305  0.4171
 8107SOL    HW135780   3.863   4.331   5.904 -0.8672 -1.5123  2.2197
 8107SOL    HW235781   3.948   4.254   5.807  0.0791  0.6989 -0.0163
 8108SOL     OW35782   0.123   3.489  15.185 -0.2895 -0.1192 -0.3302
 8108SOL    HW135783   0.208   3.501  15.142 -0.3255  0.4568 -0.2354
 8108SOL    HW235784   0.148   3.513  15.274  1.6426  0.5761 -1.0723
 8109SOL     OW35785   4.686   4.670   9.120 -0.6482 -0.0180 -0.2598
 8109SOL    HW135786   4.661   4.646   9.031  1.5115 -0.5298 -0.7465
 8109SOL    HW235787   4.612   4.630   9.165 -0.0453  0.2412  0.9581
 8110SOL     OW35788   1.485   2.562  10.787  0.4596  0.0770 -0.2086
 8110SOL    HW135789   1.550   2.510  10.740 -0.3086  0.1414 -1.3317
 8110SOL    HW235790   1.414   2.566  10.723  1.7564  0.0926 -1.6552
 8111SOL     OW35791   1.192   4.043   6.119  0.2056 -1.0307  0.1914
 8111SOL    HW135792   1.151   3.997   6.192 -0.2127 -1.7185 -0.4767
 8111SOL    HW235793   1.189   4.136   6.142 -2.4497 -0.9097 -0.6332
 8112SOL     OW35794   4.588   4.480   6.249  0.1549  0.4579  0.0124
 8112SOL    HW135795   4.647   4.530   6.305 -0.1963  0.8595  0.0217
 8112SOL    HW235796   4.608   4.392   6.281  1.1611  0.5633 -0.3178
 8113SOL     OW35797   1.469   2.305   5.046 -0.2285  0.1859 -0.1335
 8113SOL    HW135798   1.480   2.216   5.077 -1.3496 -0.5788 -1.9595
 8113SOL    HW235799   1.400   2.302   4.980 -1.6985  2.9600  1.2320
 8114SOL     OW35800   1.514   3.066   5.866 -0.0231  0.0623  0.3304
 8114SOL    HW135801   1.541   3.143   5.916  2.4126  0.5397 -1.7190
 8114SOL    HW235802   1.595   3.061   5.816 -1.2614 -0.0238 -1.6718
 8115SOL     OW35803   2.958   0.789   4.203  0.2533  0.1815 -0.0858
 8115SOL    HW135804   3.026   0.726   4.181  0.7363  1.0927 -1.1735
 8115SOL    HW235805   2.955   0.847   4.128 -1.2844  0.6318  0.3120
 8116SOL     OW35806   2.973   2.748   5.723  0.5136 -0.4692 -0.0405
 8116SOL    HW135807   3.027   2.756   5.802  0.5103  0.3074 -0.1144
 8116SOL    HW235808   2.960   2.654   5.720 -0.7450 -0.3097  0.7041
 8117SOL     OW35809   4.124   1.749  17.320  0.5865 -0.1755  0.1246
 8117SOL    HW135810   4.134   1.668  17.371 -0.7021  0.0449  0.7372
 8117SOL    HW235811   4.176   1.809  17.374  2.7535 -2.7211  0.8666
 8118SOL     OW35812   3.862   3.617   7.571 -0.1653 -0.6662  0.6570
 8118SOL    HW135813   3.828   3.696   7.613 -2.7558 -1.4592  0.0173
 8118SOL    HW235814   3.947   3.596   7.609  0.8795  1.6062 -0.4034
 8119SOL     OW35815   3.496   0.116   7.748  0.3434  0.6299 -0.4390
 8119SOL    HW135816   3.418   0.165   7.773  0.2228  0.4869 -0.5366
 8119SOL    HW235817   3.494   0.051   7.819  1.6710  0.3454 -0.6584
 8120SOL     OW35818   1.133   1.671  12.926  0.0112 -0.3239 -0.1360
 8120SOL    HW135819   1.044   1.703  12.945  0.5478  0.0342  1.8529
 8120SOL    HW235820   1.194   1.744  12.918 -1.0577  0.7058  1.0480
 8121SOL     OW35821   0.534   1.735   3.487 -0.6640  0.4643 -0.6564
 8121SOL    HW135822   0.492   1.790   3.553  0.7660  1.6265 -0.7201
 8121SOL    HW235823   0.624   1.762   3.503 -0.3847 -0.8348 -0.0420
 8122SOL     OW35824   4.426   2.346   4.843  0.6566  0.1475  0.3273
 8122SOL    HW135825   4.521   2.342   4.838  0.6389 -2.0600  1.9560
 8122SOL    HW235826   4.414   2.426   4.893 -0.8438  0.1654 -0.0648
 8123SOL     OW35827   1.891   3.180   1.708 -0.1526  0.1675 -0.3408
 8123SOL    HW135828   1.924   3.090   1.698 -1.5256 -0.5669  1.6071
 8123SOL    HW235829   1.929   3.206   1.792 -0.1352 -1.3159  0.1153
 8124SOL     OW35830   3.076   4.627  10.764  0.0020 -0.4553  0.3630
 8124SOL    HW135831   3.065   4.557  10.829  0.0773  0.1432  1.0149
 8124SOL    HW235832   3.062   4.582  10.680 -1.1924  0.1314  0.2474
 8125SOL     OW35833   2.026   3.178   8.326 -0.2170  0.5849 -0.3154
 8125SOL    HW135834   2.108   3.217   8.297  0.6139 -0.9927 -0.0638
 8125SOL    HW235835   1.976   3.157   8.247 -2.3906  3.0145  0.4006
 8126SOL     OW35836   3.658   2.824   3.248 -0.3756  0.0740  0.5683
 8126SOL    HW135837   3.714   2.862   3.315 -0.5606  1.7915 -0.2469
 8126SOL    HW235838   3.695   2.860   3.168 -2.5169  1.9939  0.4275
 8127SOL     OW35839   0.460   0.816   6.830 -0.1717  0.7389  0.0329
 8127SOL    HW135840   0.400   0.875   6.876  1.3977  1.3261  1.3340
 8127SOL    HW235841   0.519   0.876   6.784 -0.0401  0.4390 -0.1854
 8128SOL     OW35842   0.908   4.122   0.141  0.3266 -0.0726  0.1286
 8128SOL    HW135843   0.985   4.147   0.191  0.1251 -4.0589  2.4573
 8128SOL    HW235844   0.915   4.183   0.067 -2.1800 -1.1982 -1.0616
 8129SOL     OW35845   2.455   2.800   0.794  0.5780  0.0766 -0.6912
 8129SOL    HW135846   2.375   2.853   0.804  0.9424  0.9053 -2.1818
 8129SOL    HW235847   2.434   2.747   0.716 -1.2583  0.5183 -0.5008
 8130SOL     OW35848   1.244   2.752   6.746  0.1757 -0.1796  0.1889
 8130SOL    HW135849   1.263   2.661   6.768  0.5274 -0.4200 -1.1315
 8130SOL    HW235850   1.290   2.755   6.662 -0.0965  1.6490  0.1090
 8131SOL     OW35851   3.586   4.539  17.482 -0.0804  0.3608 -0.0451
 8131SOL    HW135852   3.550   4.566  17.397 -3.6836 -1.1134  1.0283
 8131SOL    HW235853   3.525   4.472  17.512  1.0531  0.9167  3.5144
 8132SOL     OW35854   1.598   1.352   2.432  0.6009  0.0683 -0.4235
 8132SOL    HW135855   1.571   1.301   2.508 -0.2971  0.4781 -0.4686
 8132SOL    HW235856   1.693   1.344   2.433  0.7010  1.4598  0.3620
 8133SOL     OW35857   3.932   2.578   2.181 -0.7274 -0.1704 -0.4970
 8133SOL    HW135858   3.888   2.662   2.193  0.7833  0.6644 -0.7700
 8133SOL    HW235859   3.868   2.519   2.220  0.1777 -1.5554 -1.1437
 8134SOL     OW35860   1.879   1.939   0.057  0.2438  0.2232  0.4323
 8134SOL    HW135861   1.822   2.000   0.011  2.8881 -0.2618 -3.4789
 8134SOL    HW235862   1.932   1.992   0.117 -2.9042  3.6256  0.1717
 8135SOL     OW35863   1.392   3.870   2.052 -0.5788 -0.2837  0.4326
 8135SOL    HW135864   1.403   3.860   1.958 -2.0555  0.3381  0.2031
 8135SOL    HW235865   1.438   3.953   2.065 -0.4535 -0.4190  0.8704
 8136SOL     OW35866   4.545   1.013   2.352  0.3228  0.6918 -0.3486
 8136SOL    HW135867   4.572   0.964   2.275 -2.1450 -2.5274  0.8359
 8136SOL    HW235868   4.465   1.059   2.328  0.7999  0.6393 -2.0495
 8137SOL     OW35869   2.712   3.117   6.559 -0.4024 -0.4197  0.0110
 8137SOL    HW135870   2.624   3.149   6.577 -0.5069 -2.2398  2.6394
 8137SOL    HW235871   2.725   3.072   6.642  0.3703 -0.4900 -0.1458
 8138SOL     OW35872   0.186   4.670   3.467  0.3076  0.3509 -0.1257
 8138SOL    HW135873   0.260   4.673   3.406  0.7097 -0.3990  0.3346
 8138SOL    HW235874   0.141   4.592   3.436 -0.4492  1.1092 -0.9419
 8139SOL     OW35875   4.698   3.110   5.451 -0.3150 -0.4246 -0.0502
 8139SOL    HW135876   0.037   3.141   5.513 -1.6813 -0.4203  1.4061
 8139SOL    HW235877   0.008   3.152   5.374 -1.1032  1.0617  0.3838
 8140SOL     OW35878   1.304   1.589   5.438 -0.1617  0.4375 -0.0456
 8140SOL    HW135879   1.342   1.651   5.501  1.4333  0.8810 -1.4193
 8140SOL    HW235880   1.211   1.611   5.436  0.0102  1.0686 -1.5505
 8141SOL     OW35881   2.430   2.107   7.827  0.8090 -0.0122 -0.9121
 8141SOL    HW135882   2.371   2.038   7.855  0.4527  0.3832 -0.6968
 8141SOL    HW235883   2.495   2.104   7.898 -0.6869  0.1606  0.4572
 8142SOL     OW35884   0.439   3.643   3.022  0.0233 -0.2587 -0.0044
 8142SOL    HW135885   0.404   3.559   3.050 -4.1708  1.9822  1.5336
 8142SOL    HW235886   0.470   3.622   2.934  1.3822 -2.9646  1.1359
 8143SOL     OW35887   2.454   2.260   4.222  0.0951 -0.3177  0.0357
 8143SOL    HW135888   2.403   2.181   4.238 -1.5898  1.1650  2.0286
 8143SOL    HW235889   2.517   2.255   4.293  1.0915  0.3117 -0.7975
 8144SOL     OW35890   0.573   0.469   9.462 -0.6200  0.6945 -0.1685
 8144SOL    HW135891   0.497   0.464   9.519  1.0910  0.6933  2.1118
 8144SOL    HW235892   0.532   0.477   9.376 -0.5236 -0.6976 -0.3426
 8145SOL     OW35893   2.043   4.529   0.704 -0.2989  0.3971  0.5378
 8145SOL    HW135894   2.061   4.458   0.642 -0.0859  0.0406  1.0026
 8145SOL    HW235895   2.089   4.508   0.785 -1.3010  0.1634  1.0488
 8146SOL     OW35896   3.851   1.290   3.865 -0.6235  0.1041  0.1706
 8146SOL    HW135897   3.918   1.330   3.921  1.2068 -1.9115 -0.5881
 8146SOL    HW235898   3.871   1.196   3.868  0.1267  0.2579 -0.1195
 8147SOL     OW35899   4.245   3.864   4.716  0.0168  0.1133  0.2181
 8147SOL    HW135900   4.151   3.846   4.715  0.0060  0.0688  3.6243
 8147SOL    HW235901   4.247   3.949   4.672 -1.5810 -0.9798 -1.9456
 8148SOL     OW35902   1.989   3.184   5.658 -0.3570 -0.4974 -0.8569
 8148SOL    HW135903   2.007   3.165   5.566 -0.8062  0.4724 -1.1381
 8148SOL    HW235904   1.957   3.273   5.647 -1.6816 -0.6809  1.5941
 8149SOL     OW35905   4.046   2.985   2.167  0.1109  0.1472 -0.2224
 8149SOL    HW135906   3.976   3.011   2.228 -0.1531 -1.0859  0.0140
 8149SOL    HW235907   4.013   3.004   2.079 -1.1061 -0.1803  0.1515
 8150SOL     OW35908   2.924   3.101   4.593 -0.4627  0.4876 -0.7504
 8150SOL    HW135909   2.908   3.186   4.633 -1.2606  0.1747 -0.4000
 8150SOL    HW235910   2.843   3.092   4.541 -0.8888 -1.3372  0.2313
 8151SOL     OW35911   3.475   4.488   8.406  0.1724 -0.6631 -0.3429
 8151SOL    HW135912   3.563   4.459   8.381  0.1307 -0.1837 -1.0527
 8151SOL    HW235913   3.454   4.505   8.314 -1.4948 -2.7376 -0.3499
 8152SOL     OW35914   0.315   2.657   2.035  0.1382 -0.2366 -0.0192
 8152SOL    HW135915   0.265   2.732   2.066 -0.7614 -0.9755  0.3354
 8152SOL    HW235916   0.321   2.672   1.941  1.2634  1.8943  0.4040
 8153SOL     OW35917   0.467   0.421   9.826  0.1676  0.2616 -0.7260
 8153SOL    HW135918   0.402   0.456   9.765 -1.4395 -0.1688  0.7231
 8153SOL    HW235919   0.530   0.373   9.772  0.6408  0.0342  0.0406
 8154SOL     OW35920   0.296   2.072   3.917  0.3925 -0.7122 -0.3882
 8154SOL    HW135921   0.287   2.149   3.973  2.1604 -0.0205 -1.0376
 8154SOL    HW235922   0.346   2.116   3.847  0.6838 -0.3890  0.0249
 8155SOL     OW35923   2.962   0.632   0.908 -0.7929  0.6162 -0.2786
 8155SOL    HW135924   2.983   0.725   0.899  0.9211  0.4117  1.6680
 8155SOL    HW235925   2.888   0.619   0.848 -2.0167  0.2954  1.3001
 8156SOL     OW35926   3.818   4.421   2.762  0.3943 -0.0642  0.0724
 8156SOL    HW135927   3.856   4.478   2.695  1.9447 -0.6485  0.4518
 8156SOL    HW235928   3.794   4.482   2.831  0.6635 -0.0977  0.1979
 8157SOL     OW35929   0.243   1.804   8.560 -0.2045 -0.1279  0.3842
 8157SOL    HW135930   0.334   1.811   8.589 -0.7778  0.6230  1.9901
 8157SOL    HW235931   0.221   1.889   8.523  0.5008 -0.1714 -0.1261
 8158SOL     OW35932   3.386   4.205  11.392  0.1074 -0.0933  0.7270
 8158SOL    HW135933   3.445   4.271  11.428  1.1267 -1.3481  1.3184
 8158SOL    HW235934   3.319   4.269  11.366 -0.6314 -1.2496 -0.2050
 8159SOL     OW35935   1.406   3.726   4.105 -0.7430 -0.0770  0.0837
 8159SOL    HW135936   1.326   3.687   4.140 -0.7085  0.3317  0.6147
 8159SOL    HW235937   1.376   3.764   4.023 -0.4465  2.4276  1.1344
 8160SOL     OW35938   2.736   3.763   2.722  0.3500 -0.3301  0.2389
 8160SOL    HW135939   2.775   3.850   2.730 -2.5739  1.0685 -0.5503
 8160SOL    HW235940   2.803   3.714   2.769  0.9367 -0.1905 -0.4547
 8161SOL     OW35941   1.695   3.622  12.265 -0.4754  0.3665 -0.2359
 8161SOL    HW135942   1.747   3.632  12.345  0.4518 -0.9051 -0.6861
 8161SOL    HW235943   1.688   3.715  12.240 -3.3088  0.1391 -0.1899
 8162SOL     OW35944   2.241   1.858  11.267 -0.6180  0.0306  0.2636
 8162SOL    HW135945   2.215   1.766  11.274 -0.0294 -0.2302 -1.0471
 8162SOL    HW235946   2.239   1.885  11.359  1.0119  1.4604 -0.1267
 8163SOL     OW35947   1.215   4.067   1.595 -0.2567  1.1388 -0.2125
 8163SOL    HW135948   1.159   4.138   1.626 -0.8665  0.1743  0.9058
 8163SOL    HW235949   1.172   4.037   1.515 -0.6537 -0.6345  0.6617
 8164SOL     OW35950   2.972   1.713   1.025 -0.2678  0.0757  0.2255
 8164SOL    HW135951   3.056   1.678   1.055 -1.1622 -2.5837 -0.4330
 8164SOL    HW235952   2.981   1.794   1.076 -1.6170  0.0828  0.4497
 8165SOL     OW35953   4.456   2.288   9.516  0.0751  0.2371 -0.5669
 8165SOL    HW135954   4.426   2.362   9.569 -1.1152  0.5837 -1.7448
 8165SOL    HW235955   4.375   2.250   9.482  0.8346 -1.7101 -0.2178
 8166SOL     OW35956   4.458   0.867  10.015  0.2604  0.4169 -0.2880
 8166SOL    HW135957   4.374   0.864  10.061  1.0673  1.1944  1.2482
 8166SOL    HW235958   4.496   0.782  10.035 -0.9697  0.2912  1.5075
 8167SOL     OW35959   4.650   2.955   1.762 -0.1825 -0.0694  0.3760
 8167SOL    HW135960   4.578   2.892   1.756 -0.9716  0.6859  2.0050
 8167SOL    HW235961   4.608   3.041   1.756 -0.8304 -0.4373 -0.4257
 8168SOL     OW35962   3.697   2.443   2.966  0.3435  0.2710 -0.4135
 8168SOL    HW135963   3.723   2.523   3.012 -0.0599 -1.8376  3.4822
 8168SOL    HW235964   3.644   2.478   2.894  1.0384 -1.5291 -1.7850
 8169SOL     OW35965   1.747   1.562   0.320 -0.1000  0.2790  0.2809
 8169SOL    HW135966   1.802   1.533   0.247  0.5183  0.9190  0.4898
 8169SOL    HW235967   1.722   1.650   0.292 -1.3829  0.1475  1.0006
 8170SOL     OW35968   4.391   0.489  16.000 -0.2706 -0.0787  0.1150
 8170SOL    HW135969   4.455   0.560  16.006 -1.1584  0.5887  1.6082
 8170SOL    HW235970   4.312   0.537  15.974 -0.0375  0.5219  0.5093
 8171SOL     OW35971   2.205   1.054   1.452  0.3415 -0.0980  0.5804
 8171SOL    HW135972   2.188   1.132   1.399 -2.5991  0.0010  1.6696
 8171SOL    HW235973   2.216   0.980   1.393  0.3663 -1.0230  1.7382
 8172SOL     OW35974   4.354   1.750  15.181 -0.0585 -0.0305 -0.1230
 8172SOL    HW135975   4.276   1.709  15.217 -0.3820 -0.4331 -1.2669
 8172SOL    HW235976   4.417   1.703  15.236 -0.1644  0.9307  0.8087
 8173SOL     OW35977   3.459   1.265  15.593  0.0631 -0.0037 -0.0590
 8173SOL    HW135978   3.503   1.249  15.510 -1.1641  0.9776 -0.8843
 8173SOL    HW235979   3.379   1.216  15.576  0.0227 -0.1939  0.6571
 8174SOL     OW35980   0.216   1.072  12.063  0.4068  0.1683  0.2951
 8174SOL    HW135981   0.276   1.005  12.095 -0.5884 -0.7592  0.2482
 8174SOL    HW235982   0.237   1.076  11.970  0.0601 -0.5739  0.1829
 8175SOL     OW35983   0.156   3.769   9.375 -0.1350  0.6031 -0.6575
 8175SOL    HW135984   0.131   3.821   9.299 -0.7416  0.1777 -0.7501
 8175SOL    HW235985   0.151   3.827   9.451  0.0900 -0.4623  0.1829
 8176SOL     OW35986   1.576   1.554   1.837 -0.1485 -0.1730  0.2029
 8176SOL    HW135987   1.594   1.641   1.874  0.2186 -0.0158 -0.3475
 8176SOL    HW235988   1.554   1.560   1.744 -2.4031 -0.1982  0.7457
 8177SOL     OW35989   1.909   0.348   4.798  0.3051  0.3754  0.2164
 8177SOL    HW135990   1.885   0.342   4.706  3.0419  0.9246 -0.5370
 8177SOL    HW235991   1.994   0.303   4.801 -1.4291 -2.7194  2.5591
 8178SOL     OW35992   1.672   0.885   3.129  0.6936  0.7959 -0.3536
 8178SOL    HW135993   1.659   0.979   3.139 -1.0519  0.2758  2.1764
 8178SOL    HW235994   1.666   0.859   3.221  0.7066  0.1912 -0.5240
 8179SOL     OW35995   3.436   2.900   1.828 -0.2364 -0.1331 -0.0917
 8179SOL    HW135996   3.361   2.891   1.886  1.2459 -1.6758  1.5794
 8179SOL    HW235997   3.516   2.889   1.878 -0.6228 -1.9971  0.1224
 8180SOL     OW35998   3.637   2.230  17.498  0.6068  0.5165  0.4526
 8180SOL    HW135999   3.723   2.199  17.468 -0.1093 -0.7880 -0.2403
 8180SOL    HW236000   3.590   2.153  17.529 -0.2434  0.4002 -1.1346
 8181SOL     OW36001   1.951   1.953   2.504 -0.0672 -0.2665 -0.1735
 8181SOL    HW136002   1.990   1.911   2.427 -0.5550  2.2231 -1.7938
 8181SOL    HW236003   1.946   2.041   2.467  1.1936 -0.3020 -0.4055
 8182SOL     OW36004   2.646   4.660   2.635  0.1912 -0.5085  0.0287
 8182SOL    HW136005   2.581   4.721   2.667  2.6695  2.1386  0.0142
 8182SOL    HW236006   2.718   4.711   2.597  1.0373 -0.6618  1.3987
 8183SOL     OW36007   1.167   4.264   3.696 -0.1982 -0.1472  0.0788
 8183SOL    HW136008   1.103   4.327   3.729  1.7846  1.1134  1.5069
 8183SOL    HW236009   1.199   4.222   3.776  0.3512 -1.7725 -0.9872
 8184SOL     OW36010   0.182   1.685  14.986  0.0840  0.2576  0.1055
 8184SOL    HW136011   0.196   1.691  14.891  2.5682 -1.3708  0.3543
 8184SOL    HW236012   0.243   1.749  15.021  2.4471 -1.6072 -0.5899
 8185SOL     OW36013   3.478   3.452   4.507  0.0282 -0.3552 -0.4677
 8185SOL    HW136014   3.554   3.425   4.558  0.1523 -0.8062 -0.8999
 8185SOL    HW236015   3.516   3.490   4.428  1.2126 -0.6139 -0.0140
 8186SOL     OW36016   0.345   2.106   7.208 -0.1975 -0.4053 -0.9444
 8186SOL    HW136017   0.267   2.104   7.152 -2.5630 -0.7165  2.3711
 8186SOL    HW236018   0.392   2.175   7.163 -1.3135 -0.5510 -2.3569
 8187SOL     OW36019   2.217   0.963   6.113  0.7537 -0.3923 -0.0628
 8187SOL    HW136020   2.151   0.904   6.076  0.7475 -0.6512  0.3707
 8187SOL    HW236021   2.280   0.906   6.156 -0.5220 -1.1273  0.8057
 8188SOL     OW36022   4.180   0.580   1.815 -0.2907  0.3294 -0.1583
 8188SOL    HW136023   4.264   0.559   1.854 -0.7310 -1.0951  0.0049
 8188SOL    HW236024   4.208   0.627   1.736 -2.6665  1.5694 -0.2616
 8189SOL     OW36025   4.227   4.102  14.915 -0.6104 -0.2700 -0.2789
 8189SOL    HW136026   4.295   4.112  14.848  1.2649 -0.3645  1.6025
 8189SOL    HW236027   4.277   4.038  14.965  1.7103  1.8553  0.0846
 8190SOL     OW36028   1.956   1.984   7.491  0.2669  0.1576 -0.2061
 8190SOL    HW136029   1.947   1.985   7.586  0.9833  1.0708 -0.1435
 8190SOL    HW236030   1.985   2.074   7.474 -0.6362  0.0848 -2.1489
 8191SOL     OW36031   1.717   3.515   5.372 -0.2735 -0.0390 -0.0781
 8191SOL    HW136032   1.654   3.562   5.317 -0.1051 -0.5571 -0.7109
 8191SOL    HW236033   1.654   3.465   5.424 -1.5359  1.2669 -0.3162
 8192SOL     OW36034   2.340   2.024   3.551  0.2485 -0.7378 -0.2411
 8192SOL    HW136035   2.399   2.093   3.519  1.0127 -1.3526 -0.1639
 8192SOL    HW236036   2.408   1.986   3.607 -2.8967 -2.3097  2.4726
 8193SOL     OW36037   1.582   1.712  11.615  0.3011 -0.1666 -0.8565
 8193SOL    HW136038   1.578   1.795  11.566  0.4397  2.0243  2.8750
 8193SOL    HW236039   1.588   1.654  11.539  2.2803 -3.1856  1.6164
 8194SOL     OW36040   3.319   1.390   8.692  0.3814  0.6369 -0.4671
 8194SOL    HW136041   3.262   1.351   8.627  1.3632  1.1005 -1.6146
 8194SOL    HW236042   3.332   1.308   8.740 -1.2925 -0.7011 -2.2953
 8195SOL     OW36043   3.415   3.355  15.296  0.2457 -0.2954 -0.1343
 8195SOL    HW136044   3.339   3.411  15.311 -2.0923 -2.6279 -3.1579
 8195SOL    HW236045   3.463   3.368  15.377  1.3894  0.0363 -0.8680
 8196SOL     OW36046   1.916   3.852   6.112 -0.0131  0.4153 -0.2458
 8196SOL    HW136047   1.822   3.846   6.130 -0.0947 -1.6648 -1.4387
 8196SOL    HW236048   1.922   3.907   6.034  2.2488  1.1511  0.4402
 8197SOL     OW36049   1.683   0.158   1.872  0.5794 -0.2073  0.3637
 8197SOL    HW136050   1.604   0.155   1.819  0.0425  0.9719  1.1067
 8197SOL    HW236051   1.728   0.233   1.834  0.4242  0.0114  0.6122
 8198SOL     OW36052   2.721   1.845   5.342 -0.8338 -0.1264 -0.1121
 8198SOL    HW136053   2.734   1.756   5.308 -1.7465  0.8317 -3.0147
 8198SOL    HW236054   2.802   1.884   5.308  0.2939  0.2217  2.9421
 8199SOL     OW36055   0.369   4.300   7.027 -0.1053 -0.1697 -0.0169
 8199SOL    HW136056   0.395   4.370   7.088 -2.1063  0.9670 -0.4605
 8199SOL    HW236057   0.282   4.283   7.064  1.2338 -2.0153  2.2762
 8200SOL     OW36058   4.488   2.677   7.531  0.0281 -0.0814 -0.1566
 8200SOL    HW136059   4.512   2.607   7.592 -1.1470 -0.7108 -0.4272
 8200SOL    HW236060   4.565   2.685   7.475 -0.8737 -1.3386 -1.5863
 8201SOL     OW36061   3.899   3.786  14.177 -0.4590 -0.0614 -0.5489
 8201SOL    HW136062   3.932   3.745  14.257  1.2559 -0.1839 -1.3062
 8201SOL    HW236063   3.851   3.714  14.138 -2.4591  1.9302 -1.7231
 8202SOL     OW36064   1.883   0.103  17.589  0.3810 -0.0598 -0.0474
 8202SOL    HW136065   1.968   0.118  17.630  0.4552  0.3259 -0.3337
 8202SOL    HW236066   1.841   0.184  17.618 -0.4011  0.2073 -1.8741
 8203SOL     OW36067   4.292   1.462   9.694  0.1080 -0.1636  0.1685
 8203SOL    HW136068   4.252   1.481   9.609 -1.2078 -0.8662  0.6351
 8203SOL    HW236069   4.217   1.416   9.730 -0.5491  0.3766 -0.4866
 8204SOL     OW36070   2.342   2.718   0.553 -0.3145  0.3250 -0.0675
 8204SOL    HW136071   2.305   2.804   0.535  0.7527  0.6203 -0.8159
 8204SOL    HW236072   2.266   2.688   0.603  0.1414 -1.7718 -0.6142
 8205SOL     OW36073   2.631   2.192   4.414  0.0125  0.4362  0.4067
 8205SOL    HW136074   2.623   2.196   4.509 -0.9660  2.0782  0.2396
 8205SOL    HW236075   2.665   2.102   4.414  0.1163  0.4722 -0.4928
 8206SOL     OW36076   1.625   3.089   4.789 -0.2258 -0.2614  0.3885
 8206SOL    HW136077   1.642   3.113   4.698  2.1569 -0.4382  0.7951
 8206SOL    HW236078   1.541   3.134   4.795  0.3962  1.0092 -0.4870
 8207SOL     OW36079   0.268   4.177   4.573  0.0330 -0.0503 -0.5725
 8207SOL    HW136080   0.286   4.115   4.644  0.9648 -0.8934 -1.5415
 8207SOL    HW236081   0.322   4.163   4.495  0.1512  1.3334 -0.7331
 8208SOL     OW36082   1.027   1.004   6.969  0.4528 -0.3082  0.3643
 8208SOL    HW136083   1.018   1.069   6.900  1.3754 -1.8687 -1.2362
 8208SOL    HW236084   1.110   1.042   6.996 -0.0544 -0.0232  1.5392
 8209SOL     OW36085   3.654   2.561   3.263 -0.0732  0.0823 -0.0986
 8209SOL    HW136086   3.653   2.655   3.282  0.9112  0.5137 -2.2741
 8209SOL    HW236087   3.744   2.538   3.287 -0.6921 -1.2123  1.0008
 8210SOL     OW36088   2.575   1.284  10.926  0.2979  0.2458  1.0105
 8210SOL    HW136089   2.553   1.262  11.016 -2.0613 -1.7130 -0.0782
 8210SOL    HW236090   2.575   1.380  10.924 -3.1982  0.2005 -1.4139
 8211SOL     OW36091   0.211   0.376   8.673  0.1203  0.4289  0.4024
 8211SOL    HW136092   0.277   0.438   8.703 -0.5621 -0.3781  3.6516
 8211SOL    HW236093   0.209   0.402   8.581  0.9137  2.0579  0.8512
 8212SOL     OW36094   3.747   3.178  16.627 -0.5912  0.0636  0.3800
 8212SOL    HW136095   3.786   3.104  16.582 -1.7794 -1.7432  2.3408
 8212SOL    HW236096   3.658   3.173  16.593  0.7023 -2.0795 -2.6759
 8213SOL     OW36097   4.235   4.393   3.312 -0.1426 -0.1078 -0.0801
 8213SOL    HW136098   4.273   4.480   3.327 -2.2385  0.8047 -0.0747
 8213SOL    HW236099   4.316   4.347   3.291  0.1105 -0.7565  2.3517
 8214SOL     OW36100   1.197   3.333   9.177 -0.0133  0.2886 -0.4235
 8214SOL    HW136101   1.249   3.285   9.241 -1.3224 -0.8164 -0.1776
 8214SOL    HW236102   1.194   3.422   9.211  2.6271 -0.4111  1.6427
 8215SOL     OW36103   0.699   2.351   6.043 -0.2021 -0.3949  0.0413
 8215SOL    HW136104   0.665   2.403   6.117  0.3840 -0.4809  0.3672
 8215SOL    HW236105   0.746   2.413   5.987 -0.6787 -0.4920 -0.4672
 8216SOL     OW36106   3.919   1.082   4.588 -0.1164 -0.2023 -0.3789
 8216SOL    HW136107   3.852   1.106   4.652  1.9870  2.1563  0.9758
 8216SOL    HW236108   3.926   0.989   4.608  1.9518  0.4605  2.0499
 8217SOL     OW36109   1.679   3.664   4.895 -0.2516  0.1034  0.2389
 8217SOL    HW136110   1.691   3.581   4.942  2.4301  1.9016  2.7418
 8217SOL    HW236111   1.598   3.700   4.931  0.4567 -0.8661  2.8747
 8218SOL     OW36112   4.534   1.870   3.799 -0.9441  0.4393 -0.3448
 8218SOL    HW136113   4.582   1.794   3.767 -1.3955  0.0682 -0.1404
 8218SOL    HW236114   4.570   1.880   3.887  1.7516  0.9852 -1.5014
 8219SOL     OW36115   2.979   3.687   4.093  0.0160 -0.0554  0.2064
 8219SOL    HW136116   3.015   3.613   4.045  1.4275  1.7876 -1.5540
 8219SOL    HW236117   2.965   3.657   4.183 -1.1076 -1.0887 -0.3136
 8220SOL     OW36118   1.435   2.385   2.341  0.4169  0.0612  0.1172
 8220SOL    HW136119   1.416   2.456   2.402  2.0275 -1.4196  2.3369
 8220SOL    HW236120   1.461   2.311   2.396  0.1448  0.1029  0.2992
 8221SOL     OW36121   4.678   1.992   2.319  0.1572  0.1212 -0.2872
 8221SOL    HW136122   4.672   2.024   2.229 -2.0924  2.0752  0.5485
 8221SOL    HW236123   4.655   1.900   2.306 -0.5608  0.4096 -1.0311
 8222SOL     OW36124   4.022   0.275   6.869 -0.0774 -0.0034 -0.4151
 8222SOL    HW136125   4.041   0.294   6.961 -3.0347  0.3555  0.1341
 8222SOL    HW236126   4.049   0.184   6.862 -0.3402 -0.1917  0.9185
 8223SOL     OW36127   2.017   4.035   6.316  0.1306  0.2238  0.0366
 8223SOL    HW136128   1.971   4.116   6.295  0.6846  0.0225 -2.0377
 8223SOL    HW236129   1.987   3.980   6.244 -0.8891 -0.8015  1.2684
 8224SOL     OW36130   0.721   0.821  17.169  0.0546  0.1492  0.7603
 8224SOL    HW136131   0.773   0.746  17.141  1.1231  1.2390 -0.2139
 8224SOL    HW236132   0.709   0.855  17.080 -1.4262  0.5263  1.1023
 8225SOL     OW36133   1.927   1.233   4.266  0.3682  0.4455  0.2942
 8225SOL    HW136134   1.952   1.260   4.354  2.0376  0.3728 -0.1576
 8225SOL    HW236135   1.999   1.175   4.242  0.7175  0.7054  0.7125
 8226SOL     OW36136   0.044   0.527   6.347 -0.0938 -0.3570  0.5067
 8226SOL    HW136137   4.705   0.485   6.402  1.0356 -0.2755  1.9256
 8226SOL    HW236138   0.081   0.590   6.409  1.0260  0.9407 -1.4997
 8227SOL     OW36139   2.629   3.223   8.100 -0.7776  0.6013 -0.5367
 8227SOL    HW136140   2.559   3.262   8.152 -1.9096  1.2381 -2.5267
 8227SOL    HW236141   2.637   3.144   8.153  2.7562  0.2165 -1.6307
 8228SOL     OW36142   3.310   3.922   5.668 -0.1156 -0.1155  0.1758
 8228SOL    HW136143   3.393   3.945   5.627  0.0942 -0.7230  0.2538
 8228SOL    HW236144   3.355   3.869   5.734 -3.1807 -1.9990  0.7601
 8229SOL     OW36145   0.408   2.112   7.851  0.5266 -0.2433 -0.0560
 8229SOL    HW136146   0.482   2.164   7.884 -0.2107  0.2956  0.7545
 8229SOL    HW236147   0.353   2.117   7.928  1.0137 -1.8766  0.3801
 8230SOL     OW36148   3.458   1.663   5.686 -0.1409 -0.3292  0.0322
 8230SOL    HW136149   3.528   1.728   5.676 -1.8158  1.3308 -0.9888
 8230SOL    HW236150   3.446   1.668   5.781  0.0628 -1.2933  0.0989
 8231SOL     OW36151   4.487   2.746   8.021  0.1306  0.9230  0.2596
 8231SOL    HW136152   4.444   2.806   7.959  1.5501  1.8583  0.1951
 8231SOL    HW236153   4.510   2.669   7.969  1.9030  0.4101  1.8277
 8232SOL     OW36154   2.794   1.781  16.318  0.0372 -0.5054 -0.3312
 8232SOL    HW136155   2.871   1.784  16.376 -1.2563  0.8675  1.3406
 8232SOL    HW236156   2.845   1.750  16.244  0.2227 -0.2848 -0.2973
 8233SOL     OW36157   0.790   0.430   3.710  0.8429 -0.2282  0.2653
 8233SOL    HW136158   0.863   0.368   3.713  1.0371  0.0277  0.7506
 8233SOL    HW236159   0.838   0.510   3.692 -0.2401 -0.1107 -2.0462
 8234SOL     OW36160   0.103   0.128   1.376 -0.2520  0.5312  0.5757
 8234SOL    HW136161   0.184   0.094   1.414  0.2329 -1.2695 -2.0574
 8234SOL    HW236162   0.040   0.081   1.430 -1.7932  0.9493 -0.8531
 8235SOL     OW36163   0.999   2.155  13.886 -0.1880 -0.4697  0.3083
 8235SOL    HW136164   1.031   2.074  13.925  0.4844 -0.7834 -0.8980
 8235SOL    HW236165   1.032   2.143  13.797  0.7098  1.5918  0.3577
 8236SOL     OW36166   1.678   2.502   8.786 -0.6542 -0.1563  0.2781
 8236SOL    HW136167   1.624   2.432   8.749 -0.8729  0.3641 -0.3996
 8236SOL    HW236168   1.668   2.481   8.879  1.4377  0.1123  0.5765
 8237SOL     OW36169   2.389   0.908   7.372 -0.7974  0.6324 -0.4471
 8237SOL    HW136170   2.436   0.992   7.376  0.0455  0.1785 -0.6697
 8237SOL    HW236171   2.471   0.867   7.345 -0.9085  0.6999 -0.8843
 8238SOL     OW36172   2.387   2.955   5.665 -0.3409 -0.4058  0.0961
 8238SOL    HW136173   2.331   2.939   5.589 -0.3591  0.0739  0.0080
 8238SOL    HW236174   2.348   3.033   5.703  0.6036 -0.7478  1.7870
 8239SOL     OW36175   0.674   0.605  12.830  0.1535 -0.1712  0.2124
 8239SOL    HW136176   0.626   0.538  12.879 -1.7698  0.2831 -1.0634
 8239SOL    HW236177   0.624   0.681  12.861 -0.3449 -0.7104  0.7368
 8240SOL     OW36178   4.486   0.269  12.520  0.9273  0.0964  0.0821
 8240SOL    HW136179   4.497   0.335  12.589  1.8505 -1.1380  1.1354
 8240SOL    HW236180   4.567   0.219  12.530  1.3584  0.6165 -0.8245
 8241SOL     OW36181   1.671   3.438   8.930  0.1698  1.2028  0.0075
 8241SOL    HW136182   1.685   3.406   8.841 -2.7617  2.4828 -0.9014
 8241SOL    HW236183   1.764   3.446   8.952 -0.0854 -0.9541  1.7824
 8242SOL     OW36184   4.549   1.851   6.353 -0.0243  0.3005 -0.0566
 8242SOL    HW136185   4.507   1.794   6.289  0.2541  1.1782 -1.0060
 8242SOL    HW236186   4.612   1.789   6.391  0.0729 -1.4126 -3.0511
 8243SOL     OW36187   4.549   3.735   5.511 -0.1397  0.3790 -0.0392
 8243SOL    HW136188   4.620   3.798   5.499  1.5840 -1.8148 -1.2460
 8243SOL    HW236189   4.596   3.661   5.472  0.6824  1.6334 -1.4069
 8244SOL     OW36190   3.200   1.911  16.719  0.3243  0.3181 -0.2820
 8244SOL    HW136191   3.141   1.941  16.650 -2.1930 -2.5519  0.5827
 8244SOL    HW236192   3.228   1.822  16.695 -1.8352 -0.0570 -1.4384
 8245SOL     OW36193   1.400   4.353   2.610  0.2575 -0.2721 -0.3320
 8245SOL    HW136194   1.307   4.351   2.589  0.0980  1.1353  0.3194
 8245SOL    HW236195   1.446   4.358   2.526  0.1258 -1.7204 -0.4906
 8246SOL     OW36196   2.285   2.554  14.921  0.3396 -0.1621 -0.3028
 8246SOL    HW136197   2.278   2.548  14.826 -1.5167 -3.1135  0.0125
 8246SOL    HW236198   2.352   2.622  14.926  0.0806  0.0469  0.3838
 8247SOL     OW36199   0.672   0.131   7.521  0.2477 -0.2736  0.4643
 8247SOL    HW136200   0.602   0.192   7.498 -1.1545 -1.0744  2.5908
 8247SOL    HW236201   0.660   0.116   7.615 -0.8119 -1.0444  0.2065
 8248SOL     OW36202   0.707   4.703   1.963 -0.0119 -0.1855  0.1609
 8248SOL    HW136203   0.790   0.021   1.981 -1.0502  1.4789  0.8722
 8248SOL    HW236204   0.691   4.650   2.041  1.1299  1.3545  1.4675
 8249SOL     OW36205   1.867   3.850   4.944 -0.3715 -0.0715 -0.2966
 8249SOL    HW136206   1.795   3.801   4.903  0.6146 -1.2308 -0.6549
 8249SOL    HW236207   1.838   3.940   4.931 -1.3715 -0.0939  1.7340
 8250SOL     OW36208   0.207   3.745   8.025  0.3654  0.3222 -0.0158
 8250SOL    HW136209   0.242   3.662   8.056 -0.7671 -1.3029 -3.0764
 8250SOL    HW236210   0.141   3.770   8.090  1.0812  0.0871  0.8038
 8251SOL     OW36211   2.292   4.564   8.501 -0.5332  0.7566  0.1534
 8251SOL    HW136212   2.318   4.645   8.545  0.4483  0.9103 -0.6760
 8251SOL    HW236213   2.247   4.518   8.571 -0.7543  0.4720 -0.1727
 8252SOL     OW36214   0.378   2.253  10.069 -0.3773  0.3215  0.1175
 8252SOL    HW136215   0.417   2.193  10.005 -1.4692 -0.5887  0.3023
 8252SOL    HW236216   0.413   2.217  10.150 -1.3998  0.1918  0.5076
 8253SOL     OW36217   2.657   0.577   3.470  0.0181  0.2730  0.1862
 8253SOL    HW136218   2.599   0.638   3.517 -0.8748 -0.8705  0.5617
 8253SOL    HW236219   2.714   0.538   3.536  0.1498  1.7102  0.9353
 8254SOL     OW36220   1.126   1.784  10.812  0.0725 -0.0607  0.0212
 8254SOL    HW136221   1.036   1.794  10.842 -0.3964 -0.3539 -1.2915
 8254SOL    HW236222   1.137   1.871  10.774  1.0156 -0.4141 -0.5408
 8255SOL     OW36223   2.839   3.988   5.432 -0.3406 -0.5846  0.3838
 8255SOL    HW136224   2.745   3.991   5.412 -0.0180  0.3780 -0.9680
 8255SOL    HW236225   2.849   3.939   5.514 -0.8597 -0.0227  0.7834
 8256SOL     OW36226   2.803   1.265   9.824 -0.0268  0.0016 -0.2510
 8256SOL    HW136227   2.786   1.243   9.732 -0.3775 -0.2856 -0.1127
 8256SOL    HW236228   2.713   1.282   9.849 -0.5189 -0.2852 -1.8089
 8257SOL     OW36229   0.043   4.427   2.504 -0.5376 -0.4385 -0.3320
 8257SOL    HW136230   0.137   4.426   2.518 -0.6315  1.3101  0.4036
 8257SOL    HW236231   0.022   4.488   2.575 -0.9789 -1.4406  0.3930
 8258SOL     OW36232   3.678   0.670   1.129  0.1353 -0.1155  0.4368
 8258SOL    HW136233   3.753   0.630   1.174  0.0206 -0.4478  0.3313
 8258SOL    HW236234   3.707   0.657   1.039 -1.0176  0.3392  0.0024
 8259SOL     OW36235   3.843   2.927   6.510 -0.2535 -0.1176 -0.9714
 8259SOL    HW136236   3.932   2.905   6.539  0.0238  3.7969  1.1830
 8259SOL    HW236237   3.811   2.838   6.519 -0.7490  0.2224  0.6744
 8260SOL     OW36238   1.479   2.916   3.992 -0.0518 -0.3706  0.2585
 8260SOL    HW136239   1.406   2.921   4.054  0.2639 -0.1090  0.6083
 8260SOL    HW236240   1.545   2.862   4.037  0.9584  1.4095  0.9066
 8261SOL     OW36241   1.025   3.279   4.627  0.4414  0.5646 -0.2979
 8261SOL    HW136242   1.063   3.346   4.685 -0.0417  0.4442  0.1585
 8261SOL    HW236243   1.096   3.215   4.621  1.6078  1.9195 -0.9116
 8262SOL     OW36244   2.416   2.841   4.146 -0.0593  0.3750 -0.2217
 8262SOL    HW136245   2.371   2.921   4.121  0.0864  0.4617 -0.2018
 8262SOL    HW236246   2.495   2.842   4.093 -0.3179  0.1382 -0.6106
 8263SOL     OW36247   0.426   2.091   7.510  0.6544  0.0642 -0.0020
 8263SOL    HW136248   0.418   2.057   7.421  0.4321  0.8444 -0.2866
 8263SOL    HW236249   0.518   2.118   7.513 -0.0134  2.2235  1.6940
 8264SOL     OW36250   1.315   0.261   6.799 -0.2644 -0.0888  0.2184
 8264SOL    HW136251   1.345   0.346   6.765  0.2526 -0.8499 -1.2038
 8264SOL    HW236252   1.242   0.281   6.858 -0.5817 -0.0415 -0.1854
 8265SOL     OW36253   3.473   0.827   1.935 -0.5507  0.2807  0.3204
 8265SOL    HW136254   3.543   0.763   1.924 -1.0520 -0.4340  1.2845
 8265SOL    HW236255   3.411   0.791   1.871 -0.7734  1.8343 -0.3209
 8266SOL     OW36256   1.690   1.382   4.848 -0.1112 -0.0232 -0.0656
 8266SOL    HW136257   1.763   1.345   4.899 -0.1767  1.6478  1.2323
 8266SOL    HW236258   1.656   1.448   4.908  1.9185  0.6296  0.3701
 8267SOL     OW36259   1.791   0.121   6.665 -0.9370 -0.3482 -0.1882
 8267SOL    HW136260   1.746   0.106   6.748  0.5711 -1.3041  0.4505
 8267SOL    HW236261   1.818   0.212   6.679 -0.7514 -0.5469  0.7371
 8268SOL     OW36262   2.143   3.376  10.453  0.6868  0.4528  0.3985
 8268SOL    HW136263   2.165   3.418  10.536  2.3103 -0.8641  0.6351
 8268SOL    HW236264   2.050   3.356  10.461  0.3755  0.8796 -2.2754
 8269SOL     OW36265   3.700   3.694   0.266  0.0356 -0.2755 -0.1501
 8269SOL    HW136266   3.618   3.671   0.311 -1.4401  1.3320 -1.9854
 8269SOL    HW236267   3.743   3.609   0.269 -2.4673 -1.5725 -0.4623
 8270SOL     OW36268   4.429   1.594   7.948 -0.0459  0.6012 -0.0039
 8270SOL    HW136269   4.388   1.581   8.033 -3.5851  1.4608 -1.5907
 8270SOL    HW236270   4.389   1.675   7.917 -0.8149  0.3442  0.2962
 8271SOL     OW36271   0.592   0.847  10.391 -0.5132 -0.0478 -1.0761
 8271SOL    HW136272   0.568   0.860  10.299  0.1781 -1.3981 -1.4454
 8271SOL    HW236273   0.664   0.908  10.406 -0.3188 -0.3279 -0.8710
 8272SOL     OW36274   0.898   0.227   6.249 -0.5544 -0.0803 -0.8488
 8272SOL    HW136275   0.928   0.293   6.186  0.5985  1.2270  1.1018
 8272SOL    HW236276   0.984   0.196   6.276  0.7300  3.9307 -0.2509
 8273SOL     OW36277   4.361   4.203   2.199  0.5251  0.0451 -0.4732
 8273SOL    HW136278   4.266   4.195   2.204  0.4469 -0.6983 -3.1373
 8273SOL    HW236279   4.382   4.166   2.285 -0.1229  1.7531  0.4068
 8274SOL     OW36280   3.440   2.744   1.343 -0.1163  0.8742 -0.0530
 8274SOL    HW136281   3.458   2.653   1.324 -0.6621  1.0820 -1.5325
 8274SOL    HW236282   3.460   2.746   1.437 -1.5267 -0.4110  0.2739
 8275SOL     OW36283   0.779   3.236   4.510 -0.1354 -0.5163  0.8446
 8275SOL    HW136284   0.820   3.154   4.482  2.7708  1.2805 -0.1192
 8275SOL    HW236285   0.857   3.289   4.523  0.1691 -0.3404 -1.7671
 8276SOL     OW36286   2.293   0.186  13.485 -0.1426 -0.5086  0.0091
 8276SOL    HW136287   2.232   0.144  13.546  1.4006  0.2775  2.1084
 8276SOL    HW236288   2.245   0.261  13.450 -1.0302 -0.6935  0.8100
 8277SOL     OW36289   3.502   0.601  11.677 -0.0343  0.0149 -0.0101
 8277SOL    HW136290   3.443   0.552  11.619  0.0816  1.3592 -1.2873
 8277SOL    HW236291   3.562   0.530  11.700  0.0617 -0.2141 -0.9585
 8278SOL     OW36292   0.014   3.315   4.566  0.3783 -0.2245 -0.6185
 8278SOL    HW136293   0.007   3.375   4.640  0.9786 -0.4150 -0.4039
 8278SOL    HW236294   0.107   3.317   4.545  0.4199  0.1417 -0.3985
 8279SOL     OW36295   3.311   3.134   4.780  0.2591 -0.1743 -0.0591
 8279SOL    HW136296   3.402   3.126   4.752  0.8070  0.9949  1.4153
 8279SOL    HW236297   3.275   3.122   4.692  1.0310  0.7291 -0.4994
 8280SOL     OW36298   2.244   0.746   6.690 -0.5383  0.3144 -0.6647
 8280SOL    HW136299   2.273   0.801   6.763  1.4383 -0.5164 -0.8337
 8280SOL    HW236300   2.153   0.731   6.715 -0.3195 -1.6092 -1.0546
 8281SOL     OW36301   4.427   0.684   4.031  0.4362 -0.3043  0.1570
 8281SOL    HW136302   4.484   0.752   3.995 -1.0673  0.6389 -0.4608
 8281SOL    HW236303   4.411   0.633   3.951  0.6046  1.1246 -0.7973
 8282SOL     OW36304   0.021   0.304   5.885  0.6792  0.1168 -0.2286
 8282SOL    HW136305   4.656   0.310   5.909  0.5780 -1.4786 -0.2109
 8282SOL    HW236306   0.020   0.256   5.802  2.2194 -0.9457  0.3496
 8283SOL     OW36307   0.807   2.869   5.750  0.7911  0.5008  0.3745
 8283SOL    HW136308   0.740   2.842   5.688  0.0297  1.7121  0.6757
 8283SOL    HW236309   0.866   2.794   5.756 -1.0451 -1.0673 -1.6139
 8284SOL     OW36310   3.247   3.255   7.772  0.4130 -0.0311  0.3151
 8284SOL    HW136311   3.251   3.313   7.696 -2.3698  1.3285  1.1975
 8284SOL    HW236312   3.260   3.166   7.738  1.2831  1.2647 -2.7159
 8285SOL     OW36313   2.165   2.833   5.005  0.7338  0.4932  0.3530
 8285SOL    HW136314   2.127   2.827   5.093  2.8227 -1.9643  1.0500
 8285SOL    HW236315   2.094   2.883   4.964 -1.1480 -2.3027  0.2474
 8286SOL     OW36316   4.145   3.612   8.535 -0.2988 -0.8585 -0.2070
 8286SOL    HW136317   4.203   3.575   8.468 -0.6413 -1.3873 -0.2119
 8286SOL    HW236318   4.160   3.706   8.538  0.6252 -1.0317  0.5669
 8287SOL     OW36319   0.799   1.629  11.756  0.2284  0.0149  0.1201
 8287SOL    HW136320   0.727   1.670  11.804 -0.7950 -1.2282 -0.3366
 8287SOL    HW236321   0.793   1.674  11.672 -0.4666  0.6037  0.4914
 8288SOL     OW36322   3.057   2.532   8.691  0.7090  0.2248  0.1490
 8288SOL    HW136323   3.031   2.570   8.775 -1.4246  1.6392 -1.1349
 8288SOL    HW236324   3.019   2.446   8.708 -0.3144  1.1139  2.3090
 8289SOL     OW36325   1.061   2.237   2.721 -0.1571 -0.1561 -0.2906
 8289SOL    HW136326   1.064   2.246   2.625  1.2567  1.4990 -0.0818
 8289SOL    HW236327   0.968   2.216   2.736 -0.0053  0.9935  2.2242
 8290SOL     OW36328   0.399   2.645  17.141 -0.0866 -0.0041  0.1262
 8290SOL    HW136329   0.320   2.623  17.091 -0.0562 -0.3180  0.2126
 8290SOL    HW236330   0.454   2.694  17.080 -0.6504  0.9778  0.4038
 8291SOL     OW36331   3.043   3.770   5.057 -0.3555  0.0749 -0.5174
 8291SOL    HW136332   3.002   3.782   4.972 -1.0965 -1.8212 -0.4130
 8291SOL    HW236333   2.966   3.792   5.109 -0.5611  0.2787 -0.9106
 8292SOL     OW36334   0.443   0.226   3.777 -0.4883 -0.0491  0.1190
 8292SOL    HW136335   0.478   0.139   3.759 -1.9806 -0.8065  0.9435
 8292SOL    HW236336   0.485   0.275   3.706 -1.6658  1.3174  0.3441
 8293SOL     OW36337   4.350   4.628   4.431  0.2012  0.1999 -0.1429
 8293SOL    HW136338   4.383   4.663   4.348 -0.0967 -0.2940 -0.4678
 8293SOL    HW236339   4.398   4.686   4.491  0.6674  0.2004 -0.5183
 8294SOL     OW36340   0.255   1.702   2.268 -0.2663 -0.3543 -0.3211
 8294SOL    HW136341   0.292   1.770   2.211  2.0691 -1.1265  0.2605
 8294SOL    HW236342   0.239   1.630   2.208  0.1448 -1.1115  0.4824
 8295SOL     OW36343   4.282   0.896  17.539  0.4193  0.4017 -0.4108
 8295SOL    HW136344   4.360   0.886  17.593 -0.0301 -0.3586  0.1101
 8295SOL    HW236345   4.294   0.823  17.479  2.5479  1.8467 -1.7252
 8296SOL     OW36346   3.032   2.334   1.356 -0.3632  0.2454  0.1146
 8296SOL    HW136347   2.942   2.358   1.331 -0.7521 -1.3812 -0.0815
 8296SOL    HW236348   3.060   2.296   1.273 -0.4839  0.4141 -0.0044
 8297SOL     OW36349   1.037   3.831  12.284 -0.1571 -0.2592  0.1410
 8297SOL    HW136350   1.071   3.904  12.336  0.3599  0.9311 -1.8591
 8297SOL    HW236351   0.998   3.782  12.357  0.6529  2.4616  2.4193
 8298SOL     OW36352   1.825   1.074  13.984 -0.3779  0.2729 -0.4671
 8298SOL    HW136353   1.791   1.097  13.898  0.7729 -0.8431 -1.2058
 8298SOL    HW236354   1.895   1.139  13.995  1.2669 -1.3762 -1.2835
 8299SOL     OW36355   0.195   2.964   7.954  0.2158  0.3494  0.6707
 8299SOL    HW136356   0.184   2.870   7.936  0.6367  0.4520 -0.0846
 8299SOL    HW236357   0.116   3.001   7.915  0.4968  1.1001  0.8245
 8300SOL     OW36358   0.399   4.127   2.096  0.8953 -0.0891 -0.3238
 8300SOL    HW136359   0.389   4.172   2.012 -0.0496  2.1848  1.0022
 8300SOL    HW236360   0.308   4.115   2.121  0.6660 -3.6333 -2.8306
 8301SOL     OW36361   4.318   3.678   8.181 -0.4226 -0.0244  0.0721
 8301SOL    HW136362   4.397   3.730   8.171  1.7357 -3.3060 -0.0380
 8301SOL    HW236363   4.347   3.604   8.234  0.5282 -0.7618 -1.4770
 8302SOL     OW36364   0.229   4.561   4.527 -0.1262  0.0863  0.1045
 8302SOL    HW136365   0.153   4.592   4.477  0.1867  1.3609  0.4189
 8302SOL    HW236366   0.188   4.542   4.612  1.2796  1.7712  1.1649
 8303SOL     OW36367   2.610   3.871   2.110  0.1764  0.0974 -0.4728
 8303SOL    HW136368   2.615   3.942   2.045 -0.6140  0.2436 -0.3678
 8303SOL    HW236369   2.537   3.819   2.077  1.1480 -0.8400 -1.1475
 8304SOL     OW36370   1.403   0.077   8.176 -0.1007  0.0653  0.0718
 8304SOL    HW136371   1.325   0.125   8.205 -1.8187 -0.1451 -4.2105
 8304SOL    HW236372   1.479   0.128   8.201  0.2721  0.2292 -1.3621
 8305SOL     OW36373   3.508   2.455  10.093  0.1552  0.0309 -0.3875
 8305SOL    HW136374   3.600   2.484  10.089  0.1184  0.1564 -0.3090
 8305SOL    HW236375   3.468   2.529  10.138 -0.5174 -0.5073 -0.1166
 8306SOL     OW36376   0.278   2.994   1.318  0.6298  0.4260  0.0015
 8306SOL    HW136377   0.253   3.082   1.348 -0.7596 -0.2158  0.7162
 8306SOL    HW236378   0.276   3.012   1.224 -3.3177  0.5305  0.1181
 8307SOL     OW36379   2.503   3.302   4.295  0.2174  0.1035 -0.0727
 8307SOL    HW136380   2.559   3.364   4.247  1.1046 -1.8465 -1.5600
 8307SOL    HW236381   2.454   3.363   4.350  1.6966 -0.0489  1.3987
 8308SOL     OW36382   1.312   0.286   5.855 -0.3131  0.7794 -0.1944
 8308SOL    HW136383   1.407   0.288   5.863 -0.3244  1.2879 -0.1995
 8308SOL    HW236384   1.295   0.379   5.865  0.8165  1.0638 -0.9765
 8309SOL     OW36385   2.287   3.906   3.001 -0.0792  0.1696 -0.5152
 8309SOL    HW136386   2.354   3.838   2.997 -0.0834  0.0839  0.8494
 8309SOL    HW236387   2.238   3.867   3.073 -0.0376 -0.6242 -0.9164
 8310SOL     OW36388   0.813   2.965   8.497 -0.7517  0.4152 -0.3401
 8310SOL    HW136389   0.863   2.994   8.574 -1.0335  0.9256 -0.3492
 8310SOL    HW236390   0.819   2.873   8.521 -2.3330  0.2192 -0.7225
 8311SOL     OW36391   2.097   4.227   2.741 -0.3404 -0.2192  0.2616
 8311SOL    HW136392   2.183   4.187   2.731 -0.6322 -0.4824 -1.1519
 8311SOL    HW236393   2.064   4.168   2.809  2.6017 -1.3156  0.7445
 8312SOL     OW36394   0.498   1.527   6.418  0.5974  0.0563 -0.2372
 8312SOL    HW136395   0.518   1.618   6.440 -2.6154 -0.1198  3.4224
 8312SOL    HW236396   0.426   1.511   6.479  1.0501  0.5504  0.4280
 8313SOL     OW36397   1.769   2.977  10.144 -0.0321  0.6248  0.0413
 8313SOL    HW136398   1.776   2.988  10.239 -0.0705 -0.0216  0.1244
 8313SOL    HW236399   1.728   2.890  10.151  1.7590 -0.3409 -1.4848
 8314SOL     OW36400   0.740   3.904   0.131 -0.7970  0.3102 -0.5502
 8314SOL    HW136401   0.771   3.872   0.047 -0.5806  2.3020 -1.2241
 8314SOL    HW236402   0.804   3.971   0.156  0.7588 -1.1586 -0.5842
 8315SOL     OW36403   1.739   1.866   7.156  0.0023 -0.1874  0.4749
 8315SOL    HW136404   1.827   1.834   7.135  0.5504  0.3155  1.9511
 8315SOL    HW236405   1.739   1.952   7.113  1.4657 -0.5518 -0.2724
 8316SOL     OW36406   4.390   1.172   5.621 -0.1102  0.1295 -0.7593
 8316SOL    HW136407   4.463   1.187   5.681  0.3879 -3.3909 -0.4597
 8316SOL    HW236408   4.419   1.219   5.542 -0.4969  1.9550  0.1900
 8317SOL     OW36409   4.702   1.373   5.178  0.1373  0.2671 -0.3224
 8317SOL    HW136410   4.716   1.403   5.268 -3.7648  0.4109  0.2431
 8317SOL    HW236411   4.673   1.284   5.197  1.8648 -0.2931 -0.2786
 8318SOL     OW36412   3.904   4.030   4.438 -0.1538 -0.3438 -0.0121
 8318SOL    HW136413   3.959   4.103   4.408  0.5256 -1.4926 -1.5429
 8318SOL    HW236414   3.914   4.031   4.533 -2.8795 -2.1575  0.2979
 8319SOL     OW36415   1.157   1.540   1.818 -0.1867  0.1410  0.3175
 8319SOL    HW136416   1.064   1.541   1.841  0.0023 -0.7244  1.0928
 8319SOL    HW236417   1.162   1.458   1.768 -0.9123 -0.2228  0.8236
 8320SOL     OW36418   1.428   0.071   8.700 -0.3091  0.1815  0.4158
 8320SOL    HW136419   1.459   0.132   8.767 -3.4371  1.5907  0.5487
 8320SOL    HW236420   1.507   0.020   8.678 -0.7710 -0.7708  0.9893
 8321SOL     OW36421   2.805   2.127   9.141 -0.4452  0.5699 -0.5865
 8321SOL    HW136422   2.882   2.147   9.194 -0.1234  1.1814 -1.2872
 8321SOL    HW236423   2.736   2.109   9.204  1.1678 -1.1522  0.7061
 8322SOL     OW36424   1.870   3.376   8.446  0.3746 -0.4035 -0.3204
 8322SOL    HW136425   1.901   3.291   8.415  0.4441 -0.4835 -0.0347
 8322SOL    HW236426   1.950   3.424   8.428  0.6672 -0.9705 -0.5088
 8323SOL     OW36427   1.300   3.134   6.686 -0.3635  0.4124 -0.5004
 8323SOL    HW136428   1.214   3.173   6.672  0.1280  1.5399 -0.3737
 8323SOL    HW236429   1.329   3.118   6.596  0.2555 -1.5374  0.0480
 8324SOL     OW36430   3.140   0.401   5.352  0.1161  0.2252 -0.5309
 8324SOL    HW136431   3.108   0.332   5.410  0.9572 -0.9130 -1.4138
 8324SOL    HW236432   3.071   0.410   5.286  0.9368 -0.3192 -1.4762
 8325SOL     OW36433   4.421   1.219   4.565  0.3022 -0.4969  0.0032
 8325SOL    HW136434   4.443   1.199   4.474  0.7210 -2.5667  0.5506
 8325SOL    HW236435   4.344   1.164   4.581  1.0334 -1.2293  0.9916
 8326SOL     OW36436   1.651   3.848  16.653  0.1071 -0.0159 -0.6558
 8326SOL    HW136437   1.564   3.887  16.658  0.9200  1.4334  2.1648
 8326SOL    HW236438   1.707   3.920  16.682 -0.1658  0.0535 -0.2990
 8327SOL     OW36439   3.522   3.248   7.665 -0.1069 -0.1097  0.1315
 8327SOL    HW136440   3.485   3.287   7.744  1.4679 -1.1841  1.4053
 8327SOL    HW236441   3.609   3.219   7.691 -0.4251 -1.6216 -0.4766
 8328SOL     OW36442   4.196   0.594   0.090 -0.0456 -0.3094 -0.2519
 8328SOL    HW136443   4.131   0.628   0.151  1.3032  1.0681  0.4288
 8328SOL    HW236444   4.268   0.575   0.151  1.4298  1.9150 -1.2725
 8329SOL     OW36445   0.476   2.698  16.322  0.0308  0.1639  0.7437
 8329SOL    HW136446   0.404   2.751  16.288  0.4694  0.2596 -0.0246
 8329SOL    HW236447   0.440   2.681  16.410 -0.9729 -0.6586  0.1773
 8330SOL     OW36448   0.383   3.969   3.513 -0.0601 -0.3846 -0.2467
 8330SOL    HW136449   0.397   3.977   3.607 -4.1828  0.9056  0.2357
 8330SOL    HW236450   0.435   4.043   3.482  1.8697 -1.4269  0.4722
 8331SOL     OW36451   3.150   4.144   7.150 -0.0981  0.4683  0.2909
 8331SOL    HW136452   3.133   4.081   7.220  1.4596 -1.0960 -0.7293
 8331SOL    HW236453   3.162   4.081   7.078 -0.5080  2.2429 -1.3438
 8332SOL     OW36454   2.159   1.716   6.329 -0.2465 -0.2891  0.1337
 8332SOL    HW136455   2.111   1.679   6.255  0.6121  1.0181 -1.0773
 8332SOL    HW236456   2.119   1.803   6.331  0.9137  0.2673 -1.1580
 8333SOL     OW36457   4.233   4.367   2.470  0.1643 -0.3966 -0.6741
 8333SOL    HW136458   4.211   4.440   2.527  4.2634 -0.1809  0.6504
 8333SOL    HW236459   4.307   4.339   2.524  0.9591 -0.9633 -2.0725
 8334SOL     OW36460   0.544   1.013   6.639  0.0110 -0.1975  0.2796
 8334SOL    HW136461   0.474   1.078   6.635 -0.6867 -0.9684  0.0458
 8334SOL    HW236462   0.594   1.047   6.713 -2.2423 -0.9396  2.1429
 8335SOL     OW36463   1.810   2.942  16.650  0.3406 -0.0716 -0.0996
 8335SOL    HW136464   1.855   2.966  16.731  1.0179 -0.2034 -0.4299
 8335SOL    HW236465   1.749   3.014  16.633  0.6196  0.3344  0.6205
 8336SOL     OW36466   4.666   0.390   5.469  0.1423 -0.3478 -0.6468
 8336SOL    HW136467   4.662   0.312   5.524 -0.5515  0.7348  0.8457
 8336SOL    HW236468   4.694   0.357   5.384  1.6614  2.3322 -1.1858
 8337SOL     OW36469   2.870   1.898   2.767  0.2428  0.2870 -0.5226
 8337SOL    HW136470   2.916   1.815   2.778 -0.9506 -0.6949 -2.7784
 8337SOL    HW236471   2.792   1.875   2.817 -0.6561  1.2744 -1.4519
 8338SOL     OW36472   0.699   1.147   5.212  0.4585  0.2254 -0.3220
 8338SOL    HW136473   0.684   1.054   5.227  1.6411 -0.0077 -0.5249
 8338SOL    HW236474   0.674   1.187   5.295 -0.9207  1.6329 -1.4241
 8339SOL     OW36475   2.731   0.331   4.442  0.5608 -0.3343  0.1590
 8339SOL    HW136476   2.789   0.399   4.476 -1.4981  0.3772  2.2369
 8339SOL    HW236477   2.711   0.362   4.354 -0.0908 -0.2232  0.3446
 8340SOL     OW36478   0.107   1.974   7.868  0.1609 -0.0769 -0.2124
 8340SOL    HW136479   0.179   1.947   7.810 -0.7351 -1.4922 -0.6663
 8340SOL    HW236480   0.074   1.890   7.900 -4.1223  1.7777  0.2621
 8341SOL     OW36481   0.125   3.081  13.951  0.0904  0.7749 -0.1806
 8341SOL    HW136482   0.076   3.150  13.905  0.5419  2.3048  1.5952
 8341SOL    HW236483   0.205   3.093  13.900  0.9062  2.0404  1.3814
 8342SOL     OW36484   3.255   4.148   0.321 -0.5269 -0.2194 -0.4749
 8342SOL    HW136485   3.335   4.196   0.341  0.0820 -1.3850 -0.1532
 8342SOL    HW236486   3.268   4.105   0.236 -0.1802  0.0123 -0.5405
 8343SOL     OW36487   2.543   0.800   8.352  0.1253 -0.5705 -0.5059
 8343SOL    HW136488   2.512   0.755   8.430  2.9925 -0.2914  0.7824
 8343SOL    HW236489   2.637   0.785   8.350 -0.0359 -1.2552 -3.1665
 8344SOL     OW36490   0.394   3.847  12.884 -0.1403  0.3748  0.0800
 8344SOL    HW136491   0.314   3.892  12.912 -1.1190 -0.8947 -0.6471
 8344SOL    HW236492   0.456   3.919  12.875 -0.0770  0.5708  1.9915
 8345SOL     OW36493   4.645   0.273   7.283  0.1444 -0.4337  0.2576
 8345SOL    HW136494   4.724   0.324   7.299  0.7617 -1.3251  0.0388
 8345SOL    HW236495   4.685   0.187   7.294  1.0686 -0.1535 -0.9374
 8346SOL     OW36496   2.695   3.509   0.086  0.2021 -0.0134  0.3647
 8346SOL    HW136497   2.701   3.415   0.072 -1.1106 -0.0148 -0.2198
 8346SOL    HW236498   2.783   3.538   0.062 -0.2584  3.1114  2.4385
 8347SOL     OW36499   0.158   1.974   6.224 -0.0812  0.3803 -0.4037
 8347SOL    HW136500   0.159   1.896   6.168 -0.2405 -0.3183  0.5674
 8347SOL    HW236501   0.251   1.999   6.225  0.1969 -0.6486 -0.5266
 8348SOL     OW36502   3.248   0.272  14.167  0.4364 -0.1681 -0.1413
 8348SOL    HW136503   3.296   0.349  14.137  2.3659 -0.4859  2.1496
 8348SOL    HW236504   3.312   0.207  14.137 -0.4767 -0.7007 -0.9638
 8349SOL     OW36505   4.239   3.839  15.235 -0.8177  0.0508  0.2320
 8349SOL    HW136506   4.213   3.777  15.167 -3.1203  2.0639 -0.6980
 8349SOL    HW236507   4.152   3.874  15.255 -0.7060 -0.0029  0.8217
 8350SOL     OW36508   4.165   1.008   6.582 -0.3412 -0.0706  0.0773
 8350SOL    HW136509   4.083   0.983   6.626 -0.8275  1.6152  0.1405
 8350SOL    HW236510   4.176   0.931   6.526 -1.0020 -0.3419  0.3120
 8351SOL     OW36511   2.500   0.150   4.207 -0.2526  0.1650  0.5665
 8351SOL    HW136512   2.481   0.178   4.296 -0.5398 -1.2724  0.9426
 8351SOL    HW236513   2.411   0.151   4.172  0.3457 -0.0246 -0.9696
 8352SOL     OW36514   2.097   2.471   9.273  0.0158  0.7235 -0.8394
 8352SOL    HW136515   2.036   2.487   9.202 -1.4472  2.7773  0.8607
 8352SOL    HW236516   2.125   2.563   9.278  1.5035  0.2865 -1.1629
 8353SOL     OW36517   0.123   0.800  10.459  0.0980  0.0979  0.4841
 8353SOL    HW136518   0.208   0.833  10.488  0.5744  0.9955 -1.8756
 8353SOL    HW236519   0.117   0.723  10.516 -0.8280 -1.5649 -1.8201
 8354SOL     OW36520   4.150   2.206   2.165  0.4158  0.1181  0.3923
 8354SOL    HW136521   4.176   2.116   2.145  0.7542  0.4548 -0.6684
 8354SOL    HW236522   4.055   2.196   2.162  0.5750 -1.8752  2.0370
 8355SOL     OW36523   3.903   2.223   5.340  0.4332 -0.4504 -0.5396
 8355SOL    HW136524   3.965   2.187   5.402 -2.3153 -3.0750  0.6906
 8355SOL    HW236525   3.947   2.212   5.256  0.4927 -0.8422 -0.4538
 8356SOL     OW36526   4.571   0.356   2.120  0.3400  0.7396  0.4534
 8356SOL    HW136527   4.552   0.264   2.138  0.7803  0.5896  0.1531
 8356SOL    HW236528   4.653   0.370   2.167  0.2855  0.6941  0.5623
 8357SOL     OW36529   0.329   3.245  13.222  0.1558  0.7045 -0.2597
 8357SOL    HW136530   0.334   3.263  13.128 -0.3217  2.4232  0.0481
 8357SOL    HW236531   0.317   3.151  13.228  2.3853  0.4397 -0.0110
 8358SOL     OW36532   3.356   3.596   9.403 -0.8871 -0.6345  0.2758
 8358SOL    HW136533   3.315   3.666   9.453  0.2164 -1.9723  3.0799
 8358SOL    HW236534   3.440   3.602   9.449 -0.2589 -0.7229 -0.8775
 8359SOL     OW36535   2.091   1.768   7.200  0.1597  0.0182  0.4163
 8359SOL    HW136536   2.099   1.672   7.205 -1.5734 -0.2200 -1.3820
 8359SOL    HW236537   2.124   1.788   7.113 -1.5913  2.1377  0.2298
 8360SOL     OW36538   4.699   4.173   2.722 -0.3265 -0.3346  0.1482
 8360SOL    HW136539   0.066   4.194   2.711 -0.4455  0.2965  0.3168
 8360SOL    HW236540   4.702   4.101   2.785  2.1659 -0.0086  0.4303
 8361SOL     OW36541   0.240   1.761  14.718 -0.4198  0.5560 -0.3281
 8361SOL    HW136542   0.242   1.856  14.730 -0.9030  0.5479 -0.1747
 8361SOL    HW236543   0.266   1.757  14.626 -0.4762 -2.2532 -0.2037
 8362SOL     OW36544   2.830   2.676  14.891  0.2076  0.5037 -0.7223
 8362SOL    HW136545   2.922   2.703  14.896  0.0504  0.4910  2.0273
 8362SOL    HW236546   2.798   2.747  14.834  1.5917  1.6341 -0.1000
 8363SOL     OW36547   3.621   0.698   0.099 -0.2230  0.3563  0.0994
 8363SOL    HW136548   3.591   0.778   0.055  1.9158  1.8047  1.2448
 8363SOL    HW236549   3.542   0.649   0.120 -0.0758  0.9177  1.9024
 8364SOL     OW36550   4.655   0.471   4.980 -0.0045  0.0001 -0.2170
 8364SOL    HW136551   4.715   0.545   4.988 -0.5759  0.2322  2.2241
 8364SOL    HW236552   4.571   0.518   4.981 -0.3305 -0.5825 -1.0965
 8365SOL     OW36553   3.969   0.261  10.379 -0.1610  0.3670 -0.2291
 8365SOL    HW136554   3.905   0.330  10.361  0.9243  2.0321  2.2809
 8365SOL    HW236555   4.008   0.289  10.462  2.0526  0.1644 -1.1847
 8366SOL     OW36556   2.469   4.384   4.812 -0.8029 -0.5630 -0.1007
 8366SOL    HW136557   2.457   4.403   4.719  1.0241  1.2137  0.0267
 8366SOL    HW236558   2.409   4.448   4.850  0.7849  0.3575  0.8628
 8367SOL     OW36559   2.750   3.027  13.532 -0.4883  0.0964 -0.1881
 8367SOL    HW136560   2.680   2.962  13.535 -0.6934  0.1883 -2.4725
 8367SOL    HW236561   2.770   3.012  13.439 -0.7299 -1.4557  0.0080
 8368SOL     OW36562   2.783   4.185   7.361 -0.2674  0.1332  0.2910
 8368SOL    HW136563   2.841   4.200   7.286 -0.1232  0.4714  0.4727
 8368SOL    HW236564   2.848   4.164   7.428 -0.0445  1.5024  0.5162
 8369SOL     OW36565   0.961   0.034   1.415  0.0082 -0.0687  0.4246
 8369SOL    HW136566   0.938   0.116   1.372  1.0921  0.0156  0.0034
 8369SOL    HW236567   0.933   4.693   1.352  2.0191 -0.8695  0.3820
 8370SOL     OW36568   0.506   1.543   3.774  0.3715 -0.0417  0.1900
 8370SOL    HW136569   0.522   1.548   3.680 -0.1589  0.1057  0.1101
 8370SOL    HW236570   0.411   1.540   3.784  0.5909 -1.2863  1.7705
 8371SOL     OW36571   3.775   2.228  14.168 -0.0567  0.1550 -0.6109
 8371SOL    HW136572   3.835   2.156  14.192 -1.6199 -0.8940  0.1404
 8371SOL    HW236573   3.772   2.280  14.248 -1.0217 -0.5102 -0.2170
 8372SOL     OW36574   0.439   0.410  14.710 -0.1244  0.2812 -0.3587
 8372SOL    HW136575   0.482   0.410  14.795  0.8802  2.2700 -0.8742
 8372SOL    HW236576   0.373   0.478  14.725 -0.8717 -0.3438 -0.8066
 8373SOL     OW36577   0.849   4.464  10.805 -0.5458 -0.2089 -0.7572
 8373SOL    HW136578   0.884   4.458  10.894  0.2288  0.9209 -0.9962
 8373SOL    HW236579   0.904   4.529  10.761 -0.3553  0.3710  0.3316
 8374SOL     OW36580   2.651   2.091  13.847  0.3219 -0.3633 -0.6609
 8374SOL    HW136581   2.719   2.156  13.865  1.2251 -1.3189 -0.6541
 8374SOL    HW236582   2.604   2.089  13.930  1.1602 -0.6393 -0.1962
 8375SOL     OW36583   0.644   3.383  16.831  0.1376 -0.2594  0.5699
 8375SOL    HW136584   0.552   3.409  16.828 -0.3132 -1.9531 -0.7405
 8375SOL    HW236585   0.625   3.289  16.819  0.7121 -0.3670  0.5081
 8376SOL     OW36586   1.749   0.489  10.677  0.2194  0.0878  0.1145
 8376SOL    HW136587   1.732   0.431  10.603  0.2060  0.7650 -0.4077
 8376SOL    HW236588   1.842   0.511  10.664  0.4481 -2.6277 -2.9235
 8377SOL     OW36589   3.285   2.735   4.348 -0.7361 -0.1721  0.1945
 8377SOL    HW136590   3.195   2.729   4.378 -1.5733 -1.7358 -2.6549
 8377SOL    HW236591   3.299   2.829   4.355 -0.3418 -0.2112 -0.0045
 8378SOL     OW36592   0.856   4.526  14.884 -0.2922  0.3251  0.0398
 8378SOL    HW136593   0.912   4.452  14.858 -2.6689 -1.5228  0.1396
 8378SOL    HW236594   0.787   4.520  14.818  0.4086  2.3475 -0.8893
 8379SOL     OW36595   2.330   0.094   3.640 -0.4739  0.5762  0.6774
 8379SOL    HW136596   2.372   0.122   3.558  0.1412 -0.4831  0.6328
 8379SOL    HW236597   2.348   0.000   3.642 -0.4093  0.5660 -0.2262
 8380SOL     OW36598   3.519   3.506  15.905 -0.4115 -0.6525 -0.0400
 8380SOL    HW136599   3.592   3.460  15.864 -0.3011  0.5278 -1.2021
 8380SOL    HW236600   3.497   3.447  15.976 -1.8429 -0.5130 -0.3561
 8381SOL     OW36601   2.354   1.717   4.700 -0.0064  0.0257 -0.0081
 8381SOL    HW136602   2.414   1.701   4.626 -1.7297  2.1061 -1.8349
 8381SOL    HW236603   2.283   1.756   4.650 -0.5206  3.0126  3.1195
 8382SOL     OW36604   1.101   2.557  12.859 -0.1396  0.2997 -0.1025
 8382SOL    HW136605   1.176   2.519  12.903  0.4738  1.5507 -0.0624
 8382SOL    HW236606   1.082   2.636  12.910  1.4805 -0.2576  1.3493
 8383SOL     OW36607   2.562   3.895   1.698  0.3302 -0.4945 -1.0693
 8383SOL    HW136608   2.479   3.883   1.744  1.1499  1.0496  0.8151
 8383SOL    HW236609   2.579   3.805   1.671  0.1794 -0.5059 -1.1255
 8384SOL     OW36610   3.711   3.377   0.051  0.3460  0.1362 -0.0657
 8384SOL    HW136611   3.804   3.354   0.044  0.7039  1.7497 -0.3836
 8384SOL    HW236612   3.721   3.437   0.125  2.1811 -1.9174  1.3849
 8385SOL     OW36613   2.094   3.697   3.845  0.3102 -0.6944  0.4492
 8385SOL    HW136614   2.124   3.711   3.756 -1.4468 -3.2779 -0.5430
 8385SOL    HW236615   2.177   3.687   3.893  1.3540 -0.9419 -1.4122
 8386SOL     OW36616   2.153   0.229  14.220  0.4959  0.2696  0.1084
 8386SOL    HW136617   2.178   0.320  14.233 -0.8540  0.5834  0.5134
 8386SOL    HW236618   2.217   0.212  14.151  0.0425  0.1085 -0.2784
 8387SOL     OW36619   3.295   3.423   4.109  0.7849  0.4719  0.2979
 8387SOL    HW136620   3.266   3.337   4.136 -1.7167  1.3522  0.3653
 8387SOL    HW236621   3.259   3.427   4.020 -2.9641 -0.6903  1.7814
 8388SOL     OW36622   2.837   2.977   4.270 -0.1638 -0.0627  0.0632
 8388SOL    HW136623   2.771   3.017   4.327  1.8486  4.4359 -0.7120
 8388SOL    HW236624   2.846   2.892   4.312  0.5462 -0.5606 -1.0924
 8389SOL     OW36625   2.201   3.822   2.662  0.2456  0.3279 -0.8243
 8389SOL    HW136626   2.264   3.894   2.670  1.0270 -0.4423 -0.0815
 8389SOL    HW236627   2.125   3.876   2.642 -0.7229 -1.6529 -2.5104
 8390SOL     OW36628   4.427   4.506   2.937  0.3934 -0.2061  0.4066
 8390SOL    HW136629   4.391   4.580   2.986 -0.1256  0.6083 -1.2218
 8390SOL    HW236630   4.465   4.546   2.859 -0.3379  0.2754  0.3020
 8391SOL     OW36631   1.454   0.517   4.645  0.1605 -0.0865  0.2483
 8391SOL    HW136632   1.427   0.428   4.669 -1.4913 -0.2497 -2.2232
 8391SOL    HW236633   1.386   0.574   4.682 -1.6710 -0.5197 -2.4848
 8392SOL     OW36634   4.048   2.592   5.580 -0.3495 -0.1109  0.4259
 8392SOL    HW136635   4.133   2.580   5.539  1.1234  0.3550  3.3515
 8392SOL    HW236636   4.067   2.645   5.657  0.4734  0.1591  0.0326
 8393SOL     OW36637   1.496   3.585   4.659 -0.2907  0.4844  0.2745
 8393SOL    HW136638   1.486   3.659   4.599 -5.2591 -1.0884 -0.8732
 8393SOL    HW236639   1.537   3.618   4.739 -0.0471 -0.1664  0.4186
 8394SOL     OW36640   2.817   1.433   4.803  0.6593  0.4550  0.0766
 8394SOL    HW136641   2.732   1.455   4.841 -1.1395 -0.0145 -3.5963
 8394SOL    HW236642   2.800   1.426   4.709 -1.0056  3.2006  0.1859
 8395SOL     OW36643   0.037   3.221   4.140 -0.4213 -0.2632 -0.0021
 8395SOL    HW136644   0.080   3.209   4.225 -0.0517  0.6852 -0.0446
 8395SOL    HW236645   4.712   3.141   4.135  0.7402 -1.0340  0.2040
 8396SOL     OW36646   4.084   3.192   1.193  0.2081  0.2217 -0.1135
 8396SOL    HW136647   4.158   3.137   1.167 -1.0573 -2.0174  0.9988
 8396SOL    HW236648   4.128   3.262   1.240 -0.0597  0.1142  0.2978
 8397SOL     OW36649   2.643   0.236  13.737 -0.4544  0.8036  0.3118
 8397SOL    HW136650   2.684   0.249  13.651  0.6950 -1.5305  0.5318
 8397SOL    HW236651   2.711   0.184  13.780  0.1512 -0.0330 -1.6491
 8398SOL     OW36652   0.132   2.812   1.829 -0.9836  0.0828 -0.6033
 8398SOL    HW136653   0.070   2.883   1.810 -0.5162  1.2159  2.0910
 8398SOL    HW236654   0.101   2.781   1.914 -0.3915 -0.4734 -0.5902
 8399SOL     OW36655   2.508   0.921  15.386  0.0430 -0.4872 -0.7084
 8399SOL    HW136656   2.425   0.969  15.383  1.9951  2.9155  0.0156
 8399SOL    HW236657   2.568   0.985  15.347  0.2083 -0.3920 -0.3027
 8400SOL     OW36658   4.711   1.093  10.277  0.0283  0.1360  0.8483
 8400SOL    HW136659   4.646   1.122  10.213 -1.3082  0.0915  2.2048
 8400SOL    HW236660   0.018   1.018  10.228 -1.3298  0.8819 -1.2265
 8401SOL     OW36661   2.811   4.604   0.345  0.6616  0.2817 -0.0748
 8401SOL    HW136662   2.830   4.542   0.415  0.8669 -1.2122 -1.4442
 8401SOL    HW236663   2.868   4.570   0.276 -0.7144  0.7246 -1.4292
 8402SOL     OW36664   3.348   3.015   4.360  0.7910 -0.2703 -0.0552
 8402SOL    HW136665   3.441   3.008   4.336  0.4428  1.0791 -1.7807
 8402SOL    HW236666   3.311   3.080   4.301 -0.3240 -0.4388  0.4561
 8403SOL     OW36667   0.638   0.120  12.787 -0.5389 -0.4211 -0.2432
 8403SOL    HW136668   0.703   0.150  12.723  0.8468 -0.0894  1.3330
 8403SOL    HW236669   0.593   0.062  12.725 -1.2290  0.8438 -0.9023
 8404SOL     OW36670   0.663   0.122  11.953  0.2911 -0.0850  0.7194
 8404SOL    HW136671   0.691   0.212  11.934  0.5322 -0.6476 -1.6538
 8404SOL    HW236672   0.746   0.079  11.970  1.5960  2.0016 -0.3777
 8405SOL     OW36673   4.704   0.228   0.362 -0.1692  0.1355  0.3839
 8405SOL    HW136674   0.034   0.189   0.295  0.0942  2.6578 -0.8945
 8405SOL    HW236675   4.698   0.151   0.418  1.6995  1.0785  1.9116
 8406SOL     OW36676   3.567   2.726   5.992 -0.0998  0.3476  0.3304
 8406SOL    HW136677   3.660   2.701   5.992 -0.6395 -1.6501  0.7900
 8406SOL    HW236678   3.571   2.822   5.994  1.1170  0.2840  0.9033
 8407SOL     OW36679   4.099   2.003  13.765 -0.3610 -0.7016 -0.2995
 8407SOL    HW136680   4.111   2.070  13.698 -0.8757  1.5731  1.9243
 8407SOL    HW236681   4.087   1.926  13.708 -0.3856  0.0372 -1.2880
 8408SOL     OW36682   3.779   0.173   4.341  0.3196  0.3485 -0.4889
 8408SOL    HW136683   3.742   0.228   4.410  0.2814 -2.1767  1.5389
 8408SOL    HW236684   3.855   0.127   4.376 -0.6640 -1.9614 -1.3869
 8409SOL     OW36685   3.738   4.646   4.190  0.1403  0.3776 -0.1838
 8409SOL    HW136686   3.774   4.719   4.240  1.0426 -1.3203  1.6949
 8409SOL    HW236687   3.680   4.697   4.135  0.4226 -0.5923 -1.3699
 8410SOL     OW36688   1.576   1.846   0.633 -0.0795 -0.4324  0.8533
 8410SOL    HW136689   1.520   1.769   0.636 -1.9349  0.8796  0.1762
 8410SOL    HW236690   1.625   1.835   0.714  0.1160  1.0596  0.9426
 8411SOL     OW36691   3.230   1.744   3.748 -0.0289 -0.0387  0.1127
 8411SOL    HW136692   3.216   1.838   3.748 -0.9539 -0.1853 -0.6794
 8411SOL    HW236693   3.320   1.746   3.713  0.8070 -1.8990  2.0946
 8412SOL     OW36694   2.827   1.476  13.339 -0.0676  0.1498  0.1210
 8412SOL    HW136695   2.785   1.436  13.263 -0.2263 -0.0478  0.3155
 8412SOL    HW236696   2.833   1.402  13.399  0.9218  1.0914  1.2013
 8413SOL     OW36697   0.767   0.851   6.920 -0.5075 -0.3356 -0.2431
 8413SOL    HW136698   0.836   0.913   6.944 -2.5608  2.1202 -0.6924
 8413SOL    HW236699   0.705   0.856   6.993  0.3243 -0.1871  0.4639
 8414SOL     OW36700   4.021   1.919  11.967  0.7703 -0.4080 -0.1102
 8414SOL    HW136701   4.075   1.985  11.924 -1.2067  0.6621 -0.9283
 8414SOL    HW236702   4.013   1.955  12.056 -0.5788 -1.5128  0.2146
 8415SOL     OW36703   2.262   2.837  17.307  0.0920  0.5567 -0.4372
 8415SOL    HW136704   2.310   2.918  17.319 -0.7788  0.8289  1.2155
 8415SOL    HW236705   2.276   2.825  17.213 -2.7952 -0.2946 -0.7631
 8416SOL     OW36706   1.231   2.996   2.309 -0.0278  0.2855 -0.0075
 8416SOL    HW136707   1.221   3.088   2.334  2.9642  1.1302 -1.8587
 8416SOL    HW236708   1.268   3.024   2.225  1.5151 -0.3276  0.4717
 8417SOL     OW36709   2.407   2.316  11.335 -0.2067  0.1258  0.3741
 8417SOL    HW136710   2.404   2.304  11.240 -1.0419  3.2327  0.0279
 8417SOL    HW236711   2.447   2.235  11.368 -1.2462 -0.4389  0.2675
 8418SOL     OW36712   0.798   0.131   7.285 -0.1373 -0.5351  0.0950
 8418SOL    HW136713   0.754   0.127   7.370 -0.2889  0.2420  0.0545
 8418SOL    HW236714   0.829   0.221   7.286 -1.1697 -0.2004  1.8825
 8419SOL     OW36715   2.998   0.939   0.958 -0.1760 -0.6204 -0.5869
 8419SOL    HW136716   3.039   0.916   1.042 -0.9681  3.5404  0.9801
 8419SOL    HW236717   2.976   1.027   0.990  0.3744 -0.7944  0.2792
 8420SOL     OW36718   0.499   0.175  14.115 -0.2963  0.8092  0.3113
 8420SOL    HW136719   0.540   0.262  14.111 -1.5112  1.3924  0.6074
 8420SOL    HW236720   0.541   0.146  14.196 -0.5627 -0.9570 -0.1969
 8421SOL     OW36721   0.311   3.420   7.662  0.5996  0.2328  0.4977
 8421SOL    HW136722   0.392   3.389   7.623 -0.7401  0.2833 -2.3088
 8421SOL    HW236723   0.336   3.428   7.754 -1.9102 -0.0899  1.2294
 8422SOL     OW36724   2.069   0.408   4.530 -1.1258 -0.2411 -0.3656
 8422SOL    HW136725   2.162   0.410   4.509 -1.0406 -0.2226  0.0258
 8422SOL    HW236726   2.049   0.502   4.528 -0.3626 -0.1016 -1.3572
 8423SOL     OW36727   0.119   3.794  13.578 -0.1424  0.0037 -0.6070
 8423SOL    HW136728   0.080   3.709  13.562  0.8887 -0.3498 -1.2318
 8423SOL    HW236729   0.055   3.845  13.529  1.6079  1.0534 -1.7917
 8424SOL     OW36730   2.722   0.944   7.610 -0.6367  0.1329  0.5274
 8424SOL    HW136731   2.653   1.007   7.633 -0.6695 -0.3507  1.7458
 8424SOL    HW236732   2.668   0.870   7.637 -1.3321 -0.4429 -2.3626
 8425SOL     OW36733   4.373   1.841   5.958 -0.2075 -0.1352 -0.3553
 8425SOL    HW136734   4.438   1.909   5.977 -0.1006 -0.2578 -0.2895
 8425SOL    HW236735   4.425   1.769   5.993 -1.1374 -0.6652 -0.0704
 8426SOL     OW36736   1.123   1.575   1.438 -0.5069  0.3223  0.0144
 8426SOL    HW136737   1.128   1.484   1.468  0.5160  0.5917  0.6550
 8426SOL    HW236738   1.042   1.608   1.475 -1.2295 -0.8297 -0.5497
 8427SOL     OW36739   4.014   0.563   6.466  0.3708  0.2961 -1.1772
 8427SOL    HW136740   4.042   0.548   6.556 -0.8514  0.0895 -0.8265
 8427SOL    HW236741   3.919   0.573   6.472  0.5572  1.3634  0.1752
 8428SOL     OW36742   1.475   3.819   3.595 -0.3586  0.3815  0.5037
 8428SOL    HW136743   1.537   3.891   3.590  1.1706 -0.7526  3.2313
 8428SOL    HW236744   1.406   3.854   3.539  0.3342  0.8614 -0.0413
 8429SOL     OW36745   1.553   4.391   1.808 -0.6448  0.0130  0.0893
 8429SOL    HW136746   1.639   4.432   1.797 -1.9145  2.6107 -0.3337
 8429SOL    HW236747   1.553   4.302   1.773  0.8137  0.0327  0.0409
 8430SOL     OW36748   0.494   0.163   5.104  0.1759 -0.5383  0.1956
 8430SOL    HW136749   0.468   0.118   5.024 -2.0183  0.8925  0.0874
 8430SOL    HW236750   0.517   0.245   5.060 -0.0493 -0.6617 -0.1483
 8431SOL     OW36751   2.924   3.017   2.144  0.1885 -0.6795  0.4406
 8431SOL    HW136752   2.981   2.993   2.072 -1.2005  1.7007 -1.4402
 8431SOL    HW236753   2.836   3.030   2.110  1.3461  0.7902 -1.9656
 8432SOL     OW36754   0.314   0.545   9.569  0.2509  0.3545 -0.0896
 8432SOL    HW136755   0.231   0.516   9.531 -0.2553  0.8653  0.6210
 8432SOL    HW236756   0.324   0.629   9.524 -0.4411 -0.1681 -1.1987
 8433SOL     OW36757   2.078   3.021   6.041 -0.2662  0.6048  0.0982
 8433SOL    HW136758   2.053   2.980   5.958  2.8270 -1.7352  0.3333
 8433SOL    HW236759   2.174   3.018   6.031 -0.3832  1.0549 -1.2661
 8434SOL     OW36760   2.926   0.027  10.360 -0.1562 -0.3703  0.9583
 8434SOL    HW136761   2.873   4.689  10.314  0.8356 -0.6855  0.2864
 8434SOL    HW236762   2.903   0.107  10.313  1.5530  0.2979  1.2589
 8435SOL     OW36763   2.963   3.774   2.340  0.9853 -0.1532 -0.1584
 8435SOL    HW136764   2.899   3.712   2.375 -0.7165  1.9729  0.5117
 8435SOL    HW236765   2.936   3.845   2.399  0.4136  0.6868 -1.4410
 8436SOL     OW36766   0.803   3.068   2.443 -0.3714 -0.2170 -0.0081
 8436SOL    HW136767   0.729   3.098   2.391 -0.4395  0.9588  0.7646
 8436SOL    HW236768   0.874   3.124   2.412 -0.7956  0.8914  1.0066
 8437SOL     OW36769   0.048   3.954   0.480 -0.6303 -0.0894 -0.0326
 8437SOL    HW136770   0.017   4.013   0.548 -1.4291 -1.3462  0.6884
 8437SOL    HW236771   4.706   3.887   0.476 -1.4736  0.6387  2.7891
 8438SOL     OW36772   1.119   3.428   4.815 -0.1667 -0.1301 -0.1349
 8438SOL    HW136773   1.150   3.452   4.902  3.6571  0.0242 -1.5104
 8438SOL    HW236774   1.132   3.511   4.769  0.2797 -0.1937 -0.1233
 8439SOL     OW36775   0.375   0.089   6.500 -0.1747  0.7834  0.2546
 8439SOL    HW136776   0.442   0.146   6.462 -0.8516  1.4841  0.1175
 8439SOL    HW236777   0.422   0.041   6.569  3.1902  1.0356 -1.8754
 8440SOL     OW36778   2.049   4.676   4.226 -0.3374 -0.0358  0.3759
 8440SOL    HW136779   1.966   4.632   4.240  0.3534 -0.8252  1.9582
 8440SOL    HW236780   2.044   0.010   4.300 -1.6733 -1.9796  1.8562
 8441SOL     OW36781   2.039   0.689   2.252 -0.5988  0.4421 -0.5692
 8441SOL    HW136782   1.944   0.701   2.248 -0.7877 -1.6325 -2.1602
 8441SOL    HW236783   2.043   0.611   2.197 -1.7378  1.1396 -1.6558
 8442SOL     OW36784   3.915   3.783   5.382 -0.1256 -0.1594  0.3883
 8442SOL    HW136785   3.999   3.746   5.354 -0.6012 -2.0390  1.4439
 8442SOL    HW236786   3.866   3.702   5.398 -0.8540 -0.5920 -3.8841
 8443SOL     OW36787   3.745   1.121   7.833 -0.1639  0.1483 -0.1929
 8443SOL    HW136788   3.786   1.205   7.810 -1.5501  0.9841  0.3811
 8443SOL    HW236789   3.786   1.107   7.918  0.3169 -1.7994 -0.7485
 8444SOL     OW36790   0.294   2.027  14.565 -0.2079 -0.2325 -0.1668
 8444SOL    HW136791   0.366   1.965  14.574 -1.7537 -1.9168  0.5981
 8444SOL    HW236792   0.273   2.008  14.473  1.9654 -0.5431 -0.5930
 8445SOL     OW36793   1.796   2.212  13.115  0.1823 -0.5269 -0.5961
 8445SOL    HW136794   1.877   2.235  13.069  0.8311 -0.8443  0.4137
 8445SOL    HW236795   1.775   2.134  13.063  1.9879 -0.2643 -1.7331
 8446SOL     OW36796   1.617   0.762   6.137 -0.0378 -0.2878  0.0062
 8446SOL    HW136797   1.563   0.733   6.210  0.0595 -0.4339  0.0209
 8446SOL    HW236798   1.594   0.854   6.125  1.3311 -0.2729 -2.5205
 8447SOL     OW36799   2.206   2.440   1.891  0.3986 -0.7057  0.3948
 8447SOL    HW136800   2.280   2.435   1.952  0.1078  0.2267  0.8143
 8447SOL    HW236801   2.223   2.357   1.845 -1.5872 -0.2647 -1.1204
 8448SOL     OW36802   1.014   3.647   3.075  0.2579 -0.2779 -0.0571
 8448SOL    HW136803   1.007   3.553   3.058  0.0272 -0.4016  0.7199
 8448SOL    HW236804   1.101   3.669   3.040 -0.6088  0.2136 -1.9131
 8449SOL     OW36805   2.509   4.584  13.937  0.0552  0.1992 -0.4907
 8449SOL    HW136806   2.436   4.579  13.998  1.8689 -0.6324  1.6114
 8449SOL    HW236807   2.575   4.548  13.997  1.2032 -0.6963 -2.2963
 8450SOL     OW36808   3.983   3.557   9.796  0.6680 -0.0541  0.9163
 8450SOL    HW136809   3.969   3.611   9.718  2.0241 -1.0710 -0.0301
 8450SOL    HW236810   4.069   3.526   9.768  0.0396 -1.7798  0.8991
 8451SOL     OW36811   2.635   0.602  12.052  0.5209 -0.2854  0.0213
 8451SOL    HW136812   2.569   0.643  11.996 -0.1075  1.4191  2.0207
 8451SOL    HW236813   2.717   0.598  12.001  0.0759 -1.9645 -0.5522
 8452SOL     OW36814   2.447   3.932  10.078  0.2593 -0.0497  0.3016
 8452SOL    HW136815   2.507   3.976  10.138  0.5664 -1.7026  1.1746
 8452SOL    HW236816   2.495   3.851  10.063 -1.5726 -1.1010  0.0262
 8453SOL     OW36817   1.225   0.223   7.952 -0.6899 -0.2386  0.3287
 8453SOL    HW136818   1.301   0.230   8.010  0.4729  1.4481 -1.4125
 8453SOL    HW236819   1.186   0.310   7.954 -1.0121 -0.3726 -0.1465
 8454SOL     OW36820   4.165   3.326  17.416  0.3973 -0.0884 -0.2002
 8454SOL    HW136821   4.207   3.295  17.336 -1.3280 -0.5600 -0.9236
 8454SOL    HW236822   4.193   3.251  17.469 -1.8711 -1.3291 -0.7546
 8455SOL     OW36823   4.295   2.476   3.957  0.0631 -0.0632  0.0102
 8455SOL    HW136824   4.206   2.459   3.988 -0.5424 -0.6311 -2.0498
 8455SOL    HW236825   4.301   2.429   3.873 -0.1556 -0.6238  0.3117
 8456SOL     OW36826   2.135   4.005   4.550  0.7476 -0.0599 -0.2826
 8456SOL    HW136827   2.131   3.953   4.630  0.2200  0.5756  0.1133
 8456SOL    HW236828   2.206   4.063   4.580 -0.4288  0.3607  1.7049
 8457SOL     OW36829   0.032   2.182   6.551 -0.0955  0.1960  0.3001
 8457SOL    HW136830   0.038   2.104   6.606  2.1547 -0.9418 -1.5489
 8457SOL    HW236831   0.037   2.259   6.608 -1.1644  0.8786 -0.5302
 8458SOL     OW36832   4.264   3.564   4.744 -0.2830 -0.1402  0.2004
 8458SOL    HW136833   4.280   3.654   4.716 -0.3078 -0.1735  0.0781
 8458SOL    HW236834   4.274   3.573   4.839 -1.0147  0.6802  0.1948
 8459SOL     OW36835   1.473   4.044  14.959 -0.0108  0.4911  0.4156
 8459SOL    HW136836   1.448   4.029  15.050 -0.4327 -0.1879  0.1875
 8459SOL    HW236837   1.568   4.050  14.973 -0.0694  2.7867 -0.1571
 8460SOL     OW36838   4.724   4.627   5.039 -0.3689  0.3973  0.5526
 8460SOL    HW136839   0.079   4.608   4.992 -0.8397 -0.5434  0.1210
 8460SOL    HW236840   0.019   4.628   5.132 -0.2131 -2.4698  0.5494
 8461SOL     OW36841   3.938   1.802   5.302 -0.1819 -0.2762 -0.0298
 8461SOL    HW136842   3.881   1.728   5.282 -0.3667 -0.2680  0.4691
 8461SOL    HW236843   3.982   1.800   5.217 -1.5899 -0.7300 -0.7556
 8462SOL     OW36844   3.765   3.973   8.500 -0.3748  0.9059 -0.2337
 8462SOL    HW136845   3.695   3.952   8.562  0.6680 -0.7293  0.3800
 8462SOL    HW236846   3.804   4.052   8.537 -2.0628  1.7672 -0.2577
 8463SOL     OW36847   3.449   3.721   1.927 -0.3330  0.3987 -0.0050
 8463SOL    HW136848   3.391   3.724   2.003 -1.9541  0.9995 -1.2724
 8463SOL    HW236849   3.520   3.777   1.959  0.8025  0.5981 -2.8705
 8464SOL     OW36850   0.784   2.016   7.945  0.0149  0.3979 -0.1058
 8464SOL    HW136851   0.784   2.087   7.881  0.4401  1.0436  0.6092
 8464SOL    HW236852   0.839   2.057   8.013 -0.4441 -0.7067  0.9234
 8465SOL     OW36853   0.537   3.494   2.426  0.5310 -0.1935  0.1894
 8465SOL    HW136854   0.628   3.504   2.454  0.6757  1.0730 -0.7810
 8465SOL    HW236855   0.538   3.439   2.348  2.2693 -0.5290  0.4632
 8466SOL     OW36856   1.306   2.936   2.028  0.2309  0.1586  0.7451
 8466SOL    HW136857   1.343   3.024   2.018 -0.0367  0.2541  0.6004
 8466SOL    HW236858   1.361   2.886   1.968 -0.3263  0.9995 -0.4467
 8467SOL     OW36859   3.188   3.045   1.431 -0.1486  0.6119  0.0148
 8467SOL    HW136860   3.228   3.122   1.473  0.1337 -0.2055  1.2289
 8467SOL    HW236861   3.250   3.031   1.360 -0.0029 -0.4885  0.3691
 8468SOL     OW36862   0.576   2.119   9.892 -0.2066  0.0191  0.2397
 8468SOL    HW136863   0.610   2.121   9.981 -0.4204 -1.9310  0.3667
 8468SOL    HW236864   0.653   2.154   9.848  0.1650  0.2533  1.0966
 8469SOL     OW36865   4.586   4.065   3.868 -0.2301 -0.1482  0.3670
 8469SOL    HW136866   4.561   4.039   3.779 -0.3551 -0.4620  0.4945
 8469SOL    HW236867   4.555   3.988   3.916 -2.2671 -0.5641 -1.6040
 8470SOL     OW36868   0.455   2.059  12.792  1.0974 -0.7234  0.0592
 8470SOL    HW136869   0.480   1.969  12.814  0.1416 -1.7620 -3.0324
 8470SOL    HW236870   0.520   2.109  12.841  2.3553  0.1114 -2.4459
 8471SOL     OW36871   1.871   1.476  15.360 -0.4670 -0.0640 -0.3025
 8471SOL    HW136872   1.871   1.419  15.283  0.9291 -0.4236 -0.0335
 8471SOL    HW236873   1.962   1.503  15.370 -0.1362 -0.9395 -0.8618
 8472SOL     OW36874   1.784   1.348   0.856  0.2737  0.3024  0.2606
 8472SOL    HW136875   1.692   1.365   0.879  0.4301  1.4042  0.0793
 8472SOL    HW236876   1.793   1.390   0.770  0.6227  0.4805  0.3841
 8473SOL     OW36877   2.051   2.394   5.843 -0.1000  0.3138 -0.3102
 8473SOL    HW136878   2.014   2.358   5.924  0.0614 -0.0304 -0.3873
 8473SOL    HW236879   1.988   2.366   5.776 -2.4764 -1.0154  2.5018
 8474SOL     OW36880   4.724   1.346   7.389  0.1740  0.1330  0.1409
 8474SOL    HW136881   4.685   1.325   7.304 -1.1669 -0.5946  0.9433
 8474SOL    HW236882   0.075   1.290   7.387  2.0748  2.6882  2.2493
 8475SOL     OW36883   2.026   0.239   0.779 -0.3120  0.3560  0.2147
 8475SOL    HW136884   2.118   0.216   0.789 -0.5539 -0.5446  0.3490
 8475SOL    HW236885   2.009   0.172   0.712  0.7374  0.4586 -0.1518
 8476SOL     OW36886   4.566   4.398   4.293  0.2759  0.8215 -0.2001
 8476SOL    HW136887   4.611   4.479   4.273 -2.9774  2.5385 -0.6192
 8476SOL    HW236888   4.614   4.366   4.370  0.2936 -2.0308 -1.3967
 8477SOL     OW36889   0.365   3.895  13.653 -0.2204  0.1596 -0.3297
 8477SOL    HW136890   0.343   3.987  13.670  0.5006  0.5928 -1.7130
 8477SOL    HW236891   0.280   3.852  13.653 -0.0220 -0.2309 -0.0708
 8478SOL     OW36892   3.216   2.242   6.264 -0.0640  0.3201 -0.6212
 8478SOL    HW136893   3.293   2.186   6.268 -0.7447 -0.7256 -1.9911
 8478SOL    HW236894   3.147   2.181   6.238  0.8136 -0.6204 -0.7212
 8479SOL     OW36895   4.453   2.883   7.052 -0.2397 -0.4302  0.2454
 8479SOL    HW136896   4.404   2.937   7.115 -0.3167 -0.9215  0.6070
 8479SOL    HW236897   4.517   2.948   7.023 -1.8038  1.1406  0.3422
 8480SOL     OW36898   4.192   1.626   5.867 -0.4546 -0.2679  0.8104
 8480SOL    HW136899   4.245   1.699   5.897  0.1312  0.0060 -0.8907
 8480SOL    HW236900   4.123   1.669   5.816  0.5889  1.2470  0.6753
 8481SOL     OW36901   4.309   4.674   3.884  0.3127  0.2690  0.0453
 8481SOL    HW136902   4.331   4.617   3.958 -1.0376 -0.4492 -0.1000
 8481SOL    HW236903   4.220   4.643   3.865 -0.1609  2.5284 -1.4595
 8482SOL     OW36904   4.077   1.549  17.522 -0.2078  0.0044 -0.5434
 8482SOL    HW136905   3.992   1.548  17.567  0.8441  1.1898  1.5052
 8482SOL    HW236906   4.126   1.471  17.548  2.5596  1.7379 -0.5479
 8483SOL     OW36907   1.584   1.038   7.259  0.6221  0.1007 -0.0037
 8483SOL    HW136908   1.514   0.973   7.246 -1.3174  2.4434 -1.2931
 8483SOL    HW236909   1.540   1.094   7.322  1.1777 -0.0507  0.5159
 8484SOL     OW36910   0.664   4.126   7.122  0.5268  0.1730  0.2090
 8484SOL    HW136911   0.589   4.073   7.151  0.8010 -0.8557 -0.9499
 8484SOL    HW236912   0.658   4.134   7.027  1.7899  1.8649  0.2695
 8485SOL     OW36913   1.933   1.437   5.308  0.4954  0.5032 -0.2119
 8485SOL    HW136914   2.011   1.417   5.360  0.4394  0.4340 -0.1544
 8485SOL    HW236915   1.885   1.486   5.375  1.0302 -0.6933  1.0568
 8486SOL     OW36916   2.222   0.174   4.183  0.3419 -0.1497  0.2151
 8486SOL    HW136917   2.161   0.179   4.110 -0.8128  0.0714  1.1924
 8486SOL    HW236918   2.173   0.222   4.249  1.1319  1.6646 -0.5026
 8487SOL     OW36919   4.617   2.703  15.127 -0.3793 -0.5856 -0.6240
 8487SOL    HW136920   4.641   2.697  15.035  0.9711 -0.1146 -0.3055
 8487SOL    HW236921   4.658   2.621  15.154  1.2261 -0.1311 -1.6612
 8488SOL     OW36922   0.406   3.987   4.797 -0.5949  0.1705 -1.0192
 8488SOL    HW136923   0.426   3.896   4.817  0.3031 -0.0495 -2.9034
 8488SOL    HW236924   0.485   4.019   4.754  1.1629  0.0892  2.1979
 8489SOL     OW36925   0.542   2.260   8.588 -0.1467 -0.1585 -0.2252
 8489SOL    HW136926   0.471   2.276   8.526 -1.0307  1.1565  1.1247
 8489SOL    HW236927   0.541   2.342   8.638 -0.1570 -0.0732 -0.3654
 8490SOL     OW36928   2.262   4.091   7.158 -0.5961 -0.2043 -0.1536
 8490SOL    HW136929   2.170   4.079   7.134 -1.3355  1.6539  1.8549
 8490SOL    HW236930   2.309   4.043   7.089 -0.4014  1.8303 -1.4277
 8491SOL     OW36931   3.951   1.354  15.138  0.3456  0.3498  0.5445
 8491SOL    HW136932   4.007   1.373  15.063  0.2604 -1.9831 -0.0998
 8491SOL    HW236933   3.867   1.352  15.092 -0.2688  0.8796  1.6478
 8492SOL     OW36934   4.231   3.630   3.042  0.2012 -0.0603 -0.0795
 8492SOL    HW136935   4.195   3.665   3.123 -0.2545  0.2358 -0.4149
 8492SOL    HW236936   4.218   3.535   3.048 -0.8953  0.0104 -1.4458
 8493SOL     OW36937   1.688   2.187   6.405 -0.3243 -0.3601 -0.4210
 8493SOL    HW136938   1.760   2.162   6.348  1.0099  1.3714  0.5085
 8493SOL    HW236939   1.607   2.182   6.354 -0.0552 -2.9852 -0.5552
 8494SOL     OW36940   3.297   2.712  16.282 -0.4926 -0.1658 -0.4184
 8494SOL    HW136941   3.378   2.669  16.310 -0.1297 -1.2752 -3.1212
 8494SOL    HW236942   3.338   2.753  16.206  1.1986 -1.6977 -0.3598
 8495SOL     OW36943   2.143   0.076   2.801 -0.4800  0.5951 -0.7037
 8495SOL    HW136944   2.055   0.047   2.777 -0.0387 -0.3995 -1.1101
 8495SOL    HW236945   2.131   0.154   2.855  0.6162  0.0824  0.2743
 8496SOL     OW36946   0.841   0.118   0.836  0.2759 -0.6328  0.0835
 8496SOL    HW136947   0.800   0.187   0.888 -1.3545 -0.9117 -0.8230
 8496SOL    HW236948   0.928   0.105   0.874  0.1915 -0.5546  0.3078
 8497SOL     OW36949   4.285   0.458   3.097  0.3807 -0.3362 -0.1191
 8497SOL    HW136950   4.259   0.372   3.065  0.3919 -0.0956 -0.7797
 8497SOL    HW236951   4.284   0.442   3.191 -1.4840 -1.3019 -0.3137
 8498SOL     OW36952   1.592   1.090  17.255  0.1131 -0.2922  0.1028
 8498SOL    HW136953   1.540   1.127  17.326 -0.7005 -0.9251 -0.1641
 8498SOL    HW236954   1.676   1.072  17.296 -0.0400 -1.7228 -0.2250
 8499SOL     OW36955   2.201   2.384  15.622  0.0841  0.1906 -0.2418
 8499SOL    HW136956   2.191   2.329  15.544 -1.1792 -0.6344  0.5064
 8499SOL    HW236957   2.106   2.390  15.631 -0.1148 -0.0337 -2.3179
 8500SOL     OW36958   1.033   0.285  17.355 -0.2299 -0.1097 -0.1727
 8500SOL    HW136959   1.072   0.373  17.358  1.3590 -0.8457  0.4728
 8500SOL    HW236960   1.104   0.230  17.388 -0.4181 -0.6186 -0.6259
 8501SOL     OW36961   2.564   4.576   8.755 -0.1838 -0.1999  0.0015
 8501SOL    HW136962   2.490   4.602   8.811  0.9257  1.5467  0.6769
 8501SOL    HW236963   2.540   4.486   8.733  1.3779 -0.5211 -0.3709
 8502SOL     OW36964   4.437   2.204   3.493  0.0719 -0.0879  0.0160
 8502SOL    HW136965   4.515   2.161   3.528  0.2916  0.4066  0.1303
 8502SOL    HW236966   4.473   2.267   3.430  0.3777  0.5826  0.8561
 8503SOL     OW36967   1.055   0.168  17.074  0.4808  0.1284 -0.0673
 8503SOL    HW136968   1.005   0.198  17.150 -0.5331 -1.5743 -0.0676
 8503SOL    HW236969   1.056   0.073  17.082 -0.2585 -0.1324 -3.3057
 8504SOL     OW36970   3.668   3.572   2.569 -0.3015 -0.5705  0.7982
 8504SOL    HW136971   3.744   3.539   2.616  0.1758  0.0802  0.4917
 8504SOL    HW236972   3.596   3.513   2.589 -0.7927  0.2840  1.5356
 8505SOL     OW36973   2.942   2.492   7.445  0.1152 -0.0218 -0.1074
 8505SOL    HW136974   3.014   2.481   7.384 -0.7608 -0.4244 -1.0628
 8505SOL    HW236975   2.937   2.406   7.485 -3.1854 -0.7213 -2.0280
 8506SOL     OW36976   1.259   3.034   6.028  0.7039 -0.4865 -0.7534
 8506SOL    HW136977   1.339   3.070   5.988  0.3118  1.5207  0.2727
 8506SOL    HW236978   1.202   3.110   6.032 -1.3476 -1.9696 -1.6088
 8507SOL     OW36979   0.142   2.538  16.295  0.0411 -0.1176 -0.3724
 8507SOL    HW136980   0.126   2.547  16.201  1.0099  0.1729 -0.5082
 8507SOL    HW236981   0.155   2.631  16.315 -1.2559 -0.8262  3.5476
 8508SOL     OW36982   4.064   0.752  11.823 -0.3822  0.2054  0.1032
 8508SOL    HW136983   4.094   0.842  11.826  0.1047  0.0285  0.6140
 8508SOL    HW236984   4.147   0.709  11.801  0.8511  2.9722 -0.5806
 8509SOL     OW36985   0.717   2.356   2.905 -0.1359 -0.2202 -0.5846
 8509SOL    HW136986   0.685   2.424   2.844 -0.5798 -0.0674 -0.1766
 8509SOL    HW236987   0.632   2.328   2.937 -0.2390  1.3892  0.5387
 8510SOL     OW36988   3.837   2.096   4.679 -0.0393  0.1042  0.2032
 8510SOL    HW136989   3.843   2.076   4.772  0.3278  1.8834  0.5506
 8510SOL    HW236990   3.877   2.182   4.672 -1.1898  0.6321  0.1455
 8511SOL     OW36991   3.589   0.857   7.131 -0.0738  0.1147  0.2949
 8511SOL    HW136992   3.599   0.806   7.211 -0.1386 -0.2719  0.0606
 8511SOL    HW236993   3.642   0.932   7.156  3.1871 -2.1128  0.0311
 8512SOL     OW36994   3.488   1.554   2.769  0.4038  0.1871  0.4263
 8512SOL    HW136995   3.526   1.470   2.793  0.4173 -0.1325 -0.7494
 8512SOL    HW236996   3.545   1.574   2.695 -0.4549  1.4473  0.1017
 8513SOL     OW36997   0.352   1.110   1.753 -0.1194  0.3475  0.2324
 8513SOL    HW136998   0.398   1.033   1.720  1.9606 -0.0526  4.0415
 8513SOL    HW236999   0.295   1.141   1.683 -0.3688 -0.1390  0.2246
 8514SOL     OW37000   0.978   2.783   6.018  0.0814  0.0747  0.1949
 8514SOL    HW137001   0.950   2.720   6.085  1.0371  1.4454  1.9035
 8514SOL    HW237002   1.002   2.729   5.943  1.3943  2.5036 -1.1128
 8515SOL     OW37003   1.605   0.248  10.881 -0.0733  0.6607  0.2266
 8515SOL    HW137004   1.635   0.199  10.958  2.2908  1.0622 -0.4339
 8515SOL    HW237005   1.539   0.193  10.838 -1.6291  3.0544 -0.4220
 8516SOL     OW37006   0.677   2.187   0.262 -0.0081 -0.3809  0.0628
 8516SOL    HW137007   0.672   2.254   0.194  1.2301 -0.9106 -0.5523
 8516SOL    HW237008   0.608   2.129   0.230  0.2483 -1.1472  0.9080
 8517SOL     OW37009   0.717   3.827  12.763  0.1196 -0.5073 -0.0058
 8517SOL    HW137010   0.782   3.871  12.818 -1.1282 -1.4388  2.1938
 8517SOL    HW237011   0.650   3.892  12.742 -0.8940 -0.8704  2.1279
 8518SOL     OW37012   1.261   1.656   6.269  0.1502 -0.0500  0.3656
 8518SOL    HW137013   1.234   1.695   6.186  0.8223 -0.1498  0.0954
 8518SOL    HW237014   1.248   1.562   6.251  0.2491  0.4084 -2.0998
 8519SOL     OW37015   2.284   3.663   8.233 -0.1917 -0.1994 -0.2892
 8519SOL    HW137016   2.366   3.663   8.282  0.1182 -1.9547 -0.8155
 8519SOL    HW237017   2.273   3.756   8.213 -0.4709 -0.7169 -2.5403
 8520SOL     OW37018   0.221   2.125   9.864  1.3440  0.1383  0.5431
 8520SOL    HW137019   0.182   2.201   9.908 -0.0677 -1.0189  1.2579
 8520SOL    HW237020   0.170   2.060   9.911 -1.6533  0.4181 -2.3171
 8521SOL     OW37021   3.064   2.771   1.227  0.0990 -0.2761 -0.2987
 8521SOL    HW137022   3.072   2.718   1.306  0.0885 -0.2348 -0.2699
 8521SOL    HW237023   3.157   2.780   1.208 -0.1063  0.4308 -1.0038
 8522SOL     OW37024   2.610   1.931   8.338  0.1133 -0.1991  0.2114
 8522SOL    HW137025   2.540   1.867   8.322 -0.1086 -0.3743  1.8560
 8522SOL    HW237026   2.594   1.955   8.429 -1.1355 -0.2414  0.0134
 8523SOL     OW37027   2.298   1.320   4.384  0.0060 -0.2164 -0.4017
 8523SOL    HW137028   2.383   1.295   4.421 -1.2794 -0.2633  2.5408
 8523SOL    HW237029   2.326   1.366   4.304 -1.4803  1.2688 -0.0589
 8524SOL     OW37030   3.085   1.627   4.966  0.0256 -0.5182  0.0999
 8524SOL    HW137031   3.168   1.621   5.014 -1.6257 -2.3246  2.7495
 8524SOL    HW237032   3.115   1.667   4.885 -1.7102 -2.4364 -1.4636
 8525SOL     OW37033   3.558   2.291  17.014  0.5747 -0.4897 -0.1520
 8525SOL    HW137034   3.550   2.385  17.006 -0.4489 -0.5462  0.2609
 8525SOL    HW237035   3.533   2.275  17.105  1.4661 -5.2375 -0.6980
 8526SOL     OW37036   0.796   0.381  14.733 -0.3753 -0.5026 -0.1851
 8526SOL    HW137037   0.850   0.444  14.685 -0.2084 -1.2871 -1.0361
 8526SOL    HW237038   0.751   0.446  14.786  0.1476 -1.7663  1.7985
 8527SOL     OW37039   2.526   2.969   3.126 -0.5329  0.2310 -0.1366
 8527SOL    HW137040   2.520   3.050   3.176 -0.8127  0.0049  0.1910
 8527SOL    HW237041   2.518   3.009   3.039 -1.2600  2.7718  1.1068
 8528SOL     OW37042   3.751   0.007   6.050  0.5662 -0.0844  0.0643
 8528SOL    HW137043   3.689   0.028   6.119  0.8637 -0.7882  0.5442
 8528SOL    HW237044   3.801   0.087   6.035  2.3590 -1.7294 -2.6859
 8529SOL     OW37045   2.976   2.005   0.303 -0.1081 -0.0542  0.3359
 8529SOL    HW137046   3.045   2.019   0.367  1.6001 -1.7774 -1.1405
 8529SOL    HW237047   3.012   2.041   0.222 -2.7984 -2.8320 -2.0815
 8530SOL     OW37048   1.850   2.502  14.358 -0.3687  0.0571 -0.8446
 8530SOL    HW137049   1.759   2.490  14.333  0.1010  0.9164 -3.0098
 8530SOL    HW237050   1.881   2.412  14.345  0.8289  0.5310 -1.2714
 8531SOL     OW37051   1.875   0.929   5.060 -0.1420  0.6321  0.2355
 8531SOL    HW137052   1.899   0.941   4.968  2.9383 -0.7184  0.8668
 8531SOL    HW237053   1.953   0.950   5.111  0.3073  1.7924 -0.9480
 8532SOL     OW37054   0.425   4.335   3.936  0.3070  0.0414 -0.5426
 8532SOL    HW137055   0.392   4.341   3.846 -0.9677 -0.7026 -0.1188
 8532SOL    HW237056   0.516   4.363   3.927  0.2969  0.6153  1.3231
 8533SOL     OW37057   1.361   4.489   1.557 -0.1874  0.3720  0.1265
 8533SOL    HW137058   1.451   4.519   1.541 -0.1790  0.9265  1.2323
 8533SOL    HW237059   1.377   4.396   1.570  1.0089  0.2838 -1.9978
 8534SOL     OW37060   4.481   1.703   5.712  0.5283  0.1479  0.5449
 8534SOL    HW137061   4.484   1.676   5.803  2.5540  1.0436  0.7433
 8534SOL    HW237062   4.395   1.746   5.706  0.5290  0.1867  0.8095
 8535SOL     OW37063   0.363   1.263  14.092 -0.3840 -0.4835 -0.0492
 8535SOL    HW137064   0.295   1.328  14.079 -0.3085 -0.1975  0.9905
 8535SOL    HW237065   0.317   1.180  14.085 -1.4277  0.0010  1.0785
 8536SOL     OW37066   4.544   4.051   2.002 -0.1400  0.2549  0.2028
 8536SOL    HW137067   4.470   4.104   2.032 -0.9275 -0.5505 -0.3517
 8536SOL    HW237068   4.573   4.014   2.086 -3.2894  0.4140  1.3332
 8537SOL     OW37069   1.487   3.546   2.901 -0.2724  0.2407 -0.4156
 8537SOL    HW137070   1.530   3.498   2.831  0.0036  0.5727 -0.4725
 8537SOL    HW237071   1.434   3.484   2.951  0.5875  1.4085  1.9422
 8538SOL     OW37072   0.867   1.826   6.955  0.1893  0.8675 -0.2087
 8538SOL    HW137073   0.881   1.776   6.874  0.1035  2.2075 -1.0624
 8538SOL    HW237074   0.934   1.787   7.010 -2.9323 -1.8652  1.6984
 8539SOL     OW37075   3.082   3.773   4.502  0.2652 -0.2975 -0.5025
 8539SOL    HW137076   3.149   3.714   4.536 -0.0427  0.0283  0.6522
 8539SOL    HW237077   3.045   3.707   4.443  1.0580 -0.6393 -0.6160
 8540SOL     OW37078   2.589   2.107   3.179 -0.2205  0.4626  0.6964
 8540SOL    HW137079   2.654   2.131   3.244 -0.3910  1.7122  0.3978
 8540SOL    HW237080   2.567   2.199   3.167 -0.4643  0.3007 -0.1484
 8541SOL     OW37081   1.981   2.528   7.119 -0.0923 -0.3102 -0.4223
 8541SOL    HW137082   2.052   2.589   7.101  1.0352 -0.9214  1.9791
 8541SOL    HW237083   1.917   2.588   7.158  3.0461  2.0149  1.1305
 8542SOL     OW37084   2.716   1.208  13.170 -0.0605 -0.1358  0.9135
 8542SOL    HW137085   2.760   1.131  13.205 -0.9579 -1.8357 -1.7181
 8542SOL    HW237086   2.790   1.257  13.133 -0.7387  1.5436  1.7565
 8543SOL     OW37087   0.256   0.372   5.214  0.1603 -0.1303  0.4102
 8543SOL    HW137088   0.351   0.371   5.221  0.2909 -3.1188 -1.8016
 8543SOL    HW237089   0.247   0.364   5.309 -0.0739 -1.8215  0.2510
 8544SOL     OW37090   0.099   3.859   4.227  0.0501  0.3347  0.4969
 8544SOL    HW137091   0.047   3.936   4.209 -0.4721 -0.0697  0.2813
 8544SOL    HW237092   0.176   3.914   4.242 -1.2263  2.0294  0.7707
 8545SOL     OW37093   1.835   4.601   2.370 -0.4612 -0.5572  0.3956
 8545SOL    HW137094   1.763   4.593   2.432 -0.3626 -0.8439  0.4738
 8545SOL    HW237095   1.784   4.611   2.289  0.8859  3.0323 -0.0122
 8546SOL     OW37096   4.395   1.130   8.461 -0.0892 -0.2891  0.0783
 8546SOL    HW137097   4.355   1.121   8.548  1.6260 -1.3533  0.7577
 8546SOL    HW237098   4.437   1.215   8.475 -0.3138 -0.0294 -0.8251
 8547SOL     OW37099   0.003   0.358   8.969  0.0747  0.6796 -0.2366
 8547SOL    HW137100   0.068   0.360   8.899 -2.5135  3.6131 -2.5745
 8547SOL    HW237101   0.054   0.310   9.035 -1.6001 -0.4468  0.2406
 8548SOL     OW37102   0.039   2.873  17.644 -0.1423 -0.3759 -0.2331
 8548SOL    HW137103   0.079   2.857   0.022  0.1657 -1.0599 -0.5043
 8548SOL    HW237104   0.096   2.835  17.577 -0.0025  1.0184 -0.8957
 8549SOL     OW37105   1.640   2.637   5.908 -0.7082  0.6879 -0.0356
 8549SOL    HW137106   1.598   2.713   5.947  0.6406  1.3933  0.0598
 8549SOL    HW237107   1.707   2.691   5.865  0.3088  0.6943  1.5322
 8550SOL     OW37108   1.156   4.358  10.565  0.5923 -0.6743 -0.2750
 8550SOL    HW137109   1.095   4.289  10.590 -1.4497  0.6499 -1.6713
 8550SOL    HW237110   1.194   4.382  10.650 -0.2470  0.5581 -0.2610
 8551SOL     OW37111   2.239   3.712  10.154 -0.1690 -0.2388 -0.6179
 8551SOL    HW137112   2.226   3.784  10.215  0.3256 -0.4077 -0.3132
 8551SOL    HW237113   2.281   3.758  10.081 -0.4938 -0.1808 -0.7680
 8552SOL     OW37114   4.534   1.950  15.634  0.0764 -0.5579 -0.3742
 8552SOL    HW137115   4.602   1.936  15.568  0.1119 -0.9183 -0.2620
 8552SOL    HW237116   4.485   1.868  15.623 -1.3474  0.1455  0.8196
 8553SOL     OW37117   4.291   1.476  15.495 -0.0398 -0.4215 -0.2571
 8553SOL    HW137118   4.371   1.440  15.532  0.7321  2.2263  0.6656
 8553SOL    HW237119   4.294   1.434  15.409  1.0395 -0.3420 -0.2531
 8554SOL     OW37120   1.389   0.467   2.444  0.5813  0.1182  0.1111
 8554SOL    HW137121   1.328   0.484   2.516  0.1437 -0.2806 -0.1657
 8554SOL    HW237122   1.445   0.408   2.492 -0.2195 -0.7010  0.0372
 8555SOL     OW37123   2.724   0.632   2.785  0.5136  0.4883  0.3555
 8555SOL    HW137124   2.697   0.542   2.767  0.7772  0.2421  1.1936
 8555SOL    HW237125   2.810   0.629   2.744  0.4737 -1.3167  0.3973
 8556SOL     OW37126   3.913   1.686   7.231 -0.2629 -0.0186  0.0907
 8556SOL    HW137127   3.875   1.665   7.316  0.1537  2.0240  0.7859
 8556SOL    HW237128   3.853   1.638   7.174  0.6957 -1.3474  0.2025
 8557SOL     OW37129   1.705   4.054   8.764  0.7747 -0.0505 -0.0962
 8557SOL    HW137130   1.613   4.076   8.747  0.5937  0.4374  1.6052
 8557SOL    HW237131   1.757   4.127   8.731 -0.2469  0.2515 -1.0689
 8558SOL     OW37132   2.138   4.335   0.544  0.3719 -0.5119 -1.1696
 8558SOL    HW137133   2.202   4.267   0.567  0.7369  0.5714  1.0400
 8558SOL    HW237134   2.163   4.355   0.454  1.8945  1.2472 -0.3591
 8559SOL     OW37135   1.955   1.527   5.884  0.2372  0.1462 -0.1767
 8559SOL    HW137136   2.011   1.467   5.835  1.3994  0.1751  1.1081
 8559SOL    HW237137   1.988   1.614   5.859  0.9408 -0.2189 -0.5340
 8560SOL     OW37138   2.636   4.723   6.208  0.1169 -0.5108  0.5281
 8560SOL    HW137139   2.692   4.672   6.149  1.7955  1.9101  0.0329
 8560SOL    HW237140   2.569   0.033   6.152  0.4389 -0.6921  0.0226
 8561SOL     OW37141   2.342   3.059   7.268 -0.2012  0.2014  0.2062
 8561SOL    HW137142   2.364   3.147   7.296 -0.2627  0.3424 -0.1857
 8561SOL    HW237143   2.299   3.068   7.182  1.2786  1.1142 -0.4349
 8562SOL     OW37144   1.774   3.211   9.252 -0.1347  0.5215 -0.1796
 8562SOL    HW137145   1.704   3.273   9.273 -0.7626 -0.2845  0.1009
 8562SOL    HW237146   1.721   3.135   9.229  0.4019  0.2235 -0.4188
 8563SOL     OW37147   4.107   2.802   0.655 -0.6239  0.2586 -0.3753
 8563SOL    HW137148   4.191   2.756   0.668 -1.2723 -1.0485 -0.8511
 8563SOL    HW237149   4.114   2.825   0.563 -1.9129  1.3652 -0.1914
 8564SOL     OW37150   1.616   1.291   6.278  0.0649 -0.2242 -0.1783
 8564SOL    HW137151   1.665   1.373   6.285  0.7469 -0.3989 -3.0336
 8564SOL    HW237152   1.671   1.241   6.218 -0.9299 -2.6786  0.9210
 8565SOL     OW37153   2.510   0.052  10.259  0.1229 -0.1606 -0.3094
 8565SOL    HW137154   2.499   0.031  10.352  0.1751  0.3188 -0.1971
 8565SOL    HW237155   2.420   0.069  10.232  1.0234  0.5645 -2.8330
 8566SOL     OW37156   4.405   3.001   2.812 -0.0130 -0.2890  0.1771
 8566SOL    HW137157   4.500   2.996   2.802  0.0943 -0.0686  1.0953
 8566SOL    HW237158   4.405   3.097   2.815  0.8343 -0.2518 -1.3832
 8567SOL     OW37159   0.127   1.666   4.307 -0.0532 -0.0242  0.6323
 8567SOL    HW137160   0.195   1.599   4.298 -0.1763 -0.1186  0.4107
 8567SOL    HW237161   0.150   1.707   4.391  0.3118  1.6824 -0.3092
 8568SOL     OW37162   2.496   3.729   4.467 -0.2010 -0.2300 -0.0709
 8568SOL    HW137163   2.486   3.706   4.559 -0.3726 -1.8058 -0.4921
 8568SOL    HW237164   2.404   3.745   4.444 -1.1402  0.8210  4.4569
 8569SOL     OW37165   3.408   0.146   6.541 -0.1348  0.3722  0.1522
 8569SOL    HW137166   3.385   0.203   6.467  2.7101  0.6183 -0.5627
 8569SOL    HW237167   3.359   0.070   6.510  1.9047  0.1703 -2.6528
 8570SOL     OW37168   1.566   0.237   6.432  0.7622  0.1679 -0.2012
 8570SOL    HW137169   1.535   0.189   6.509  0.4758  0.4050 -0.1682
 8570SOL    HW237170   1.651   0.193   6.428  1.1669  1.2280 -3.1733
 8571SOL     OW37171   0.759   2.693  17.498 -0.3496  0.1913  0.4895
 8571SOL    HW137172   0.792   2.607  17.522  1.8573  1.2895  1.4918
 8571SOL    HW237173   0.673   2.697  17.541 -0.0261  0.1250  1.1554
 8572SOL     OW37174   3.910   2.280  16.201 -0.4317  0.1568 -0.9878
 8572SOL    HW137175   3.938   2.191  16.177  1.2566  0.7112 -1.0389
 8572SOL    HW237176   3.986   2.310  16.250  0.9121 -0.4861 -2.6909
 8573SOL     OW37177   3.689   4.725   8.620  0.3524  0.4273  0.5462
 8573SOL    HW137178   3.685   0.034   8.708 -1.0315  0.2710  0.5368
 8573SOL    HW237179   3.677   4.631   8.633 -0.5259  0.2445 -1.4857
 8574SOL     OW37180   2.939   3.704  12.194  0.0531 -0.0583 -0.1820
 8574SOL    HW137181   2.929   3.703  12.099 -1.3610 -0.9434 -0.0397
 8574SOL    HW237182   2.847   3.702  12.224  1.1706  1.6987  3.3890
 8575SOL     OW37183   0.174   0.725   6.566  0.1721 -0.0117  0.6625
 8575SOL    HW137184   0.179   0.708   6.660  2.5916 -0.0207  0.5392
 8575SOL    HW237185   0.105   0.790   6.560 -0.9246 -1.2313  0.1371
 8576SOL     OW37186   3.253   0.319  10.985  0.1262 -0.0064  0.4396
 8576SOL    HW137187   3.340   0.281  10.993  0.5081  0.7507 -0.1819
 8576SOL    HW237188   3.273   0.370  10.907  0.0123  2.7788  2.1992
 8577SOL     OW37189   4.380   3.142   6.478  0.1624  0.0678  0.3222
 8577SOL    HW137190   4.410   3.061   6.436  1.8429  1.1558 -0.5659
 8577SOL    HW237191   4.438   3.143   6.554  0.8002 -0.3937 -0.1637
 8578SOL     OW37192   0.834   2.771   1.855 -0.1620 -0.4027  0.0845
 8578SOL    HW137193   0.928   2.786   1.868  0.3159  1.5314 -5.6589
 8578SOL    HW237194   0.822   2.748   1.763  0.6035  0.6920 -0.2832
 8579SOL     OW37195   0.617   0.002  10.014  0.8177  0.7114 -0.2730
 8579SOL    HW137196   0.680   4.663   9.986  1.7155  2.4824 -2.4451
 8579SOL    HW237197   0.562   4.726   9.935  0.2344 -1.9796  0.2403
 8580SOL     OW37198   3.689   1.127   6.582 -0.3713 -0.3704 -0.9692
 8580SOL    HW137199   3.778   1.096   6.568 -0.6331 -1.1446 -0.8799
 8580SOL    HW237200   3.641   1.045   6.576  0.1047 -0.6599 -0.7747
 8581SOL     OW37201   0.581   1.934   2.783  0.1020 -0.3254 -0.0463
 8581SOL    HW137202   0.598   1.926   2.877 -1.6285  0.6771  0.3457
 8581SOL    HW237203   0.499   1.888   2.766 -0.1058  0.9751 -2.5132
 8582SOL     OW37204   2.371   0.841   8.150 -0.1286 -0.4205  0.1829
 8582SOL    HW137205   2.323   0.920   8.174  2.3216  0.4971  2.2220
 8582SOL    HW237206   2.417   0.820   8.232  2.5293 -2.6892 -1.8736
 8583SOL     OW37207   2.516   4.105   3.938 -0.0461 -0.4610 -0.5867
 8583SOL    HW137208   2.612   4.107   3.934 -0.1565  1.2379 -2.3626
 8583SOL    HW237209   2.499   4.181   3.994 -0.1917 -0.6781 -0.3381
 8584SOL     OW37210   2.847   1.080   6.256  0.2789 -0.1947  0.1381
 8584SOL    HW137211   2.757   1.083   6.224  0.9960  0.9604 -1.7281
 8584SOL    HW237212   2.881   0.991   6.245  2.0330  0.2680  1.7684
 8585SOL     OW37213   2.020   0.409   6.922  0.1551  0.5868 -0.0206
 8585SOL    HW137214   2.052   0.340   6.864 -1.6663 -0.7812  0.5966
 8585SOL    HW237215   1.939   0.379   6.964  0.5554  0.3585  0.5873
 8586SOL     OW37216   3.577   4.222   3.302  0.3230 -0.6766  0.0874
 8586SOL    HW137217   3.523   4.243   3.226  0.6421 -1.6799 -0.4124
 8586SOL    HW237218   3.562   4.128   3.306 -1.9494 -0.3919 -2.0217
 8587SOL     OW37219   3.045   3.710   1.887  0.5205 -0.3353 -0.2490
 8587SOL    HW137220   2.973   3.747   1.938  1.2194  2.1532 -1.0725
 8587SOL    HW237221   3.085   3.667   1.963  0.5283  0.3271  0.1215
 8588SOL     OW37222   4.280   3.885   5.332  0.8758 -0.1617  0.3953
 8588SOL    HW137223   4.288   3.794   5.358  1.9000  0.2291  1.4760
 8588SOL    HW237224   4.351   3.890   5.268  0.7725  0.2871  0.3120
 8589SOL     OW37225   3.902   4.224   8.279  0.0772  0.2500  0.3275
 8589SOL    HW137226   3.996   4.236   8.287  0.1106 -0.9174  1.5751
 8589SOL    HW237227   3.894   4.129   8.286  1.7215  0.2660  2.2274
 8590SOL     OW37228   0.404   2.318   4.855  0.2775 -0.0129  0.6448
 8590SOL    HW137229   0.336   2.367   4.808  1.1950  1.5469  0.9709
 8590SOL    HW237230   0.347   2.252   4.895  0.5599 -1.0063 -0.5606
 8591SOL     OW37231   2.528   3.847   0.298  0.0972  0.0237 -0.4396
 8591SOL    HW137232   2.441   3.832   0.260  0.0758  0.1973 -0.4616
 8591SOL    HW237233   2.530   3.867   0.391  0.4439  1.0443 -0.6565
 8592SOL     OW37234   4.651   3.376   3.083  0.4303 -0.1784  0.3995
 8592SOL    HW137235   4.655   3.280   3.083 -0.0424 -0.1997  0.5898
 8592SOL    HW237236   4.593   3.401   3.010 -1.2930  0.3679  1.9521
 8593SOL     OW37237   2.301   1.343  10.807 -0.2254  0.0925 -0.6023
 8593SOL    HW137238   2.249   1.324  10.885 -1.6273 -0.5534 -1.7012
 8593SOL    HW237239   2.389   1.315  10.833 -0.4428  1.6298  1.7918
 8594SOL     OW37240   2.040   0.253   5.181  0.1707  0.0544  0.1336
 8594SOL    HW137241   1.984   0.178   5.199  2.0434 -1.5598 -0.7718
 8594SOL    HW237242   2.130   0.222   5.191  0.5464  1.1130  0.0670
 8595SOL     OW37243   2.730   2.387  14.843  0.0609  0.0514 -0.6724
 8595SOL    HW137244   2.764   2.476  14.832 -0.9013  0.3430 -1.2427
 8595SOL    HW237245   2.644   2.400  14.883  0.4544  2.3465 -0.5887
 8596SOL     OW37246   3.796   2.931   3.449 -0.0668 -0.2340 -0.0361
 8596SOL    HW137247   3.774   3.001   3.509 -1.5510 -0.2952 -0.5036
 8596SOL    HW237248   3.856   2.882   3.504  0.2171 -0.4942 -0.5742
 8597SOL     OW37249   4.053   0.090   9.080  0.5716 -0.2247  0.3937
 8597SOL    HW137250   4.120   0.079   9.147 -0.2049 -0.4892  1.1293
 8597SOL    HW237251   3.978   0.065   9.134  0.5776 -2.5914 -0.6913
 8598SOL     OW37252   3.541   1.208   5.427 -0.6123  0.1963 -0.0529
 8598SOL    HW137253   3.547   1.143   5.498  0.5486 -0.6057 -0.8850
 8598SOL    HW237254   3.498   1.149   5.365  0.9832 -1.7702  0.6893
 8599SOL     OW37255   1.113   0.193   4.527 -0.1226  0.4962 -0.5578
 8599SOL    HW137256   1.122   0.236   4.441  0.5923 -1.6346 -1.5428
 8599SOL    HW237257   1.018   0.195   4.538 -0.3488 -2.2792 -2.1235
 8600SOL     OW37258   1.235   1.889   5.036 -0.1075 -0.6750  0.9375
 8600SOL    HW137259   1.258   1.804   4.998 -0.9744 -0.2679 -0.5137
 8600SOL    HW237260   1.321   1.929   5.045 -0.7602  0.8067  0.6732
 8601SOL     OW37261   1.796   0.991  17.422  0.3346 -0.1630 -0.3576
 8601SOL    HW137262   1.780   1.010  17.514  0.7081 -1.2627 -0.0565
 8601SOL    HW237263   1.771   0.899  17.413  1.5834 -0.4098 -1.2428
 8602SOL     OW37264   0.896   3.920  15.838  0.0191  0.1516  0.3378
 8602SOL    HW137265   0.890   3.996  15.779  0.7588  0.0116  0.0798
 8602SOL    HW237266   0.864   3.955  15.921 -1.4406 -0.9259  0.2285
 8603SOL     OW37267   3.031   0.705   7.382 -0.4633 -0.0840  0.2638
 8603SOL    HW137268   3.029   0.723   7.476 -0.4643  0.2808  0.1968
 8603SOL    HW237269   3.103   0.767   7.368 -1.8277  1.9397  2.1076
 8604SOL     OW37270   2.027   3.650   7.444  0.3570  0.1219 -0.1693
 8604SOL    HW137271   2.109   3.699   7.442  1.2062 -1.2678  0.2990
 8604SOL    HW237272   2.056   3.560   7.461  0.0301 -0.0847 -0.7181
 8605SOL     OW37273   3.771   1.765   3.294  0.6368  0.4020  0.4141
 8605SOL    HW137274   3.786   1.687   3.348  1.4713 -0.5133 -1.1461
 8605SOL    HW237275   3.695   1.796   3.344  1.5065  1.3949  1.1092
 8606SOL     OW37276   1.540   1.325   1.941 -0.3715 -0.3533  0.0028
 8606SOL    HW137277   1.595   1.277   1.879  1.7144  2.4274 -0.3040
 8606SOL    HW237278   1.553   1.417   1.920  0.9756 -0.2572  1.2079
 8607SOL     OW37279   3.828   2.775   5.061  0.1800  0.2985  0.2905
 8607SOL    HW137280   3.895   2.746   5.122 -0.7076 -1.1679  0.5540
 8607SOL    HW237281   3.820   2.860   5.106  1.5562 -0.6723  2.3572
 8608SOL     OW37282   3.030   1.514   1.643  0.2361 -0.8651 -0.4499
 8608SOL    HW137283   2.938   1.500   1.618  0.3567  1.1683 -2.0579
 8608SOL    HW237284   3.061   1.425   1.627 -0.6118 -1.3766  0.8047
 8609SOL     OW37285   1.718   3.320   6.302  0.2739  0.2886 -0.0611
 8609SOL    HW137286   1.775   3.256   6.259 -2.0885 -3.2970  2.0622
 8609SOL    HW237287   1.698   3.271   6.382  2.4720 -0.3367  0.1069
 8610SOL     OW37288   4.557   4.595  12.574 -0.0186  0.5951  0.0476
 8610SOL    HW137289   4.549   4.570  12.482 -0.7071 -0.1021  0.2926
 8610SOL    HW237290   4.584   4.686  12.568  1.0426  0.2433 -0.5793
 8611SOL     OW37291   4.097   1.659   5.502 -0.4975 -0.1082  0.6945
 8611SOL    HW137292   4.127   1.723   5.567  1.1896  0.1177 -0.2988
 8611SOL    HW237293   4.058   1.708   5.429  0.3351  1.4489  1.2857
 8612SOL     OW37294   2.464   2.391   9.880  0.5700  1.1196 -0.0468
 8612SOL    HW137295   2.524   2.393   9.954 -1.6499  0.6967  1.7814
 8612SOL    HW237296   2.488   2.475   9.840  0.2253 -0.4482 -3.6223
 8613SOL     OW37297   1.833   0.484   2.589 -0.2651  0.1673 -0.0204
 8613SOL    HW137298   1.923   0.500   2.560 -0.6927 -0.4727 -1.7379
 8613SOL    HW237299   1.826   0.389   2.579  1.7821 -0.1792  1.7257
 8614SOL     OW37300   2.118   1.827  12.220  0.4070 -0.0460 -0.3279
 8614SOL    HW137301   2.034   1.866  12.196  0.7808  1.3591  0.6208
 8614SOL    HW237302   2.166   1.901  12.257  1.3543 -1.7271  1.7640
 8615SOL     OW37303   3.019   2.290   6.646  0.6741 -0.6812  0.3556
 8615SOL    HW137304   3.108   2.302   6.615 -0.6548 -0.2236 -3.2868
 8615SOL    HW237305   3.035   2.310   6.738 -0.0842 -0.3910  0.4255
 8616SOL     OW37306   1.095   3.739   8.245 -0.5174  0.0942  0.0756
 8616SOL    HW137307   1.146   3.771   8.320  1.6406  1.3972 -1.9677
 8616SOL    HW237308   1.140   3.785   8.174 -2.0107  0.1064 -0.8521
 8617SOL     OW37309   0.334   1.107  15.784  0.6810 -0.5171  0.0443
 8617SOL    HW137310   0.244   1.131  15.762  0.4708  0.4778  2.0044
 8617SOL    HW237311   0.330   1.094  15.879 -3.7731 -0.9470 -0.1876
 8618SOL     OW37312   2.655   2.233   8.628 -0.2530 -0.1013  0.1166
 8618SOL    HW137313   2.712   2.216   8.553 -1.7430 -1.2764 -0.7487
 8618SOL    HW237314   2.715   2.200   8.694 -3.9595 -0.6914  3.1832
 8619SOL     OW37315   3.737   1.397  16.142 -0.2495 -0.2623  0.1468
 8619SOL    HW137316   3.656   1.348  16.158  0.2943 -1.0163  0.5862
 8619SOL    HW237317   3.711   1.488  16.128 -1.8623 -0.8072 -0.3607
 8620SOL     OW37318   2.353   2.921   3.763  0.0729  0.5488  0.3219
 8620SOL    HW137319   2.286   2.989   3.773  1.2853  1.7940 -0.0238
 8620SOL    HW237320   2.432   2.970   3.784 -0.5288  0.9281  1.6684
 8621SOL     OW37321   1.993   0.578   3.245 -0.2578 -0.1966 -0.2164
 8621SOL    HW137322   2.068   0.632   3.220  0.3059 -0.0409  1.8424
 8621SOL    HW237323   2.044   0.515   3.296 -0.3192  0.2095  0.3511
 8622SOL     OW37324   2.805   3.516  11.258  0.0469 -0.0392  0.2700
 8622SOL    HW137325   2.840   3.443  11.207 -0.9869  0.6316 -1.3834
 8622SOL    HW237326   2.886   3.534  11.306  0.4240 -0.1398 -0.3375
 8623SOL     OW37327   3.875   1.452   8.906  0.1923 -0.2039  0.1861
 8623SOL    HW137328   3.918   1.528   8.946  1.2712 -0.5356 -0.3582
 8623SOL    HW237329   3.846   1.407   8.985 -1.6564  2.4126  1.0289
 8624SOL     OW37330   1.191   2.632  16.180  0.1888  0.2268  0.0949
 8624SOL    HW137331   1.153   2.555  16.221  0.3692  0.4937  0.7599
 8624SOL    HW237332   1.130   2.644  16.107  1.3730 -0.4445 -0.9947
 8625SOL     OW37333   4.235   2.090   5.978 -0.0377 -0.0210 -0.3512
 8625SOL    HW137334   4.251   2.016   5.919  2.0790  0.2120 -0.0555
 8625SOL    HW237335   4.219   2.043   6.060  2.1287  0.6289  0.4349
 8626SOL     OW37336   1.822   0.001   0.926 -0.2628 -0.0267 -0.3181
 8626SOL    HW137337   1.789   4.650   0.882  0.7809 -0.1665 -0.8327
 8626SOL    HW237338   1.917   4.723   0.915 -0.0730  0.2627  1.2026
 8627SOL     OW37339   1.176   3.448   2.113 -0.4561 -0.0036 -0.3553
 8627SOL    HW137340   1.167   3.381   2.045 -0.7628  1.2195 -1.5279
 8627SOL    HW237341   1.202   3.406   2.195 -0.9062 -0.5647 -0.4921
 8628SOL     OW37342   2.252   2.735  17.068 -0.3389 -0.6937 -0.3324
 8628SOL    HW137343   2.313   2.670  17.034 -0.4467 -0.3923 -1.0938
 8628SOL    HW237344   2.166   2.692  17.073 -1.4534  1.6055  0.1827
 8629SOL     OW37345   1.948   0.154  13.450  0.2463 -0.5765 -0.5299
 8629SOL    HW137346   2.003   0.082  13.480  1.0074 -0.2835 -1.2236
 8629SOL    HW237347   1.872   0.134  13.506  0.1777 -1.3671 -0.9179
 8630SOL     OW37348   2.430   1.654  11.471  0.1034 -0.0596  0.1998
 8630SOL    HW137349   2.452   1.642  11.378  0.7032 -0.5369  0.4050
 8630SOL    HW237350   2.334   1.651  11.474  0.0228  0.1013 -2.3474
 8631SOL     OW37351   1.196   3.105   3.742  0.1427  0.2617 -0.5319
 8631SOL    HW137352   1.156   3.022   3.767  0.6643  0.2570  0.2889
 8631SOL    HW237353   1.121   3.151   3.705  0.0640 -0.2621 -1.0250
 8632SOL     OW37354   1.668   3.591   2.496  0.3677  0.2167 -0.2735
 8632SOL    HW137355   1.619   3.541   2.561  0.7918  0.9914  0.6435
 8632SOL    HW237356   1.759   3.590   2.526 -0.3215 -0.1109  1.8184
 8633SOL     OW37357   0.830   3.831   8.999 -0.1779 -0.1645  1.2817
 8633SOL    HW137358   0.761   3.851   9.062  0.9345  2.4710  1.6972
 8633SOL    HW237359   0.780   3.764   8.954  0.2249  2.1911 -2.6619
 8634SOL     OW37360   2.079   2.766   5.257 -0.3554 -0.5271  0.2239
 8634SOL    HW137361   2.123   2.788   5.339  0.3467  0.1426 -0.3293
 8634SOL    HW237362   2.066   2.674   5.280 -1.5398 -0.5415 -0.4957
 8635SOL     OW37363   0.861   4.274  15.383  0.8075 -0.2130 -0.0677
 8635SOL    HW137364   0.880   4.210  15.452  1.3844 -1.7216 -1.6202
 8635SOL    HW237365   0.864   4.206  15.316 -1.0687 -0.4650  0.0858
 8636SOL     OW37366   1.424   2.703   7.169  0.2043 -0.3978  0.1868
 8636SOL    HW137367   1.518   2.685   7.166 -0.2049 -2.7884  1.5782
 8636SOL    HW237368   1.412   2.794   7.141  0.0831 -0.5616 -0.3015
 8637SOL     OW37369   2.754   2.314   0.147  0.3931 -0.3325 -0.0852
 8637SOL    HW137370   2.742   2.262   0.067  0.4947  0.3677 -0.5564
 8637SOL    HW237371   2.786   2.399   0.118  0.3439 -0.2544  0.0916
 8638SOL     OW37372   2.171   3.790   7.949  0.5191  0.2230 -0.0373
 8638SOL    HW137373   2.235   3.851   7.912  0.2567  0.0071 -0.8403
 8638SOL    HW237374   2.127   3.841   8.017  1.3320  0.4521  0.3159
 8639SOL     OW37375   2.272   0.120   3.233  0.0960 -0.3735  0.1438
 8639SOL    HW137376   2.348   0.075   3.195  0.5690  0.5138  0.0379
 8639SOL    HW237377   2.322   0.144   3.311 -0.3846 -0.6918  0.5479
 8640SOL     OW37378   2.951   0.431   5.135  0.3552  0.3072 -0.0683
 8640SOL    HW137379   3.032   0.464   5.096  0.1189  1.9968  0.8754
 8640SOL    HW237380   2.944   0.339   5.109 -2.5689  0.2292  0.9170
 8641SOL     OW37381   2.016   1.977   2.763 -0.0414 -0.4085 -0.1388
 8641SOL    HW137382   1.972   2.053   2.802  2.1215 -0.4906  2.4427
 8641SOL    HW237383   1.976   1.966   2.677  0.6792 -2.8503 -0.1419
 8642SOL     OW37384   4.663   1.044  10.537 -0.3026  0.4203 -0.1793
 8642SOL    HW137385   4.716   0.966  10.549  0.5320  1.2314  1.3513
 8642SOL    HW237386   4.676   1.058  10.443 -2.2358 -1.7681 -0.7756
 8643SOL     OW37387   1.592   3.982   3.383  0.6136 -0.2282 -1.3857
 8643SOL    HW137388   1.669   4.003   3.435  0.8925 -2.8119 -0.7719
 8643SOL    HW237389   1.634   3.940   3.308 -0.4750  0.7717 -2.5604
 8644SOL     OW37390   2.733   3.173   9.931  0.0702  0.7773  0.0859
 8644SOL    HW137391   2.687   3.170  10.015  0.0273  2.5566  0.1227
 8644SOL    HW237392   2.811   3.226   9.948  0.0660  0.2715  1.6994
 8645SOL     OW37393   3.806   3.118  17.224 -0.1009 -0.2338  0.1503
 8645SOL    HW137394   3.844   3.205  17.222 -0.9692  0.1913  1.7851
 8645SOL    HW237395   3.732   3.130  17.284  0.1424  0.7697  0.2479
 8646SOL     OW37396   1.093   0.205  14.063 -0.0513  0.0305  0.2534
 8646SOL    HW137397   1.159   0.265  14.097  0.2929  1.5030 -2.9896
 8646SOL    HW237398   1.013   0.238  14.104 -0.0401  1.5756 -0.9591
 8647SOL     OW37399   1.648   1.942  13.212  0.9279  0.2150 -0.3316
 8647SOL    HW137400   1.714   1.948  13.280 -0.5875 -0.4607  1.2113
 8647SOL    HW237401   1.593   2.019  13.225  0.2620 -0.4675  0.9261
 8648SOL     OW37402   0.275   0.504  11.307  0.0204 -0.1444 -0.0078
 8648SOL    HW137403   0.367   0.514  11.281  0.2566  0.6275  1.1531
 8648SOL    HW237404   0.261   0.409  11.307  0.8490 -0.2653  3.5075
 8649SOL     OW37405   1.480   0.007  17.223 -0.0111  0.6032 -0.1398
 8649SOL    HW137406   1.449   4.645  17.238 -1.4102  0.9146 -1.1978
 8649SOL    HW237407   1.548   0.013  17.290 -0.7711  0.7226  0.6238
 8650SOL     OW37408   1.691   2.523   7.780  0.6384  0.2532  0.2446
 8650SOL    HW137409   1.652   2.435   7.783  0.9961  0.0767 -0.3227
 8650SOL    HW237410   1.766   2.522   7.839 -0.0378 -0.1876  1.1019
 8651SOL     OW37411   4.072   1.583   8.287  0.6008 -0.3462 -0.5457
 8651SOL    HW137412   4.070   1.574   8.382  2.1572 -3.7455 -0.8244
 8651SOL    HW237413   4.005   1.519   8.262 -1.8664  2.4947 -1.1905
 8652SOL     OW37414   1.009   1.827   6.698 -0.2731 -0.2225  0.0598
 8652SOL    HW137415   1.060   1.848   6.777 -0.3020  1.3478 -0.3408
 8652SOL    HW237416   1.073   1.824   6.628 -0.2473  1.7600 -0.0186
 8653SOL     OW37417   3.445   1.268  14.319 -0.2349  0.9957 -0.2842
 8653SOL    HW137418   3.381   1.282  14.388 -1.3340 -0.2765 -1.0262
 8653SOL    HW237419   3.497   1.348  14.312  0.4214  0.6896  1.0772
 8654SOL     OW37420   1.737   2.086   7.008 -0.0848  0.0707  0.3845
 8654SOL    HW137421   1.731   2.082   6.913  1.2974 -0.0540  0.2906
 8654SOL    HW237422   1.797   2.160   7.020 -0.8163  0.7052  0.0380
 8655SOL     OW37423   1.263   3.506   8.118 -0.1553 -0.5988  0.0725
 8655SOL    HW137424   1.357   3.522   8.120 -0.4656  1.1949  0.5019
 8655SOL    HW237425   1.236   3.598   8.122  1.9677 -0.0173  0.7988
 8656SOL     OW37426   1.791   1.818   5.795 -0.1776 -0.4856  0.6738
 8656SOL    HW137427   1.720   1.760   5.768  1.4768 -1.1339 -2.2590
 8656SOL    HW237428   1.812   1.854   5.709 -1.0567  2.0761  1.5249
 8657SOL     OW37429   2.608   1.298   2.193  0.3927 -0.6154  0.2288
 8657SOL    HW137430   2.666   1.366   2.227 -0.3678  0.4610 -0.6201
 8657SOL    HW237431   2.572   1.252   2.269 -1.7889 -0.6095 -0.8059
 8658SOL     OW37432   2.421   3.646   7.776  0.0567 -0.0092 -0.5253
 8658SOL    HW137433   2.509   3.641   7.740  0.1083  0.3434 -0.4529
 8658SOL    HW237434   2.411   3.741   7.775 -0.3757 -0.0675 -1.3415
 8659SOL     OW37435   1.037   3.326  17.315  0.1683  0.3378 -0.0391
 8659SOL    HW137436   1.106   3.343  17.251  0.7476  1.6988  0.9276
 8659SOL    HW237437   1.059   3.394  17.379  2.3467 -0.5598  0.1717
 8660SOL     OW37438   3.430   4.633   1.635  0.2782  0.3151  0.6844
 8660SOL    HW137439   3.414   4.544   1.604  0.9113  0.8005 -1.0775
 8660SOL    HW237440   3.341   4.669   1.640 -0.1132 -0.2552 -2.2761
 8661SOL     OW37441   0.827   0.828   2.085 -0.2030 -0.0421  0.2628
 8661SOL    HW137442   0.906   0.824   2.032 -0.0852  0.9216  0.3582
 8661SOL    HW237443   0.773   0.879   2.023  1.2980  0.2256 -0.8197
 8662SOL     OW37444   4.725   3.117  13.408 -0.0796  0.3237 -0.4605
 8662SOL    HW137445   0.049   3.091  13.331  0.1490 -1.4170  0.2640
 8662SOL    HW237446   0.070   3.095  13.469 -2.4661 -0.0587  2.1937
 8663SOL     OW37447   4.231   2.737   7.794  0.1467  0.4618 -0.0137
 8663SOL    HW137448   4.158   2.734   7.856  2.8843 -3.4267  3.0487
 8663SOL    HW237449   4.274   2.817   7.822  0.0853 -0.0904  1.6415
 8664SOL     OW37450   3.649   3.647  15.553 -0.3544 -0.6793  0.4033
 8664SOL    HW137451   3.662   3.720  15.614 -0.0565 -0.5336  0.1699
 8664SOL    HW237452   3.706   3.674  15.480  1.8155 -3.0047  1.2360
 8665SOL     OW37453   3.917   1.026  13.520  0.2805 -0.5893  0.0092
 8665SOL    HW137454   3.826   1.003  13.501 -0.3379  2.4953 -0.6723
 8665SOL    HW237455   3.927   0.995  13.610  1.0842 -1.5183 -0.3996
 8666SOL     OW37456   3.194   2.669   4.046  0.0105  0.3817  0.2405
 8666SOL    HW137457   3.134   2.604   4.082  0.3354  0.4052  0.8076
 8666SOL    HW237458   3.145   2.750   4.064 -0.1540  0.2732  0.2828
 8667SOL     OW37459   2.049   3.212   3.554 -0.0228  0.0932 -0.2672
 8667SOL    HW137460   2.021   3.121   3.555 -0.6013  0.2680 -1.1415
 8667SOL    HW237461   2.092   3.223   3.639  1.0712 -2.6072 -0.4809
 8668SOL     OW37462   4.375   3.152   6.056 -0.1554  0.5525 -0.0199
 8668SOL    HW137463   4.289   3.187   6.033  0.0848  1.4586  0.4432
 8668SOL    HW237464   4.420   3.231   6.025 -1.3947  1.2322 -0.1000
 8669SOL     OW37465   0.810   2.148  14.623 -0.7694  0.2314  0.1316
 8669SOL    HW137466   0.805   2.056  14.597  0.8395  0.7601 -2.0601
 8669SOL    HW237467   0.805   2.144  14.718 -0.6978 -1.5800  0.0537
 8670SOL     OW37468   4.699   2.775   9.963  0.2448  0.1734 -0.0207
 8670SOL    HW137469   0.051   2.790  10.015  0.0198  0.7954  0.1415
 8670SOL    HW237470   4.708   2.817   9.877 -0.9684  2.5976  1.0204
 8671SOL     OW37471   1.300   3.795   2.366  0.1025 -0.2894 -0.6258
 8671SOL    HW137472   1.357   3.870   2.351  0.3033 -0.2859  0.1980
 8671SOL    HW237473   1.287   3.792   2.460  0.0585  3.5889 -0.5061
 8672SOL     OW37474   1.073   4.631   5.908 -0.2108  0.7292 -0.3045
 8672SOL    HW137475   1.077   4.726   5.898 -0.7304  0.7229 -0.5205
 8672SOL    HW237476   1.074   4.608   6.001 -2.6751  3.4134  0.3877
 8673SOL     OW37477   1.825   1.593   7.212  0.2985 -0.3704  0.0025
 8673SOL    HW137478   1.860   1.609   7.125  0.1174  1.2673  0.2247
 8673SOL    HW237479   1.755   1.658   7.218  0.6641 -0.2051  2.9008
 8674SOL     OW37480   1.640   0.793   1.708 -0.3610  0.0787  0.5055
 8674SOL    HW137481   1.661   0.738   1.783  0.7196 -0.0653  0.0966
 8674SOL    HW237482   1.544   0.789   1.710 -0.3661  0.2139  0.5664
 8675SOL     OW37483   3.222   3.954   1.315 -0.0257 -0.2574  0.2402
 8675SOL    HW137484   3.169   3.959   1.236  1.0605 -1.5295 -0.5637
 8675SOL    HW237485   3.243   3.860   1.320 -1.3893 -0.4336  2.6711
 8676SOL     OW37486   3.267   0.765   4.330 -0.0297 -0.1623  0.1861
 8676SOL    HW137487   3.232   0.767   4.241  0.1596 -0.5883  0.1022
 8676SOL    HW237488   3.235   0.685   4.372 -1.0448  1.0146  1.6251
 8677SOL     OW37489   4.245   2.838   0.417  1.1391 -0.3794  0.1293
 8677SOL    HW137490   4.300   2.844   0.339  1.4551  0.0240  0.3832
 8677SOL    HW237491   4.312   2.847   0.484 -1.6018  2.7929  2.4571
 8678SOL     OW37492   0.384   1.967   4.316  0.0722  0.1607  0.4676
 8678SOL    HW137493   0.387   1.930   4.227  0.6174 -1.0422  0.9908
 8678SOL    HW237494   0.297   2.007   4.310  1.0799  2.0139 -1.8271
 8679SOL     OW37495   3.421   2.104  13.686 -0.0213 -0.3310  0.0233
 8679SOL    HW137496   3.364   2.141  13.753 -0.7555 -1.8086  0.2309
 8679SOL    HW237497   3.372   2.124  13.606 -0.6308  0.8622  0.7036
 8680SOL     OW37498   3.832   0.639  11.015 -0.0278 -0.1610  0.1011
 8680SOL    HW137499   3.901   0.706  11.017  1.3298 -1.5497 -1.0278
 8680SOL    HW237500   3.780   0.673  10.943 -0.7274  1.0944  1.1981
 8681SOL     OW37501   4.620   3.846  11.118 -0.0723  0.0265 -0.1088
 8681SOL    HW137502   4.631   3.834  11.212  0.5436 -2.1812 -0.4799
 8681SOL    HW237503   4.527   3.862  11.103 -0.5813 -1.3063  1.6942
 8682SOL     OW37504   0.046   0.119   8.225  0.0551  0.2720  0.3104
 8682SOL    HW137505   4.710   0.133   8.153  1.9301  1.3077 -1.1236
 8682SOL    HW237506   4.714   0.132   8.299  2.9571  0.2476  2.5912
 8683SOL     OW37507   2.066   2.510   5.363 -0.0952  0.6705  0.4219
 8683SOL    HW137508   2.104   2.424   5.347  1.1255  0.8999  2.0264
 8683SOL    HW237509   2.102   2.534   5.448  2.0775 -1.0208 -0.0409
 8684SOL     OW37510   0.536   2.130   6.092  0.2785 -0.0388  0.0757
 8684SOL    HW137511   0.500   2.130   6.003 -1.5748  2.2561  0.8186
 8684SOL    HW237512   0.579   2.215   6.082 -1.1505  0.6537 -0.1265
 8685SOL     OW37513   1.599   3.430   3.576 -0.3273 -0.5439  0.7680
 8685SOL    HW137514   1.589   3.335   3.578 -2.7003 -0.2852  1.6161
 8685SOL    HW237515   1.511   3.447   3.609 -0.3756 -0.4936  0.6154
 8686SOL     OW37516   4.656   1.237  14.180  0.2954  0.1566 -0.5249
 8686SOL    HW137517   4.706   1.297  14.125  0.1176  0.7567 -0.0436
 8686SOL    HW237518   4.668   1.150  14.143  0.3083 -0.4700  0.9388
 8687SOL     OW37519   1.446   3.918  13.980  0.4101 -0.4516 -0.3096
 8687SOL    HW137520   1.391   3.966  13.919 -1.5345  0.8310  2.4626
 8687SOL    HW237521   1.425   3.966  14.060 -1.0190 -1.4255 -0.1047
 8688SOL     OW37522   0.346   2.293   0.289 -0.0569  0.3324 -0.0704
 8688SOL    HW137523   0.386   2.251   0.212  0.9734 -3.1355  2.3338
 8688SOL    HW237524   0.311   2.376   0.257  2.0426  1.0388 -0.5518
 8689SOL     OW37525   4.468   3.907   5.146 -0.3354  0.1736  1.0286
 8689SOL    HW137526   4.484   3.933   5.055 -2.1549  1.9922  1.2223
 8689SOL    HW237527   4.507   3.984   5.187  1.1635 -1.0638  1.9031
 8690SOL     OW37528   2.685   3.623  12.356  0.3293 -0.1296 -0.1901
 8690SOL    HW137529   2.676   3.716  12.334  0.0115  0.0612  0.7602
 8690SOL    HW237530   2.613   3.578  12.313 -0.8521  1.4492  0.1251
 8691SOL     OW37531   0.663   3.992  16.668  0.2247  0.3274 -0.2830
 8691SOL    HW137532   0.649   4.077  16.627  1.8491  0.6274 -0.2345
 8691SOL    HW237533   0.759   3.988  16.673  0.1512 -2.9269 -1.4777
 8692SOL     OW37534   3.355   0.083   6.031 -0.0541 -0.5784 -0.0476
 8692SOL    HW137535   3.340   0.063   6.123  3.5960 -2.1317  0.1835
 8692SOL    HW237536   3.403   0.166   6.033  0.9067 -1.0615 -2.3762
 8693SOL     OW37537   4.556   4.552   2.334 -0.6020  0.2058  0.6038
 8693SOL    HW137538   4.526   4.507   2.255 -0.1791 -0.8964  1.0622
 8693SOL    HW237539   4.559   4.471   2.385 -0.6648 -1.5668 -2.2235
 8694SOL     OW37540   4.042   3.210  15.622 -0.2110 -0.2780  0.1496
 8694SOL    HW137541   4.018   3.260  15.700 -1.7841 -0.7758 -0.0057
 8694SOL    HW237542   4.119   3.168  15.660 -0.6786  0.0695  1.4934
 8695SOL     OW37543   2.634   1.556   6.949 -0.0492  0.4152  0.0602
 8695SOL    HW137544   2.623   1.541   7.042  2.9568 -1.4582  0.1276
 8695SOL    HW237545   2.607   1.468   6.922  0.7482  0.6581 -1.5554
 8696SOL     OW37546   2.113   3.676   3.564  0.3478  0.8936  0.7428
 8696SOL    HW137547   2.024   3.651   3.589  0.2050  1.1276  0.4765
 8696SOL    HW237548   2.130   3.608   3.498  3.2314  0.2466  2.1515
 8697SOL     OW37549   0.617   4.439   2.478 -0.1028 -0.1534  0.0179
 8697SOL    HW137550   0.695   4.476   2.518 -0.0568  1.7512 -1.8541
 8697SOL    HW237551   0.629   4.487   2.396  2.6283  0.0362  0.5459
 8698SOL     OW37552   3.472   2.763   5.669  0.5887  0.2488  0.2211
 8698SOL    HW137553   3.390   2.765   5.718  0.2700 -1.4877 -0.2184
 8698SOL    HW237554   3.437   2.764   5.579  1.9077 -0.0373 -0.2960
 8699SOL     OW37555   3.001   2.093   6.198 -0.2482 -0.3451 -0.0196
 8699SOL    HW137556   2.925   2.141   6.166  1.3097  1.8331 -0.4342
 8699SOL    HW237557   2.956   2.015   6.230  2.2605 -1.7199  0.2260
 8700SOL     OW37558   4.057   0.865   7.340  0.6209 -0.8540  0.2242
 8700SOL    HW137559   4.140   0.884   7.385 -0.7222  0.5371  2.1160
 8700SOL    HW237560   4.091   0.812   7.268 -1.7442 -0.5737 -1.0921
 8701SOL     OW37561   3.889   3.056   2.405  0.2923 -0.2456 -0.5121
 8701SOL    HW137562   3.854   3.129   2.455 -0.5505  0.5496 -2.2814
 8701SOL    HW237563   3.981   3.062   2.434  0.3195 -0.4247 -0.5647
 8702SOL     OW37564   1.029   3.947  15.495  0.3247  0.5175 -0.1638
 8702SOL    HW137565   1.122   3.967  15.482  1.1226 -0.8767  3.4919
 8702SOL    HW237566   0.999   3.898  15.419  0.5453 -1.2126  0.8699
 8703SOL     OW37567   2.738   4.543   9.287 -0.1533 -0.1724 -0.3424
 8703SOL    HW137568   2.644   4.534   9.305 -0.1340  1.9688  0.7935
 8703SOL    HW237569   2.779   4.468   9.329  0.0481 -1.1011 -2.2211
 8704SOL     OW37570   3.314   1.914   6.355  0.3376 -0.0988  0.2770
 8704SOL    HW137571   3.321   1.821   6.332 -0.0333 -0.0887  0.1350
 8704SOL    HW237572   3.231   1.914   6.402  0.5935 -1.0650  0.7324
 8705SOL     OW37573   3.991   3.342   0.075  0.0481 -0.1216  0.1519
 8705SOL    HW137574   4.018   3.251   0.062 -0.2072 -0.2890  0.7694
 8705SOL    HW237575   4.060   3.388   0.026  0.1064  0.1458  0.4861
 8706SOL     OW37576   3.896   2.874   3.901 -0.4723 -0.3169  0.2369
 8706SOL    HW137577   3.823   2.919   3.856  0.4690  0.6634 -0.3067
 8706SOL    HW237578   3.858   2.790   3.929  0.2030 -0.2354  1.3657
 8707SOL     OW37579   1.749   2.853   3.043  0.3659  0.3229  0.1315
 8707SOL    HW137580   1.744   2.797   3.120 -0.7793 -0.1440 -0.2717
 8707SOL    HW237581   1.659   2.885   3.048  0.7710  1.5612 -0.5248
 8708SOL     OW37582   4.193   2.942   5.664 -0.2550  0.6375  0.1003
 8708SOL    HW137583   4.193   2.864   5.720  3.0963  0.2389 -0.4226
 8708SOL    HW237584   4.099   2.955   5.652 -0.0910  0.6953 -1.1494
 8709SOL     OW37585   0.796   2.375   3.656  0.8086 -0.3291  0.2038
 8709SOL    HW137586   0.750   2.408   3.578  1.7563  1.7656  0.5292
 8709SOL    HW237587   0.821   2.285   3.635  2.0451  0.3271 -1.1697
 8710SOL     OW37588   2.821   3.389   7.614  0.4784  0.8508 -0.3174
 8710SOL    HW137589   2.866   3.327   7.556 -2.5181 -0.5211 -1.2289
 8710SOL    HW237590   2.878   3.407   7.688 -0.0853  0.6073  0.1725
 8711SOL     OW37591   4.126   1.543   4.468  0.2963 -0.1814 -0.1821
 8711SOL    HW137592   4.042   1.576   4.435  0.7917 -0.7640 -1.9862
 8711SOL    HW237593   4.105   1.450   4.469 -1.0298  0.1104 -1.1625
 8712SOL     OW37594   1.951   1.391  17.512 -0.6842  0.0090 -0.3230
 8712SOL    HW137595   1.971   1.470  17.463  0.1025 -1.0049 -1.6285
 8712SOL    HW237596   2.015   1.326  17.484  3.1100  3.0669  1.3679
 8713SOL     OW37597   1.928   2.817  15.575 -0.2173 -0.5395 -0.3783
 8713SOL    HW137598   1.904   2.732  15.538 -3.3300  0.2648 -0.1525
 8713SOL    HW237599   1.854   2.837  15.632 -0.1219  0.5603 -0.6382
 8714SOL     OW37600   1.214   4.570   7.532 -0.2497 -0.2683  0.5090
 8714SOL    HW137601   1.306   4.574   7.555 -0.2324  0.6415  0.2758
 8714SOL    HW237602   1.178   4.628   7.599  0.6332  1.0909 -0.1938
 8715SOL     OW37603   1.647   0.134  11.114  0.4135  0.2361 -0.6927
 8715SOL    HW137604   1.729   0.169  11.151 -0.0613  1.4960 -0.8115
 8715SOL    HW237605   1.631   0.068  11.180 -0.3493 -0.4460 -1.5650
 8716SOL     OW37606   1.467   2.415   4.115  0.1140 -0.5027  0.2423
 8716SOL    HW137607   1.537   2.355   4.140  0.2488 -1.1430 -1.6609
 8716SOL    HW237608   1.463   2.483   4.183 -0.2944 -0.0470 -0.2254
 8717SOL     OW37609   3.112   2.518   2.386  0.2597 -0.2400 -0.0046
 8717SOL    HW137610   3.068   2.595   2.349  1.4535 -0.6816 -2.3827
 8717SOL    HW237611   3.089   2.459   2.314 -2.0431  0.1133  0.4378
 8718SOL     OW37612   3.438   3.005   0.854 -0.8002 -0.7922 -0.7875
 8718SOL    HW137613   3.480   2.926   0.889  0.8266  0.2004 -0.4947
 8718SOL    HW237614   3.488   3.008   0.772 -0.5748  0.4610 -0.6061
 8719SOL     OW37615   0.162   3.079   7.328 -0.1731 -0.2192 -0.2989
 8719SOL    HW137616   0.163   3.175   7.322  1.1349 -0.2126 -0.0176
 8719SOL    HW237617   0.135   3.052   7.416 -2.1879  0.3748 -0.7313
 8720SOL     OW37618   1.384   1.885   1.308 -0.1381 -0.3326  0.0214
 8720SOL    HW137619   1.407   1.967   1.353  0.1290  0.3147 -1.2742
 8720SOL    HW237620   1.358   1.833   1.383 -0.2915  0.6678  0.6591
 8721SOL     OW37621   3.780   1.850   7.889  0.0540 -0.1465  0.5795
 8721SOL    HW137622   3.863   1.834   7.845 -1.0033 -0.7383 -1.2060
 8721SOL    HW237623   3.750   1.760   7.900  3.1939 -1.0387  1.6753
 8722SOL     OW37624   4.279   3.938   3.834 -0.1110 -0.5190  0.4869
 8722SOL    HW137625   4.192   3.928   3.872 -1.0834 -0.3957 -1.7514
 8722SOL    HW237626   4.333   3.946   3.913  0.5298 -1.9357  0.1900
 8723SOL     OW37627   3.880   2.800  13.648  0.0800 -0.7992  0.3616
 8723SOL    HW137628   3.869   2.829  13.739  0.1745 -1.5043  0.5988
 8723SOL    HW237629   3.896   2.882  13.601  0.9950 -1.3803 -0.3380
 8724SOL     OW37630   1.557   3.934   7.325 -0.6418  0.4608 -0.5493
 8724SOL    HW137631   1.565   3.840   7.310 -0.8915  0.0868  1.7169
 8724SOL    HW237632   1.467   3.949   7.296 -0.9540  0.4939  0.4558
 8725SOL     OW37633   1.786   4.663   7.522 -0.3447  0.3322 -0.0430
 8725SOL    HW137634   1.818   4.580   7.558 -0.0145  0.7710  0.6875
 8725SOL    HW237635   1.746   4.701   7.601 -2.3574  0.2676 -1.0247
 8726SOL     OW37636   2.159   3.664  14.568 -0.1414 -0.1731 -0.0084
 8726SOL    HW137637   2.200   3.601  14.508 -1.3865  0.0071 -1.0575
 8726SOL    HW237638   2.166   3.611  14.647 -0.2660  0.1002  0.1842
 8727SOL     OW37639   1.664   1.082   6.515  0.0275  0.1183  0.3059
 8727SOL    HW137640   1.588   1.113   6.467 -1.9842  0.2440  3.5480
 8727SOL    HW237641   1.654   1.137   6.593 -0.8622  1.5557 -0.8462
 8728SOL     OW37642   0.700   1.220   4.880 -0.1333  0.1039  0.2198
 8728SOL    HW137643   0.771   1.156   4.880 -0.7325 -0.5555 -0.5983
 8728SOL    HW237644   0.623   1.163   4.884 -1.1550  1.4218 -0.5469
 8729SOL     OW37645   1.371   0.747  16.940 -0.6321 -0.3947  0.3162
 8729SOL    HW137646   1.391   0.785  17.025 -0.1687  1.0186 -0.4181
 8729SOL    HW237647   1.351   0.821  16.883 -0.7420 -0.8051 -0.1883
 8730SOL     OW37648   0.068   4.560   4.006  0.8570 -0.4954 -0.4345
 8730SOL    HW137649   0.126   4.579   3.932 -0.6057  0.2943 -1.3824
 8730SOL    HW237650   0.055   4.467   3.988  3.2511 -0.7608 -0.8151
 8731SOL     OW37651   3.435   4.036  15.652 -0.2338  0.2648  0.4948
 8731SOL    HW137652   3.452   3.999  15.565 -2.2559  1.1018 -0.2324
 8731SOL    HW237653   3.426   4.126  15.622 -0.5671 -0.3262 -1.1793
 8732SOL     OW37654   1.612   2.376   6.567  0.2681  0.2277  0.0821
 8732SOL    HW137655   1.638   2.315   6.498  0.5803  2.2447 -1.5836
 8732SOL    HW237656   1.580   2.318   6.637  0.6754 -0.4673 -0.3090
 8733SOL     OW37657   2.759   2.822  15.556 -0.2093 -0.2121 -0.1052
 8733SOL    HW137658   2.720   2.749  15.604  0.8562 -0.5933  0.1927
 8733SOL    HW237659   2.690   2.834  15.490  1.1399 -0.5828 -1.6038
 8734SOL     OW37660   2.421   0.893   1.659  0.0509 -0.1611  0.4572
 8734SOL    HW137661   2.421   0.844   1.577  1.4046 -1.0447  0.9882
 8734SOL    HW237662   2.372   0.974   1.641  0.2425  0.2921  1.9581
 8735SOL     OW37663   0.250   1.770   6.429  0.3621  0.2442  0.4386
 8735SOL    HW137664   0.308   1.700   6.458 -0.7517 -0.6411  0.5464
 8735SOL    HW237665   0.286   1.779   6.340 -0.2132  0.0563  0.1813
 8736SOL     OW37666   0.579   3.724   3.707 -0.9309  0.3335  0.0849
 8736SOL    HW137667   0.645   3.793   3.699 -0.4550  0.0577  1.6402
 8736SOL    HW237668   0.499   3.774   3.688 -1.8828 -0.2021  2.6843
 8737SOL     OW37669   2.175   0.817   3.256 -0.5800 -0.1229 -0.4050
 8737SOL    HW137670   2.129   0.899   3.274  1.4626  0.9749 -0.1633
 8737SOL    HW237671   2.197   0.836   3.165 -0.6146  1.1600 -0.1518
 8738SOL     OW37672   2.686   0.811   2.479 -0.1129  0.1581  0.1952
 8738SOL    HW137673   2.602   0.780   2.446 -0.5595  0.8852  0.6582
 8738SOL    HW237674   2.662   0.885   2.535  3.3768  0.6794  1.0275
 8739SOL     OW37675   0.316   1.456   6.601 -1.0651 -0.4871  0.1431
 8739SOL    HW137676   0.352   1.462   6.690 -0.2427  2.5623 -0.3779
 8739SOL    HW237677   0.232   1.415   6.619 -1.5999  1.9506  3.1975
 8740SOL     OW37678   1.122   0.530   7.412 -0.5923 -0.4644  0.2443
 8740SOL    HW137679   1.169   0.489   7.484  0.8993  0.7591 -0.0308
 8740SOL    HW237680   1.179   0.512   7.337 -1.0698 -3.7227  0.6630
 8741SOL     OW37681   3.176   4.454   2.317 -0.4212  0.1329 -0.1100
 8741SOL    HW137682   3.086   4.475   2.295 -0.0544 -0.3729 -2.0759
 8741SOL    HW237683   3.179   4.358   2.313 -0.9898  0.1757 -1.3828
 8742SOL     OW37684   4.604   2.479   7.671 -0.5760  0.3849 -0.5426
 8742SOL    HW137685   4.699   2.486   7.662 -0.2101 -1.6347  1.8517
 8742SOL    HW237686   4.593   2.483   7.766  1.7186  1.1153 -0.3078
 8743SOL     OW37687   0.298   0.541   1.319 -0.0078  0.3916  0.1348
 8743SOL    HW137688   0.316   0.599   1.394 -0.4647 -0.8691  1.2180
 8743SOL    HW237689   0.210   0.515   1.345 -0.1297  0.7456  0.0742
 8744SOL     OW37690   3.318   4.539  15.749  0.0325  0.2866 -0.4556
 8744SOL    HW137691   3.362   4.494  15.822 -2.0260 -1.6361 -0.4153
 8744SOL    HW237692   3.229   4.533  15.784  0.5804 -1.2830  0.6937
 8745SOL     OW37693   4.088   3.906   6.128 -0.3391  0.4219  0.2810
 8745SOL    HW137694   4.045   3.955   6.198 -0.4466 -0.1914  0.6421
 8745SOL    HW237695   4.170   3.954   6.113 -0.0941  0.1708  0.8030
 8746SOL     OW37696   4.099   1.203  13.475  1.0155  0.1964 -0.2710
 8746SOL    HW137697   4.165   1.146  13.436  0.5255 -1.8025  1.8380
 8746SOL    HW237698   4.030   1.138  13.490  1.1437  0.1513  0.1310
 8747SOL     OW37699   1.595   3.041   9.168 -0.0523 -0.1743  0.5675
 8747SOL    HW137700   1.575   2.963   9.221  2.7118 -0.5282  1.0975
 8747SOL    HW237701   1.512   3.067   9.129  1.5417 -0.3386 -2.8985
 8748SOL     OW37702   1.159   4.366   8.277  0.4373  0.2164  0.4591
 8748SOL    HW137703   1.079   4.412   8.250  0.9725  0.5666 -0.5544
 8748SOL    HW237704   1.217   4.387   8.204  2.2725 -0.4062  1.7507
 8749SOL     OW37705   2.779   4.625   8.545 -0.4431  0.7027  0.4982
 8749SOL    HW137706   2.722   4.554   8.516 -0.0889  0.5570  0.1607
 8749SOL    HW237707   2.856   4.577   8.576  1.2388  3.5364  0.7257
 8750SOL     OW37708   3.937   4.112   6.481 -0.0980 -0.7899  0.0819
 8750SOL    HW137709   4.009   4.112   6.544 -1.4068  0.9545  1.5828
 8750SOL    HW237710   3.967   4.042   6.422 -1.3667 -1.3419  0.0800
 8751SOL     OW37711   2.493   3.056   0.242 -0.0611 -0.3178  0.4442
 8751SOL    HW137712   2.480   3.103   0.325  2.0770  1.5796 -0.3355
 8751SOL    HW237713   2.428   3.095   0.184  1.3033 -0.0961 -0.9244
 8752SOL     OW37714   2.391   0.373   2.689  0.0028 -0.4228  0.1105
 8752SOL    HW137715   2.338   0.427   2.747 -0.3046 -0.2501 -0.3290
 8752SOL    HW237716   2.371   0.410   2.603 -0.7855 -1.6516 -0.2368
 8753SOL     OW37717   2.315   0.722   1.474  0.2363  0.6497  0.2028
 8753SOL    HW137718   2.390   0.674   1.439 -1.8907 -0.9587 -2.1349
 8753SOL    HW237719   2.257   0.726   1.398  0.6622 -0.6781 -0.2036
 8754SOL     OW37720   3.833   2.585   0.670  0.1144  0.1547  0.0230
 8754SOL    HW137721   3.853   2.546   0.585 -1.3860 -0.7032  0.0585
 8754SOL    HW237722   3.815   2.507   0.722  0.8168 -0.4637 -0.6697
 8755SOL     OW37723   0.889   3.061   6.109  0.0068  0.0787  0.0254
 8755SOL    HW137724   0.849   3.001   6.173  0.3468  1.0297  1.1411
 8755SOL    HW237725   0.951   2.999   6.071  0.1522 -0.2703  0.8261
 8756SOL     OW37726   4.036   2.450   8.420  0.1435  0.6484 -0.0670
 8756SOL    HW137727   3.954   2.403   8.406  0.6002  0.1975 -1.2588
 8756SOL    HW237728   4.006   2.527   8.468 -1.4837  0.1402 -0.2486
 8757SOL     OW37729   0.667   1.803  17.500 -0.4121 -1.1067  0.6294
 8757SOL    HW137730   0.643   1.810  17.592 -1.9737 -2.3408  0.3171
 8757SOL    HW237731   0.576   1.798  17.471 -0.9665  2.6646  1.6929
 8758SOL     OW37732   2.912   2.005   3.484  0.3859 -0.1227  0.4296
 8758SOL    HW137733   3.000   2.041   3.489  0.3992  0.1269 -1.6544
 8758SOL    HW237734   2.915   1.951   3.562  2.6175  0.3963  0.6927
 8759SOL     OW37735   1.327   0.421   9.027  0.7051 -0.8124 -0.2245
 8759SOL    HW137736   1.369   0.384   8.949  1.4817 -0.2276 -0.0891
 8759SOL    HW237737   1.361   0.510   9.033  2.9413 -1.7419  1.1417
 8760SOL     OW37738   3.481   0.294  16.515  0.4952  0.8269 -0.1256
 8760SOL    HW137739   3.520   0.347  16.584 -1.2918  0.9783  0.7656
 8760SOL    HW237740   3.518   0.207  16.535  0.9150  1.3327  1.2767
 8761SOL     OW37741   0.447   0.652   7.166 -0.3601 -0.1695  0.1806
 8761SOL    HW137742   0.433   0.615   7.253  1.2724 -1.2152  0.0063
 8761SOL    HW237743   0.529   0.701   7.174 -0.5120  0.2387 -0.7387
 8762SOL     OW37744   2.286   1.961   0.379  0.2784 -0.6774 -0.4965
 8762SOL    HW137745   2.200   2.002   0.365  0.4881  0.2344  0.8003
 8762SOL    HW237746   2.315   2.000   0.462 -2.1228 -2.2579  1.0985
 8763SOL     OW37747   1.855   3.604   6.956  0.2575 -0.7357 -0.1259
 8763SOL    HW137748   1.882   3.608   7.048 -2.9280 -1.2240  0.8207
 8763SOL    HW237749   1.939   3.579   6.917 -0.9705  0.2285 -3.3655
 8764SOL     OW37750   4.671   1.057   4.758 -0.0090 -0.2495  0.0531
 8764SOL    HW137751   4.633   0.998   4.694 -1.0928  0.5057 -0.0005
 8764SOL    HW237752   0.035   1.066   4.729  0.0128  1.7186  0.7261
 8765SOL     OW37753   1.923   3.300  10.132  0.1477 -0.1556 -0.1970
 8765SOL    HW137754   2.007   3.344  10.147 -0.3130  0.4935  0.4703
 8765SOL    HW237755   1.897   3.277  10.221 -1.5308  0.0409 -0.6441
 8766SOL     OW37756   3.285   1.569   2.967  0.4047 -0.1441 -0.5266
 8766SOL    HW137757   3.355   1.533   2.913  0.5504 -1.6746  0.7046
 8766SOL    HW237758   3.261   1.490   3.015 -0.7377  1.6389  1.8716
 8767SOL     OW37759   0.519   1.140   2.881  0.0153 -0.1201  0.6533
 8767SOL    HW137760   0.496   1.194   2.805  3.3875  2.5643  1.5836
 8767SOL    HW237761   0.447   1.076   2.877  0.2028 -0.3112  0.3594
 8768SOL     OW37762   2.453   3.623   6.408 -0.2579  0.1164 -0.3291
 8768SOL    HW137763   2.384   3.662   6.462  0.6428  2.0617 -0.5555
 8768SOL    HW237764   2.498   3.707   6.398 -0.7365  0.3139 -0.8278
 8769SOL     OW37765   2.486   3.506   3.244  0.1488 -0.5382  0.6520
 8769SOL    HW137766   2.492   3.563   3.167  2.8247 -3.3167 -1.1891
 8769SOL    HW237767   2.406   3.462   3.214  0.1311 -0.3431  0.4075
 8770SOL     OW37768   2.622   3.563   0.320 -0.2843 -0.1989 -0.1131
 8770SOL    HW137769   2.649   3.654   0.306  1.2117 -0.3623  1.6294
 8770SOL    HW237770   2.635   3.525   0.233  0.4745 -0.3035  0.0408
 8771SOL     OW37771   4.346   0.094   9.118  0.0077  0.0061 -0.2258
 8771SOL    HW137772   4.329   0.034   9.045 -2.4341 -0.8609  1.0798
 8771SOL    HW237773   4.308   0.052   9.195  1.8473 -1.3846 -0.0758
 8772SOL     OW37774   2.908   4.223  15.766  0.3966 -0.2339  0.3299
 8772SOL    HW137775   2.821   4.230  15.805  0.2949 -0.0917  0.0712
 8772SOL    HW237776   2.970   4.282  15.809  0.3201 -0.6646  1.0471
 8773SOL     OW37777   4.595   2.888  13.638  0.6708  0.1478  0.0588
 8773SOL    HW137778   4.653   2.908  13.712  2.1306  1.1558 -1.3502
 8773SOL    HW237779   4.588   2.967  13.584  0.3903 -2.2939 -3.5062
 8774SOL     OW37780   4.668   3.702   6.029 -0.2215  0.4817 -0.1479
 8774SOL    HW137781   4.704   3.776   6.077  0.4343 -0.4121  0.7359
 8774SOL    HW237782   4.659   3.651   6.109  0.4500 -1.2587 -1.1646
 8775SOL     OW37783   3.129   2.103  15.072  0.1638 -0.2182 -0.1770
 8775SOL    HW137784   3.086   2.027  15.032  3.0346 -1.4823 -0.8740
 8775SOL    HW237785   3.090   2.175  15.021  0.2160 -1.1108 -1.4869
 8776SOL     OW37786   1.352   3.329   3.690 -0.5535 -0.0357 -0.3713
 8776SOL    HW137787   1.350   3.302   3.598  2.5776  1.6379 -0.9498
 8776SOL    HW237788   1.301   3.258   3.729  0.8156  0.4796  2.3246
 8777SOL     OW37789   1.374   3.410   7.504  0.2833 -0.4092 -0.3987
 8777SOL    HW137790   1.369   3.359   7.585 -0.0562  1.0876  0.5151
 8777SOL    HW237791   1.386   3.494   7.547  1.0306 -0.1813 -1.0459
 8778SOL     OW37792   4.378   2.052   2.653 -0.7074  0.2062 -0.0196
 8778SOL    HW137793   4.390   2.113   2.726 -0.4987 -0.4586  0.5087
 8778SOL    HW237794   4.464   2.057   2.610 -1.9920  0.6823 -2.5121
 8779SOL     OW37795   2.664   1.857   4.061  0.8236 -0.7564  0.5882
 8779SOL    HW137796   2.597   1.837   3.995  0.3977  0.6007  0.6196
 8779SOL    HW237797   2.740   1.804   4.038  1.1901 -0.5574  1.3175
 8780SOL     OW37798   0.848   2.137   1.385  0.9958 -0.4094 -0.3733
 8780SOL    HW137799   0.858   2.228   1.357  3.7521 -0.0711  1.7620
 8780SOL    HW237800   0.795   2.101   1.314 -0.6333 -1.4473  1.3692
 8781SOL     OW37801   2.034   3.498   4.997 -0.2798  0.0450  0.0019
 8781SOL    HW137802   1.968   3.559   4.966  1.3136  1.1505 -1.2174
 8781SOL    HW237803   1.994   3.431   5.052 -1.8944  0.0558 -1.1524
 8782SOL     OW37804   3.213   2.688   7.957 -0.3693  0.7085  0.2702
 8782SOL    HW137805   3.253   2.701   7.870 -1.5985 -1.9105 -0.6865
 8782SOL    HW237806   3.135   2.742   7.944 -0.2382  0.8670  0.1425
 8783SOL     OW37807   2.295   0.364  16.240  0.3134  0.6749  0.5772
 8783SOL    HW137808   2.327   0.396  16.156  1.1421 -0.4549  0.4495
 8783SOL    HW237809   2.335   0.277  16.245 -0.5712  0.3475  1.7955
 8784SOL     OW37810   3.399   1.282  17.144 -0.0812 -0.5023 -0.0311
 8784SOL    HW137811   3.392   1.368  17.185 -2.0411  0.8318 -3.2067
 8784SOL    HW237812   3.416   1.229  17.222 -0.3076 -0.6729 -0.0965
 8785SOL     OW37813   1.382   3.874  10.016 -0.0434 -0.3610  0.2272
 8785SOL    HW137814   1.433   3.893  10.095 -1.1713  0.3223  0.7944
 8785SOL    HW237815   1.343   3.793  10.049 -3.1136  2.1147  2.6059
 8786SOL     OW37816   2.195   4.164   4.844 -0.9571  0.3716 -0.2559
 8786SOL    HW137817   2.251   4.138   4.770  0.2874  0.4174  0.6734
 8786SOL    HW237818   2.112   4.123   4.820  0.0352 -1.9592  0.3153
 8787SOL     OW37819   0.019   1.255   7.733 -0.4968  0.5098  0.5401
 8787SOL    HW137820   0.027   1.227   7.824  0.5133 -1.5008 -0.1565
 8787SOL    HW237821   0.003   1.348   7.747 -2.8326  0.0507  0.9438
 8788SOL     OW37822   3.754   4.535  16.187  0.5765 -0.0516  0.7112
 8788SOL    HW137823   3.837   4.569  16.154 -0.5597  1.5280 -0.5296
 8788SOL    HW237824   3.733   4.604  16.249  0.6224  2.3438 -1.9417
 8789SOL     OW37825   2.104   0.789   8.735  0.0059  0.0324  0.2297
 8789SOL    HW137826   2.136   0.725   8.672  1.7359  0.1050  1.0342
 8789SOL    HW237827   2.071   0.731   8.804 -0.1404 -0.3582 -0.1666
 8790SOL     OW37828   4.236   2.348   6.046  0.5291 -0.0195  0.4707
 8790SOL    HW137829   4.294   2.311   6.113  0.5002  1.1451  1.1283
 8790SOL    HW237830   4.222   2.265   6.000 -3.2516  0.5411  0.6133
 8791SOL     OW37831   2.771   1.003   4.643  0.1760  0.2860  0.3838
 8791SOL    HW137832   2.764   1.048   4.559  0.4359  0.3241  0.3804
 8791SOL    HW237833   2.721   1.060   4.701  1.1563  1.0744  0.4572
 8792SOL     OW37834   4.149   0.114   7.992 -0.2118 -0.1588 -0.4830
 8792SOL    HW137835   4.138   0.208   7.987  1.4897  0.0735 -0.0521
 8792SOL    HW237836   4.232   0.105   7.944 -0.2824 -1.6569 -0.3267
 8793SOL     OW37837   1.499   0.929   2.351  0.0545 -0.0561 -0.2856
 8793SOL    HW137838   1.571   0.874   2.378  1.6381  2.4506  0.6428
 8793SOL    HW237839   1.521   0.938   2.258 -0.6435  0.3318 -0.4237
 8794SOL     OW37840   4.601   2.270   5.419 -0.4989  0.7719  0.3820
 8794SOL    HW137841   4.593   2.342   5.481  0.0811  0.7688  0.4662
 8794SOL    HW237842   4.516   2.230   5.435  0.5949 -1.8207 -0.2344
 8795SOL     OW37843   4.490   2.170   5.086 -0.1014 -0.2329 -0.2077
 8795SOL    HW137844   4.434   2.243   5.109 -0.9765 -1.4737  1.5539
 8795SOL    HW237845   4.566   2.209   5.043  1.0799 -2.4402 -0.1659
 8796SOL     OW37846   2.830   0.771   8.348  0.2969 -0.3340 -0.2878
 8796SOL    HW137847   2.874   0.710   8.289 -1.0322 -1.0578 -0.5422
 8796SOL    HW237848   2.882   0.765   8.428  0.5675  2.6765 -0.2455
 8797SOL     OW37849   0.237   4.587   4.912 -0.2585 -0.0217  0.0304
 8797SOL    HW137850   0.323   4.627   4.920 -0.5466  0.3296  1.2130
 8797SOL    HW237851   0.253   4.498   4.878 -0.4956 -0.3606  0.8046
 8798SOL     OW37852   4.671   3.717   6.321  0.5826  0.1220  0.2336
 8798SOL    HW137853   4.664   3.778   6.395  0.5307  0.2373  0.1336
 8798SOL    HW237854   4.706   3.784   6.262 -0.0275  0.8249  0.6685
 8799SOL     OW37855   3.400   1.723   3.242  0.4082  0.0714  0.2143
 8799SOL    HW137856   3.404   1.634   3.277 -0.2400  1.1515  3.0577
 8799SOL    HW237857   3.447   1.705   3.160  1.3366  1.1949  0.4974
 8800SOL     OW37858   1.863   0.233   2.557  0.3116 -0.0735  0.1803
 8800SOL    HW137859   1.808   0.202   2.485 -2.0200  3.1610  0.5665
 8800SOL    HW237860   1.951   0.217   2.523  0.4420 -0.1506  0.5580
 8801SOL     OW37861   4.018   3.102   8.298 -0.4368  0.1135  0.0540
 8801SOL    HW137862   3.974   3.113   8.213 -0.0553 -0.8695 -0.2754
 8801SOL    HW237863   3.950   3.069   8.357 -1.2370  1.8668  0.0977
 8802SOL     OW37864   4.672   3.035   4.854 -0.2445  0.2816  0.5321
 8802SOL    HW137865   4.717   3.101   4.906 -0.4807  0.1711  0.8734
 8802SOL    HW237866   0.004   3.024   4.779  0.4648  0.7194  1.0310
 8803SOL     OW37867   1.001   2.312   4.443 -1.0755 -0.0563 -0.3717
 8803SOL    HW137868   1.077   2.369   4.437 -1.0554 -0.1237 -0.7445
 8803SOL    HW237869   0.934   2.381   4.446 -2.3067 -1.2476 -0.1726
 8804SOL     OW37870   3.483   4.076   2.604 -0.6281  0.0284 -0.1816
 8804SOL    HW137871   3.545   4.003   2.597 -0.1661  0.5347 -1.4728
 8804SOL    HW237872   3.528   4.133   2.666 -1.4892  0.0830  0.3880
 8805SOL     OW37873   4.657   0.724   7.524 -0.3169 -0.0380  0.1080
 8805SOL    HW137874   4.647   0.790   7.593 -0.7016  1.0904 -1.0231
 8805SOL    HW237875   0.017   0.694   7.552  0.4975  0.2834 -2.1265
 8806SOL     OW37876   1.361   1.252   7.534  0.2312 -0.0088  0.4218
 8806SOL    HW137877   1.442   1.297   7.512  2.4728 -3.1292  2.3113
 8806SOL    HW237878   1.357   1.224   7.625  0.2056 -1.3464  0.0157
 8807SOL     OW37879   3.189   0.645   3.606 -0.2582  0.5278 -0.1893
 8807SOL    HW137880   3.136   0.652   3.686 -1.2264 -1.9842 -0.6070
 8807SOL    HW237881   3.274   0.642   3.650 -1.1421  1.0095  1.5850
 8808SOL     OW37882   3.717   4.314   5.622 -0.6777  0.4121 -0.1967
 8808SOL    HW137883   3.723   4.259   5.701  3.2282  2.1290  0.6672
 8808SOL    HW237884   3.771   4.391   5.640  1.8128 -1.2172 -0.7658
 8809SOL     OW37885   2.360   4.007   8.590  0.0936  0.5624 -0.3785
 8809SOL    HW137886   2.306   4.069   8.640 -0.1570 -0.2840  0.4081
 8809SOL    HW237887   2.435   4.005   8.649  0.2372  0.5685 -0.5649
 8810SOL     OW37888   4.356   4.565   7.175 -0.2218 -0.3992 -0.1870
 8810SOL    HW137889   4.349   4.619   7.097 -1.2529 -0.2508  0.0108
 8810SOL    HW237890   4.390   4.629   7.238 -3.2090  1.1780 -0.2056
 8811SOL     OW37891   2.523   2.439   8.314 -0.3952 -0.0118  0.0407
 8811SOL    HW137892   2.517   2.474   8.225  0.5722  0.6972  0.2614
 8811SOL    HW237893   2.612   2.456   8.343  0.2378  0.5640 -2.2507
 8812SOL     OW37894   0.869   4.102   3.490  0.0515  0.0110 -0.2168
 8812SOL    HW137895   0.836   4.023   3.448  2.5095 -1.9369  1.5430
 8812SOL    HW237896   0.963   4.087   3.481 -0.3371 -1.3285 -2.0833
 8813SOL     OW37897   1.082   3.216  11.235 -0.2002 -0.2522 -0.3488
 8813SOL    HW137898   1.098   3.127  11.266 -2.4955 -0.2819  0.7438
 8813SOL    HW237899   1.154   3.231  11.173  0.7282 -0.9671  0.5580
 8814SOL     OW37900   3.519   0.971  10.930 -0.1686 -0.4181  0.0238
 8814SOL    HW137901   3.510   0.876  10.934 -0.8632 -0.3101  1.1395
 8814SOL    HW237902   3.555   0.990  10.843  1.0830 -1.1578  0.3744
 8815SOL     OW37903   0.016   2.557   2.617  0.0328  0.2046 -0.1043
 8815SOL    HW137904   0.109   2.538   2.630 -0.5135 -2.0139  0.7258
 8815SOL    HW237905   4.707   2.578   2.703  0.7964 -0.2511  0.3315
 8816SOL     OW37906   1.683   1.075   8.395 -0.1372  0.4701  0.1188
 8816SOL    HW137907   1.602   1.055   8.441  0.1773  0.4352  0.6583
 8816SOL    HW237908   1.734   1.004   8.435 -2.3712 -2.0189 -1.4163
 8817SOL     OW37909   1.395   2.982   7.132  0.0232 -0.3386 -0.4038
 8817SOL    HW137910   1.331   2.979   7.060  1.2563 -1.1311 -1.4694
 8817SOL    HW237911   1.418   3.074   7.125  0.8013 -0.5467 -0.5420
 8818SOL     OW37912   4.364   2.944   2.036  0.5538  0.2407 -0.2313
 8818SOL    HW137913   4.348   3.025   1.988 -0.3073 -1.2303 -2.3820
 8818SOL    HW237914   4.276   2.931   2.072  0.1493 -1.5780 -1.8483
 8819SOL     OW37915   3.344   4.586   5.198 -0.6231 -0.8727 -0.0557
 8819SOL    HW137916   3.390   4.507   5.224 -0.6056 -0.1242  2.2147
 8819SOL    HW237917   3.414   4.650   5.213 -0.2210 -0.9338 -1.7136
 8820SOL     OW37918   2.903   3.323  12.061  0.6066  0.8581  0.0603
 8820SOL    HW137919   2.808   3.331  12.050  0.3050 -0.5147  1.8593
 8820SOL    HW237920   2.946   3.353  11.980 -0.8588  2.0629 -0.2709
 8821SOL     OW37921   0.066   2.267   2.268 -0.0890  0.2930  0.3967
 8821SOL    HW137922   4.703   2.248   2.294 -0.2277 -0.1119 -0.3670
 8821SOL    HW237923   0.062   2.217   2.187 -0.6956  2.8563 -1.1771
 8822SOL     OW37924   0.945   0.707   7.507  0.1623  0.3215  0.1011
 8822SOL    HW137925   0.885   0.679   7.438 -0.9877  2.6990  0.1493
 8822SOL    HW237926   1.027   0.660   7.489 -0.1631 -0.5860  0.9381
 8823SOL     OW37927   4.292   2.645   4.249  0.8049  0.0477  0.2902
 8823SOL    HW137928   4.295   2.561   4.204 -1.5962  0.5413 -0.8119
 8823SOL    HW237929   4.238   2.618   4.323 -0.3427 -1.1990 -1.0054
 8824SOL     OW37930   2.891   1.482  17.304 -0.0500  0.0715  0.2871
 8824SOL    HW137931   2.968   1.539  17.301  0.0672 -0.2245 -2.9476
 8824SOL    HW237932   2.832   1.535  17.251  1.1911  1.0814 -0.0855
 8825SOL     OW37933   3.781   0.120   1.491 -0.0801  0.3103  0.1696
 8825SOL    HW137934   3.745   0.154   1.572  1.0505 -0.4502  0.9987
 8825SOL    HW237935   3.732   0.044   1.460 -1.5070  2.2719 -2.3302
 8826SOL     OW37936   3.869   0.089   9.275  0.2244 -0.7281  0.2388
 8826SOL    HW137937   3.885   0.183   9.286 -0.9796 -0.5098  0.1741
 8826SOL    HW237938   3.890   0.046   9.358 -1.0377 -0.0289  0.9220
 8827SOL     OW37939   0.461   3.242   1.096  0.2756 -0.2528 -0.0386
 8827SOL    HW137940   0.447   3.336   1.110 -0.3187 -0.2037 -0.9915
 8827SOL    HW237941   0.370   3.222   1.075  0.0979  0.2689  0.2404
 8828SOL     OW37942   3.806   2.984   8.487 -0.1771 -0.2668  0.0949
 8828SOL    HW137943   3.851   2.900   8.500 -0.5173 -0.2472  1.4418
 8828SOL    HW237944   3.716   2.958   8.502 -0.6568  0.3689 -1.7246
 8829SOL     OW37945   4.115   2.918   7.075  0.3335  0.3528 -0.1529
 8829SOL    HW137946   4.075   2.922   6.988 -1.5171  1.3843  0.7408
 8829SOL    HW237947   4.169   2.996   7.081  2.2705 -0.9699 -0.5629
 8830SOL     OW37948   2.794   3.571   5.350 -0.1444 -0.5103 -0.0815
 8830SOL    HW137949   2.715   3.617   5.377  0.5818  1.1632 -0.8111
 8830SOL    HW237950   2.837   3.646   5.309  1.6056 -1.6240 -0.3219
 8831SOL     OW37951   2.806   1.921   9.710 -0.1653  0.4678  0.4192
 8831SOL    HW137952   2.750   1.943   9.636  1.2931  0.8085 -0.5912
 8831SOL    HW237953   2.831   2.007   9.742 -0.9331  0.6035  0.6412
 8832SOL     OW37954   3.695   1.820   9.677 -0.0750 -0.1074 -0.8302
 8832SOL    HW137955   3.743   1.738   9.664  0.6476 -0.1756  2.1315
 8832SOL    HW237956   3.733   1.847   9.761 -4.2626 -0.0473  1.0338
 8833SOL     OW37957   3.474   3.614   0.395 -0.3213  0.1844 -0.2747
 8833SOL    HW137958   3.410   3.676   0.359 -1.4950 -1.4797 -1.0567
 8833SOL    HW237959   3.444   3.586   0.481 -1.1634  1.6019 -0.1023
 8834SOL     OW37960   0.268   0.605  11.610 -0.7339  0.2278  0.2472
 8834SOL    HW137961   0.227   0.519  11.619 -0.9387  0.1868 -1.1191
 8834SOL    HW237962   0.283   0.602  11.516 -2.2798 -2.2168  0.0874
 8835SOL     OW37963   3.972   3.584  14.342  0.7012 -0.0223 -0.5951
 8835SOL    HW137964   3.995   3.503  14.296  1.8858  0.3439 -0.6281
 8835SOL    HW237965   4.001   3.564  14.430  0.9507  0.5163 -0.5577
 8836SOL     OW37966   3.132   1.941   0.740  0.3879  0.2320  0.4576
 8836SOL    HW137967   3.193   1.952   0.812 -0.5873  2.7162  0.8906
 8836SOL    HW237968   3.052   1.985   0.770 -0.5750 -0.0080 -1.7014
 8837SOL     OW37969   2.566   1.019  14.805 -0.2566 -0.5034 -0.0051
 8837SOL    HW137970   2.619   0.969  14.866 -0.4055 -0.9653 -0.2569
 8837SOL    HW237971   2.629   1.087  14.779  1.4873 -2.8567 -2.0024
 8838SOL     OW37972   1.931   3.719  17.577 -0.2997 -0.4980  0.3691
 8838SOL    HW137973   1.992   3.747  17.646 -0.0307  0.1226 -0.1183
 8838SOL    HW237974   1.939   3.786  17.509  0.5297  1.0223  1.9648
 8839SOL     OW37975   4.465   3.348   5.387  0.1651 -0.5042  0.0075
 8839SOL    HW137976   4.462   3.253   5.400  1.2086 -0.5275  0.0877
 8839SOL    HW237977   4.420   3.381   5.465  0.4556  2.3273 -1.0382
 8840SOL     OW37978   4.436   1.248   3.506  0.1520 -0.4760  0.2361
 8840SOL    HW137979   4.372   1.282   3.444  1.3396  1.8874  0.3043
 8840SOL    HW237980   4.486   1.327   3.527 -0.2161 -0.7875  2.3023
 8841SOL     OW37981   3.405   2.484   3.877  0.1532 -0.3071 -0.1154
 8841SOL    HW137982   3.366   2.538   3.946 -0.2506  1.3544 -1.6425
 8841SOL    HW237983   3.488   2.453   3.913  0.4301 -1.8914 -2.1217
 8842SOL     OW37984   0.164   4.511   9.198 -0.2774  0.2253  0.0129
 8842SOL    HW137985   0.196   4.570   9.267  1.9152 -1.2087  0.2038
 8842SOL    HW237986   0.096   4.570   9.166  0.2349  0.2897 -0.9433
 8843SOL     OW37987   0.121   4.476   0.102  0.4363  0.4757 -0.5385
 8843SOL    HW137988   0.161   4.444   0.183  4.7673 -0.6135 -3.1122
 8843SOL    HW237989   0.036   4.431   0.097  1.8168 -2.0984 -0.9546
 8844SOL     OW37990   2.602   0.774  14.275 -0.5761 -0.1745 -0.3659
 8844SOL    HW137991   2.563   0.690  14.300  1.2600 -0.7440  0.6299
 8844SOL    HW237992   2.520   0.823  14.267 -0.2914  0.1737 -1.0867
 8845SOL     OW37993   0.232   4.177   2.637 -0.2542 -0.1703 -0.1644
 8845SOL    HW137994   0.322   4.192   2.607 -0.6309  0.0638 -1.2090
 8845SOL    HW237995   0.247   4.137   2.722  4.2946 -0.3134 -1.0281
 8846SOL     OW37996   1.959   0.029   5.463  0.1019 -0.4853 -0.1002
 8846SOL    HW137997   1.907   0.018   5.384  0.2636  0.2976 -0.3161
 8846SOL    HW237998   1.909   0.095   5.513 -0.6298 -0.8029 -0.4133
 8847SOL     OW37999   2.657   1.252   3.264  0.3213 -0.5704 -0.5450
 8847SOL    HW138000   2.624   1.342   3.273  1.2403 -0.1454 -1.3713
 8847SOL    HW238001   2.733   1.253   3.205  0.3150  1.8078 -0.5298
 8848SOL     OW38002   0.779   4.383   1.819 -0.0582 -0.2536 -0.1465
 8848SOL    HW138003   0.697   4.430   1.802  1.5486  2.3722 -0.8028
 8848SOL    HW238004   0.815   4.380   1.730  0.8437  4.8406  0.0176
 8849SOL     OW38005   4.056   1.149   7.938  0.1523 -0.1514 -0.2324
 8849SOL    HW138006   4.073   1.226   7.991 -0.6887  1.4737 -2.3357
 8849SOL    HW238007   4.000   1.097   7.995 -0.2372 -1.0549 -1.4339
 8850SOL     OW38008   4.378   3.419   7.698  0.2718 -0.2077  0.3979
 8850SOL    HW138009   4.363   3.502   7.745  2.2534  0.4367 -0.0959
 8850SOL    HW238010   4.418   3.460   7.622  0.5397 -0.2021  0.5414
 8851SOL     OW38011   3.896   1.326   4.412 -0.6786  0.3087  0.6802
 8851SOL    HW138012   3.830   1.270   4.371 -0.2328  1.8431 -2.1148
 8851SOL    HW238013   3.927   1.279   4.489  1.3114 -2.5764 -1.8644
 8852SOL     OW38014   3.482   4.500   4.333  0.7230 -0.0967 -0.1217
 8852SOL    HW138015   3.512   4.588   4.357 -1.9007  0.5704  0.7244
 8852SOL    HW238016   3.480   4.508   4.238 -0.5259 -1.4398 -0.2069
 8853SOL     OW38017   2.275   1.745  11.005  0.1044 -0.4003  0.5689
 8853SOL    HW138018   2.266   1.815  11.071 -2.6749 -0.1022 -0.1184
 8853SOL    HW238019   2.347   1.777  10.951 -2.1053  4.0435  0.2505
 8854SOL     OW38020   2.080   0.277  17.314 -0.2775  0.1496 -0.0940
 8854SOL    HW138021   2.174   0.281  17.293 -0.5715  0.4341 -1.3412
 8854SOL    HW238022   2.033   0.262  17.232 -0.7091  2.6897 -0.2894
 8855SOL     OW38023   2.562   1.006   9.994  0.0888 -0.3623 -0.1199
 8855SOL    HW138024   2.537   0.915  10.011  3.9240 -1.1341  1.2957
 8855SOL    HW238025   2.655   1.016  10.014  0.4920 -2.9100 -0.7452
 8856SOL     OW38026   3.887   2.493   6.327  0.4718 -0.7268 -0.7278
 8856SOL    HW138027   3.945   2.557   6.286  1.4078  0.2457  2.0667
 8856SOL    HW238028   3.942   2.415   6.328  0.5861 -0.6701 -2.5388
 8857SOL     OW38029   2.790   4.488   2.916 -0.0200  0.4461 -0.0413
 8857SOL    HW138030   2.793   4.505   3.011 -3.0826  0.9951 -0.0286
 8857SOL    HW238031   2.824   4.572   2.885  0.0050  0.7608  0.8427
 8858SOL     OW38032   1.370   4.717  13.797  0.3156  0.3769 -0.0509
 8858SOL    HW138033   1.415   4.657  13.737 -1.3254  2.5719 -3.4598
 8858SOL    HW238034   1.415   0.074  13.787 -0.5289  0.6139 -1.7880
 8859SOL     OW38035   3.565   3.701   7.866 -0.0302  0.2446 -0.5002
 8859SOL    HW138036   3.535   3.738   7.782  0.0654  0.7020 -0.3362
 8859SOL    HW238037   3.650   3.667   7.837  1.3187  0.9767  2.6140
 8860SOL     OW38038   1.592   3.524   3.322  0.5392  0.1843  0.1419
 8860SOL    HW138039   1.628   3.484   3.401 -2.2549 -0.1744  1.2136
 8860SOL    HW238040   1.507   3.552   3.355  0.7069 -0.3438  1.0191
 8861SOL     OW38041   4.555   2.429  13.923 -0.6203 -0.3510  0.3078
 8861SOL    HW138042   4.592   2.498  13.867  0.1139 -0.7942  0.2442
 8861SOL    HW238043   4.622   2.422  13.991  1.8350  4.0221 -1.6999
 8862SOL     OW38044   1.634   2.422   9.034  0.0634 -0.0063 -0.0651
 8862SOL    HW138045   1.541   2.410   9.052 -0.4843  0.7616 -2.4250
 8862SOL    HW238046   1.667   2.335   9.008  1.7446  0.2896  1.0789
 8863SOL     OW38047   2.396   0.441  12.574 -0.0772  0.5505  0.5210
 8863SOL    HW138048   2.386   0.391  12.655 -1.1421  1.7280  1.1138
 8863SOL    HW238049   2.483   0.480  12.583 -0.8949  2.3332  0.7960
 8864SOL     OW38050   2.068   3.523  15.570 -0.0977  0.1254 -0.0570
 8864SOL    HW138051   2.096   3.505  15.660 -0.0544 -0.2824 -0.1490
 8864SOL    HW238052   1.983   3.566  15.579 -0.4754 -0.5553 -0.3763
 8865SOL     OW38053   0.238   1.733  14.454  0.1804 -0.1170  0.1230
 8865SOL    HW138054   0.201   1.646  14.439 -2.2080  0.7955  0.7956
 8865SOL    HW238055   0.185   1.794  14.403  0.0222  1.3744  2.0881
 8866SOL     OW38056   2.852   1.100  11.220  0.2029 -0.4197 -0.2245
 8866SOL    HW138057   2.794   1.171  11.194  0.6098  0.5990  1.6506
 8866SOL    HW238058   2.842   1.102  11.315 -0.2153  0.2342 -0.2838
 8867SOL     OW38059   2.518   2.310   3.960  0.3253 -0.0496 -0.1230
 8867SOL    HW138060   2.468   2.387   3.932 -0.7947 -0.7890 -0.1662
 8867SOL    HW238061   2.469   2.286   4.039  0.2080 -1.1183 -0.5118
 8868SOL     OW38062   0.177   3.472   4.300 -0.1286 -0.2031  0.0423
 8868SOL    HW138063   0.186   3.525   4.221 -1.6749  0.4523  0.3108
 8868SOL    HW238064   0.121   3.531   4.350 -1.2973  0.7018 -2.3352
 8869SOL     OW38065   1.264   2.189   9.758  0.0698 -0.4175  0.0088
 8869SOL    HW138066   1.256   2.264   9.816 -0.0051  0.0263 -0.5760
 8869SOL    HW238067   1.330   2.139   9.807 -0.3389 -0.5444  0.4321
 8870SOL     OW38068   3.473   4.315   6.574  0.0997 -0.3925 -0.3098
 8870SOL    HW138069   3.545   4.306   6.636  0.5495  1.1235 -0.6143
 8870SOL    HW238070   3.482   4.226   6.540 -1.5253 -0.9408  0.6852
 8871SOL     OW38071   1.897   1.276   5.692 -0.0080 -0.1887 -0.4085
 8871SOL    HW138072   1.826   1.243   5.637  0.0603 -4.1268  1.8654
 8871SOL    HW238073   1.880   1.370   5.688 -1.5992 -0.3278  3.0795
 8872SOL     OW38074   1.985   0.582   2.923  0.2309 -0.4697  0.2326
 8872SOL    HW138075   1.904   0.611   2.965  0.8057 -1.1725  1.8609
 8872SOL    HW238076   1.969   0.617   2.836  1.1627 -1.0744 -0.1738
 8873SOL     OW38077   1.552   4.061   5.262 -0.5301  0.4234 -0.1331
 8873SOL    HW138078   1.533   4.049   5.169  2.3424  3.1676 -1.0800
 8873SOL    HW238079   1.642   4.028   5.268 -0.8438 -0.6787 -1.3580
 8874SOL     OW38080   0.265   1.157   3.891  0.7015  0.5166  0.6536
 8874SOL    HW138081   0.191   1.180   3.835  1.8065  1.2789 -0.4885
 8874SOL    HW238082   0.239   1.215   3.962 -0.3461  0.5719  0.2313
 8875SOL     OW38083   2.599   1.123   0.556 -0.2314  0.1109  0.9459
 8875SOL    HW138084   2.669   1.180   0.587  0.3202 -0.2318  0.3367
 8875SOL    HW238085   2.640   1.039   0.578 -2.8691 -1.9564 -1.9137
 8876SOL     OW38086   3.503   2.375  14.278  0.7241  0.4081  0.8469
 8876SOL    HW138087   3.460   2.363  14.363 -0.0213 -1.5925  0.1794
 8876SOL    HW238088   3.593   2.388  14.307  0.2729  2.6477  1.2751
 8877SOL     OW38089   0.075   2.008   7.342 -0.0403 -0.0267  0.2067
 8877SOL    HW138090   0.136   2.076   7.315 -1.4564 -0.0248 -2.9927
 8877SOL    HW238091   0.027   2.051   7.413  0.4281  2.5537 -1.0340
 8878SOL     OW38092   3.093   1.138  10.583  0.1950 -0.1407  0.1194
 8878SOL    HW138093   3.073   1.074  10.515  1.8673 -1.8296  1.2255
 8878SOL    HW238094   3.042   1.216  10.564  1.6084  1.0924  1.3746
 8879SOL     OW38095   2.238   2.032   0.699  0.0998  0.0980 -0.4341
 8879SOL    HW138096   2.198   2.118   0.684 -0.8428 -0.5684 -1.7608
 8879SOL    HW238097   2.309   2.068   0.752 -0.6123  0.6470  0.1554
 8880SOL     OW38098   3.952   3.058   6.887  0.2868  0.1553 -0.8020
 8880SOL    HW138099   3.889   3.093   6.825  1.7382  1.4520 -1.5133
 8880SOL    HW238100   4.023   3.034   6.828 -0.3049  1.2825 -1.9740
 8881SOL     OW38101   3.584   1.382  13.391 -1.0689 -0.0101 -0.0616
 8881SOL    HW138102   3.585   1.353  13.482 -2.2251 -0.2801 -0.1345
 8881SOL    HW238103   3.678   1.367  13.379 -1.4180 -2.4724  0.3850
 8882SOL     OW38104   0.529   0.389   5.930 -0.4296 -0.0544  0.5336
 8882SOL    HW138105   0.570   0.304   5.913 -1.4468 -0.3188 -0.6385
 8882SOL    HW238106   0.440   0.364   5.956  0.1275 -1.7939  0.7522
 8883SOL     OW38107   2.821   3.009   0.768 -0.1288  0.0311  0.3000
 8883SOL    HW138108   2.884   3.081   0.759  1.8167 -1.5606  1.0531
 8883SOL    HW238109   2.865   2.955   0.834  2.0660 -0.2069 -1.3579
 8884SOL     OW38110   0.354   2.792   2.329 -0.4542  0.0770 -0.0192
 8884SOL    HW138111   0.341   2.838   2.412 -0.2239  0.9040 -0.4465
 8884SOL    HW238112   0.312   2.709   2.349  1.2789 -0.3678  1.8095
 8885SOL     OW38113   3.440   3.503   7.502 -0.0237 -0.5602 -0.1231
 8885SOL    HW138114   3.353   3.464   7.506  0.4429 -1.5638  0.6013
 8885SOL    HW238115   3.489   3.439   7.555 -1.3100  0.2240  1.9838
 8886SOL     OW38116   2.256   0.595   0.391 -0.2415  0.0746 -0.0514
 8886SOL    HW138117   2.280   0.678   0.350 -1.3562 -0.2788 -1.4042
 8886SOL    HW238118   2.192   0.622   0.456 -2.0289  2.3568 -2.7600
 8887SOL     OW38119   4.146   0.648   3.776  0.7820  0.3736  0.5489
 8887SOL    HW138120   4.137   0.571   3.832 -1.4287 -0.9231 -1.6565
 8887SOL    HW238121   4.220   0.694   3.818  0.8334  1.1799 -0.4293
 8888SOL     OW38122   1.083   0.148   5.513  0.0175  0.2506 -0.0179
 8888SOL    HW138123   1.012   0.093   5.479 -0.7638  0.2321  1.6296
 8888SOL    HW238124   1.151   0.097   5.470 -0.2362  0.9442 -1.2396
 8889SOL     OW38125   4.085   2.737   4.768 -0.6015  0.5752  0.3201
 8889SOL    HW138126   4.124   2.742   4.856  3.1541 -0.7447 -1.2692
 8889SOL    HW238127   4.076   2.829   4.743 -4.3913 -0.1987 -1.0454
 8890SOL     OW38128   2.904   1.673   7.120 -0.0509  0.9349 -0.0924
 8890SOL    HW138129   2.928   1.763   7.097  2.6068  0.5889  1.3356
 8890SOL    HW238130   2.815   1.669   7.087  0.6165  2.3459 -2.0295
 8891SOL     OW38131   0.032   1.067   7.998  0.5232 -0.2063 -0.1024
 8891SOL    HW138132   0.091   1.021   8.058 -1.3518 -1.8633  0.4696
 8891SOL    HW238133   0.020   1.152   8.039 -0.8283 -1.7017  2.6037
 8892SOL     OW38134   2.730   2.646   8.679 -0.4672  0.1261 -0.2535
 8892SOL    HW138135   2.807   2.643   8.737  1.2063  0.1120 -2.4552
 8892SOL    HW238136   2.676   2.709   8.726  0.3385  1.3057 -0.9005
 8893SOL     OW38137   0.395   2.395   6.416  0.6560  0.1272 -0.7705
 8893SOL    HW138138   0.403   2.319   6.473 -2.4204  1.3587  1.3018
 8893SOL    HW238139   0.314   2.366   6.373 -0.2280  2.2353 -0.5136
 8894SOL     OW38140   2.040   3.358   4.470  0.0793  0.0803 -0.0518
 8894SOL    HW138141   2.001   3.364   4.558 -3.1445 -1.1845 -1.4005
 8894SOL    HW238142   1.968   3.376   4.409  1.5740  1.1524 -1.4733
 8895SOL     OW38143   0.127   0.668   1.607  0.0535  0.5621  0.8095
 8895SOL    HW138144   0.115   0.763   1.605 -0.0010  0.4975 -1.8175
 8895SOL    HW238145   0.217   0.661   1.574  0.3576 -1.1170  2.0268
 8896SOL     OW38146   3.496   3.340  14.994 -0.0415  0.6466 -0.5492
 8896SOL    HW138147   3.486   3.435  14.985  0.5667  0.7337 -0.2882
 8896SOL    HW238148   3.457   3.329  15.081 -0.8581  0.9615 -0.8693
 8897SOL     OW38149   4.244   0.843   5.256 -0.5959 -0.4539 -0.3454
 8897SOL    HW138150   4.243   0.916   5.318  2.0025 -0.7786  0.0938
 8897SOL    HW238151   4.163   0.797   5.277  0.1815 -0.4813  2.6510
 8898SOL     OW38152   4.555   3.837   8.168 -0.5242  0.2860  0.1247
 8898SOL    HW138153   4.644   3.829   8.136 -0.1826  1.8871  0.6865
 8898SOL    HW238154   4.546   3.932   8.167  4.0345  0.7085  0.1425
 8899SOL     OW38155   3.425   0.722   9.560 -0.0900 -0.1358  0.1618
 8899SOL    HW138156   3.403   0.670   9.483 -1.4754  0.6064  0.0695
 8899SOL    HW238157   3.374   0.802   9.561 -1.8936 -1.2872 -0.8915
 8900SOL     OW38158   4.065   1.688  14.448 -0.4244 -0.2262 -0.6143
 8900SOL    HW138159   4.119   1.766  14.439 -2.1894  0.9459 -1.1840
 8900SOL    HW238160   4.018   1.696  14.365  1.9150  0.7843 -1.8234
 8901SOL     OW38161   0.678   0.303  13.183 -0.6607 -0.2043 -0.4170
 8901SOL    HW138162   0.732   0.313  13.104  3.9271  0.1109  2.7255
 8901SOL    HW238163   0.640   0.391  13.189  1.1862  0.5009  0.9178
 8902SOL     OW38164   4.015   4.568   4.872  0.2901 -0.0744 -0.0304
 8902SOL    HW138165   3.966   4.536   4.797  0.8510  0.5341 -0.6509
 8902SOL    HW238166   4.091   4.510   4.863  1.9320  1.9919  0.3904
 8903SOL     OW38167   3.375   1.585   7.077  0.4439 -0.8014 -0.2096
 8903SOL    HW138168   3.397   1.645   7.005  1.7033  2.5383  2.9852
 8903SOL    HW238169   3.332   1.645   7.138  0.0550  0.6298 -1.8786
 8904SOL     OW38170   3.110   0.306   8.286  0.3012 -0.1017 -0.9697
 8904SOL    HW138171   3.146   0.226   8.323  0.4215  0.0708 -0.7146
 8904SOL    HW238172   3.124   0.297   8.192 -1.2339  1.3385 -1.3372
 8905SOL     OW38173   0.876   2.239   8.161  0.3488  0.1395 -0.6463
 8905SOL    HW138174   0.877   2.301   8.234  2.2193  0.7351 -1.1647
 8905SOL    HW238175   0.843   2.299   8.095 -0.7073  0.4414  0.1563
 8906SOL     OW38176   3.005   0.980   3.475  0.0571 -0.4560 -0.0074
 8906SOL    HW138177   3.016   0.929   3.394 -0.7322  0.0985 -0.4643
 8906SOL    HW238178   2.911   0.988   3.489  0.2257  0.7882  0.3656
 8907SOL     OW38179   2.742   2.181   3.368 -0.1831 -0.0557  0.4280
 8907SOL    HW138180   2.814   2.236   3.398 -2.4220  2.3405  1.4107
 8907SOL    HW238181   2.779   2.095   3.388 -1.0209 -0.5843 -0.3082
 8908SOL     OW38182   0.682   1.682   2.300 -0.0997  0.4823 -0.0297
 8908SOL    HW138183   0.605   1.725   2.337  0.9278  0.1147  2.6006
 8908SOL    HW238184   0.749   1.741   2.335 -1.1418  1.4835  0.2706
 8909SOL     OW38185   2.685   1.557   7.498  0.0215 -0.5773  0.0453
 8909SOL    HW138186   2.640   1.589   7.576 -2.0309  0.4549 -1.5776
 8909SOL    HW238187   2.745   1.631   7.486 -0.7951 -0.2212 -1.9586
 8910SOL     OW38188   0.601   3.280   2.651  0.1836  0.0008 -0.1013
 8910SOL    HW138189   0.611   3.190   2.619 -0.0340 -0.4652  1.1232
 8910SOL    HW238190   0.646   3.324   2.580  0.9874 -1.8568 -0.7449
 8911SOL     OW38191   1.507   3.817  15.428 -0.3906  0.1284 -0.0621
 8911SOL    HW138192   1.597   3.802  15.399  0.9010 -0.7187  4.3467
 8911SOL    HW238193   1.479   3.735  15.470 -1.0979  0.2488 -0.2998
 8912SOL     OW38194   1.694   4.665   0.549 -0.5304  0.5959 -0.1027
 8912SOL    HW138195   1.778   4.643   0.509  0.7925  2.3357  1.7469
 8912SOL    HW238196   1.696   4.602   0.621 -1.6634 -0.6630 -1.1604
 8913SOL     OW38197   0.166   0.580   3.269 -0.3921  0.6093 -0.0633
 8913SOL    HW138198   0.250   0.556   3.309  0.3230 -1.4033 -2.8274
 8913SOL    HW238199   0.187   0.654   3.212  0.9380  0.5286  0.3086
 8914SOL     OW38200   2.795   3.800  16.955 -0.7941 -0.0751  0.1636
 8914SOL    HW138201   2.820   3.756  16.874 -2.7764  0.8669 -0.9669
 8914SOL    HW238202   2.741   3.732  16.995 -0.5715 -2.1981 -3.1578
 8915SOL     OW38203   2.213   3.090   7.031 -0.2027 -0.1969  0.2147
 8915SOL    HW138204   2.132   3.139   7.026 -0.1524 -0.3749 -2.1556
 8915SOL    HW238205   2.265   3.110   6.953  3.3353  0.1102  2.6173
 8916SOL     OW38206   2.488   3.440   4.928  0.2683  0.1574 -0.2198
 8916SOL    HW138207   2.546   3.514   4.912  2.3256 -1.3489  0.2738
 8916SOL    HW238208   2.403   3.481   4.940 -1.7285 -3.7206 -1.1805
 8917SOL     OW38209   1.604   2.031   2.932 -0.5270 -0.3764  0.3845
 8917SOL    HW138210   1.509   2.036   2.926 -0.6875 -2.2332  1.3444
 8917SOL    HW238211   1.615   1.955   2.875 -0.3275 -0.0341 -0.0374
 8918SOL     OW38212   3.936   1.179   9.350  0.0183 -0.6738  0.1219
 8918SOL    HW138213   3.884   1.237   9.295  0.0732 -0.6186  0.1274
 8918SOL    HW238214   3.940   1.235   9.428 -1.4221  0.1902 -0.4322
 8919SOL     OW38215   4.527   4.579  15.504  0.2424  0.4443 -0.5880
 8919SOL    HW138216   4.569   4.646  15.559  0.4457  0.4704 -0.7756
 8919SOL    HW238217   4.557   4.612  15.419 -0.3671  1.9739 -0.2159
 8920SOL     OW38218   1.449   0.840  10.128  0.0358 -0.3007  0.0850
 8920SOL    HW138219   1.437   0.931  10.102  3.7726 -0.3811 -1.8889
 8920SOL    HW238220   1.391   0.792  10.069 -1.3024  0.8013  0.4917
 8921SOL     OW38221   1.613   1.743   7.838 -0.5302  0.2632 -0.4573
 8921SOL    HW138222   1.704   1.715   7.845 -0.1459  1.6580  0.0649
 8921SOL    HW238223   1.567   1.662   7.862 -0.9652  1.2200  1.9272
 8922SOL     OW38224   0.465   4.298   6.772  0.2580  0.2906  0.2925
 8922SOL    HW138225   0.539   4.300   6.833 -0.3350 -0.6038  1.0409
 8922SOL    HW238226   0.390   4.298   6.832  3.4889  0.7899  4.3050
 8923SOL     OW38227   0.076   0.910   2.652  0.4008  0.2838  0.7446
 8923SOL    HW138228   0.084   0.989   2.599  2.9532 -1.4363 -1.4736
 8923SOL    HW238229   0.088   0.939   2.742  1.4191  1.1942  0.3202
 8924SOL     OW38230   1.971   3.082   9.083  0.1086  0.4498  0.5442
 8924SOL    HW138231   2.038   3.129   9.033 -1.7930  2.3521 -0.2673
 8924SOL    HW238232   1.948   3.146   9.151 -1.4184  1.1999 -0.6670
 8925SOL     OW38233   1.913   1.703   3.334  0.2094  0.3022 -0.2211
 8925SOL    HW138234   2.005   1.727   3.328  0.3685  0.3331  2.1950
 8925SOL    HW238235   1.911   1.610   3.313 -0.6615  0.0843  0.8203
 8926SOL     OW38236   0.227   4.112  17.412  0.0853 -0.9491 -0.4242
 8926SOL    HW138237   0.176   4.066  17.346  2.2014 -1.2957 -1.8296
 8926SOL    HW238238   0.235   4.042  17.477  1.3568 -0.4238 -0.0212
 8927SOL     OW38239   0.005   3.004   1.135 -0.2777  0.1775  0.3003
 8927SOL    HW138240   4.637   3.000   1.120 -0.3973  4.3638 -0.0368
 8927SOL    HW238241   0.019   2.910   1.142 -2.4469 -0.0979  0.9346
 8928SOL     OW38242   3.093   2.479   6.265 -0.6779 -0.4826  0.4105
 8928SOL    HW138243   3.025   2.452   6.326  0.0992  0.4886  1.6925
 8928SOL    HW238244   3.145   2.399   6.271 -0.5836 -0.5954 -1.9462
 8929SOL     OW38245   3.915   1.101   6.314  0.6233  0.0969  0.4762
 8929SOL    HW138246   3.964   1.061   6.242 -0.7618  2.8287 -2.0226
 8929SOL    HW238247   3.829   1.075   6.283  1.0699 -1.0566  0.2125
 8930SOL     OW38248   4.340   2.566   6.158  0.5747 -0.0716 -0.3193
 8930SOL    HW138249   4.392   2.626   6.104  1.0271  0.0347  0.2386
 8930SOL    HW238250   4.317   2.493   6.100  1.8159 -0.8564  0.1741
 8931SOL     OW38251   3.350   0.863   5.425  0.4031 -0.2792  0.4826
 8931SOL    HW138252   3.305   0.947   5.432  0.9227  0.0536 -0.0922
 8931SOL    HW238253   3.332   0.826   5.511  1.2442 -2.9929 -0.4894
 8932SOL     OW38254   3.605   0.654  14.181  0.1940 -0.1423  0.1708
 8932SOL    HW138255   3.681   0.655  14.124  1.5425 -2.1529  1.9828
 8932SOL    HW238256   3.628   0.725  14.241  0.5418  1.2961 -1.6434
 8933SOL     OW38257   4.150   3.811   2.703 -0.6817  0.0989 -0.1101
 8933SOL    HW138258   4.156   3.858   2.619 -0.2435  0.1802 -0.0376
 8933SOL    HW238259   4.169   3.878   2.768 -0.0685  0.5195 -0.7114
 8934SOL     OW38260   0.274   2.315  17.332  0.2561 -0.0237 -0.0489
 8934SOL    HW138261   0.179   2.321  17.343 -0.0585  0.0664 -2.7966
 8934SOL    HW238262   0.275   2.229  17.288 -1.3574  0.0536 -0.2386
 8935SOL     OW38263   2.191   0.766   4.316  0.2297  0.2576  0.6182
 8935SOL    HW138264   2.239   0.725   4.243  1.5569  3.4011 -0.2873
 8935SOL    HW238265   2.266   0.793   4.369 -0.4786  0.7155  1.3728
 8936SOL     OW38266   1.181   3.612   6.093  0.1176 -0.2491  0.3292
 8936SOL    HW138267   1.110   3.552   6.117  0.3793 -0.8744 -0.4464
 8936SOL    HW238268   1.229   3.613   6.176  1.0804  0.1805 -0.2382
 8937SOL     OW38269   4.408   0.530   1.945  0.6277 -0.2803 -0.2383
 8937SOL    HW138270   4.346   0.485   2.002  0.2576 -1.7323 -1.7985
 8937SOL    HW238271   4.485   0.489   1.986  0.6556 -0.1720 -0.1826
 8938SOL     OW38272   3.992   1.824   4.194  0.7207  0.2122 -0.3369
 8938SOL    HW138273   3.998   1.834   4.289 -0.3689  2.4698 -0.4980
 8938SOL    HW238274   3.983   1.731   4.177  0.2710  0.2010 -0.0218
 8939SOL     OW38275   4.584   4.091   5.267  0.4007 -0.7206 -0.4121
 8939SOL    HW138276   4.590   4.092   5.363 -0.6968 -4.4143 -0.3124
 8939SOL    HW238277   4.565   4.184   5.250  1.9005 -0.1660  0.8894
 8940SOL     OW38278   0.095   0.397   2.245  0.1474  0.4480 -0.6548
 8940SOL    HW138279   0.104   0.492   2.256  0.9584  0.2202  0.6524
 8940SOL    HW238280   0.108   0.390   2.150  1.2381 -0.8677 -0.4076
 8941SOL     OW38281   4.475   0.193   1.362  0.2127  0.6378  0.2962
 8941SOL    HW138282   4.472   0.098   1.351  1.3665  0.3999  2.1317
 8941SOL    HW238283   4.522   0.233   1.289 -1.9578  1.6869 -0.5511
 8942SOL     OW38284   0.167   0.497   1.990  0.0343  0.2711  0.0265
 8942SOL    HW138285   0.156   0.590   1.970 -0.0297 -0.1453 -1.8755
 8942SOL    HW238286   0.261   0.482   1.982  0.3461  1.8816  0.5549
 8943SOL     OW38287   4.092   2.707   7.396  0.2404 -0.1741  0.0049
 8943SOL    HW138288   4.039   2.787   7.388  1.7414  0.6018 -2.2908
 8943SOL    HW238289   4.042   2.664   7.465 -2.7590 -0.0805 -2.1386
 8944SOL     OW38290   0.364   3.232  10.165 -0.5159 -0.0160  0.0533
 8944SOL    HW138291   0.294   3.250  10.228 -0.6805 -0.5164  0.0149
 8944SOL    HW238292   0.437   3.217  10.225  0.4910 -0.6120 -1.3440
 8945SOL     OW38293   1.524   1.731   8.768  0.5612 -0.2699 -0.2601
 8945SOL    HW138294   1.505   1.671   8.696 -4.2582  0.6447  0.1998
 8945SOL    HW238295   1.446   1.787   8.776 -0.4870 -1.6075 -1.1861
 8946SOL     OW38296   3.639   3.787   7.372 -0.1366  0.3423  0.6333
 8946SOL    HW138297   3.673   3.874   7.352 -0.7693 -0.1120 -2.4277
 8946SOL    HW238298   3.648   3.779   7.467 -2.4782  0.2865  0.8569
 8947SOL     OW38299   3.649   4.448  12.882  0.2569 -0.9780  0.8260
 8947SOL    HW138300   3.558   4.426  12.863  0.1519 -0.5877  0.8649
 8947SOL    HW238301   3.682   4.362  12.858  0.2273 -0.1607 -2.2166
 8948SOL     OW38302   2.974   0.208   1.672 -0.2468  0.3059 -0.2530
 8948SOL    HW138303   2.987   0.271   1.743 -1.4817  2.5168 -1.9821
 8948SOL    HW238304   2.940   0.130   1.716  2.5803 -1.2039 -0.8003
 8949SOL     OW38305   4.305   0.324   4.583 -0.1610  0.7399 -0.0499
 8949SOL    HW138306   4.354   0.294   4.506 -0.3631  1.8780 -0.6206
 8949SOL    HW238307   4.329   0.416   4.595  0.9662  0.3595  0.6160
 8950SOL     OW38308   3.165   0.395   4.928  0.1356  0.2420 -0.0675
 8950SOL    HW138309   3.100   0.360   4.867 -1.1116  1.2778  0.6713
 8950SOL    HW238310   3.235   0.329   4.930 -0.1663 -0.0628  0.2508
 8951SOL     OW38311   3.400   1.511   5.982  0.2383 -0.2494 -0.4417
 8951SOL    HW138312   3.395   1.433   5.927  1.6691 -0.6014 -0.0880
 8951SOL    HW238313   3.377   1.486   6.071 -0.2454 -1.5788 -0.9423
 8952SOL     OW38314   1.334   3.703   7.395 -0.0136  0.1698 -0.0775
 8952SOL    HW138315   1.382   3.632   7.352  0.8663  1.2938 -0.9480
 8952SOL    HW238316   1.351   3.767   7.325 -0.9668  2.1096  1.4683
 8953SOL     OW38317   1.418   0.243   2.033  0.1747 -0.3964 -0.4512
 8953SOL    HW138318   1.408   0.220   1.941 -0.5302 -0.6772 -0.3059
 8953SOL    HW238319   1.513   0.253   2.033  0.0786  0.4620 -2.0553
 8954SOL     OW38320   0.185   1.141   7.368 -0.3347  0.2502 -0.1560
 8954SOL    HW138321   0.169   1.067   7.308  2.0050 -0.5204  0.1611
 8954SOL    HW238322   0.147   1.104   7.448 -0.8200 -0.0071 -0.5023
 8955SOL     OW38323   3.435   1.782   5.952  0.3071  0.1741  0.7859
 8955SOL    HW138324   3.409   1.691   5.969  0.2022 -0.2953 -1.7587
 8955SOL    HW238325   3.384   1.835   6.013 -1.3758 -0.7109  0.1626
 8956SOL     OW38326   3.616   2.138   7.068  0.0337  1.2511  0.7407
 8956SOL    HW138327   3.642   2.126   6.977  0.2289  1.5783  0.7548
 8956SOL    HW238328   3.610   2.051   7.108  0.2696  0.0176 -1.8901
 8957SOL     OW38329   0.130   3.238   5.608 -0.0451 -0.3440  0.5284
 8957SOL    HW138330   0.063   3.298   5.641 -1.3245 -1.9593  0.8847
 8957SOL    HW238331   0.199   3.303   5.603 -0.1037 -0.4380 -1.5350
 8958SOL     OW38332   3.904   4.172   8.600 -0.1070  0.1696 -0.5477
 8958SOL    HW138333   3.861   4.213   8.675  1.6644  1.1437 -0.0693
 8958SOL    HW238334   3.992   4.166   8.638 -1.0808 -0.6026  1.5861
 8959SOL     OW38335   0.967   4.391   7.225  0.0795 -0.1062  0.3124
 8959SOL    HW138336   1.026   4.464   7.206  0.7541 -1.2081 -1.8755
 8959SOL    HW238337   1.023   4.353   7.293  0.6650  0.8337  0.3511
 8960SOL     OW38338   2.265   4.249   5.482 -0.3179 -0.0666  0.6158
 8960SOL    HW138339   2.342   4.289   5.441  1.3480 -2.2096  1.6932
 8960SOL    HW238340   2.260   4.166   5.436  1.8822 -1.1051  2.2523
 8961SOL     OW38341   2.972   0.026   6.813  0.0277 -0.1083 -0.0794
 8961SOL    HW138342   2.980   0.102   6.754 -0.6737 -1.2270 -1.6321
 8961SOL    HW238343   3.059   4.714   6.809  0.1219  0.1692 -0.8529
 8962SOL     OW38344   4.073   2.292   6.283 -0.2952 -0.0888 -0.4208
 8962SOL    HW138345   4.111   2.204   6.291 -1.3759 -0.6122 -1.1057
 8962SOL    HW238346   4.103   2.306   6.192  0.1188 -1.9223 -0.5704
 8963SOL     OW38347   1.978   4.024   2.889 -0.2737 -0.2169  0.4710
 8963SOL    HW138348   1.984   3.995   2.980  0.1397 -3.0768 -0.4735
 8963SOL    HW238349   1.971   3.941   2.842 -1.1156  1.1030 -1.7502
 8964SOL     OW38350   3.618   2.174  14.852 -0.3423  0.0712 -0.0906
 8964SOL    HW138351   3.654   2.251  14.895 -0.2637 -0.1192  0.1889
 8964SOL    HW238352   3.661   2.185  14.767 -0.0138  0.7478  0.1635
 8965SOL     OW38353   4.220   3.099  13.608  0.5957  0.3667  0.0582
 8965SOL    HW138354   4.261   3.026  13.654  0.9058  1.5616  1.7199
 8965SOL    HW238355   4.290   3.139  13.556 -0.3372  2.1366  0.1378
 8966SOL     OW38356   0.543   3.546   4.373  0.1399 -0.0948  0.5103
 8966SOL    HW138357   0.528   3.496   4.453  1.2689 -0.0922  0.7344
 8966SOL    HW238358   0.484   3.620   4.386  0.6307  0.1937  1.0732
 8967SOL     OW38359   4.723   3.577   1.711  0.5037 -0.1737  0.3746
 8967SOL    HW138360   0.091   3.579   1.701  0.6306  0.1700  1.6787
 8967SOL    HW238361   4.718   3.515   1.783  0.9939 -1.2658 -0.5454
 8968SOL     OW38362   0.852   3.519   8.569  0.2603 -0.1934 -0.8978
 8968SOL    HW138363   0.862   3.533   8.663  1.0061 -1.4810 -0.7759
 8968SOL    HW238364   0.812   3.433   8.557  2.7102 -1.1454 -2.3480
 8969SOL     OW38365   2.705   0.122   3.655  0.2551 -0.0236 -0.5223
 8969SOL    HW138366   2.776   0.152   3.598  2.2488 -1.6953  1.0674
 8969SOL    HW238367   2.636   0.188   3.647 -0.3957 -0.8200 -1.3798
 8970SOL     OW38368   2.696   3.826  15.352  0.6377 -0.0774  0.4343
 8970SOL    HW138369   2.604   3.801  15.350  0.7164 -0.2840 -0.5831
 8970SOL    HW238370   2.715   3.772  15.276  0.6455  3.3529 -1.9802
 8971SOL     OW38371   1.548   0.263   7.186 -0.1440  0.8149 -0.3229
 8971SOL    HW138372   1.474   0.202   7.189 -1.0314  1.7981 -2.5825
 8971SOL    HW238373   1.611   0.220   7.244  0.1565 -0.0988 -1.3378
 8972SOL     OW38374   2.364   4.645   2.484  0.1073  0.0515  0.0325
 8972SOL    HW138375   2.272   4.670   2.474  0.0546 -0.6436 -1.2199
 8972SOL    HW238376   2.395   4.699   2.557  0.0888  2.5391 -1.8024
 8973SOL     OW38377   1.001   1.185   7.715  0.0095  0.0257  0.2404
 8973SOL    HW138378   1.043   1.149   7.637 -1.0273 -0.5217 -0.0682
 8973SOL    HW238379   0.985   1.278   7.700  0.2475  0.0088 -0.1310
 8974SOL     OW38380   1.792   1.228   3.450 -0.1390 -0.5697 -0.2035
 8974SOL    HW138381   1.851   1.294   3.487 -1.0139 -0.0550  0.2928
 8974SOL    HW238382   1.840   1.148   3.468  2.3435  1.6540  3.1954
 8975SOL     OW38383   3.734   0.467   8.638 -0.1242 -0.0421 -0.1629
 8975SOL    HW138384   3.785   0.455   8.558 -0.3648 -1.7935 -0.0708
 8975SOL    HW238385   3.691   0.382   8.648 -0.7999  0.3550  0.2452
 8976SOL     OW38386   4.247   3.824   1.959 -0.8044  0.2057 -0.3951
 8976SOL    HW138387   4.339   3.800   1.971 -1.1688  0.0764  2.0299
 8976SOL    HW238388   4.251   3.919   1.946  2.2299 -0.0313 -1.2562
 8977SOL     OW38389   1.731   3.487   2.116  0.6565  0.1885 -0.0512
 8977SOL    HW138390   1.758   3.578   2.127  0.4734  0.3728 -1.1291
 8977SOL    HW238391   1.679   3.493   2.036  1.2139 -1.1404 -0.5085
 8978SOL     OW38392   0.771   3.248   7.342  0.7524  0.0920  0.5240
 8978SOL    HW138393   0.741   3.273   7.430 -0.3336  1.2920 -0.1874
 8978SOL    HW238394   0.841   3.186   7.364 -0.8034 -1.6304  0.6421
 8979SOL     OW38395   0.893   3.125  16.934  0.1947 -0.0148 -0.2774
 8979SOL    HW138396   0.843   3.124  16.852  0.9796 -0.7383 -0.7455
 8979SOL    HW238397   0.841   3.068  16.990 -0.7971  1.3578  0.2014
 8980SOL     OW38398   3.688   2.680   5.517 -0.2326 -0.1626  0.0530
 8980SOL    HW138399   3.619   2.672   5.583 -0.0529  2.2851  0.5573
 8980SOL    HW238400   3.653   2.754   5.467  0.0552 -0.4309 -0.5462
 8981SOL     OW38401   2.259   2.213   8.709 -0.4104 -0.3490 -0.0325
 8981SOL    HW138402   2.271   2.289   8.766  0.8590  1.3012 -2.4964
 8981SOL    HW238403   2.312   2.235   8.632 -0.2088  1.1318  0.5413
 8982SOL     OW38404   2.528   1.019   3.089 -0.4169  0.0617 -0.0658
 8982SOL    HW138405   2.594   1.065   3.141 -1.2596  0.6780  0.4517
 8982SOL    HW238406   2.451   1.021   3.146 -0.3277 -1.5198  0.1095
 8983SOL     OW38407   0.379   3.607  17.372  0.0340 -0.5975 -0.3633
 8983SOL    HW138408   0.343   3.682  17.325 -0.4456 -0.2361  0.5785
 8983SOL    HW238409   0.405   3.556  17.295 -1.1695 -1.7786  0.0054
 8984SOL     OW38410   0.471   4.532  12.658 -0.0049 -0.0950  0.4126
 8984SOL    HW138411   0.378   4.516  12.640  0.3008 -0.7518 -0.5861
 8984SOL    HW238412   0.481   4.624  12.631 -1.3185 -0.4557 -1.2988
 8985SOL     OW38413   3.500   3.646  14.299 -0.3995 -0.8768  0.1046
 8985SOL    HW138414   3.413   3.677  14.274  0.2627  1.2898  0.4982
 8985SOL    HW238415   3.557   3.689  14.236  1.4359  0.0697  2.4170
 8986SOL     OW38416   3.518   0.558   8.950  0.1193 -0.3060 -0.3712
 8986SOL    HW138417   3.584   0.587   9.013  0.7471 -0.3401 -1.0139
 8986SOL    HW238418   3.539   0.614   8.876  0.4026 -0.8297 -0.6857
 8987SOL     OW38419   4.259   1.982  14.981 -0.0344  0.1631  0.4105
 8987SOL    HW138420   4.346   1.952  14.956 -0.3614 -0.4280 -0.0355
 8987SOL    HW238421   4.264   1.969  15.076 -0.9585  0.7284  0.5378
 8988SOL     OW38422   2.494   3.783   5.415 -0.0251 -0.1902 -0.1556
 8988SOL    HW138423   2.514   3.735   5.335 -1.8099 -0.0777 -0.6826
 8988SOL    HW238424   2.498   3.872   5.381 -1.0929  0.2259  0.7682
 8989SOL     OW38425   2.866   3.307  11.552  0.0690 -0.2231  0.9763
 8989SOL    HW138426   2.857   3.240  11.619  0.2913  0.3100  1.5494
 8989SOL    HW238427   2.808   3.375  11.588  1.1699  2.1020 -1.6041
 8990SOL     OW38428   1.136   1.382   8.398 -0.7848 -1.1794 -1.1255
 8990SOL    HW138429   1.132   1.392   8.494 -0.4211  0.1066 -1.2374
 8990SOL    HW238430   1.200   1.311   8.405  0.8549  0.5653  1.7248
 8991SOL     OW38431   4.122   3.478  14.532  0.4399 -0.0314  0.0297
 8991SOL    HW138432   4.181   3.519  14.595 -1.4625  0.7475  1.3177
 8991SOL    HW238433   4.169   3.399  14.505 -2.2501 -1.3986 -0.6349
 8992SOL     OW38434   1.864   0.879   8.497  0.3165 -0.8147  0.0335
 8992SOL    HW138435   1.931   0.839   8.441  1.7533  1.7387 -0.0353
 8992SOL    HW238436   1.891   0.837   8.579 -0.6167  0.5144  1.0094
 8993SOL     OW38437   0.715   3.055  11.192  0.0134  0.1985 -0.2952
 8993SOL    HW138438   0.692   3.140  11.230 -2.1711  0.3166 -1.8601
 8993SOL    HW238439   0.670   3.049  11.108 -1.0544 -0.2231  0.3034
 8994SOL     OW38440   1.417   4.277   2.021 -0.0663 -0.3693 -0.4636
 8994SOL    HW138441   1.436   4.339   1.951 -0.6626  0.1815 -0.1310
 8994SOL    HW238442   1.322   4.276   2.032  0.0416  2.2368  0.6581
 8995SOL     OW38443   3.862   0.415   3.818 -0.0007  0.3872  0.4012
 8995SOL    HW138444   3.800   0.358   3.864 -0.0985 -0.1032 -0.3345
 8995SOL    HW238445   3.938   0.406   3.875  0.1226  0.2881  0.2199
 8996SOL     OW38446   0.186   1.624   5.727  0.2240 -0.2212  0.3613
 8996SOL    HW138447   0.122   1.695   5.731  1.8526  1.1694  1.9221
 8996SOL    HW238448   0.210   1.633   5.635 -0.2636  0.0526  0.2602
 8997SOL     OW38449   3.748   4.097   9.604 -0.7928 -0.2921 -0.2357
 8997SOL    HW138450   3.722   4.044   9.680 -2.4281  1.6364  0.5368
 8997SOL    HW238451   3.729   4.027   9.541 -0.1354  0.1534 -0.9089
 8998SOL     OW38452   2.936   1.435   7.279  0.7904  0.4252 -0.8081
 8998SOL    HW138453   3.000   1.383   7.230  1.3551 -0.7879  1.2199
 8998SOL    HW238454   2.938   1.519   7.232  1.7299 -0.0397 -1.6002
 8999SOL     OW38455   3.012   4.592  12.217  0.3254 -0.3892 -0.5799
 8999SOL    HW138456   2.929   4.597  12.264 -0.2228  0.6967 -1.6625
 8999SOL    HW238457   3.058   4.554  12.291 -1.6865 -0.1090  0.8121
 9000SOL     OW38458   4.619   3.230  12.175 -0.2936 -0.0907  0.3347
 9000SOL    HW138459   4.597   3.259  12.086  1.3287  0.8863  0.2380
 9000SOL    HW238460   4.587   3.140  12.173 -0.9399  0.1730 -1.1889
 9001SOL     OW38461   1.167   4.397  10.901  0.1846 -0.8872  0.0001
 9001SOL    HW138462   1.114   4.456  10.954 -1.0729 -2.3098  0.2907
 9001SOL    HW238463   1.129   4.311  10.915  0.2568 -0.9318 -0.0782
 9002SOL     OW38464   3.461   3.084  15.340  0.0892 -0.7440  0.0258
 9002SOL    HW138465   3.451   3.179  15.339  1.0063 -0.6382  0.8609
 9002SOL    HW238466   3.374   3.059  15.371 -0.0657 -0.3248 -0.0784
 9003SOL     OW38467   2.462   3.508  12.232 -0.1725  0.0319 -0.3524
 9003SOL    HW138468   2.367   3.497  12.227 -0.0594 -0.8024 -0.6726
 9003SOL    HW238469   2.478   3.545  12.145  0.3487  1.1877  0.2213
 9004SOL     OW38470   2.584   3.765  14.191  0.5830  0.3979  0.6879
 9004SOL    HW138471   2.600   3.762  14.285  4.3289  0.9916  0.1011
 9004SOL    HW238472   2.653   3.826  14.165  0.3951  0.4925  0.4189
 9005SOL     OW38473   2.528   2.832  17.615 -0.0051 -0.4510  0.1809
 9005SOL    HW138474   2.503   2.895  17.548  1.6972 -0.4917 -0.4965
 9005SOL    HW238475   2.613   2.796  17.590  0.3495 -0.7375  1.7955
 9006SOL     OW38476   4.638   0.115   8.490  0.0874  0.1266  0.9596
 9006SOL    HW138477   4.629   0.138   8.583  0.0595  0.3114  0.9102
 9006SOL    HW238478   4.665   0.023   8.486  0.4605  0.1853  2.0932
 9007SOL     OW38479   1.191   4.632   6.172  0.2263 -0.2169  0.3039
 9007SOL    HW138480   1.246   4.616   6.249 -0.7375  2.0639  1.4675
 9007SOL    HW238481   1.159   4.720   6.192  0.7262 -0.1137  0.6363
 9008SOL     OW38482   1.254   0.874   7.669  0.1918  0.3298 -0.6328
 9008SOL    HW138483   1.248   0.780   7.657 -0.0903  0.8519 -4.5063
 9008SOL    HW238484   1.249   0.879   7.764 -0.2388 -0.1594 -0.6324
 9009SOL     OW38485   2.848   4.577   6.981  0.2463 -0.2801 -0.0511
 9009SOL    HW138486   2.875   4.647   6.923  0.0720  0.0516  0.2665
 9009SOL    HW238487   2.878   4.505   6.925 -2.7856 -0.1933 -1.7672
 9010SOL     OW38488   0.402   1.882  15.018  0.0980  0.0787 -0.0154
 9010SOL    HW138489   0.490   1.850  14.996  0.3024  1.1067 -0.7443
 9010SOL    HW238490   0.423   1.974  14.999 -3.6731  1.0227  0.4687
 9011SOL     OW38491   0.720   1.498  10.611  0.4501  0.0856  0.5887
 9011SOL    HW138492   0.691   1.408  10.594 -0.8793  1.0525 -2.1731
 9011SOL    HW238493   0.814   1.488  10.620  0.1924 -3.3295 -0.5321
 9012SOL     OW38494   3.564   0.688  10.350  0.4594  0.1406 -0.7906
 9012SOL    HW138495   3.553   0.771  10.305 -2.0322  0.6917  0.8541
 9012SOL    HW238496   3.578   0.724  10.437  0.7666  2.5190 -1.8338
 9013SOL     OW38497   2.259   1.268   3.682  1.1936  0.3632  0.2524
 9013SOL    HW138498   2.265   1.338   3.748  0.4293  0.9759 -0.3172
 9013SOL    HW238499   2.338   1.222   3.708 -0.3688 -1.8858  1.0409
 9014SOL     OW38500   2.000   1.949   6.382 -0.2977 -0.2702  0.4771
 9014SOL    HW138501   1.979   2.009   6.310 -0.6437 -1.1432 -0.1477
 9014SOL    HW238502   2.015   2.003   6.460  0.0275  0.1186  0.1424
 9015SOL     OW38503   0.542   3.690   1.028 -0.6351 -0.7596  0.0750
 9015SOL    HW138504   0.490   3.610   1.021  1.4044 -1.8544 -2.4699
 9015SOL    HW238505   0.626   3.668   1.068  0.0704 -0.5511 -1.2907
 9016SOL     OW38506   1.958   0.446   0.623 -0.3720 -0.5005  0.3924
 9016SOL    HW138507   1.979   0.401   0.704  2.5216  0.1884  0.0275
 9016SOL    HW238508   1.957   0.373   0.561  2.3595 -1.6860  1.7310
 9017SOL     OW38509   3.463   1.993   8.494  0.6097  0.0698  0.3459
 9017SOL    HW138510   3.556   1.973   8.487  0.1216 -1.5548 -1.6346
 9017SOL    HW238511   3.450   2.027   8.405 -1.4930 -1.0167  0.2335
 9018SOL     OW38512   1.853   3.053   9.461  0.0473 -0.1951  0.2342
 9018SOL    HW138513   1.816   3.109   9.528  0.0305  1.1827 -0.9254
 9018SOL    HW238514   1.832   3.095   9.378 -0.2673 -0.5490  0.1335
 9019SOL     OW38515   3.451   2.496   5.748 -0.1365 -0.1956  0.0554
 9019SOL    HW138516   3.479   2.582   5.778 -0.4321  0.2835 -1.0696
 9019SOL    HW238517   3.529   2.447   5.774  0.7409 -0.8089 -3.7842
 9020SOL     OW38518   4.444   3.522   7.449 -0.0478  0.0281  0.1011
 9020SOL    HW138519   4.390   3.600   7.440 -2.4196 -1.3925  2.1971
 9020SOL    HW238520   4.443   3.491   7.358 -3.5214 -0.2474  0.2329
 9021SOL     OW38521   0.151   1.546   7.725 -0.3495  0.0856 -0.3029
 9021SOL    HW138522   0.205   1.540   7.804  1.4656  2.4943 -1.3323
 9021SOL    HW238523   0.065   1.538   7.764  0.3618  0.7818  1.3996
 9022SOL     OW38524   0.297   4.515   2.551 -0.3287  0.0309 -0.2961
 9022SOL    HW138525   0.367   4.488   2.610 -0.1240  1.1167 -0.0471
 9022SOL    HW238526   0.326   4.467   2.473 -0.7423 -0.7455  0.0247
 9023SOL     OW38527   2.878   3.091   5.130  0.2641 -0.2606 -0.0316
 9023SOL    HW138528   2.811   3.136   5.181  1.5294  1.0953  0.4302
 9023SOL    HW238529   2.917   3.163   5.081 -2.3237  1.4822  0.4851
 9024SOL     OW38530   2.971   0.081   7.814 -0.0326  0.9435  0.6533
 9024SOL    HW138531   2.946   0.054   7.903 -0.8156 -0.0719  0.1161
 9024SOL    HW238532   2.936   0.007   7.765 -0.2382  0.6112  1.2997
 9025SOL     OW38533   0.227   2.802   4.872  0.3999  0.1915  0.6205
 9025SOL    HW138534   0.159   2.743   4.904 -0.7120  1.0658 -0.1618
 9025SOL    HW238535   0.304   2.746   4.881  0.2221 -0.2936 -0.8862
 9026SOL     OW38536   1.115   0.304   7.673  0.2622  0.0740 -0.0126
 9026SOL    HW138537   1.129   0.270   7.762  0.9312  1.0868  0.2733
 9026SOL    HW238538   1.039   0.359   7.691 -1.2383 -0.8708 -3.6185
 9027SOL     OW38539   4.072   2.050   1.316 -0.6859 -0.3869  0.1513
 9027SOL    HW138540   4.069   2.091   1.403  0.4322  1.2536 -0.5625
 9027SOL    HW238541   4.115   1.968   1.340 -1.0049 -1.1052 -1.7498
 9028SOL     OW38542   3.725   1.852   0.458  0.1701 -0.2266 -0.7450
 9028SOL    HW138543   3.792   1.821   0.397 -0.0525  2.3254 -2.2504
 9028SOL    HW238544   3.770   1.925   0.500 -1.4211 -0.2666  1.0248
 9029SOL     OW38545   3.795   4.213   2.251  0.3210  0.2995 -0.3717
 9029SOL    HW138546   3.845   4.263   2.187 -0.9648  1.4218 -0.4879
 9029SOL    HW238547   3.717   4.197   2.198  0.6498  1.0509 -1.0814
 9030SOL     OW38548   1.216   2.017  16.241  0.1985  0.7381 -0.8541
 9030SOL    HW138549   1.278   1.965  16.292  1.2176  0.0476 -2.7619
 9030SOL    HW238550   1.193   1.962  16.165 -0.4802  0.3709 -0.3853
 9031SOL     OW38551   0.831   4.335   2.341 -0.1121 -1.0111 -0.3104
 9031SOL    HW138552   0.754   4.281   2.355 -0.0246 -1.1604 -0.4023
 9031SOL    HW238553   0.888   4.258   2.346  0.2656 -0.6754  0.5012
 9032SOL     OW38554   4.004   3.961  15.297  0.0041 -0.1702 -0.3492
 9032SOL    HW138555   3.959   3.878  15.311  0.1775 -0.0884  0.7004
 9032SOL    HW238556   3.963   4.017  15.363 -1.4513 -0.0142 -1.4014
 9033SOL     OW38557   1.367   0.789   1.768  0.5512 -0.6672  0.3775
 9033SOL    HW138558   1.298   0.853   1.783  2.1278  1.4485 -1.4535
 9033SOL    HW238559   1.375   0.760   1.859 -0.3484  1.4428  1.1334
 9034SOL     OW38560   3.458   4.310   0.559 -0.5152  0.2669  0.3331
 9034SOL    HW138561   3.388   4.342   0.615 -0.2395 -0.0068  0.8290
 9034SOL    HW238562   3.434   4.343   0.472  2.7277  0.0546 -0.6603
 9035SOL     OW38563   0.165   0.912  17.626  0.1448  0.0049  0.2228
 9035SOL    HW138564   0.096   0.863  17.671  0.1833  0.6243  0.9563
 9035SOL    HW238565   0.157   0.882  17.535 -1.1179  1.1106 -0.0387
 9036SOL     OW38566   3.350   2.597  11.907 -0.1171  0.0974 -0.4303
 9036SOL    HW138567   3.323   2.537  11.838 -0.1910 -0.7105  0.3034
 9036SOL    HW238568   3.334   2.687  11.878 -0.4723 -0.2244 -1.2240
 9037SOL     OW38569   3.879   2.061  15.914  0.9817  0.2915  0.2550
 9037SOL    HW138570   3.948   2.047  15.849 -0.5988 -0.6670 -1.2203
 9037SOL    HW238571   3.924   2.052  15.998  2.6457  0.0661 -0.6729
 9038SOL     OW38572   3.126   1.632   3.987 -0.0988 -0.0122 -0.1831
 9038SOL    HW138573   3.189   1.673   4.046  0.3804  1.1501 -1.5008
 9038SOL    HW238574   3.175   1.641   3.905 -0.4927  1.3849 -0.2548
 9039SOL     OW38575   4.597   3.018   6.093 -0.0064  0.3817 -0.2803
 9039SOL    HW138576   4.522   3.077   6.088  0.8850  1.4884 -0.6244
 9039SOL    HW238577   4.661   3.072   6.139 -0.1108  0.8019 -0.6234
 9040SOL     OW38578   1.013   4.000   2.915  0.0339  0.1505 -0.3464
 9040SOL    HW138579   1.079   3.953   2.967 -0.4968  0.9865  1.0683
 9040SOL    HW238580   1.015   4.082   2.964 -1.6039  0.2584 -0.4712
 9041SOL     OW38581   0.379   0.997   0.340  0.0492 -0.0493 -0.1903
 9041SOL    HW138582   0.459   1.043   0.366 -1.0545  1.1205  1.1383
 9041SOL    HW238583   0.399   0.906   0.363 -2.2271 -0.8398 -1.3537
 9042SOL     OW38584   4.609   1.958   6.085 -1.1374  0.1680  0.1719
 9042SOL    HW138585   4.657   1.976   6.166 -4.0356 -1.1157  2.1848
 9042SOL    HW238586   4.665   1.884   6.060  1.1488  2.4612 -1.4811
 9043SOL     OW38587   2.896   1.669  16.101 -0.0907 -0.2671  0.4319
 9043SOL    HW138588   2.924   1.743  16.047  0.8757 -1.7376 -1.0921
 9043SOL    HW238589   2.804   1.680  16.078 -0.1121 -2.4358 -0.5246
 9044SOL     OW38590   4.446   0.403   2.708 -0.4336  0.1072  0.4405
 9044SOL    HW138591   4.455   0.486   2.662 -1.8144  1.5649  2.7717
 9044SOL    HW238592   4.488   0.338   2.652 -0.7004  0.3959 -0.0831
 9045SOL     OW38593   1.513   2.312   9.488  0.4210  0.0318  0.5958
 9045SOL    HW138594   1.575   2.295   9.559  0.1978  0.1326  0.8164
 9045SOL    HW238595   1.506   2.222   9.456 -1.7179 -0.2013  1.6939
 9046SOL     OW38596   3.854   2.706   3.592 -0.5374 -0.4211  0.4912
 9046SOL    HW138597   3.947   2.694   3.610 -0.5678 -0.6309  0.5094
 9046SOL    HW238598   3.830   2.636   3.532 -0.0938  1.6025 -2.0742
 9047SOL     OW38599   3.360   1.778   7.272 -0.2768  0.2346 -0.4250
 9047SOL    HW138600   3.384   1.721   7.345 -1.7691  0.5172  0.2980
 9047SOL    HW238601   3.311   1.847   7.318  0.3064 -0.0950  0.6999
 9048SOL     OW38602   0.051   3.284  13.170 -0.0413  0.3566 -0.7440
 9048SOL    HW138603   0.143   3.282  13.197 -0.5972 -0.9750  1.0611
 9048SOL    HW238604   0.015   3.285  13.258  1.3044  3.1625 -0.2305
 9049SOL     OW38605   2.202   4.421  15.587  0.1089  0.0112  0.4519
 9049SOL    HW138606   2.284   4.460  15.616 -1.4760  2.4101  1.7199
 9049SOL    HW238607   2.162   4.508  15.574 -0.5586 -0.2947  0.4363
 9050SOL     OW38608   2.971   3.372   0.237 -0.2509  0.2804 -0.0887
 9050SOL    HW138609   2.923   3.346   0.159 -3.3852 -0.7008  2.1798
 9050SOL    HW238610   3.032   3.440   0.204 -1.6687  1.9301  0.6981
 9051SOL     OW38611   1.267   4.258   4.422  0.3315  0.1472  0.1850
 9051SOL    HW138612   1.294   4.334   4.370  0.3644  0.2801  0.3929
 9051SOL    HW238613   1.278   4.294   4.510 -1.0498 -0.1980  0.4906
 9052SOL     OW38614   1.867   3.171   6.121 -0.3280  0.4397  0.1407
 9052SOL    HW138615   1.962   3.154   6.124 -0.6839 -1.4257  0.5364
 9052SOL    HW238616   1.843   3.124   6.041  0.4398 -0.8245  0.6507
 9053SOL     OW38617   2.072   0.768   8.343  0.3373  0.0255  0.2933
 9053SOL    HW138618   2.116   0.683   8.345  3.4855  1.6288 -0.6097
 9053SOL    HW238619   2.082   0.790   8.250 -2.4320  0.6058  0.1332
 9054SOL     OW38620   1.503   2.006   7.866 -0.1659 -0.1432 -0.0720
 9054SOL    HW138621   1.533   1.916   7.857  1.3638  0.4939 -1.3807
 9054SOL    HW238622   1.429   2.004   7.805  0.3543  0.6318 -0.7263
 9055SOL     OW38623   4.591   2.400  16.410  0.8184 -0.2676  0.0051
 9055SOL    HW138624   4.624   2.478  16.366 -2.3214  0.5925 -0.8331
 9055SOL    HW238625   4.642   2.398  16.491 -0.9884 -1.3805  1.1277
 9056SOL     OW38626   0.541   2.698   1.167 -0.0073 -0.3493  0.4341
 9056SOL    HW138627   0.574   2.617   1.127 -1.7587 -0.6434 -0.4234
 9056SOL    HW238628   0.451   2.666   1.159 -0.2083  0.6956 -1.7395
 9057SOL     OW38629   1.793   0.317   3.405 -0.5737 -0.2244  0.3841
 9057SOL    HW138630   1.842   0.292   3.484  0.1375  2.4436  0.7742
 9057SOL    HW238631   1.758   0.230   3.388 -1.2318 -0.2617  1.8683
 9058SOL     OW38632   2.426   4.363   2.458  0.0762 -0.2889 -0.2410
 9058SOL    HW138633   2.430   4.340   2.551 -5.2928 -1.7504 -0.3712
 9058SOL    HW238634   2.416   4.458   2.467 -0.2599 -0.2655 -0.8356
 9059SOL     OW38635   1.060   1.276   0.998  0.0884  0.2372 -0.6788
 9059SOL    HW138636   0.985   1.255   1.054  1.6077 -2.1103  0.5374
 9059SOL    HW238637   1.057   1.368   1.021 -0.6872  0.6072 -2.2919
 9060SOL     OW38638   0.976   1.141   2.269  0.1895  0.2425  0.1003
 9060SOL    HW138639   1.002   1.131   2.361  1.2468 -2.0686 -0.4446
 9060SOL    HW238640   1.063   1.131   2.229  0.0718  1.5077 -0.4672
 9061SOL     OW38641   3.152   4.579   6.372  0.0324 -0.2788  0.0462
 9061SOL    HW138642   3.219   4.513   6.355 -0.1132 -1.0951  2.6947
 9061SOL    HW238643   3.129   4.550   6.460  1.0858  1.1494  0.7908
 9062SOL     OW38644   0.949   2.058   5.520  0.0273 -0.2156  0.5955
 9062SOL    HW138645   0.901   1.985   5.482  0.3459  0.4404 -1.0788
 9062SOL    HW238646   0.925   2.124   5.455  0.4899  0.7003  1.3483
 9063SOL     OW38647   0.858   2.723  14.808 -0.0795  0.0509 -0.0265
 9063SOL    HW138648   0.952   2.736  14.797  0.1902 -0.1935  2.1490
 9063SOL    HW238649   0.853   2.641  14.857  0.7035 -0.6803 -1.1742
 9064SOL     OW38650   3.189   3.856   6.626 -0.0669 -0.3077 -0.0433
 9064SOL    HW138651   3.166   3.791   6.693 -1.9796  0.6535  0.2219
 9064SOL    HW238652   3.116   3.915   6.640  0.8126  0.4940  1.1771
 9065SOL     OW38653   2.656   0.445  12.912  0.0529 -0.1453  0.1849
 9065SOL    HW138654   2.662   0.540  12.916 -0.7859 -0.1598  1.9682
 9065SOL    HW238655   2.748   0.421  12.921 -0.2854 -1.5202  0.0506
 9066SOL     OW38656   3.090   2.436  12.000  0.0393  0.0943 -0.1362
 9066SOL    HW138657   3.099   2.406  12.090 -2.1188  1.5191  0.5808
 9066SOL    HW238658   3.166   2.493  11.996 -1.2131  1.7025 -1.0664
 9067SOL     OW38659   4.465   0.631  11.033  0.0941  0.1330 -0.2454
 9067SOL    HW138660   4.551   0.607  11.000 -0.0480 -0.0498 -0.4837
 9067SOL    HW238661   4.488   0.638  11.126 -0.8801 -0.3900  0.0363
 9068SOL     OW38662   1.631   0.299   3.763 -0.1220 -0.5805  0.3385
 9068SOL    HW138663   1.552   0.313   3.816  1.5644 -0.4010  2.7998
 9068SOL    HW238664   1.691   0.265   3.830 -0.2409  0.6532  1.0760
 9069SOL     OW38665   0.785   4.499  13.794 -0.2882 -0.9253  0.5005
 9069SOL    HW138666   0.752   4.497  13.704 -0.2552 -3.0690  0.5453
 9069SOL    HW238667   0.853   4.432  13.794 -1.9907 -2.6106  1.1251
 9070SOL     OW38668   0.764   3.520   6.392  0.1337  0.5060 -0.6427
 9070SOL    HW138669   0.671   3.499   6.381  0.4153 -0.8624 -0.4972
 9070SOL    HW238670   0.793   3.431   6.371  0.8436  0.5543  0.1121
 9071SOL     OW38671   4.069   0.261   4.465  0.2319  0.1767 -0.5255
 9071SOL    HW138672   4.061   0.165   4.467 -0.5297  0.2492 -0.0530
 9071SOL    HW238673   4.152   0.269   4.513  1.0702 -0.9203 -1.7675
 9072SOL     OW38674   2.019   2.409  15.952 -0.8612  0.7955  0.1941
 9072SOL    HW138675   1.943   2.466  15.952 -0.4860  1.2942 -0.3382
 9072SOL    HW238676   2.019   2.397  15.857  1.9759 -1.5421  0.4806
 9073SOL     OW38677   1.113   2.326  16.004  0.5068 -0.0885  0.0595
 9073SOL    HW138678   1.118   2.294  16.094  0.0969  2.8303  1.1154
 9073SOL    HW238679   1.131   2.242  15.961 -0.9109 -0.5353  0.3353
 9074SOL     OW38680   1.743   3.320   4.890 -0.4017 -1.0268 -0.4269
 9074SOL    HW138681   1.794   3.281   4.961 -0.8001 -0.7528  0.0108
 9074SOL    HW238682   1.699   3.242   4.857 -0.1748 -1.6010  0.6559
 9075SOL     OW38683   3.110   0.409  15.879 -0.6279  0.0740  0.3024
 9075SOL    HW138684   3.196   0.449  15.876 -1.0385  1.0609  1.9844
 9075SOL    HW238685   3.138   0.322  15.852 -1.0213  0.1765 -0.4425
 9076SOL     OW38686   0.480   3.763   4.904 -0.0907 -0.2349  0.0998
 9076SOL    HW138687   0.408   3.702   4.890 -1.9498  1.6304  1.4514
 9076SOL    HW238688   0.539   3.709   4.957 -1.4040  1.3081  3.1404
 9077SOL     OW38689   1.315   3.624  12.364 -0.3621  0.1171  0.2803
 9077SOL    HW138690   1.397   3.596  12.405 -2.2324 -1.0802  3.1733
 9077SOL    HW238691   1.298   3.715  12.387 -1.2584  0.0488 -0.1278
 9078SOL     OW38692   0.668   4.298   5.965 -0.2961  0.5128  0.4074
 9078SOL    HW138693   0.724   4.331   6.035 -0.0571  0.9920 -0.0004
 9078SOL    HW238694   0.590   4.266   6.010  0.8736  0.3573  2.3377
 9079SOL     OW38695   3.733   2.975   7.930  0.0049  0.1099 -0.1534
 9079SOL    HW138696   3.742   2.925   7.849 -1.7805 -0.8554  0.2629
 9079SOL    HW238697   3.645   3.010   7.922 -0.3791 -0.9353 -0.4962
 9080SOL     OW38698   1.120   4.179  16.278  0.4030 -0.2420 -0.0704
 9080SOL    HW138699   1.159   4.147  16.359 -0.8765  3.9622  2.2075
 9080SOL    HW238700   1.076   4.257  16.312 -0.4565 -0.3288 -0.9748
 9081SOL     OW38701   1.918   4.604   7.256 -0.2393  0.1529 -0.0039
 9081SOL    HW138702   2.013   4.598   7.271 -0.0471  0.6419 -0.9985
 9081SOL    HW238703   1.881   4.637   7.337 -2.9991  0.4403 -1.3845
 9082SOL     OW38704   3.674   0.096   5.621 -0.0885 -0.5587 -0.1492
 9082SOL    HW138705   3.622   0.079   5.699  0.6472 -0.8242  0.2765
 9082SOL    HW238706   3.641   0.025   5.565  3.0362 -1.6858 -0.5748
 9083SOL     OW38707   1.059   1.022   7.935 -0.4352  0.2302 -0.3264
 9083SOL    HW138708   1.053   1.077   7.857  0.6134  1.4707  0.4712
 9083SOL    HW238709   1.042   1.087   8.003 -0.6752  1.9435 -2.0368
 9084SOL     OW38710   1.087   2.013   1.476 -0.6155 -0.3782 -0.2846
 9084SOL    HW138711   0.998   2.046   1.459 -1.0740 -2.2388 -1.4691
 9084SOL    HW238712   1.103   1.997   1.383 -1.6858 -0.0357 -0.5274
 9085SOL     OW38713   0.093   1.338   6.682  0.2402 -0.3381 -0.3228
 9085SOL    HW138714   0.007   1.297   6.685 -0.3871  0.9593 -0.5497
 9085SOL    HW238715   0.080   1.413   6.741 -2.9776 -0.1970 -1.2508
 9086SOL     OW38716   2.725   4.508   4.918  0.5033 -0.3526 -0.4148
 9086SOL    HW138717   2.720   4.464   4.833  0.3287  0.5970 -0.8947
 9086SOL    HW238718   2.804   4.470   4.956 -0.8453 -2.0488  0.6884
 9087SOL     OW38719   4.300   2.346  17.684 -0.1299 -0.4598 -0.2365
 9087SOL    HW138720   4.358   2.279   0.013  0.5113  0.4208  0.3405
 9087SOL    HW238721   4.350   2.386  17.613 -0.6496 -2.1526 -1.5485
 9088SOL     OW38722   2.643   2.957   7.602  0.0748  0.1726 -0.1187
 9088SOL    HW138723   2.642   2.883   7.541 -0.5933  2.0166 -2.3385
 9088SOL    HW238724   2.608   3.025   7.545  1.3817  0.4348 -0.5925
 9089SOL     OW38725   0.022   0.360   2.800  0.1256 -0.5466 -0.2572
 9089SOL    HW138726   0.112   0.338   2.775 -0.5082 -1.2652 -1.8745
 9089SOL    HW238727   0.026   0.454   2.784  2.3004 -0.6133 -0.0925
 9090SOL     OW38728   2.360   3.888   5.982  0.0125  0.3397 -0.5487
 9090SOL    HW138729   2.317   3.892   6.067 -0.4936  3.0751 -0.9591
 9090SOL    HW238730   2.291   3.900   5.916 -0.1833 -0.2807 -0.4647
 9091SOL     OW38731   0.135   4.248   7.497 -0.2084  0.4088  0.0821
 9091SOL    HW138732   0.218   4.219   7.460  0.5468 -0.1108  2.1950
 9091SOL    HW238733   0.092   4.163   7.503  0.0778  0.1593 -1.4267
 9092SOL     OW38734   3.081   1.511  10.691 -0.7193  0.7188 -0.5632
 9092SOL    HW138735   3.078   1.607  10.691  0.0076  0.7656  1.8904
 9092SOL    HW238736   3.098   1.496  10.784  0.7024  2.2848 -0.5671
 9093SOL     OW38737   3.245   1.460   2.406 -0.4694 -0.2526 -0.2686
 9093SOL    HW138738   3.322   1.419   2.445 -0.9007 -1.2024 -0.4157
 9093SOL    HW238739   3.190   1.386   2.382 -0.4319 -0.4253  0.1860
 9094SOL     OW38740   2.565   0.679   6.154  0.3854  0.1109  0.3522
 9094SOL    HW138741   2.476   0.660   6.184 -0.9351  1.0886 -2.8234
 9094SOL    HW238742   2.537   0.690   6.063 -0.1748  0.0929  0.5204
 9095SOL     OW38743   0.123   0.525   7.250  0.0687 -0.1207  0.2177
 9095SOL    HW138744   0.063   0.597   7.266 -1.1555 -0.9999 -0.4596
 9095SOL    HW238745   0.173   0.552   7.328 -0.1313 -0.5009  0.4794
 9096SOL     OW38746   1.253   2.568  10.327 -0.0726 -0.0268 -0.2804
 9096SOL    HW138747   1.234   2.482  10.290  2.0855 -1.7084  2.4837
 9096SOL    HW238748   1.165   2.606  10.331  0.0470  0.0932  1.2328
 9097SOL     OW38749   0.850   2.748  14.510  0.2834 -0.4347 -0.2309
 9097SOL    HW138750   0.902   2.822  14.541 -0.9253  1.0168 -1.6743
 9097SOL    HW238751   0.826   2.731  14.601  0.2530  1.7671  0.1645
 9098SOL     OW38752   2.663   3.141   5.311 -0.2373  0.0377 -0.1748
 9098SOL    HW138753   2.624   3.064   5.270  0.2459 -0.4129  0.2097
 9098SOL    HW238754   2.601   3.166   5.380  0.6217  0.0781  0.5739
 9099SOL     OW38755   3.592   1.095   5.012 -0.1818 -0.4095  0.1667
 9099SOL    HW138756   3.530   1.026   4.989 -3.3167  3.1200 -1.9825
 9099SOL    HW238757   3.562   1.137   5.092  2.5160  1.8003  0.0457
 9100SOL     OW38758   0.510   3.078   8.625 -0.0295 -0.5394 -0.4584
 9100SOL    HW138759   0.549   3.103   8.541  1.9360  1.3391  1.0207
 9100SOL    HW238760   0.448   3.007   8.609 -1.8934  1.1935 -0.9010
 9101SOL     OW38761   2.207   3.913   8.278  0.3003 -0.0842 -0.5962
 9101SOL    HW138762   2.147   3.890   8.348  0.9888 -2.5618 -0.8310
 9101SOL    HW238763   2.159   3.974   8.222 -2.9101 -2.8388 -0.8456
 9102SOL     OW38764   4.026   3.074  11.464 -0.0943 -0.5553  0.4398
 9102SOL    HW138765   3.982   3.015  11.403  1.3387  0.0543 -1.1987
 9102SOL    HW238766   4.061   3.017  11.532 -0.1881 -1.1278  0.0087
 9103SOL     OW38767   0.653   0.468   4.235  0.2754  0.1412  0.3215
 9103SOL    HW138768   0.696   0.537   4.287 -0.0651  0.4207  0.2298
 9103SOL    HW238769   0.600   0.512   4.168  0.6826 -0.9238 -0.7083
 9104SOL     OW38770   3.127   1.987  15.332 -0.0347  0.2765 -0.1176
 9104SOL    HW138771   3.159   1.985  15.242 -0.3614  1.4398 -0.2659
 9104SOL    HW238772   3.134   2.081  15.350  0.1823  0.5661 -1.6534
 9105SOL     OW38773   2.447   3.085   4.717 -0.1003  0.2913  0.1218
 9105SOL    HW138774   2.354   3.081   4.695 -0.0673  0.1804  0.0026
 9105SOL    HW238775   2.480   3.000   4.688 -0.7200 -0.2978  1.1417
 9106SOL     OW38776   4.112   1.871   3.958  0.2417  0.1804  0.7110
 9106SOL    HW138777   4.061   1.845   4.034  2.1623 -3.5809  0.6782
 9106SOL    HW238778   4.131   1.784   3.923 -1.5250  0.2438 -0.4257
 9107SOL     OW38779   3.633   4.100   6.011 -0.1746 -0.3630  0.5485
 9107SOL    HW138780   3.607   4.192   6.019  1.4335  0.0183  1.4844
 9107SOL    HW238781   3.720   4.112   5.972 -0.1387  0.3512  0.8455
 9108SOL     OW38782   3.732   3.976  16.526  0.1040  0.4312 -0.1186
 9108SOL    HW138783   3.647   3.936  16.544  0.3034 -0.8017 -2.0143
 9108SOL    HW238784   3.784   3.896  16.521  1.0553  0.9002  2.1440
 9109SOL     OW38785   4.317   0.028   0.275  0.2202  0.3348 -0.1765
 9109SOL    HW138786   4.252   0.069   0.218 -0.3075  0.5764  0.6119
 9109SOL    HW238787   4.398   0.055   0.230 -0.7419 -0.0461 -2.1542
 9110SOL     OW38788   3.163   1.646  10.085  0.3001 -0.1861  0.1751
 9110SOL    HW138789   3.125   1.681  10.005  0.5518 -0.3696 -0.0234
 9110SOL    HW238790   3.108   1.705  10.137 -0.1714 -1.7360  1.4395
 9111SOL     OW38791   1.775   4.433   6.440  0.2140  0.1593  0.0193
 9111SOL    HW138792   1.759   4.365   6.375  0.4224 -0.2875  0.4370
 9111SOL    HW238793   1.870   4.425   6.450  0.2364 -1.7021 -1.8457
 9112SOL     OW38794   2.186   2.883  10.168  0.3240 -0.3279  0.4171
 9112SOL    HW138795   2.124   2.904  10.097  1.0027 -0.8177 -0.3230
 9112SOL    HW238796   2.136   2.819  10.218  0.0010 -0.7620 -0.4514
 9113SOL     OW38797   0.599   3.467   3.757  0.0778 -0.1462  0.0907
 9113SOL    HW138798   0.598   3.444   3.664  1.4411 -0.9132  0.2545
 9113SOL    HW238799   0.550   3.549   3.749  2.2003  0.7482 -3.5834
 9114SOL     OW38800   0.802   2.822   5.348  0.0990 -0.0441 -0.0047
 9114SOL    HW138801   0.867   2.886   5.376  1.0115 -1.1485  0.4035
 9114SOL    HW238802   0.756   2.811   5.431 -0.6927 -0.3936 -0.4883
 9115SOL     OW38803   1.108   3.103   4.014 -0.0598 -0.4765  0.2240
 9115SOL    HW138804   1.101   3.017   3.972  2.7274 -0.7407  0.2780
 9115SOL    HW238805   1.052   3.154   3.956 -0.1914  1.0984  1.7536
 9116SOL     OW38806   1.626   2.132  12.099 -0.0433  0.1141 -0.1865
 9116SOL    HW138807   1.626   2.183  12.018  1.0010 -0.3639 -0.4865
 9116SOL    HW238808   1.534   2.150  12.120  0.0741  1.2497 -0.6626
 9117SOL     OW38809   1.293   2.925   3.403  0.0707  0.4880  0.0434
 9117SOL    HW138810   1.349   2.883   3.468  1.0944  0.0209 -1.1656
 9117SOL    HW238811   1.265   2.851   3.349  0.6048 -0.8749  1.6207
 9118SOL     OW38812   4.196   3.486  17.639 -0.5206  0.4413  0.5324
 9118SOL    HW138813   4.230   3.569  17.605 -0.2494  0.2524  0.3445
 9118SOL    HW238814   4.198   3.441  17.555  1.8952  1.4108  0.0442
 9119SOL     OW38815   4.263   3.443   2.494  0.5700 -0.1234 -0.2809
 9119SOL    HW138816   4.212   3.522   2.476 -1.8540 -1.2590  1.4676
 9119SOL    HW238817   4.198   3.389   2.540  1.0917  0.7762  1.5102
 9120SOL     OW38818   4.106   1.359   9.866  0.1609  0.0674  0.5139
 9120SOL    HW138819   4.064   1.409   9.936 -1.7770  1.7860 -1.8984
 9120SOL    HW238820   4.043   1.286   9.860  1.1264 -0.7039 -0.3364
 9121SOL     OW38821   0.010   1.352  11.861  0.0661 -0.0705 -0.1680
 9121SOL    HW138822   0.068   1.297  11.809 -1.6917 -2.4675  0.3932
 9121SOL    HW238823   0.068   1.423  11.887 -0.6738  0.0257  1.2373
 9122SOL     OW38824   1.821   3.735   4.247  0.4575 -0.6600 -0.0762
 9122SOL    HW138825   1.896   3.791   4.229 -0.3336  0.2483 -0.5853
 9122SOL    HW238826   1.823   3.687   4.164  0.4047 -0.6689 -0.0726
 9123SOL     OW38827   4.283   4.101   4.565 -0.5594 -0.1661 -0.5194
 9123SOL    HW138828   4.238   4.184   4.550 -0.0933 -0.0218 -1.1239
 9123SOL    HW238829   4.373   4.126   4.588 -1.3988  2.5163 -0.1675
 9124SOL     OW38830   2.148   3.100   6.763 -0.5479  0.0137 -0.0803
 9124SOL    HW138831   2.057   3.074   6.750 -0.9123  1.3056 -0.1428
 9124SOL    HW238832   2.142   3.193   6.739 -1.8954  0.3476  1.5447
 9125SOL     OW38833   2.861   4.612   5.286 -0.3888 -0.1935 -0.0430
 9125SOL    HW138834   2.939   4.563   5.260  0.8125  1.0866  1.1379
 9125SOL    HW238835   2.804   4.536   5.297  1.1811 -1.1467  1.4434
 9126SOL     OW38836   0.870   1.289   3.255  0.2221 -0.0436  0.3684
 9126SOL    HW138837   0.812   1.356   3.291 -0.2713 -1.4824  2.2485
 9126SOL    HW238838   0.896   1.307   3.164 -3.0915 -0.2181 -0.6340
 9127SOL     OW38839   2.507   4.665   2.262  0.3281 -0.3043  0.0844
 9127SOL    HW138840   2.552   4.581   2.252 -2.0985 -1.5482 -0.2113
 9127SOL    HW238841   2.466   4.648   2.346 -1.1972 -0.3917 -0.6693
 9128SOL     OW38842   1.254   0.758   9.993 -0.4854  0.3460 -0.5279
 9128SOL    HW138843   1.164   0.752  10.025 -1.2022  1.1856 -2.3931
 9128SOL    HW238844   1.272   0.664   9.992  0.4693  0.5456 -2.2029
 9129SOL     OW38845   3.476   3.146   5.132  0.1802  0.5572  0.4014
 9129SOL    HW138846   3.434   3.076   5.083 -0.6090 -0.5800  2.7659
 9129SOL    HW238847   3.414   3.174   5.199 -2.4833 -2.6514 -0.7676
 9130SOL     OW38848   3.462   2.062  11.796 -0.1487 -0.2059  0.7915
 9130SOL    HW138849   3.505   2.089  11.715 -1.2556 -3.8217 -0.9649
 9130SOL    HW238850   3.528   2.000  11.828  0.9734  0.1545 -0.8312
 9131SOL     OW38851   2.167   2.874   1.228  0.4372  0.0530  0.7089
 9131SOL    HW138852   2.155   2.885   1.322  0.8607 -0.5391  0.8370
 9131SOL    HW238853   2.217   2.946   1.189 -1.3076  0.7173 -0.2843
 9132SOL     OW38854   0.192   1.121   4.701 -0.5627 -0.6855  0.0737
 9132SOL    HW138855   0.282   1.095   4.683  0.7807  3.0155  1.2757
 9132SOL    HW238856   0.210   1.213   4.721  1.1909 -0.9304 -0.4608
 9133SOL     OW38857   2.092   4.590   4.989 -0.1153  0.0850 -0.4730
 9133SOL    HW138858   2.073   4.519   4.927  2.0492 -0.9960  0.1151
 9133SOL    HW238859   2.073   4.553   5.075  3.0463  0.6716  0.4661
 9134SOL     OW38860   3.816   3.944   5.576 -0.0335  0.2493 -0.3071
 9134SOL    HW138861   3.857   3.915   5.495 -0.3473 -1.1318  0.0247
 9134SOL    HW238862   3.869   4.022   5.592 -1.4244  1.1919 -0.2751
 9135SOL     OW38863   2.203   2.179   4.038 -0.0766 -0.4780  0.0181
 9135SOL    HW138864   2.179   2.136   3.956  2.1153 -0.8251 -0.4426
 9135SOL    HW238865   2.256   2.109   4.079 -0.8818 -0.8738  0.3932
 9136SOL     OW38866   4.240   4.376   1.967 -0.4279 -0.0236  0.6568
 9136SOL    HW138867   4.189   4.406   2.042 -0.7430  3.7781 -1.0533
 9136SOL    HW238868   4.192   4.418   1.896 -2.5160 -0.0186  2.0867
 9137SOL     OW38869   1.698   1.332  17.627  0.3707  0.1323 -0.2799
 9137SOL    HW138870   1.787   1.330  17.591  0.1220  1.1457 -0.9376
 9137SOL    HW238871   1.658   1.347  17.541  1.6801 -0.8073 -1.0728
 9138SOL     OW38872   3.561   3.196  17.366 -0.4096  0.6544  0.8939
 9138SOL    HW138873   3.558   3.141  17.444  1.7856  2.5631  2.3356
 9138SOL    HW238874   3.516   3.271  17.405 -1.2362  1.4824 -1.6388
 9139SOL     OW38875   2.417   2.509  16.411 -0.0939 -0.6329 -0.4704
 9139SOL    HW138876   2.383   2.595  16.436 -0.4649 -0.3185 -2.0761
 9139SOL    HW238877   2.413   2.506  16.315 -1.3706 -0.4694 -0.4191
 9140SOL     OW38878   0.978   2.330   7.561 -0.4834 -0.0146 -0.0126
 9140SOL    HW138879   0.990   2.243   7.522 -0.2566  1.3311 -2.9196
 9140SOL    HW238880   1.046   2.328   7.629 -1.1880 -0.0321  0.6938
 9141SOL     OW38881   3.706   4.004   1.883 -0.4418 -0.1953 -0.1024
 9141SOL    HW138882   3.798   4.020   1.864  0.0296 -2.7225  0.0344
 9141SOL    HW238883   3.710   3.926   1.938 -0.9683 -0.2555 -0.1525
 9142SOL     OW38884   4.118   1.791  16.850  0.6701 -0.3222 -0.4381
 9142SOL    HW138885   4.169   1.795  16.931  0.1290  0.6478 -0.1512
 9142SOL    HW238886   4.032   1.765  16.881 -0.0121 -2.4051 -4.0662
 9143SOL     OW38887   4.341   1.514   8.188 -0.2751  0.1889  0.2256
 9143SOL    HW138888   4.250   1.537   8.208  0.8513  3.1025  1.9998
 9143SOL    HW238889   4.366   1.462   8.264 -1.3520 -1.9827 -0.8886
 9144SOL     OW38890   2.908   0.154  16.577  0.0767 -0.2377 -0.7584
 9144SOL    HW138891   2.861   0.201  16.646 -0.2258 -0.6081 -0.7105
 9144SOL    HW238892   2.995   0.194  16.582  0.4188 -0.9058 -1.3923
 9145SOL     OW38893   3.229   0.900   7.391 -0.0587 -0.7639  0.4316
 9145SOL    HW138894   3.221   0.995   7.399 -1.3007 -0.6086 -2.7032
 9145SOL    HW238895   3.274   0.888   7.475  0.5161 -0.9056  0.0979
 9146SOL     OW38896   3.997   2.917  15.308 -0.0798  0.4842  0.8058
 9146SOL    HW138897   3.958   2.990  15.260 -1.6535 -1.5002 -0.9223
 9146SOL    HW238898   3.995   2.848  15.242 -0.3653  0.0965  1.2228
 9147SOL     OW38899   3.441   0.102  16.812  0.0794  0.7644 -0.3514
 9147SOL    HW138900   3.472   0.153  16.887  0.3287 -1.5804  1.1644
 9147SOL    HW238901   3.416   0.024  16.863 -0.2637  0.2139 -1.3591
 9148SOL     OW38902   0.386   4.152   1.745 -0.3471 -0.3650  0.3092
 9148SOL    HW138903   0.449   4.111   1.686  0.2184  2.6015 -1.1865
 9148SOL    HW238904   0.419   4.241   1.732  0.0593 -0.7861 -1.5528
 9149SOL     OW38905   2.788   3.607   2.453  0.4879 -0.0879 -0.4234
 9149SOL    HW138906   2.794   3.567   2.540  0.6721  2.3476  0.6808
 9149SOL    HW238907   2.702   3.644   2.470 -0.0351 -1.1372 -0.7998
 9150SOL     OW38908   4.672   2.737   5.554  0.2634  0.4821 -0.4977
 9150SOL    HW138909   4.671   2.802   5.625  0.3986 -0.2143  0.1420
 9150SOL    HW238910   0.038   2.716   5.558 -0.5332 -3.0322  0.0632
 9151SOL     OW38911   3.006   3.946   7.308  0.0178  0.2109  0.0494
 9151SOL    HW138912   2.944   3.900   7.251  1.6596 -1.9202 -0.0225
 9151SOL    HW238913   3.077   3.881   7.308  2.3937  2.7958 -1.3561
 9152SOL     OW38914   1.206   3.611   4.251  0.1148  0.2884 -0.1488
 9152SOL    HW138915   1.136   3.574   4.196  0.0296 -0.9466  0.8001
 9152SOL    HW238916   1.228   3.534   4.303  2.1646  1.1735  0.2699
 9153SOL     OW38917   3.279   1.506  11.265 -0.6617 -0.0692  0.8000
 9153SOL    HW138918   3.317   1.593  11.269  0.5447 -0.6376  1.8465
 9153SOL    HW238919   3.188   1.535  11.262 -0.7299 -0.5062 -1.5017
 9154SOL     OW38920   0.951   1.149   5.512  0.1043  0.5834 -0.0716
 9154SOL    HW138921   1.030   1.117   5.555  1.5409  2.1972 -1.5289
 9154SOL    HW238922   0.892   1.094   5.564 -1.0155  1.8243 -0.0380
 9155SOL     OW38923   4.568   3.909   6.960  0.4905  0.3356  0.6116
 9155SOL    HW138924   4.559   3.908   6.865 -1.5966  1.0810  0.7949
 9155SOL    HW238925   4.479   3.903   6.996 -0.1506  1.2713 -0.7832
 9156SOL     OW38926   2.454   4.405   7.934 -0.2727 -0.2270  0.0554
 9156SOL    HW138927   2.488   4.493   7.914  1.1176 -0.6774  0.4182
 9156SOL    HW238928   2.417   4.382   7.849 -0.3866  0.9925 -0.2365
 9157SOL     OW38929   0.373   0.774  11.791 -0.8099  0.7203  0.4142
 9157SOL    HW138930   0.405   0.707  11.850 -3.2955 -0.1767  0.7432
 9157SOL    HW238931   0.318   0.718  11.737 -1.9304  1.9760  0.2426
 9158SOL     OW38932   1.536   4.572   6.775  0.0601 -0.1310  0.2398
 9158SOL    HW138933   1.588   4.571   6.856 -1.2942 -1.1409  1.0855
 9158SOL    HW238934   1.555   4.490   6.729  0.8045  0.9602 -1.3756
 9159SOL     OW38935   0.271   2.154   8.108  0.2123 -0.5713 -0.1205
 9159SOL    HW138936   0.336   2.212   8.147  0.8597 -0.3248 -1.5922
 9159SOL    HW238937   0.302   2.069   8.141  2.8218 -0.0082 -1.1824
 9160SOL     OW38938   3.956   1.467  10.072 -0.0710 -0.5056  0.2744
 9160SOL    HW138939   3.868   1.504  10.083  0.3301  0.6435 -0.3392
 9160SOL    HW238940   4.005   1.499  10.148 -1.8427  1.3693  0.6288
 9161SOL     OW38941   1.965   0.992   3.498 -0.0924  0.4574  0.2247
 9161SOL    HW138942   1.973   0.897   3.510 -0.3608  0.4855  0.6141
 9161SOL    HW238943   2.020   1.007   3.421  0.0406  0.9443  0.4172
 9162SOL     OW38944   1.526   4.609   6.256 -0.0608 -0.1650  0.2592
 9162SOL    HW138945   1.579   4.650   6.324  0.9158  0.7576 -1.0515
 9162SOL    HW238946   1.444   4.619   6.305 -0.2365  1.0974 -0.2886
 9163SOL     OW38947   0.006   0.157  11.519 -0.3944 -0.5069 -0.5667
 9163SOL    HW138948   4.681   0.144  11.599  2.4268  2.2111  1.7230
 9163SOL    HW238949   4.716   0.072  11.478 -0.5877 -0.4056 -0.6961
 9164SOL     OW38950   3.923   1.114   8.335  1.2031  0.1422 -0.4681
 9164SOL    HW138951   3.878   1.171   8.398  0.6863 -0.1166 -0.6139
 9164SOL    HW238952   3.999   1.088   8.388 -0.2150 -1.0391  0.9573
 9165SOL     OW38953   2.614   3.801  12.874 -0.2101  0.6733  0.3164
 9165SOL    HW138954   2.659   3.769  12.952 -0.2191  1.4776  0.6461
 9165SOL    HW238955   2.626   3.738  12.803  0.0425  0.2360  0.7460
 9166SOL     OW38956   0.192   0.555   2.538 -0.1694 -0.7147  0.1911
 9166SOL    HW138957   0.223   0.466   2.519  0.4825 -0.2932 -0.7277
 9166SOL    HW238958   0.272   0.607   2.537 -0.5916 -0.0554  0.2677
 9167SOL     OW38959   3.930   3.023   5.645 -0.4770  0.1740 -0.5393
 9167SOL    HW138960   3.878   3.103   5.640 -0.1283  0.5739  1.9383
 9167SOL    HW238961   3.871   2.965   5.693 -0.0206  0.1881  0.0422
 9168SOL     OW38962   4.126   1.538   8.547  0.3759 -0.5137 -0.0971
 9168SOL    HW138963   4.204   1.572   8.591  0.4388 -1.1632  0.2902
 9168SOL    HW238964   4.113   1.464   8.606  1.9043 -0.1656  0.6674
 9169SOL     OW38965   2.539   4.159  12.455 -0.1540  0.3509  0.5424
 9169SOL    HW138966   2.456   4.200  12.480 -1.6890 -2.3261 -0.1889
 9169SOL    HW238967   2.542   4.080  12.508  3.7505  1.0890  1.4507
 9170SOL     OW38968   3.988   0.968   3.882  0.1446 -0.0910 -0.2442
 9170SOL    HW138969   4.066   0.929   3.921  0.7252  0.2998 -0.9987
 9170SOL    HW238970   4.009   0.964   3.789 -0.3946  1.5627 -0.4393
 9171SOL     OW38971   2.863   3.358   4.949  0.1126 -0.4071 -0.4810
 9171SOL    HW138972   2.796   3.313   4.898 -1.7165  0.2130  1.3651
 9171SOL    HW238973   2.943   3.319   4.912  2.0863  1.2772  1.9880
 9172SOL     OW38974   0.076   1.407   4.631  0.2318 -0.0057  0.2896
 9172SOL    HW138975   0.161   1.449   4.618 -0.4779  1.0780 -0.8761
 9172SOL    HW238976   0.064   1.356   4.551  1.3485 -1.2413  0.9083
 9173SOL     OW38977   2.883   0.789  12.510  0.4066 -0.1649 -0.2177
 9173SOL    HW138978   2.862   0.770  12.601 -0.1494 -2.3029 -0.8007
 9173SOL    HW238979   2.977   0.808  12.506  0.1413  0.8524 -1.5088
 9174SOL     OW38980   4.028   2.549   4.058 -0.4409  0.0938  0.5873
 9174SOL    HW138981   4.018   2.523   4.150 -1.6893 -0.5555  0.2586
 9174SOL    HW238982   3.939   2.566   4.027  0.4767  1.0971 -1.4937
 9175SOL     OW38983   4.012   0.867  16.580 -0.5815 -0.3030 -0.3641
 9175SOL    HW138984   4.075   0.934  16.606 -0.5516 -0.7478  0.7154
 9175SOL    HW238985   3.945   0.925  16.544 -0.0449 -0.1628 -1.1333
 9176SOL     OW38986   4.711   3.532   3.810 -0.5141  0.1447 -0.5632
 9176SOL    HW138987   0.020   3.444   3.794  0.2421  0.4134 -0.3219
 9176SOL    HW238988   4.713   3.552   3.717 -1.4520  0.1759 -0.5801
 9177SOL     OW38989   0.174   1.191  11.277 -0.1718 -0.1893 -0.4123
 9177SOL    HW138990   0.215   1.238  11.350 -0.9432  0.3592 -0.3335
 9177SOL    HW238991   0.215   1.228  11.199 -0.3194 -2.3016 -1.4908
 9178SOL     OW38992   3.619   4.345  14.237  0.4801 -0.5491  0.1954
 9178SOL    HW138993   3.668   4.424  14.214 -3.2731  2.6722  3.1601
 9178SOL    HW238994   3.642   4.308  14.152  0.0078  0.3373 -0.3213
 9179SOL     OW38995   0.980   1.797  17.000 -0.5023 -0.6078  0.1182
 9179SOL    HW138996   0.976   1.893  17.009 -1.7672 -0.7944  1.4864
 9179SOL    HW238997   1.012   1.794  16.910 -0.6297  0.1217  0.0483
 9180SOL     OW38998   2.854   4.337  13.432 -0.4740 -0.2831 -0.6314
 9180SOL    HW138999   2.871   4.347  13.339 -0.7005  3.3010 -0.3115
 9180SOL    HW239000   2.825   4.426  13.452  3.0383 -0.3454  4.8477
 9181SOL     OW39001   3.926   1.204   1.634 -0.3661 -0.7195 -0.5293
 9181SOL    HW139002   3.916   1.246   1.720  2.2181  1.1072 -1.1223
 9181SOL    HW239003   3.844   1.154   1.638 -1.7017  1.4346 -0.5870
 9182SOL     OW39004   3.312   4.222   7.552 -0.1097 -0.3797 -0.0739
 9182SOL    HW139005   3.260   4.291   7.512 -0.2609 -0.1827  0.4540
 9182SOL    HW239006   3.379   4.202   7.487 -0.2037 -1.7553  0.2573
 9183SOL     OW39007   3.928   4.659  15.058 -0.0225 -0.8908 -0.1304
 9183SOL    HW139008   4.019   4.633  15.041  1.4729  1.7685  3.5475
 9183SOL    HW239009   3.879   4.620  14.986 -0.7287 -1.3924  0.6219
 9184SOL     OW39010   1.368   3.315   7.783  0.6309  0.0676 -0.0741
 9184SOL    HW139011   1.322   3.383   7.832 -0.7516 -1.9357  1.4599
 9184SOL    HW239012   1.286   3.272   7.760 -1.0014  1.9361  2.2779
 9185SOL     OW39013   4.189   0.697   4.454  0.1778  0.5210  0.1214
 9185SOL    HW139014   4.206   0.685   4.361  1.0984  2.6678  0.0091
 9185SOL    HW239015   4.103   0.654   4.456  0.2647  0.3136 -0.5841
 9186SOL     OW39016   3.864   2.903  11.314 -0.3788 -0.4994  0.1295
 9186SOL    HW139017   3.854   2.923  11.221 -2.0062  3.0452  1.0877
 9186SOL    HW239018   3.918   2.824  11.302 -0.2889 -0.6982  1.8868
 9187SOL     OW39019   2.593   1.169   1.940 -0.4682  0.6757  0.1580
 9187SOL    HW139020   2.586   1.186   2.034  1.4534 -0.9843  0.5928
 9187SOL    HW239021   2.537   1.237   1.902 -2.5262 -2.9539 -3.2985
 9188SOL     OW39022   4.571   1.819  16.552  0.4458  0.1574 -0.5509
 9188SOL    HW139023   4.542   1.777  16.633 -1.5365 -0.3653 -1.5331
 9188SOL    HW239024   4.572   1.910  16.581  1.6593 -1.1634  3.6326
 9189SOL     OW39025   2.642   1.590   0.211  0.8273 -0.1331 -0.4860
 9189SOL    HW139026   2.714   1.546   0.256 -2.2525 -3.8119  0.9128
 9189SOL    HW239027   2.636   1.679   0.246  0.4315 -0.2373 -0.2878
 9190SOL     OW39028   4.073   2.755  17.059 -0.2031 -0.3112  1.1902
 9190SOL    HW139029   3.979   2.767  17.066 -0.4620 -1.1215 -0.8364
 9190SOL    HW239030   4.112   2.842  17.050  2.5289 -1.5974  0.5841
 9191SOL     OW39031   4.643   0.909   8.558 -0.1439 -0.2156  0.1720
 9191SOL    HW139032   4.653   0.845   8.629  1.4970 -1.2767 -1.0235
 9191SOL    HW239033   4.570   0.869   8.511  0.4116 -1.0370  0.0106
 9192SOL     OW39034   1.189   3.575  12.140  0.3403  0.1179 -0.1801
 9192SOL    HW139035   1.106   3.558  12.183  1.0211  0.3528  1.2191
 9192SOL    HW239036   1.242   3.587  12.219  3.4690  0.8055 -2.3594
 9193SOL     OW39037   2.103   0.626   3.674  0.0035  0.2716  0.0150
 9193SOL    HW139038   2.113   0.532   3.657  0.4640  0.6407 -1.7248
 9193SOL    HW239039   2.038   0.651   3.609  0.4189  2.2142  0.3390
 9194SOL     OW39040   1.093   0.808   8.591 -0.2406  0.4439 -0.5439
 9194SOL    HW139041   1.053   0.874   8.534  1.4354  0.4624 -1.7239
 9194SOL    HW239042   1.167   0.781   8.536 -0.8909  1.4349 -1.9256
 9195SOL     OW39043   1.199   0.479   3.525 -0.3246  0.1379  0.1788
 9195SOL    HW139044   1.261   0.548   3.550 -0.7957  1.9102 -3.5518
 9195SOL    HW239045   1.252   0.423   3.468  0.0680  0.7779 -0.0891
 9196SOL     OW39046   2.092   2.820   2.238  0.5756 -0.7283 -0.1755
 9196SOL    HW139047   2.109   2.767   2.316 -0.8913 -0.1116  0.5565
 9196SOL    HW239048   2.110   2.752   2.173 -1.3399 -0.1580 -1.2708
 9197SOL     OW39049   1.484   3.816  12.713  0.1318 -0.0604  0.4846
 9197SOL    HW139050   1.410   3.851  12.663 -0.4574  1.7917  2.6374
 9197SOL    HW239051   1.514   3.751  12.650 -0.9716 -0.4131  0.3241
 9198SOL     OW39052   4.120   1.388  14.929 -0.2530 -0.3466  0.3015
 9198SOL    HW139053   4.120   1.453  14.860  0.4355  1.6601  2.1988
 9198SOL    HW239054   4.210   1.384  14.961 -0.4782  1.0928  1.1311
 9199SOL     OW39055   2.829   1.281  10.150 -0.7076 -0.2078  0.0744
 9199SOL    HW139056   2.782   1.292  10.068  0.6600 -1.4313 -0.8702
 9199SOL    HW239057   2.863   1.369  10.165 -1.6602  0.2402 -0.4630
 9200SOL     OW39058   0.415   1.500   4.874 -0.9100 -0.7190 -0.0485
 9200SOL    HW139059   0.365   1.432   4.919 -2.0733 -0.7323 -1.3629
 9200SOL    HW239060   0.458   1.537   4.952  2.4108 -2.5375 -1.0354
 9201SOL     OW39061   1.243   1.056   7.362  0.2000  0.1296 -0.0566
 9201SOL    HW139062   1.168   1.018   7.408 -0.6498 -0.0591 -1.6121
 9201SOL    HW239063   1.288   1.093   7.438 -0.2888 -2.4834  1.5096
 9202SOL     OW39064   1.060   3.897   7.816  0.0547 -0.1005  0.1809
 9202SOL    HW139065   1.078   3.859   7.730 -2.0637  1.4600 -0.9657
 9202SOL    HW239066   1.021   3.824   7.864 -0.6575  0.8282  1.0109
 9203SOL     OW39067   0.045   1.748   8.027 -0.3017  0.7375  0.1482
 9203SOL    HW139068   0.105   1.717   8.095 -0.8053  0.0046  0.2599
 9203SOL    HW239069   4.717   1.672   8.006  2.5725 -0.6874 -2.2384
 9204SOL     OW39070   2.919   0.882   2.571  0.3148  0.0408 -0.0371
 9204SOL    HW139071   2.991   0.823   2.548  1.5415  1.4663  0.1578
 9204SOL    HW239072   2.848   0.844   2.519  0.0697 -0.3572  0.5887
 9205SOL     OW39073   1.991   2.619   1.747  0.5492  0.1346 -0.0755
 9205SOL    HW139074   2.049   2.543   1.756 -2.0142 -1.5755  1.8392
 9205SOL    HW239075   1.905   2.580   1.763 -0.4912  1.9503 -1.3458
 9206SOL     OW39076   0.999   1.873   4.410 -0.2447 -0.3783 -0.2127
 9206SOL    HW139077   0.975   1.822   4.487 -0.5283 -1.6218 -1.1157
 9206SOL    HW239078   1.010   1.960   4.447 -1.4260  0.0313 -0.8211
 9207SOL     OW39079   0.846   1.019   2.917  0.1945 -0.1853  0.5635
 9207SOL    HW139080   0.819   0.989   2.830 -1.3032  0.1764  0.9022
 9207SOL    HW239081   0.857   0.932   2.955  1.8177 -0.3119 -0.1939
 9208SOL     OW39082   4.256   3.373   6.524 -0.7881  0.1972 -0.2335
 9208SOL    HW139083   4.304   3.290   6.523 -0.7991  0.1446  3.0118
 9208SOL    HW239084   4.165   3.352   6.545 -0.0242 -1.8063  1.0999
 9209SOL     OW39085   3.230   1.990   4.488  0.0915  0.3978  0.6916
 9209SOL    HW139086   3.288   1.915   4.502  1.3581  1.2676  0.0677
 9209SOL    HW239087   3.225   2.029   4.575  0.4028 -1.6765  1.6365
 9210SOL     OW39088   1.567   4.717   6.011 -0.1551 -0.6853 -0.2053
 9210SOL    HW139089   1.544   4.654   6.080  1.2086  0.1761  1.0338
 9210SOL    HW239090   1.529   4.678   5.933  1.2706  2.2877 -2.3840
 9211SOL     OW39091   0.898   1.042   8.795 -0.2026 -0.0570 -0.1608
 9211SOL    HW139092   0.885   1.093   8.875  0.2891 -1.2861  0.7259
 9211SOL    HW239093   0.908   0.954   8.833  0.2714  0.5538  1.1265
 9212SOL     OW39094   0.162   4.078   3.900 -0.1761 -0.1056 -0.1656
 9212SOL    HW139095   0.072   4.046   3.895 -1.0932  2.4134  0.0096
 9212SOL    HW239096   0.203   4.032   3.827 -0.5864  2.7409 -2.2162
 9213SOL     OW39097   3.382   2.707   2.227  0.0138  0.2208  0.6197
 9213SOL    HW139098   3.366   2.800   2.243  0.3306  0.0782  1.7515
 9213SOL    HW239099   3.358   2.702   2.134 -2.0763  1.2720  1.1027
 9214SOL     OW39100   1.380   0.022   2.630 -0.1586  0.2053  0.0295
 9214SOL    HW139101   1.379   0.011   2.725  0.4178  0.3065  0.0482
 9214SOL    HW239102   1.295   0.066   2.626  0.7795  2.2964  2.6590
 9215SOL     OW39103   2.529   1.557  10.942 -0.2194 -0.6059 -0.2077
 9215SOL    HW139104   2.461   1.586  10.881  0.3961 -0.4647 -0.8256
 9215SOL    HW239105   2.612   1.584  10.902 -1.0935  0.1654 -1.4721
 9216SOL     OW39106   1.328   1.245   5.939 -0.0433  1.0212 -0.1290
 9216SOL    HW139107   1.410   1.219   5.897 -0.8861 -1.0658 -0.4845
 9216SOL    HW239108   1.357   1.297   6.014 -3.3235  1.5412  0.7434
 9217SOL     OW39109   1.580   4.402   4.614 -0.2985 -0.2738 -0.4149
 9217SOL    HW139110   1.619   4.488   4.630 -0.3109 -0.1693 -0.9426
 9217SOL    HW239111   1.488   4.420   4.636 -0.1603  0.0306 -0.0808
 9218SOL     OW39112   2.789   4.279  13.681 -0.1194 -0.0296  0.3667
 9218SOL    HW139113   2.737   4.351  13.718  0.7066 -0.6186  2.6814
 9218SOL    HW239114   2.815   4.306  13.593 -1.6711  0.8284  0.1797
 9219SOL     OW39115   4.310   4.236   3.951  0.0466  0.0981  0.0106
 9219SOL    HW139116   4.377   4.271   3.891 -1.5012 -1.2903 -2.5435
 9219SOL    HW239117   4.305   4.148   3.912  0.6352 -0.4725  1.2215
 9220SOL     OW39118   3.339   2.707   4.758 -0.2580  0.5640  0.6639
 9220SOL    HW139119   3.327   2.612   4.757  1.3942  0.3526  0.4091
 9220SOL    HW239120   3.270   2.721   4.693  1.9208 -0.5315 -1.8938
 9221SOL     OW39121   1.854   1.431   3.667 -0.1011  0.3802  0.0086
 9221SOL    HW139122   1.852   1.524   3.643  3.0684  0.3492 -0.3755
 9221SOL    HW239123   1.919   1.390   3.611  0.6984  1.2646  0.2829
 9222SOL     OW39124   2.245   2.414   8.884 -0.5810  0.8737 -0.2980
 9222SOL    HW139125   2.151   2.415   8.867 -0.9661  0.1288  1.8341
 9222SOL    HW239126   2.254   2.508   8.900 -0.3511  1.2911 -2.8752
 9223SOL     OW39127   2.650   1.086   7.068 -0.4271 -0.1781 -0.3168
 9223SOL    HW139128   2.599   1.142   7.010 -0.6421  0.5648  0.5858
 9223SOL    HW239129   2.683   1.155   7.126 -2.3176  0.6270 -0.1851
 9224SOL     OW39130   1.975   0.234   0.421 -0.2089  0.3860 -0.1359
 9224SOL    HW139131   1.938   0.192   0.344  1.4999 -0.1453 -0.6721
 9224SOL    HW239132   1.991   0.160   0.479 -1.2643  0.3556  0.1205
 9225SOL     OW39133   3.659   2.795   8.190 -0.8152 -0.0915  0.1869
 9225SOL    HW139134   3.605   2.844   8.252 -0.7291  0.1361  0.0811
 9225SOL    HW239135   3.699   2.864   8.138  3.3141 -0.6668  2.5906
 9226SOL     OW39136   2.120   2.409   0.176  0.3099 -0.0646 -0.1873
 9226SOL    HW139137   2.089   2.483   0.124 -1.9425  0.7249  2.2711
 9226SOL    HW239138   2.203   2.408   0.130  0.5897  1.7983  0.2974
 9227SOL     OW39139   1.349   1.799   1.038  0.2409  0.1629 -0.4376
 9227SOL    HW139140   1.392   1.812   1.122 -2.5465  3.0430  0.5365
 9227SOL    HW239141   1.264   1.758   1.058 -0.4497  1.5452 -0.5673
 9228SOL     OW39142   1.826   4.243   8.630 -0.9210 -0.0134  0.1528
 9228SOL    HW139143   1.747   4.297   8.641  0.0603  2.0168 -2.8353
 9228SOL    HW239144   1.864   4.296   8.560  1.1434 -0.9853  0.5455
 9229SOL     OW39145   4.182   2.071   3.477  0.3803  0.1676  0.4797
 9229SOL    HW139146   4.231   2.018   3.540 -0.5559 -3.4394 -1.8250
 9229SOL    HW239147   4.248   2.141   3.477  1.2912 -0.6853 -0.4927
 9230SOL     OW39148   2.811   2.717  17.566 -0.3528  0.1859 -0.2733
 9230SOL    HW139149   2.896   2.673  17.562  0.0794  0.9930 -0.0915
 9230SOL    HW239150   2.783   2.669  17.644  1.4123 -0.4132 -0.0227
 9231SOL     OW39151   3.979   4.157   3.432  0.3300 -0.3600  0.4878
 9231SOL    HW139152   3.946   4.130   3.518 -0.9707 -1.3557 -0.3151
 9231SOL    HW239153   3.920   4.230   3.412  0.6857 -0.2883 -0.2939
 9232SOL     OW39154   1.518   0.591  12.363 -0.5180 -0.0254 -0.6108
 9232SOL    HW139155   1.518   0.496  12.362  2.6399 -0.0823  2.8942
 9232SOL    HW239156   1.604   0.612  12.327 -0.4167  0.2812 -0.1921
 9233SOL     OW39157   0.159   1.518  13.369 -0.3233  0.3714  0.2064
 9233SOL    HW139158   0.095   1.575  13.327 -0.0818  0.2075 -0.3822
 9233SOL    HW239159   0.111   1.485  13.445 -2.6290  1.2162 -0.9133
 9234SOL     OW39160   2.595   4.188  17.504  1.0561 -0.0866 -0.5472
 9234SOL    HW139161   2.587   4.107  17.555  0.0637  0.0549 -0.4794
 9234SOL    HW239162   2.547   4.252  17.556  1.9427 -0.2468  0.4619
 9235SOL     OW39163   2.579   2.121   8.048 -0.1445  0.4771  0.0471
 9235SOL    HW139164   2.662   2.163   8.072  0.2365 -0.9267  1.1904
 9235SOL    HW239165   2.591   2.038   8.095 -1.4791  1.5257  2.2402
 9236SOL     OW39166   4.041   3.687  16.698  0.2936  0.0151  0.2051
 9236SOL    HW139167   4.131   3.695  16.730 -0.4744  1.1850  2.0734
 9236SOL    HW239168   3.998   3.643  16.771 -0.8737  0.2183 -0.3624
 9237SOL     OW39169   4.257   2.467   9.617  0.0506  0.1073 -0.8235
 9237SOL    HW139170   4.164   2.481   9.600 -0.6596 -4.1650 -0.4199
 9237SOL    HW239171   4.307   2.530   9.564  0.3006  0.0856 -0.6115
 9238SOL     OW39172   1.949   2.358  10.402 -0.0983  0.1929  0.0051
 9238SOL    HW139173   1.880   2.388  10.343 -0.7037 -1.1568  0.0367
 9238SOL    HW239174   1.898   2.314  10.470 -3.0263  1.5124 -1.3523
 9239SOL     OW39175   3.820   3.181   4.180  0.4065  0.6477  0.5039
 9239SOL    HW139176   3.747   3.242   4.168  1.0856  1.2905 -0.3591
 9239SOL    HW239177   3.888   3.238   4.217  1.3576 -0.7245  0.8895
 9240SOL     OW39178   4.017   3.687  11.772 -0.2777 -0.5804 -0.0844
 9240SOL    HW139179   3.970   3.610  11.805  2.0569 -1.8824  0.2278
 9240SOL    HW239180   3.948   3.754  11.776  1.3963  1.1653 -0.4369
 9241SOL     OW39181   3.273   3.861  11.120 -0.1839 -0.1080  0.2325
 9241SOL    HW139182   3.183   3.868  11.089 -0.3700 -1.7320  0.4117
 9241SOL    HW239183   3.286   3.767  11.118  1.4031  0.0906  0.6143
 9242SOL     OW39184   4.674   1.469   6.919  0.0847  0.0469  0.6430
 9242SOL    HW139185   4.617   1.517   6.979  0.0255  0.8096 -0.0261
 9242SOL    HW239186   0.032   1.513   6.917 -0.6214  1.5378  2.9537
 9243SOL     OW39187   2.634   0.909   2.171  0.1001  0.1837  0.1154
 9243SOL    HW139188   2.589   0.926   2.254  2.3756  1.3022  1.1294
 9243SOL    HW239189   2.559   0.890   2.116  0.0927  0.4837  0.0187
 9244SOL     OW39190   0.440   1.797   3.227 -0.0287  0.5678  0.0062
 9244SOL    HW139191   0.365   1.746   3.259  2.0009 -3.4605 -1.6268
 9244SOL    HW239192   0.478   1.826   3.310  1.5730 -1.8788  0.1610
 9245SOL     OW39193   3.599   2.963  11.107 -0.0836  0.4583 -0.1809
 9245SOL    HW139194   3.606   2.877  11.067 -0.7659 -0.7034  2.1847
 9245SOL    HW239195   3.532   2.952  11.175 -0.2267 -1.8683 -0.6990
 9246SOL     OW39196   3.306   3.976   3.680  0.5459 -0.2732  0.6577
 9246SOL    HW139197   3.289   3.945   3.769 -1.4504 -0.7700  0.1051
 9246SOL    HW239198   3.237   3.922   3.640  0.2150 -0.6456  1.7080
 9247SOL     OW39199   2.382   1.726   8.322  0.1648 -0.2903  0.2858
 9247SOL    HW139200   2.381   1.770   8.407 -2.6657  0.6315 -0.2195
 9247SOL    HW239201   2.304   1.670   8.319 -1.0078  1.3308  0.8656
 9248SOL     OW39202   2.997   2.371  14.492 -0.0286 -0.0274 -0.3242
 9248SOL    HW139203   3.058   2.413  14.554  3.0580 -1.0164 -2.6743
 9248SOL    HW239204   3.040   2.408  14.415  2.3343  1.0246  1.4883
 9249SOL     OW39205   2.997   4.452   4.982 -0.8341 -0.0462  0.0818
 9249SOL    HW139206   3.046   4.459   4.900 -0.3583  2.5580  0.6020
 9249SOL    HW239207   3.034   4.528   5.025  0.8070  0.7961 -2.8019
 9250SOL     OW39208   4.124   2.361   1.464  0.2253 -0.0538 -0.2890
 9250SOL    HW139209   4.088   2.293   1.521 -0.1221 -0.3981 -0.9188
 9250SOL    HW239210   4.191   2.313   1.416  1.9420  1.9063  0.1375
 9251SOL     OW39211   3.764   1.269   8.488 -0.7660 -1.0745 -0.1335
 9251SOL    HW139212   3.750   1.344   8.547 -0.2330 -0.4780 -0.7543
 9251SOL    HW239213   3.685   1.217   8.503 -0.2027 -2.0582 -0.5810
 9252SOL     OW39214   4.167   2.003   7.393 -0.1354  0.0264  0.3748
 9252SOL    HW139215   4.131   1.930   7.444 -2.8896  0.9586 -0.2838
 9252SOL    HW239216   4.171   1.964   7.306  0.8035 -0.2503  0.5355
 9253SOL     OW39217   1.881   4.433   5.999 -0.4260 -0.6773 -0.3209
 9253SOL    HW139218   1.967   4.443   5.960 -1.8521 -0.3532 -3.3573
 9253SOL    HW239219   1.814   4.431   5.931 -1.5372 -3.0139  0.7955
 9254SOL     OW39220   1.527   2.456  13.714 -0.4938  0.0183 -0.0026
 9254SOL    HW139221   1.585   2.482  13.643  0.8330  2.0922  1.8234
 9254SOL    HW239222   1.456   2.519  13.705 -0.4035  0.5461  2.9526
 9255SOL     OW39223   3.555   3.003   2.409  0.3362  0.6470 -0.1422
 9255SOL    HW139224   3.576   3.092   2.437 -2.1214  1.5143 -1.0233
 9255SOL    HW239225   3.485   3.011   2.344  1.5310  1.4397 -1.3222
 9256SOL     OW39226   2.324   4.100  12.779 -0.2328  0.8488  0.2357
 9256SOL    HW139227   2.417   4.119  12.780 -0.0213 -0.2259  0.6874
 9256SOL    HW239228   2.282   4.185  12.766 -1.4122  0.7132  3.1802
 9257SOL     OW39229   0.141   0.160  11.974  0.4829 -0.4773  0.2622
 9257SOL    HW139230   0.051   0.163  11.942  0.4231 -1.4645  0.3214
 9257SOL    HW239231   0.150   0.065  11.980 -0.4179 -0.4763  1.7190
 9258SOL     OW39232   4.110   4.716   2.203  0.2564  0.2680 -0.1000
 9258SOL    HW139233   4.186   0.008   2.258  0.9546 -1.0731 -0.6164
 9258SOL    HW239234   4.069   0.075   2.214 -1.8228 -0.7472  0.0723
 9259SOL     OW39235   2.700   0.591  14.019 -0.0758 -0.4060  0.1493
 9259SOL    HW139236   2.736   0.548  14.098 -0.1575 -0.5859  0.0896
 9259SOL    HW239237   2.606   0.594  14.034  0.0435 -3.0968  1.5493
 9260SOL     OW39238   2.353   4.672   7.637 -0.1118  0.4251 -0.2945
 9260SOL    HW139239   2.444   4.678   7.667  0.2820  2.2208 -1.8896
 9260SOL    HW239240   2.328   0.028   7.596  4.8664  1.9151 -0.2977
 9261SOL     OW39241   4.604   3.206   0.227  0.1512 -0.0687  0.0044
 9261SOL    HW139242   4.598   3.274   0.160 -1.7035 -0.5028 -0.2856
 9261SOL    HW239243   4.697   3.184   0.232  0.3474  0.1729 -2.3883
 9262SOL     OW39244   0.757   1.051   1.920 -0.0304 -0.2139  0.2551
 9262SOL    HW139245   0.663   1.069   1.929 -0.1851 -0.1082 -1.5142
 9262SOL    HW239246   0.762   1.035   1.826 -0.6661  1.0075  0.0026
 9263SOL     OW39247   2.648   1.221   9.578 -0.7969  0.1431  0.4279
 9263SOL    HW139248   2.687   1.308   9.571 -1.2463  0.3285  0.2928
 9263SOL    HW239249   2.562   1.245   9.610  0.3118  3.9695  0.5739
 9264SOL     OW39250   2.721   0.884  14.986  0.5372  0.4264 -0.4924
 9264SOL    HW139251   2.803   0.845  15.018  0.1861  0.2815  0.2205
 9264SOL    HW239252   2.663   0.852  15.054  1.9564  3.1958  2.0519
 9265SOL     OW39253   0.079   2.404   1.949  0.1650  0.0772 -0.1552
 9265SOL    HW139254   0.109   2.314   1.960 -1.2338 -0.4296 -0.5541
 9265SOL    HW239255   0.133   2.444   2.017  0.2112 -1.6164  0.7868
 9266SOL     OW39256   3.129   1.370   0.894 -0.1216  0.2433  0.2557
 9266SOL    HW139257   3.098   1.457   0.869  0.9353  0.6363  0.3499
 9266SOL    HW239258   3.082   1.354   0.976  0.1665  1.6446  0.7061
 9267SOL     OW39259   1.331   4.299   4.873  0.2038 -0.5392 -0.1784
 9267SOL    HW139260   1.275   4.308   4.796  0.6027  1.3177 -0.2595
 9267SOL    HW239261   1.296   4.369   4.929  2.0337 -0.8334  1.3502
 9268SOL     OW39262   1.028   1.896   0.229  0.1871  0.0514 -0.0729
 9268SOL    HW139263   1.089   1.866   0.297 -0.3478 -2.1484 -0.5503
 9268SOL    HW239264   1.092   1.903   0.158  1.2933 -1.7122  0.7406
 9269SOL     OW39265   1.190   1.944   0.673  0.0297  0.7318  0.0165
 9269SOL    HW139266   1.117   2.004   0.685 -1.0205 -0.3949 -0.7226
 9269SOL    HW239267   1.211   1.911   0.760 -2.8739 -2.4910 -0.4824
 9270SOL     OW39268   1.833   0.531   4.991 -0.4486  0.0082  0.2664
 9270SOL    HW139269   1.855   0.464   4.926 -0.9315 -0.0714  0.1850
 9270SOL    HW239270   1.850   0.608   4.936 -0.4495 -1.0745 -1.2611
 9271SOL     OW39271   3.389   3.292   6.092 -0.4675 -0.5627  0.0711
 9271SOL    HW139272   3.482   3.276   6.101 -0.4438 -0.7118 -0.4197
 9271SOL    HW239273   3.405   3.385   6.074 -0.0291 -0.9475 -1.5771
 9272SOL     OW39274   3.880   4.413   6.680 -0.1316 -0.6027 -0.4907
 9272SOL    HW139275   3.937   4.482   6.646 -1.8908  0.8507 -0.4733
 9272SOL    HW239276   3.933   4.348   6.726 -2.1823 -0.8147  1.5700
 9273SOL     OW39277   2.233   2.421   6.775  0.2478 -0.3916 -0.3917
 9273SOL    HW139278   2.213   2.329   6.794  0.3305 -0.3590 -0.1433
 9273SOL    HW239279   2.327   2.418   6.792 -0.1986  1.9764  2.4953
 9274SOL     OW39280   0.998   3.494   4.082 -0.3139 -0.2492  0.1033
 9274SOL    HW139281   0.931   3.482   4.149  0.7975  1.7002  1.5849
 9274SOL    HW239282   0.951   3.452   4.011 -0.5553  0.3665 -0.1040
 9275SOL     OW39283   3.655   4.007  15.447 -0.3328 -0.2419  0.2163
 9275SOL    HW139284   3.736   4.059  15.448 -0.3395 -0.2322  0.3174
 9275SOL    HW239285   3.667   3.952  15.525 -2.2528  3.6619  3.2617
 9276SOL     OW39286   0.480   0.057   2.755 -0.0900  0.1719  0.0088
 9276SOL    HW139287   0.486   0.078   2.662 -2.1021 -0.5359 -0.2798
 9276SOL    HW239288   0.535   4.705   2.760  1.4776  1.1500 -2.1253
 9277SOL     OW39289   2.881   3.964   2.497 -0.3239 -0.9522  0.4640
 9277SOL    HW139290   2.881   4.044   2.549 -0.4851  0.4931 -1.7235
 9277SOL    HW239291   2.792   3.978   2.466  0.0507 -0.6228 -0.4946
 9278SOL     OW39292   3.318   1.373   1.761 -0.2582  0.3391 -0.0385
 9278SOL    HW139293   3.315   1.371   1.666  0.1569  0.4519 -0.0549
 9278SOL    HW239294   3.271   1.291   1.778 -1.5856  1.3423  1.1429
 9279SOL     OW39295   4.383   3.684   7.782 -0.4167  0.2450 -0.5350
 9279SOL    HW139296   4.324   3.750   7.819 -2.2945 -0.0795 -3.0124
 9279SOL    HW239297   4.470   3.725   7.788 -0.6202  0.6864 -0.5849
 9280SOL     OW39298   0.622   1.611   2.052  0.1127  0.1629  0.1590
 9280SOL    HW139299   0.624   1.704   2.028 -2.3248  0.1662 -0.0152
 9280SOL    HW239300   0.669   1.623   2.135  0.8950 -0.0563 -0.2487
 9281SOL     OW39301   2.881   1.540  10.241  0.2454 -0.0526 -0.6139
 9281SOL    HW139302   2.920   1.483  10.306 -0.3559  2.3062  1.8130
 9281SOL    HW239303   2.804   1.566  10.291 -0.9997 -0.5712 -2.2466
 9282SOL     OW39304   2.469   0.769   0.513 -0.2087 -0.0104  0.1636
 9282SOL    HW139305   2.388   0.785   0.562 -0.0368  1.7014 -0.1104
 9282SOL    HW239306   2.453   0.682   0.476 -0.2140  0.2544 -0.4531
 9283SOL     OW39307   3.366   2.699  13.433  0.0904  0.4086  0.0357
 9283SOL    HW139308   3.299   2.711  13.502 -0.0756 -1.1565  0.1327
 9283SOL    HW239309   3.445   2.670  13.479  0.1596  0.3784 -0.1044
 9284SOL     OW39310   2.604   4.100   4.596 -0.0376 -0.0084  0.3534
 9284SOL    HW139311   2.654   4.033   4.643 -0.2732 -1.0683 -0.8872
 9284SOL    HW239312   2.679   4.153   4.570  1.1631 -2.8250 -1.9090
 9285SOL     OW39313   3.928   1.458  11.532  0.5061 -0.1174 -0.2458
 9285SOL    HW139314   4.005   1.446  11.588  0.1145 -0.2454  0.2653
 9285SOL    HW239315   3.882   1.538  11.559 -0.9212 -1.1136  0.2558
 9286SOL     OW39316   3.996   1.432  13.905  0.2920  0.3577  0.0458
 9286SOL    HW139317   3.969   1.519  13.874  0.9686  0.3686 -0.5313
 9286SOL    HW239318   3.923   1.386  13.863 -0.6755  0.7840  1.2587
 9287SOL     OW39319   1.258   1.350   9.635  0.0265 -0.3353  0.4687
 9287SOL    HW139320   1.194   1.374   9.702 -2.1065  0.9712 -2.0686
 9287SOL    HW239321   1.337   1.357   9.688  0.4224  0.6551 -0.2654
 9288SOL     OW39322   0.727   0.601   6.567  0.1293 -0.2517  0.5067
 9288SOL    HW139323   0.653   0.562   6.615 -0.2668 -0.5320 -0.3300
 9288SOL    HW239324   0.692   0.687   6.545 -3.9639 -1.4921  2.0675
 9289SOL     OW39325   0.553   2.322  12.307 -0.0881 -1.0689 -0.0760
 9289SOL    HW139326   0.647   2.308  12.315  0.1993  1.5345  0.8548
 9289SOL    HW239327   0.515   2.247  12.353 -1.0094 -0.0579  0.8083
 9290SOL     OW39328   2.590   3.174  10.172  0.1081  0.0194 -0.1645
 9290SOL    HW139329   2.620   3.113  10.240  1.6604 -1.7844 -2.4528
 9290SOL    HW239330   2.539   3.235  10.225 -1.2396 -0.8389 -0.4667
 9291SOL     OW39331   0.781   2.051   1.630 -0.0988  0.0330 -0.2963
 9291SOL    HW139332   0.861   2.084   1.671  0.5843 -0.0063 -1.5944
 9291SOL    HW239333   0.790   2.093   1.544  2.0210 -1.0209 -0.5873
 9292SOL     OW39334   1.441   1.863   6.295  0.1011  0.2604  0.2936
 9292SOL    HW139335   1.402   1.780   6.268 -0.1355  0.6339 -0.4972
 9292SOL    HW239336   1.506   1.831   6.358  0.5643  1.0272  0.2029
 9293SOL     OW39337   1.303   4.023   6.577 -0.6373 -0.7691 -0.4504
 9293SOL    HW139338   1.300   4.109   6.619  1.3454 -1.2454  0.6352
 9293SOL    HW239339   1.397   4.006   6.581 -1.0685 -2.7586  1.2738
 9294SOL     OW39340   2.805   0.943  14.255  0.3086 -0.4902  0.2371
 9294SOL    HW139341   2.861   0.963  14.330  0.5665  0.7628 -0.2926
 9294SOL    HW239342   2.746   0.880  14.295  1.0872 -1.6504 -0.4192
 9295SOL     OW39343   3.357   4.536   3.518  0.0403 -0.0494  0.1292
 9295SOL    HW139344   3.446   4.560   3.490 -0.1701 -0.6682 -1.0950
 9295SOL    HW239345   3.372   4.442   3.532  0.3477 -0.3206 -2.0327
 9296SOL     OW39346   2.828   1.343   1.866  0.3329 -0.5920 -0.3343
 9296SOL    HW139347   2.917   1.309   1.879  0.8501  1.8312  2.4820
 9296SOL    HW239348   2.784   1.259   1.868 -2.2871  0.8797  3.0397
 9297SOL     OW39349   0.037   1.341   6.342 -0.0343 -0.3898 -0.8371
 9297SOL    HW139350   0.127   1.372   6.333 -0.6838  1.4770 -1.1013
 9297SOL    HW239351   0.030   1.281   6.268  0.1452  0.8716 -1.8997
 9298SOL     OW39352   1.133   4.380  15.587  0.0891 -0.2354 -0.1211
 9298SOL    HW139353   1.218   4.414  15.560 -0.5115 -0.6602 -2.5149
 9298SOL    HW239354   1.074   4.432  15.533  0.4610 -1.4031 -1.6425
 9299SOL     OW39355   1.816   2.074   3.123  0.0060  0.1878  0.0614
 9299SOL    HW139356   1.743   2.064   3.063  0.6189 -1.9891 -0.2947
 9299SOL    HW239357   1.893   2.047   3.074 -0.6461  0.2355 -0.9817
 9300SOL     OW39358   2.910   2.041   6.877  0.1488  0.1168  0.0471
 9300SOL    HW139359   2.939   2.132   6.879  2.0894 -0.5297  1.6299
 9300SOL    HW239360   2.996   2.000   6.879  0.4860  0.8410  0.5956
 9301SOL     OW39361   0.021   2.279   4.236  0.7204  0.1662  0.0422
 9301SOL    HW139362   4.701   2.344   4.183 -0.0843 -0.9164 -0.5556
 9301SOL    HW239363   0.080   2.327   4.295  0.2234 -2.4206  2.6443
 9302SOL     OW39364   3.460   0.084  15.689 -0.3420  0.4438 -0.1439
 9302SOL    HW139365   3.433   0.003  15.646  2.7919 -0.2793 -0.7326
 9302SOL    HW239366   3.555   0.082  15.683 -0.3878  1.8025 -1.3560
 9303SOL     OW39367   1.019   3.943   2.664  0.3364 -0.3737  0.0817
 9303SOL    HW139368   1.037   3.968   2.754  0.5440 -0.1284 -0.0269
 9303SOL    HW239369   0.959   3.870   2.679  0.6398 -0.5329  0.4973
 9304SOL     OW39370   4.664   0.172   3.518  0.6361 -0.2654 -0.0913
 9304SOL    HW139371   0.021   0.146   3.480  1.2343  4.3754 -1.8829
 9304SOL    HW239372   4.614   0.198   3.441  1.7219  1.0702 -0.3268
 9305SOL     OW39373   0.672   2.184   1.149 -0.1459 -0.2657  1.0821
 9305SOL    HW139374   0.644   2.181   1.058 -0.1154 -0.5940  1.0806
 9305SOL    HW239375   0.588   2.213   1.184 -1.6278 -1.6853 -1.3254
 9306SOL     OW39376   2.556   3.175   7.453 -0.7058 -0.3682 -0.6788
 9306SOL    HW139377   2.489   3.197   7.517 -1.0622  0.1680 -1.2421
 9306SOL    HW239378   2.617   3.240   7.488 -0.7258  0.7165 -2.6449
 9307SOL     OW39379   2.093   4.034   8.512  0.2029  0.8060  0.4174
 9307SOL    HW139380   2.182   3.999   8.520 -0.0170  0.7660  2.4910
 9307SOL    HW239381   2.118   4.118   8.474  2.2131  0.2670  0.5512
 9308SOL     OW39382   0.072   3.651   7.250  0.0255 -0.1957 -1.0031
 9308SOL    HW139383   0.063   3.617   7.339 -2.5163  1.7019 -0.5329
 9308SOL    HW239384   0.019   3.731   7.255  0.2758  0.0267 -1.9515
 9309SOL     OW39385   3.916   3.505   7.093  0.3153  0.4419  0.9696
 9309SOL    HW139386   3.958   3.424   7.125  2.2302  0.9900 -0.1973
 9309SOL    HW239387   3.831   3.497   7.137 -0.2405  0.9407 -0.0144
 9310SOL     OW39388   1.875   1.147   8.202 -0.4670 -0.1230 -0.1058
 9310SOL    HW139389   1.813   1.194   8.145  0.3769 -0.2734 -1.1370
 9310SOL    HW239390   1.821   1.120   8.277 -2.0999  0.7559 -0.9620
 9311SOL     OW39391   2.133   3.090   4.531 -0.2161  0.7538 -0.0861
 9311SOL    HW139392   2.117   3.180   4.502  0.2807  0.9416  0.2186
 9311SOL    HW239393   2.174   3.057   4.451  2.0662 -0.0602  1.4089
 9312SOL     OW39394   0.925   1.447   6.536  0.0331  0.0323 -0.4058
 9312SOL    HW139395   0.870   1.482   6.606 -0.4767 -1.6023 -0.0047
 9312SOL    HW239396   0.965   1.526   6.499 -1.4210  1.1093  0.3296
 9313SOL     OW39397   4.048   4.014   5.263  0.5404 -0.5006  0.0555
 9313SOL    HW139398   4.132   3.984   5.297 -0.2091 -2.6569 -0.0166
 9313SOL    HW239399   4.017   4.058   5.342 -1.0870 -1.0043 -0.3051
 9314SOL     OW39400   2.454   1.075   3.804  0.3407  0.4374 -0.2007
 9314SOL    HW139401   2.391   1.027   3.858  0.1382 -0.4504 -1.2319
 9314SOL    HW239402   2.482   1.140   3.869  3.4305 -0.7214 -0.3634
 9315SOL     OW39403   4.204   0.694  10.797  0.0640 -0.3583  0.1604
 9315SOL    HW139404   4.276   0.659  10.745 -0.2364 -2.0850  0.8925
 9315SOL    HW239405   4.131   0.644  10.762  0.3481  0.6463 -1.8858
 9316SOL     OW39406   3.479   1.067   2.591 -0.1357  0.4369  0.3141
 9316SOL    HW139407   3.519   1.078   2.505  0.4910  1.0843  0.6781
 9316SOL    HW239408   3.471   0.972   2.596  0.6528  0.4040  0.9438
 9317SOL     OW39409   0.777   4.350   7.868 -0.2239  0.5878  0.2279
 9317SOL    HW139410   0.849   4.295   7.839 -2.1865 -0.5429 -2.5631
 9317SOL    HW239411   0.780   4.346   7.964  2.6034 -0.2084  0.0933
 9318SOL     OW39412   2.125   0.167   4.875 -0.1766 -0.2495  0.3210
 9318SOL    HW139413   2.187   0.115   4.825  0.9895  0.3763  1.1174
 9318SOL    HW239414   2.096   0.101   4.938 -0.5879 -0.0837  0.3043
 9319SOL     OW39415   4.414   0.050  14.027 -0.4497 -0.4519 -0.7485
 9319SOL    HW139416   4.482   0.117  14.022 -3.1100  2.5186  2.6103
 9319SOL    HW239417   4.336   0.106  14.036  0.1739  0.4472 -0.9559
 9320SOL     OW39418   2.718   1.032   7.929 -0.0938 -0.0014 -0.2826
 9320SOL    HW139419   2.641   1.023   7.873 -1.2610 -0.6639  1.4176
 9320SOL    HW239420   2.693   0.956   7.981 -0.5900  0.7287  0.5491
 9321SOL     OW39421   2.021   4.406   9.501 -0.0318  0.5052  0.1733
 9321SOL    HW139422   2.054   4.476   9.557  0.5720  1.1288 -0.9572
 9321SOL    HW239423   1.932   4.401   9.535 -0.0727  1.3034  0.2040
 9322SOL     OW39424   1.074   0.542   4.420  0.0970 -0.3119  0.1115
 9322SOL    HW139425   1.061   0.593   4.340  1.1839 -0.2101 -0.0022
 9322SOL    HW239426   1.112   0.459   4.388 -0.6431 -0.3318 -0.7356
 9323SOL     OW39427   4.682   1.114   7.032  0.0593  0.3082  0.3727
 9323SOL    HW139428   4.628   1.193   7.038  0.9966  0.9976 -0.2564
 9323SOL    HW239429   4.638   1.057   7.095  0.5786  1.1891  1.5044
 9324SOL     OW39430   1.223   1.883   6.885 -0.1922  0.1836 -0.2597
 9324SOL    HW139431   1.241   1.971   6.918  2.5197 -0.7620  0.7993
 9324SOL    HW239432   1.299   1.869   6.829  0.1992  0.7477  0.1307
 9325SOL     OW39433   3.258   0.576   4.537 -0.0122 -0.1248  0.5115
 9325SOL    HW139434   3.246   0.609   4.626 -0.6461  2.4574 -0.5372
 9325SOL    HW239435   3.210   0.494   4.546  0.9487 -0.9013 -1.2344
 9326SOL     OW39436   0.019   3.400   8.569  0.1562 -0.2846  0.6003
 9326SOL    HW139437   0.097   3.399   8.624  3.5252  1.1900 -4.2146
 9326SOL    HW239438   0.036   3.321   8.517  2.8679  0.4563  0.4016
 9327SOL     OW39439   0.077   3.196  11.395  0.3599  0.3302  0.3449
 9327SOL    HW139440   0.095   3.208  11.302 -0.0245 -1.2345  0.0786
 9327SOL    HW239441   0.143   3.135  11.426 -0.3397 -1.1535 -1.0932
 9328SOL     OW39442   1.509   3.045   8.413 -0.7264 -0.1802  0.0026
 9328SOL    HW139443   1.453   3.123   8.405 -1.6119 -0.8958 -0.8693
 9328SOL    HW239444   1.568   3.064   8.340  0.9747 -2.0503  0.9066
 9329SOL     OW39445   3.206   0.304   6.679 -0.5535  0.3204  0.7460
 9329SOL    HW139446   3.283   0.262   6.642 -0.6169  1.6698 -0.9556
 9329SOL    HW239447   3.134   0.269   6.627  1.0814  0.4786 -1.6199
 9330SOL     OW39448   1.973   3.558   1.912  0.0311  0.1907  0.6561
 9330SOL    HW139449   2.054   3.518   1.881 -0.9764 -1.9902  0.8428
 9330SOL    HW239450   1.967   3.525   2.002 -1.8071  0.3699  0.6032
 9331SOL     OW39451   1.051   2.430   5.220  0.2482 -0.7481 -0.3003
 9331SOL    HW139452   1.117   2.485   5.178 -0.3256  0.7531  0.7637
 9331SOL    HW239453   0.974   2.456   5.171  0.6302  0.6300 -0.1652
 9332SOL     OW39454   3.138   4.062   8.635  0.0101 -0.3272 -0.7879
 9332SOL    HW139455   3.223   4.100   8.659 -0.7112  0.0159  1.2093
 9332SOL    HW239456   3.131   4.003   8.711 -0.6927 -0.2389 -0.7887
 9333SOL     OW39457   2.924   1.252   9.462 -0.0489  0.1035  0.1667
 9333SOL    HW139458   2.944   1.240   9.369  2.8845 -1.3845  0.9745
 9333SOL    HW239459   2.960   1.170   9.497  0.8886 -0.3509 -1.8311
 9334SOL     OW39460   2.313   3.592   5.608 -0.2641 -0.5148  0.3547
 9334SOL    HW139461   2.387   3.640   5.573 -0.6044  0.2835  0.7350
 9334SOL    HW239462   2.352   3.550   5.684  0.1612 -1.1798 -0.2193
 9335SOL     OW39463   3.738   1.098   5.833 -0.2312  0.4330 -0.0159
 9335SOL    HW139464   3.766   1.097   5.741 -1.1687  2.7316 -0.3324
 9335SOL    HW239465   3.794   1.171   5.860 -1.5299  1.0076  1.1386
 9336SOL     OW39466   2.647   2.952  10.337  0.0858 -0.1723  0.4848
 9336SOL    HW139467   2.658   2.999  10.420 -1.9136 -1.5547  1.5416
 9336SOL    HW239468   2.674   2.864  10.366  0.7263  0.5035  1.9302
 9337SOL     OW39469   2.910   0.751  11.363 -0.0404 -0.3290 -0.8272
 9337SOL    HW139470   2.947   0.812  11.427  0.2621 -0.7477 -0.5969
 9337SOL    HW239471   2.896   0.679  11.425 -0.3431 -0.9065 -1.5627
 9338SOL     OW39472   3.693   3.586   4.656 -0.0863 -0.4526 -0.0021
 9338SOL    HW139473   3.657   3.669   4.689  2.0681  0.6025 -0.2977
 9338SOL    HW239474   3.713   3.534   4.734  2.9989 -1.0091 -1.1666
 9339SOL     OW39475   1.548   2.463   3.758 -0.4411 -0.3981  0.1940
 9339SOL    HW139476   1.498   2.427   3.685  1.5025 -1.6519 -0.5419
 9339SOL    HW239477   1.484   2.509   3.812  0.1635  1.0047 -0.2861
 9340SOL     OW39478   2.660   2.051   6.723 -0.0413 -0.1724  0.5093
 9340SOL    HW139479   2.749   2.037   6.754  0.5072  1.4567 -0.2847
 9340SOL    HW239480   2.663   2.001   6.641 -1.7503  0.2621  0.1705
 9341SOL     OW39481   3.763   3.711  12.831 -0.0622  0.7495  0.0622
 9341SOL    HW139482   3.727   3.633  12.872 -0.1630  0.2383 -0.9849
 9341SOL    HW239483   3.734   3.695  12.741  1.4145 -0.6969 -0.1581
 9342SOL     OW39484   4.016   2.097   4.239 -0.5288  0.0860  0.3545
 9342SOL    HW139485   4.013   2.008   4.205  0.2715  1.1833 -2.6493
 9342SOL    HW239486   4.029   2.074   4.331 -0.1671  0.3903  0.3805
 9343SOL     OW39487   0.083   4.267   5.132 -0.3428 -0.4812  0.1064
 9343SOL    HW139488   0.107   4.177   5.156  0.1947 -0.4694 -0.3740
 9343SOL    HW239489   0.169   4.308   5.139 -0.4116 -0.4346  0.6795
 9344SOL     OW39490   3.439   0.383  10.721 -0.4242 -0.1380  0.4661
 9344SOL    HW139491   3.415   0.466  10.681 -0.1294  0.1954  0.9802
 9344SOL    HW239492   3.390   0.315  10.676  0.1036 -0.0946 -0.1828
 9345SOL     OW39493   1.278   0.896   6.559 -0.3207 -0.3059 -0.6655
 9345SOL    HW139494   1.279   0.974   6.613  2.0510 -1.0990  0.4601
 9345SOL    HW239495   1.338   0.843   6.612 -1.2058 -1.7768 -1.1311
 9346SOL     OW39496   1.020   3.224   8.974 -0.1249 -0.7550 -0.6583
 9346SOL    HW139497   0.943   3.194   9.022 -0.7050  1.4499 -0.2483
 9346SOL    HW239498   1.053   3.290   9.034 -1.0754 -0.4075 -0.5205
 9347SOL     OW39499   2.261   3.641   4.619  0.0244 -0.3486  0.2224
 9347SOL    HW139500   2.202   3.706   4.659 -0.8082 -0.7041 -0.4181
 9347SOL    HW239501   2.262   3.570   4.683  0.6014 -1.0127 -0.5352
 9348SOL     OW39502   4.245   3.711  12.680  0.1670 -0.2303 -0.3359
 9348SOL    HW139503   4.323   3.675  12.723  1.1153  2.0164 -0.1987
 9348SOL    HW239504   4.264   3.803  12.664  1.4554 -0.5598 -0.6593
 9349SOL     OW39505   2.949   0.519  12.864 -1.0447  0.4700 -0.2963
 9349SOL    HW139506   3.036   0.489  12.838 -0.7091 -0.6211  2.0268
 9349SOL    HW239507   2.927   0.596  12.812 -0.2176  0.6978 -0.3004
 9350SOL     OW39508   1.166   0.758   6.037 -0.4243  0.1236  0.4636
 9350SOL    HW139509   1.172   0.853   6.032 -2.0380  0.3216  2.8333
 9350SOL    HW239510   1.185   0.738   6.128  0.6498  1.4564  0.5228
 9351SOL     OW39511   2.622   0.685  16.909  0.1635  0.0107 -0.0106
 9351SOL    HW139512   2.535   0.682  16.950  0.0028 -0.8134 -0.4162
 9351SOL    HW239513   2.612   0.758  16.849 -0.9132  2.5352  3.2417
 9352SOL     OW39514   1.792   1.797  14.235  0.4996  0.0266 -0.0714
 9352SOL    HW139515   1.843   1.763  14.309 -0.6420 -0.2883  0.5756
 9352SOL    HW239516   1.792   1.717  14.183  1.2075 -0.0127  0.0000
 9353SOL     OW39517   2.729   4.221   2.979  0.2112  0.0237 -0.1235
 9353SOL    HW139518   2.765   4.305   2.951 -0.6287  0.5514  0.3817
 9353SOL    HW239519   2.672   4.198   2.906 -0.2353 -0.2040  0.2937
 9354SOL     OW39520   2.673   3.217   3.987  0.6249 -0.0712 -0.7048
 9354SOL    HW139521   2.600   3.271   4.017  0.0484 -0.9837 -0.4544
 9354SOL    HW239522   2.716   3.273   3.923  2.3187  1.1159  1.4674
 9355SOL     OW39523   3.461   2.951   7.430  0.8032 -0.0742 -0.4434
 9355SOL    HW139524   3.382   2.980   7.385  0.0730  1.2942  1.7291
 9355SOL    HW239525   3.522   3.021   7.405  0.9965  0.0774  0.4738
 9356SOL     OW39526   3.485   1.178   8.035  0.2697 -0.3923 -0.0759
 9356SOL    HW139527   3.408   1.160   7.982  2.2396 -2.8364 -2.1240
 9356SOL    HW239528   3.535   1.245   7.988  0.9871 -1.2789 -0.5699
 9357SOL     OW39529   3.053   3.181   4.867  0.1345  0.0703  0.2265
 9357SOL    HW139530   3.039   3.094   4.904  0.4518 -0.2424 -0.3911
 9357SOL    HW239531   3.136   3.168   4.823  0.4594  0.8647  0.6034
 9358SOL     OW39532   0.562   3.228   5.529 -0.4433  0.2685 -0.3943
 9358SOL    HW139533   0.484   3.275   5.500 -1.0600  0.4403  1.5963
 9358SOL    HW239534   0.621   3.256   5.459 -0.9828  1.6513 -0.3064
 9359SOL     OW39535   1.325   2.298   0.482  0.1824  0.2711 -0.1610
 9359SOL    HW139536   1.309   2.239   0.408  2.8137 -0.1346 -0.3978
 9359SOL    HW239537   1.401   2.350   0.456 -0.8111  2.5869  1.6273
 9360SOL     OW39538   2.641   4.090   1.959  0.1525  0.1014  0.0260
 9360SOL    HW139539   2.597   4.172   1.940  0.6317  0.4856  0.5857
 9360SOL    HW239540   2.638   4.051   1.872 -0.3178 -1.4313  0.7199
 9361SOL     OW39541   2.716   2.746   4.709 -0.2889 -0.2437  0.3549
 9361SOL    HW139542   2.778   2.675   4.691 -0.0231  0.0323  0.1766
 9361SOL    HW239543   2.666   2.745   4.627  0.6810  1.9296 -0.2590
 9362SOL     OW39544   0.389   4.646   1.451 -0.3612  0.5051  0.5627
 9362SOL    HW139545   0.369   4.558   1.483  0.9189 -0.1331 -0.4065
 9362SOL    HW239546   0.421   4.697   1.526  0.2858  1.4683 -0.3711
 9363SOL     OW39547   1.262   4.114   5.515  0.8565  0.4113  0.2633
 9363SOL    HW139548   1.187   4.104   5.575  0.9015 -0.9726  0.0875
 9363SOL    HW239549   1.334   4.149   5.566  0.9331 -0.0833  0.4977
 9364SOL     OW39550   2.786   2.534  14.510  0.5320 -0.0003  0.9745
 9364SOL    HW139551   2.820   2.623  14.520  3.2917 -0.6305 -2.8479
 9364SOL    HW239552   2.864   2.481  14.524 -0.2296 -1.7343 -1.3879
 9365SOL     OW39553   2.540   0.799  16.504 -0.0254 -0.0472 -0.4279
 9365SOL    HW139554   2.597   0.872  16.527  0.6454  0.1233 -2.6645
 9365SOL    HW239555   2.467   0.815  16.564 -0.2412 -3.1197  0.1414
 9366SOL     OW39556   4.031   3.417   7.354  0.0755  0.4639  0.1946
 9366SOL    HW139557   4.092   3.344   7.366 -0.6982 -0.0838  0.8721
 9366SOL    HW239558   3.950   3.369   7.374 -0.1244  1.0417  0.7578
 9367SOL     OW39559   4.393   1.734  16.749 -0.3540 -0.6754 -0.0184
 9367SOL    HW139560   4.390   1.704  16.840 -0.1808 -1.2128 -0.1887
 9367SOL    HW239561   4.369   1.654  16.702 -1.6651 -0.9337  1.0583
 9368SOL     OW39562   4.144   2.017  14.713 -0.0681  0.3265 -0.3196
 9368SOL    HW139563   4.122   2.111  14.712 -1.0888  0.0885 -0.5748
 9368SOL    HW239564   4.178   2.016  14.802 -0.9811 -0.6707  0.0180
 9369SOL     OW39565   2.201   2.056   9.599  0.6500 -0.2695  0.3680
 9369SOL    HW139566   2.181   1.974   9.554  0.3593  0.5873 -1.1026
 9369SOL    HW239567   2.130   2.110   9.563  2.3650 -0.7594 -3.8092
 9370SOL     OW39568   4.134   2.031   2.986 -0.0055  0.2693  0.2006
 9370SOL    HW139569   4.065   2.057   2.924 -0.5281  1.8007  1.4173
 9370SOL    HW239570   4.071   1.986   3.043 -1.3314  1.4754 -0.2901
 9371SOL     OW39571   2.149   4.282   5.112  0.0500  0.2262 -0.1969
 9371SOL    HW139572   2.062   4.247   5.094 -0.2709  0.9577 -0.0923
 9371SOL    HW239573   2.212   4.235   5.057  0.3985  1.5961 -0.9609
 9372SOL     OW39574   1.510   2.543   9.328  0.3264  0.4350 -0.4354
 9372SOL    HW139575   1.538   2.475   9.389 -0.8808  0.6492  0.3483
 9372SOL    HW239576   1.497   2.484   9.254  2.9424  0.9023 -1.2814
 9373SOL     OW39577   1.002   2.619   2.161  0.0852 -0.1886 -0.1394
 9373SOL    HW139578   0.920   2.573   2.141 -1.1954  2.1829 -0.4351
 9373SOL    HW239579   0.973   2.709   2.175  3.9866  1.1346 -0.8133
 9374SOL     OW39580   0.218   3.955   5.205  0.0636  0.3564  0.4510
 9374SOL    HW139581   0.216   3.947   5.110  1.0654 -1.1746  0.5636
 9374SOL    HW239582   0.307   3.992   5.205  0.2446 -0.0803 -0.0081
 9375SOL     OW39583   2.364   1.072   4.879 -0.0909 -0.4591  0.5443
 9375SOL    HW139584   2.400   1.061   4.967 -1.0413  0.7301  1.0774
 9375SOL    HW239585   2.282   1.116   4.901 -0.8127 -1.1482 -0.7776
 9376SOL     OW39586   3.007   4.033   0.624  0.1800  0.7619  0.3106
 9376SOL    HW139587   2.924   4.057   0.666 -1.0042 -0.9321 -1.0553
 9376SOL    HW239588   3.007   4.084   0.543 -0.3918  0.5947  0.2051
 9377SOL     OW39589   0.433   0.041   7.051 -0.2966  0.7663  0.6817
 9377SOL    HW139590   0.437   0.135   7.031 -1.1213  0.7246  0.3275
 9377SOL    HW239591   0.524   0.017   7.071 -0.0161 -0.2722 -1.8410
 9378SOL     OW39592   2.265   2.134   5.821 -0.0241  0.5390 -0.4883
 9378SOL    HW139593   2.328   2.088   5.767 -1.7794 -1.5770 -0.7590
 9378SOL    HW239594   2.311   2.216   5.837  1.5298 -0.5875  0.8194
 9379SOL     OW39595   2.177   0.807   1.767 -0.1860 -0.1227  0.3694
 9379SOL    HW139596   2.140   0.896   1.772  0.1702 -0.0769  2.0615
 9379SOL    HW239597   2.264   0.818   1.729 -0.3247  0.2776  0.1617
 9380SOL     OW39598   4.588   0.322  15.001 -0.2266 -0.1998  0.4055
 9380SOL    HW139599   4.673   0.287  14.975 -0.8545  0.0767 -1.9679
 9380SOL    HW239600   4.609   0.409  15.036 -1.1589  0.6565 -1.1620
 9381SOL     OW39601   1.155   0.578  15.444  1.3570  0.6434  0.4097
 9381SOL    HW139602   1.209   0.523  15.387 -1.1817  1.3056 -2.6595
 9381SOL    HW239603   1.216   0.595  15.516 -0.0935  1.3734  1.4624
 9382SOL     OW39604   3.262   2.600   7.621 -0.2343 -0.2887  0.4384
 9382SOL    HW139605   3.257   2.553   7.538  0.3416  0.7034 -0.1456
 9382SOL    HW239606   3.182   2.652   7.617  0.0508 -0.1161 -3.2998
 9383SOL     OW39607   2.417   4.406   4.526  0.3402 -0.4008 -0.1513
 9383SOL    HW139608   2.469   4.486   4.526  0.2559 -0.3515  0.7973
 9383SOL    HW239609   2.352   4.425   4.458  0.1568 -1.9261 -0.3911
 9384SOL     OW39610   4.229   3.603  14.764 -0.4245  0.6919 -0.1896
 9384SOL    HW139611   4.176   3.560  14.831  1.8946 -1.0052  0.5296
 9384SOL    HW239612   4.175   3.681  14.751 -0.3930  0.2174 -3.3323
 9385SOL     OW39613   2.731   0.959   3.652 -0.2022 -0.4876 -0.2888
 9385SOL    HW139614   2.702   1.020   3.720  1.9783  0.8003 -0.5371
 9385SOL    HW239615   2.660   0.894   3.649  0.1156 -0.8275 -0.3583
 9386SOL     OW39616   0.395   3.350   4.189 -0.1410 -0.2378 -0.7298
 9386SOL    HW139617   0.378   3.369   4.097 -1.4082 -0.9447 -0.6408
 9386SOL    HW239618   0.330   3.404   4.234  0.2324 -0.0446 -0.4146
 9387SOL     OW39619   0.398   4.002  10.232 -0.2120 -0.2328  0.3002
 9387SOL    HW139620   0.338   4.043  10.294 -0.7017  0.0160 -0.3391
 9387SOL    HW239621   0.448   3.937  10.281 -0.1064 -1.3629 -1.2849
 9388SOL     OW39622   4.724   4.498   4.678  0.3645 -0.5702  0.2400
 9388SOL    HW139623   4.691   4.444   4.750  0.0383  0.3304  0.7725
 9388SOL    HW239624   0.005   4.435   4.607  0.5148  1.8442 -1.8692
 9389SOL     OW39625   0.972   0.641   3.523 -0.6496 -0.2608 -0.0894
 9389SOL    HW139626   0.962   0.597   3.438  0.0600  3.2750 -2.0211
 9389SOL    HW239627   1.049   0.589   3.546 -1.1816 -2.1280 -2.5057
 9390SOL     OW39628   1.652   2.421   2.973  0.1148  0.3975 -0.4769
 9390SOL    HW139629   1.585   2.488   2.980 -0.5782 -0.3465  0.0550
 9390SOL    HW239630   1.674   2.413   3.066  1.9977 -2.0908 -1.1301
 9391SOL     OW39631   4.439   3.717  10.162 -0.3242 -0.1144 -0.6785
 9391SOL    HW139632   4.533   3.736  10.166 -0.0358 -2.3750  2.4749
 9391SOL    HW239633   4.411   3.774  10.234 -0.9333 -1.7333  0.3607
 9392SOL     OW39634   3.975   1.219  15.819  0.0746 -0.0175 -0.1698
 9392SOL    HW139635   3.967   1.263  15.734  0.3886  1.9294  0.8121
 9392SOL    HW239636   3.987   1.297  15.872 -1.2210 -0.9040  1.4676
 9393SOL     OW39637   4.067   0.397  17.661  0.1416  0.2883 -0.0741
 9393SOL    HW139638   3.978   0.429  17.650  0.2206 -0.7696 -3.6441
 9393SOL    HW239639   4.110   0.472  17.701  1.8502  0.0530 -1.4766
 9394SOL     OW39640   3.282   0.165   5.263 -0.0408  0.1285  0.2579
 9394SOL    HW139641   3.269   0.127   5.350 -3.1116  1.8211  0.5592
 9394SOL    HW239642   3.231   0.245   5.276 -0.0521  0.2257 -0.3939
 9395SOL     OW39643   1.244   2.182  14.096 -0.3895 -0.0525 -0.3070
 9395SOL    HW139644   1.176   2.230  14.144 -2.9165 -3.6026 -0.3654
 9395SOL    HW239645   1.219   2.090  14.093  0.5616 -0.2926 -0.9441
 9396SOL     OW39646   3.501   4.207   7.346 -0.5614 -0.3403  0.5449
 9396SOL    HW139647   3.523   4.248   7.262 -1.3421  0.3904  0.6969
 9396SOL    HW239648   3.565   4.137   7.355  0.1664  0.3253  0.5577
 9397SOL     OW39649   3.873   4.387   2.033  0.0908  0.4453  0.3151
 9397SOL    HW139650   3.919   4.378   1.949 -0.0721  0.5727  0.2116
 9397SOL    HW239651   3.880   4.483   2.041 -0.0941  0.5722 -1.0721
 9398SOL     OW39652   2.675   4.343  15.894 -0.0056 -0.4865  0.3740
 9398SOL    HW139653   2.654   4.406  15.963  0.1430  0.5214 -0.5056
 9398SOL    HW239654   2.645   4.261  15.933 -1.7966  0.7914  1.6533
 9399SOL     OW39655   2.057   2.063   7.938 -0.0785  0.2747 -0.0271
 9399SOL    HW139656   2.120   2.073   7.867 -1.9763 -0.9812 -1.8813
 9399SOL    HW239657   2.107   2.097   8.012  0.8892  1.0577 -1.0528
 9400SOL     OW39658   1.461   2.553   6.365  0.4675  0.3516  0.0424
 9400SOL    HW139659   1.392   2.503   6.408  0.8580  1.7315  2.2758
 9400SOL    HW239660   1.515   2.480   6.336 -0.5003 -0.3791  0.0740
 9401SOL     OW39661   2.834   3.628   6.355  0.4041  0.3134  0.2497
 9401SOL    HW139662   2.915   3.655   6.311  2.5319  0.6030  4.4364
 9401SOL    HW239663   2.770   3.668   6.296  2.0023  0.4308 -1.4117
 9402SOL     OW39664   3.673   0.372   6.570  0.2060  0.0463 -0.6770
 9402SOL    HW139665   3.720   0.378   6.487 -0.7704  2.1032 -1.0778
 9402SOL    HW239666   3.669   0.278   6.589  3.5162 -0.0059 -0.0893
 9403SOL     OW39667   0.938   1.394   5.660  0.4175 -0.0720 -0.1893
 9403SOL    HW139668   0.985   1.311   5.646 -1.1355 -1.4246  2.6716
 9403SOL    HW239669   0.915   1.417   5.570  0.5943  1.2362  0.1116
 9404SOL     OW39670   4.132   3.989   2.476 -0.5321  0.1231 -0.1124
 9404SOL    HW139671   4.222   4.015   2.454 -0.7241 -0.3965 -1.4520
 9404SOL    HW239672   4.082   4.070   2.467  0.3101  0.5602 -0.8606
 9405SOL     OW39673   2.509   2.819   6.690  0.2189  0.0402 -0.1935
 9405SOL    HW139674   2.482   2.774   6.611 -0.7505 -2.6559  1.6951
 9405SOL    HW239675   2.582   2.759   6.706 -0.4122 -0.3953  0.9975
 9406SOL     OW39676   2.240   4.402   6.607 -0.1970 -0.1567 -0.4073
 9406SOL    HW139677   2.319   4.350   6.620  0.2624  0.7782  0.4579
 9406SOL    HW239678   2.275   4.485   6.638  2.4866 -1.0210 -1.0876
 9407SOL     OW39679   4.603   4.390   6.578 -0.0069 -0.3194  0.0425
 9407SOL    HW139680   4.674   4.447   6.549 -0.4103  1.8038  3.3143
 9407SOL    HW239681   4.605   4.326   6.507 -0.0219 -1.7062  1.2784
 9408SOL     OW39682   0.650   0.393   2.324 -0.5155  0.4500  0.3909
 9408SOL    HW139683   0.644   0.315   2.270  0.6799  0.3478  0.4076
 9408SOL    HW239684   0.700   0.447   2.263 -2.1559  1.4898 -0.0578
 9409SOL     OW39685   1.963   0.299   1.063  0.1241 -0.0387 -0.0915
 9409SOL    HW139686   1.952   0.248   0.983  1.7370  0.4431 -0.6127
 9409SOL    HW239687   2.006   0.233   1.117 -0.5874 -1.5679 -1.4012
 9410SOL     OW39688   3.891   1.726  12.837  0.2887  0.0129 -0.3927
 9410SOL    HW139689   3.979   1.758  12.819 -0.1659  1.7122  0.3954
 9410SOL    HW239690   3.902   1.662  12.908  1.7513 -0.4036 -0.9799
 9411SOL     OW39691   0.962   2.023   2.196  0.4689 -0.0548  0.1840
 9411SOL    HW139692   0.962   2.096   2.133  3.6955 -0.0130  0.2094
 9411SOL    HW239693   0.992   1.950   2.142  0.7391  0.0158  0.2358
 9412SOL     OW39694   0.330   4.346   3.686  0.3531  0.0557 -0.4080
 9412SOL    HW139695   0.412   4.297   3.677 -0.6811 -2.2147  2.7622
 9412SOL    HW239696   0.338   4.405   3.611  0.7968  2.3913  1.4799
 9413SOL     OW39697   2.158   0.717   7.419 -0.5153  0.3182  0.4443
 9413SOL    HW139698   2.222   0.690   7.485  0.3072  2.2520  0.4251
 9413SOL    HW239699   2.085   0.662   7.445 -0.2846  0.5490  1.5788
 9414SOL     OW39700   3.141   3.971   2.576 -0.5559  0.2413 -0.5093
 9414SOL    HW139701   3.166   4.064   2.575 -0.7350  0.3106  1.0562
 9414SOL    HW239702   3.048   3.968   2.553 -1.2892  0.2020  2.4628
 9415SOL     OW39703   2.845   3.794   5.638 -0.0895 -0.4260 -0.4630
 9415SOL    HW139704   2.873   3.830   5.722  0.5583 -0.1272 -0.8061
 9415SOL    HW239705   2.927   3.746   5.627 -1.3354 -2.5462 -0.5272
 9416SOL     OW39706   1.070   0.771   1.901  0.7120 -0.2957  0.1915
 9416SOL    HW139707   1.101   0.858   1.927 -0.2360 -0.1092  0.6809
 9416SOL    HW239708   1.036   0.787   1.813  0.3642 -2.8682 -0.1547
 9417SOL     OW39709   3.050   4.543   8.628 -0.6496  0.0567 -0.2412
 9417SOL    HW139710   3.072   4.461   8.583 -1.6649 -0.7571  0.7665
 9417SOL    HW239711   3.029   4.518   8.718 -1.6677  0.1173 -0.4650
 9418SOL     OW39712   3.481   3.742  10.103  0.1844 -0.1255  0.1406
 9418SOL    HW139713   3.425   3.665  10.102  0.5561 -0.3612 -2.5222
 9418SOL    HW239714   3.495   3.739  10.198 -4.0401 -1.5250  0.7313
 9419SOL     OW39715   1.728   2.671   7.245 -0.2669 -0.1012 -0.0279
 9419SOL    HW139716   1.739   2.760   7.278  3.7861 -0.6579  0.0961
 9419SOL    HW239717   1.707   2.620   7.323  2.6942 -0.3908  0.5683
 9420SOL     OW39718   1.269   2.115   0.278 -0.6632 -0.2745  0.0703
 9420SOL    HW139719   1.186   2.142   0.237  0.5097  1.1690 -1.3352
 9420SOL    HW239720   1.327   2.115   0.202 -1.0264  0.7877 -0.2006
 9421SOL     OW39721   3.845   2.445   3.728 -0.4725  0.4936 -0.0640
 9421SOL    HW139722   3.915   2.504   3.698 -0.4938  0.0347 -1.0031
 9421SOL    HW239723   3.902   2.395   3.786 -0.1045 -0.5494 -1.3304
 9422SOL     OW39724   4.693   3.639   3.219  0.1608 -0.3350 -0.2078
 9422SOL    HW139725   4.683   3.544   3.219  0.1553 -0.3366  0.5284
 9422SOL    HW239726   4.706   3.643   3.124  2.1535 -0.9461  0.0506
 9423SOL     OW39727   2.959   0.844   6.147  0.5616  0.0545  0.3467
 9423SOL    HW139728   3.049   0.826   6.177  2.0215  2.5108 -2.6588
 9423SOL    HW239729   2.923   0.756   6.159  2.2985 -0.8619 -1.1815
 9424SOL     OW39730   4.397   0.650   5.960 -0.3402 -0.0299 -0.1331
 9424SOL    HW139731   4.460   0.661   6.032 -1.4992  1.4073  0.6570
 9424SOL    HW239732   4.445   0.590   5.903  0.6905  1.3336 -0.7012
 9425SOL     OW39733   0.831   0.832   5.041  0.2983  0.2514  0.1010
 9425SOL    HW139734   0.878   0.911   5.069  0.3081  0.8009 -1.4819
 9425SOL    HW239735   0.821   0.798   5.130 -0.2007  1.9996  0.7285
 9426SOL     OW39736   0.554   0.530   6.173 -0.1632  0.2040  0.5293
 9426SOL    HW139737   0.532   0.610   6.126 -0.4771 -1.0377 -1.4615
 9426SOL    HW239738   0.522   0.474   6.102  2.5632 -0.0065 -0.5664
 9427SOL     OW39739   3.808   1.663   7.492  0.3338  0.6085  0.1484
 9427SOL    HW139740   3.769   1.576   7.500  1.6270  0.0978  0.8798
 9427SOL    HW239741   3.738   1.728   7.486  0.9065  1.2046 -0.0995
 9428SOL     OW39742   3.968   1.300  11.879  0.1833 -0.4070 -0.0303
 9428SOL    HW139743   3.969   1.334  11.968 -0.1880  0.8199 -0.4883
 9428SOL    HW239744   3.996   1.377  11.829 -0.4028  0.2100  0.5925
 9429SOL     OW39745   1.124   4.309   7.420  0.6388 -0.3474 -0.3898
 9429SOL    HW139746   1.145   4.396   7.453  0.0601  0.1583 -1.3756
 9429SOL    HW239747   1.208   4.274   7.389  1.1398  0.5949 -0.0910
 9430SOL     OW39748   1.187   4.607   6.721 -0.2175 -0.5937 -0.0703
 9430SOL    HW139749   1.181   4.691   6.676  1.0648  0.1613  1.1540
 9430SOL    HW239750   1.191   4.641   6.810  0.3277 -2.6248  0.6723
 9431SOL     OW39751   3.199   0.048   1.582  0.1105  0.0308 -0.5061
 9431SOL    HW139752   3.143   0.105   1.634 -1.8312 -1.9971 -0.3910
 9431SOL    HW239753   3.164   0.065   1.495 -2.1821 -0.2657  0.3717
 9432SOL     OW39754   4.615   0.588  13.691  0.1808  0.5272 -0.2009
 9432SOL    HW139755   4.677   0.516  13.702  0.1940  0.3328 -1.6313
 9432SOL    HW239756   4.560   0.555  13.762  1.9717 -0.4882  0.7030
 9433SOL     OW39757   0.005   2.450  14.121 -0.5738  0.4018 -0.2807
 9433SOL    HW139758   4.652   2.473  14.168 -0.8356 -1.6066  0.2597
 9433SOL    HW239759   0.055   2.420  14.197 -0.7114  1.9122  0.4045
 9434SOL     OW39760   1.774   3.551   4.620 -0.9424 -0.1256 -0.2070
 9434SOL    HW139761   1.798   3.511   4.704 -1.1192  0.8299  0.2978
 9434SOL    HW239762   1.679   3.539   4.618 -0.9347 -0.0827 -0.6533
 9435SOL     OW39763   2.443   3.016  17.401  0.0626  0.2716 -0.1576
 9435SOL    HW139764   2.515   3.050  17.348  1.7521 -1.9193  0.7407
 9435SOL    HW239765   2.397   3.097  17.418 -2.4728 -1.4770  1.2525
 9436SOL     OW39766   0.364   1.448   4.605  0.5807  0.2408  0.2727
 9436SOL    HW139767   0.439   1.503   4.585  0.8348 -0.1231  0.2335
 9436SOL    HW239768   0.361   1.468   4.699 -0.5861 -3.6915  1.0820
 9437SOL     OW39769   2.488   3.640   5.917  0.6682 -0.3097  0.5801
 9437SOL    HW139770   2.531   3.684   5.844  0.9787  0.5044  1.2451
 9437SOL    HW239771   2.442   3.716   5.952 -1.1636 -0.9415 -0.4574
 9438SOL     OW39772   4.527   3.535   2.502  0.1515 -0.4893 -0.6119
 9438SOL    HW139773   4.578   3.473   2.450  1.7719  0.4299 -0.1220
 9438SOL    HW239774   4.438   3.507   2.481 -0.0910  0.4761 -0.8816
 9439SOL     OW39775   0.531   2.426  17.049  0.4799  0.3792  0.0090
 9439SOL    HW139776   0.513   2.444  16.957  1.0512  2.4963  0.3149
 9439SOL    HW239777   0.470   2.492  17.084  1.7872 -0.1585  3.2421
 9440SOL     OW39778   1.210   3.285   8.568 -0.1088  0.1489  0.2925
 9440SOL    HW139779   1.143   3.234   8.522 -0.7124  0.5251  0.7550
 9440SOL    HW239780   1.279   3.293   8.502 -0.4607  0.6313 -0.0199
 9441SOL     OW39781   3.600   2.994   4.217  0.2021 -0.3606 -0.0121
 9441SOL    HW139782   3.574   3.008   4.125 -1.5070 -1.7782  0.2645
 9441SOL    HW239783   3.681   3.047   4.217  0.1212 -0.2756  2.4643
 9442SOL     OW39784   4.136   1.776   1.071  0.1342 -0.2452 -0.5458
 9442SOL    HW139785   4.101   1.720   1.001  0.7769 -0.8400 -0.3904
 9442SOL    HW239786   4.228   1.782   1.046  0.6324  0.8709  1.6083
 9443SOL     OW39787   2.544   2.536   3.486  0.0039 -0.3175  0.0628
 9443SOL    HW139788   2.635   2.561   3.471  0.3137 -0.4510  1.8250
 9443SOL    HW239789   2.516   2.584   3.564 -0.0034 -0.0195 -0.1199
 9444SOL     OW39790   2.346   1.447   7.947  0.3149  0.4322 -0.3837
 9444SOL    HW139791   2.307   1.368   7.909 -1.8467  0.7592  1.1458
 9444SOL    HW239792   2.414   1.409   8.002 -0.6971 -0.8443  0.0094
 9445SOL     OW39793   2.732   3.292   3.100  0.2398 -0.2723  0.3019
 9445SOL    HW139794   2.697   3.262   3.016  0.5320 -0.5156  0.2668
 9445SOL    HW239795   2.648   3.308   3.144  1.1188  1.7583  1.2757
 9446SOL     OW39796   3.968   3.474   8.262  0.2864 -0.2111 -0.1767
 9446SOL    HW139797   3.909   3.407   8.295  1.1636 -0.8495  0.1038
 9446SOL    HW239798   3.921   3.551   8.294  1.1767  0.0203  0.5902
 9447SOL     OW39799   4.161   2.624   4.520 -0.0211 -0.5926 -0.1177
 9447SOL    HW139800   4.124   2.703   4.481 -4.5302 -2.0940  1.0986
 9447SOL    HW239801   4.152   2.640   4.614 -4.0609 -0.1263 -0.5774
 9448SOL     OW39802   0.977   2.392   1.385  0.0591  0.6245  0.0032
 9448SOL    HW139803   1.056   2.368   1.337 -1.0063  0.3369 -1.5927
 9448SOL    HW239804   0.922   2.429   1.316 -0.3958  0.3256  0.2056
 9449SOL     OW39805   3.677   1.506   3.058  0.0022  0.2446  0.0032
 9449SOL    HW139806   3.649   1.587   3.015 -0.5555  0.3289  0.5366
 9449SOL    HW239807   3.668   1.430   3.000 -1.3443  1.3941 -1.2994
 9450SOL     OW39808   3.402   4.157   4.709  0.0513  0.0844 -0.3457
 9450SOL    HW139809   3.406   4.076   4.659  0.2980  0.5017 -1.0000
 9450SOL    HW239810   3.381   4.225   4.645 -0.5263  0.8394  0.6302
 9451SOL     OW39811   3.911   3.349  16.169  0.3223  0.3630  0.0343
 9451SOL    HW139812   3.922   3.435  16.208  0.6056  0.8696 -1.1714
 9451SOL    HW239813   3.834   3.323  16.219 -1.2126  0.3702 -2.3084
 9452SOL     OW39814   1.763   2.744   3.638 -0.3062 -0.0762  0.0357
 9452SOL    HW139815   1.799   2.828   3.667  0.8138  0.2795 -2.4370
 9452SOL    HW239816   1.831   2.682   3.663  1.2168  2.4477  2.1145
 9453SOL     OW39817   3.597   1.320  16.847 -0.3210 -0.7353 -0.5713
 9453SOL    HW139818   3.590   1.245  16.906  1.9542  0.5014  1.2384
 9453SOL    HW239819   3.598   1.276  16.762 -1.7381  0.9889 -1.4972
 9454SOL     OW39820   3.182   1.177   7.446 -0.0134  0.1217 -0.0055
 9454SOL    HW139821   3.188   1.235   7.370 -0.6524  0.3594  0.1224
 9454SOL    HW239822   3.087   1.163   7.452  0.3456 -2.6499 -0.8283
 9455SOL     OW39823   2.224   3.876   6.235  0.1880  0.0186 -0.0654
 9455SOL    HW139824   2.303   3.858   6.285  0.3466  2.6560  0.6862
 9455SOL    HW239825   2.173   3.920   6.304 -1.3061 -1.2602 -0.3518
 9456SOL     OW39826   2.082   0.529  12.695 -0.4721  0.0961 -0.2291
 9456SOL    HW139827   2.111   0.578  12.771 -1.0968  2.4169 -1.4937
 9456SOL    HW239828   2.169   0.493  12.678 -0.0614  0.6514  0.7389
 9457SOL     OW39829   1.033   0.968   7.531 -0.1967  0.1880 -0.2185
 9457SOL    HW139830   1.090   0.916   7.586  0.0092 -0.2186 -0.8200
 9457SOL    HW239831   0.987   0.895   7.491  1.2695 -2.5083  3.0773
 9458SOL     OW39832   3.155   2.121  11.768  0.2907  0.2539 -0.3922
 9458SOL    HW139833   3.109   2.062  11.708  0.4851  0.3649 -0.6500
 9458SOL    HW239834   3.149   2.082  11.856 -1.3814 -0.0468 -0.6423
 9459SOL     OW39835   4.709   2.455   1.186  0.3653  0.0202  0.0324
 9459SOL    HW139836   4.626   2.430   1.146 -0.1134  1.9625 -0.1867
 9459SOL    HW239837   0.029   2.480   1.106 -0.2903  2.1101  0.3171
 9460SOL     OW39838   4.722   1.671   6.448  0.9459 -0.0340  0.0029
 9460SOL    HW139839   0.080   1.714   6.435  0.3423  1.1791  0.0282
 9460SOL    HW239840   0.016   1.579   6.432 -1.0104 -0.5798  0.6570
 9461SOL     OW39841   1.057   0.978   0.592 -0.4423 -0.2037  0.1392
 9461SOL    HW139842   0.985   0.915   0.590  0.7335 -1.5379  0.0662
 9461SOL    HW239843   1.071   0.983   0.498  0.3312 -0.9525  0.2144
 9462SOL     OW39844   2.607   1.865   4.326  0.0588 -0.3624 -0.4224
 9462SOL    HW139845   2.624   1.860   4.232  1.6508 -0.4090 -0.1254
 9462SOL    HW239846   2.690   1.895   4.361 -0.4444 -2.3918  2.4650
 9463SOL     OW39847   3.437   4.395  15.953 -0.5587 -0.1065  0.9104
 9463SOL    HW139848   3.410   4.404  16.044 -2.4850 -0.5747  0.3979
 9463SOL    HW239849   3.483   4.311  15.958  0.0971  0.3335  2.2547
 9464SOL     OW39850   1.422   2.955   3.732 -0.0343  0.3663 -0.1426
 9464SOL    HW139851   1.435   2.934   3.824 -0.7615 -2.0092 -0.6034
 9464SOL    HW239852   1.356   3.024   3.744  0.6599  0.6147  2.0639
 9465SOL     OW39853   1.680   2.778   7.917 -0.4182 -0.3444  0.1412
 9465SOL    HW139854   1.683   2.700   7.861 -1.2027 -0.4492  0.2502
 9465SOL    HW239855   1.585   2.771   7.927 -0.5513 -0.0792 -0.8870
 9466SOL     OW39856   1.480   0.414   3.405 -0.1041 -0.4464  0.5499
 9466SOL    HW139857   1.459   0.350   3.474  1.1497 -1.0553  0.3625
 9466SOL    HW239858   1.466   0.365   3.324 -1.5148  0.3678  0.3157
 9467SOL     OW39859   1.032   1.933   5.234 -0.3907  0.1980 -0.0537
 9467SOL    HW139860   1.105   1.924   5.173  0.6151 -0.0034  1.1795
 9467SOL    HW239861   1.069   2.003   5.287 -1.4158  1.2098 -0.6763
 9468SOL     OW39862   1.584   1.315   7.427  1.0512 -0.3704  0.0245
 9468SOL    HW139863   1.579   1.410   7.414 -0.2374 -0.0622  2.6921
 9468SOL    HW239864   1.622   1.297   7.341  1.1120 -0.8243  0.1492
 9469SOL     OW39865   4.697   2.946   5.797  0.1306  0.3989  0.1277
 9469SOL    HW139866   4.669   3.022   5.746  2.1505  0.7148 -0.5307
 9469SOL    HW239867   4.682   2.968   5.888  1.2223 -0.5253  0.5360
 9470SOL     OW39868   3.461   0.167   1.452  0.4180  0.5227  0.3383
 9470SOL    HW139869   3.479   0.103   1.383  1.5273  0.1451  0.9985
 9470SOL    HW239870   3.392   0.127   1.504  1.7364 -2.1170  0.0400
 9471SOL     OW39871   1.192   1.722   8.718  0.7332 -1.1508  0.3605
 9471SOL    HW139872   1.228   1.791   8.662 -1.4941 -0.6786 -0.5058
 9471SOL    HW239873   1.158   1.774   8.791 -0.0523 -1.2910  0.0940
 9472SOL     OW39874   3.778   4.369   3.402  0.3322 -0.1926 -0.7544
 9472SOL    HW139875   3.732   4.438   3.451  0.2885 -0.4759 -0.3964
 9472SOL    HW239876   3.708   4.307   3.385  1.5127 -0.5564 -4.1671
 9473SOL     OW39877   2.634   1.491  17.130 -0.0633 -0.2505  0.7744
 9473SOL    HW139878   2.651   1.562  17.192 -2.4313 -0.4833  1.7050
 9473SOL    HW239879   2.539   1.477  17.130 -0.3471  1.6036 -0.9775
 9474SOL     OW39880   2.036   1.052   1.944  0.1526  0.1949 -0.5935
 9474SOL    HW139881   2.066   1.066   1.854  0.4959 -0.2058 -0.5400
 9474SOL    HW239882   1.958   1.001   1.921  0.6168 -1.1472  0.8446
 9475SOL     OW39883   0.151   0.369  11.668  0.1479  0.2406  0.3664
 9475SOL    HW139884   0.147   0.281  11.632  0.0503  1.2535 -2.1258
 9475SOL    HW239885   0.066   0.393  11.704  0.4468 -0.4733  1.5338
 9476SOL     OW39886   1.585   1.277  11.774 -0.0719  0.7486  0.3676
 9476SOL    HW139887   1.679   1.278  11.794  0.3755  0.5991 -1.6795
 9476SOL    HW239888   1.576   1.184  11.755  5.1742  0.1849  0.6498
 9477SOL     OW39889   2.074   4.697   6.673 -1.0263 -0.4177  0.3979
 9477SOL    HW139890   2.062   4.611   6.713  0.0849 -2.0799 -2.8316
 9477SOL    HW239891   1.982   4.710   6.653 -1.7215 -0.9219  3.2206
 9478SOL     OW39892   3.208   3.216   8.287 -0.0175  0.2100  0.3433
 9478SOL    HW139893   3.221   3.250   8.375  1.0061  0.2701  0.1656
 9478SOL    HW239894   3.223   3.290   8.229  0.3758  0.2849  0.5380
 9479SOL     OW39895   0.315   2.191  13.831  0.1894 -0.3215 -0.0592
 9479SOL    HW139896   0.287   2.282  13.825  1.9340  0.4423  2.9751
 9479SOL    HW239897   0.387   2.198  13.895  0.7603  0.0871 -0.7472
 9480SOL     OW39898   1.012   4.010   9.203  0.2541 -0.3639  0.3932
 9480SOL    HW139899   0.970   3.969   9.128 -0.2430 -2.1563  1.6496
 9480SOL    HW239900   0.996   3.942   9.268 -1.9308  0.9058  1.1714
 9481SOL     OW39901   0.588   1.382   6.118 -0.0621  0.2769  0.0326
 9481SOL    HW139902   0.618   1.325   6.189  0.8314  0.0856 -0.4857
 9481SOL    HW239903   0.622   1.471   6.134  1.4888  0.1863 -2.7569
 9482SOL     OW39904   0.311   1.472   4.312  0.9010  0.3585 -0.3818
 9482SOL    HW139905   0.320   1.444   4.403 -0.8167 -1.8824 -0.8814
 9482SOL    HW239906   0.377   1.419   4.265 -1.4543 -1.6398 -1.4630
 9483SOL     OW39907   1.295   2.404  15.075 -0.6597 -0.2199  0.3992
 9483SOL    HW139908   1.311   2.366  14.988  0.6363  0.4844  0.3198
 9483SOL    HW239909   1.348   2.342  15.125 -0.1118 -0.2588 -0.2258
 9484SOL     OW39910   2.445   3.017   8.067  0.3054  0.0279  0.1164
 9484SOL    HW139911   2.506   2.988   8.135 -0.0138  0.6188  0.6510
 9484SOL    HW239912   2.473   3.108   8.059  1.0085 -0.0018  2.0640
 9485SOL     OW39913   1.050   2.490   9.316  0.2929  0.3029 -0.4424
 9485SOL    HW139914   1.109   2.556   9.351  1.8968  0.6913 -3.8722
 9485SOL    HW239915   1.043   2.414   9.374  0.9250  0.9371  0.4598
 9486SOL     OW39916   2.613   2.662   6.096  0.2496 -0.2874 -0.0263
 9486SOL    HW139917   2.657   2.577   6.104 -2.1980 -1.4993  0.6242
 9486SOL    HW239918   2.554   2.654   6.021  0.5467  2.0706 -0.4858
 9487SOL     OW39919   0.435   0.959   4.639 -0.0837  0.1948  0.1549
 9487SOL    HW139920   0.443   1.042   4.591 -0.0981  0.4201  0.5356
 9487SOL    HW239921   0.495   0.905   4.588 -0.2353 -1.2540  1.5297
 9488SOL     OW39922   2.423   3.900  15.322 -0.0210 -0.3993  0.1925
 9488SOL    HW139923   2.397   3.967  15.385 -1.0749  0.5786 -1.2826
 9488SOL    HW239924   2.343   3.850  15.306 -1.0982  1.2246  0.5541
 9489SOL     OW39925   2.785   1.029  16.356  0.0039  0.6096  0.4705
 9489SOL    HW139926   2.875   0.998  16.370 -0.0865  0.0826 -0.1165
 9489SOL    HW239927   2.740   1.004  16.437 -1.0434 -3.0921 -1.2413
 9490SOL     OW39928   2.598   0.415   5.972 -0.2571  0.3067  0.1552
 9490SOL    HW139929   2.655   0.406   6.049 -1.3838  0.2982  0.9911
 9490SOL    HW239930   2.560   0.328   5.961  1.6109 -0.3967 -0.6981
 9491SOL     OW39931   0.809   1.895  11.508 -0.1570 -0.9590  0.0614
 9491SOL    HW139932   0.745   1.965  11.517  0.0137 -0.8491  0.4032
 9491SOL    HW239933   0.892   1.942  11.496 -1.0234  0.5004 -0.1874
 9492SOL     OW39934   3.389   3.584   7.216 -0.3002  0.1242 -0.2116
 9492SOL    HW139935   3.356   3.522   7.281  2.9096 -0.6815  0.6691
 9492SOL    HW239936   3.483   3.566   7.219 -0.6790 -1.5314  2.0247
 9493SOL     OW39937   4.392   2.114   4.653 -0.1001 -0.2025 -0.0505
 9493SOL    HW139938   4.469   2.121   4.597 -0.1814 -0.5827 -0.2091
 9493SOL    HW239939   4.405   2.166   4.732 -0.6965 -1.9743  1.2093
 9494SOL     OW39940   2.006   3.915   2.277  0.0461 -0.0947 -0.1470
 9494SOL    HW139941   2.008   3.935   2.371  0.6563  1.7861 -0.5657
 9494SOL    HW239942   1.985   3.822   2.270  2.3569 -0.4706 -2.0828
 9495SOL     OW39943   0.858   2.020   1.019  0.1788 -0.9249  0.1906
 9495SOL    HW139944   0.769   1.985   1.015 -0.6020  1.2806 -1.6906
 9495SOL    HW239945   0.845   2.098   1.073  1.1186 -0.0583 -0.8214
 9496SOL     OW39946   1.378   2.698  13.778 -0.5295 -0.2473  0.3902
 9496SOL    HW139947   1.348   2.789  13.773  1.5118  0.3534 -1.4753
 9496SOL    HW239948   1.463   2.706  13.822 -2.0443  1.4209  2.9635
 9497SOL     OW39949   2.418   2.734   1.993 -0.1099  0.5714  0.3479
 9497SOL    HW139950   2.454   2.797   2.055  2.0416  0.7900 -1.1257
 9497SOL    HW239951   2.327   2.728   2.023 -0.9714 -2.5631 -2.8169
 9498SOL     OW39952   2.090   0.476   8.062 -0.0626  0.2286 -0.2349
 9498SOL    HW139953   2.040   0.545   8.019  1.2406 -0.1862 -2.4133
 9498SOL    HW239954   2.060   0.401   8.012  1.0340  0.9396 -1.9709
 9499SOL     OW39955   1.446   0.306   2.856  0.2884 -0.7140  0.3349
 9499SOL    HW139956   1.354   0.316   2.879 -0.1062 -0.7209 -1.2324
 9499SOL    HW239957   1.484   0.383   2.899 -0.7305 -0.6047  1.0211
 9500SOL     OW39958   1.155   0.468  14.307 -0.1832  0.3053  0.2931
 9500SOL    HW139959   1.216   0.541  14.302  3.1417 -2.6091 -1.2762
 9500SOL    HW239960   1.126   0.456  14.397 -2.2370  1.2396 -0.2347
 9501SOL     OW39961   3.582   3.194   2.760  0.0919 -0.4259 -0.9737
 9501SOL    HW139962   3.565   3.260   2.827  1.4104 -0.2753 -0.7909
 9501SOL    HW239963   3.668   3.158   2.781  0.1461  0.8287  0.9492
 9502SOL     OW39964   0.808   4.491   7.594  0.2200 -0.4093 -0.4030
 9502SOL    HW139965   0.717   4.475   7.569 -0.7152  3.5683  0.3870
 9502SOL    HW239966   0.834   4.399   7.594 -0.2907 -0.5592  1.8613
 9503SOL     OW39967   1.649   0.139   2.350  0.0496 -0.0733 -0.2141
 9503SOL    HW139968   1.640   0.049   2.382  2.3293 -0.7613 -1.5176
 9503SOL    HW239969   1.581   0.173   2.408  1.0623  0.8248  0.4327
 9504SOL     OW39970   1.626   0.657  12.726  0.3467 -0.2429  0.3405
 9504SOL    HW139971   1.572   0.719  12.676  1.7098  1.0481  0.4407
 9504SOL    HW239972   1.648   0.723  12.792 -0.2068  1.2996 -0.9859
 9505SOL     OW39973   1.583   4.582   7.386  0.3080 -0.0701 -0.1485
 9505SOL    HW139974   1.653   4.633   7.427  1.9593 -1.8449 -0.7333
 9505SOL    HW239975   1.520   4.589   7.457  0.2655 -1.4794 -0.0432
 9506SOL     OW39976   1.996   1.932  16.004 -0.2516  0.3976  0.7174
 9506SOL    HW139977   2.084   1.958  16.034 -0.1211 -0.6117  1.2228
 9506SOL    HW239978   1.957   2.019  16.000 -0.8823  0.0884  0.2569
 9507SOL     OW39979   3.873   1.713   0.302  0.7918 -0.2869 -0.2209
 9507SOL    HW139980   3.886   1.742   0.211 -0.9375 -1.5198 -0.8613
 9507SOL    HW239981   3.922   1.631   0.303 -0.0640 -0.8111 -0.7091
 9508SOL     OW39982   2.963   1.414   5.428  0.9556  0.3058 -0.6930
 9508SOL    HW139983   3.054   1.414   5.399  0.7248  1.9011 -1.4095
 9508SOL    HW239984   2.947   1.337   5.483 -1.1686  1.6385  0.5739
 9509SOL     OW39985   3.365   2.709   2.694  0.6006  0.4931 -0.0564
 9509SOL    HW139986   3.420   2.787   2.689 -0.2420  1.0340 -0.9597
 9509SOL    HW239987   3.398   2.663   2.617  0.2333 -0.2484  0.2268
 9510SOL     OW39988   0.378   3.984  12.268 -0.7032 -0.2076 -0.8902
 9510SOL    HW139989   0.404   3.898  12.301  3.3672  1.5716  0.5955
 9510SOL    HW239990   0.300   4.004  12.320 -0.4157  0.1675 -0.5975
 9511SOL     OW39991   4.244   0.355   1.660 -0.3073  0.0632  0.5857
 9511SOL    HW139992   4.247   0.268   1.699 -1.6337  1.3565  3.5907
 9511SOL    HW239993   4.189   0.400   1.725 -0.7716  1.7155 -0.9354
 9512SOL     OW39994   4.298   2.263  15.008 -0.1516  0.1120 -0.2998
 9512SOL    HW139995   4.312   2.181  14.960 -1.7786 -0.9423  1.0587
 9512SOL    HW239996   4.204   2.256  15.023 -0.4212  1.5548 -1.3580
 9513SOL     OW39997   4.190   1.674   7.269 -0.6625 -0.0130  0.3753
 9513SOL    HW139998   4.197   1.756   7.220 -1.1717 -0.4485 -0.4176
 9513SOL    HW239999   4.102   1.650   7.240 -0.6410  1.0032 -0.5290
 9514SOL     OW40000   2.596   1.005   6.153 -0.2360 -0.0529 -0.0490
 9514SOL    HW140001   2.568   1.056   6.077  0.5587  1.0387  0.3955
 9514SOL    HW240002   2.589   0.912   6.130 -1.2395 -0.0458  0.2155
 9515SOL     OW40003   0.823   2.179  16.283 -0.0072 -0.2129  0.0654
 9515SOL    HW140004   0.766   2.103  16.282  0.3568 -0.4931  0.5601
 9515SOL    HW240005   0.777   2.231  16.217  0.8045 -1.9462 -1.8445
 9516SOL     OW40006   4.326   0.076   6.187 -0.1099 -0.4311 -0.1554
 9516SOL    HW140007   4.355   0.026   6.263 -0.4850 -2.5679 -1.4280
 9516SOL    HW240008   4.379   0.053   6.111  1.5750  1.2612  0.5083
 9517SOL     OW40009   2.580   1.747  15.345  0.2537  0.1233 -0.2041
 9517SOL    HW140010   2.546   1.702  15.268  0.8235 -0.1102 -0.3231
 9517SOL    HW240011   2.562   1.676  15.405  1.1287 -0.8263 -1.0562
 9518SOL     OW40012   3.293   0.871   2.894  0.3310  0.0140  0.4223
 9518SOL    HW140013   3.261   0.784   2.918  0.4403  0.8303  3.4967
 9518SOL    HW240014   3.384   0.842   2.883  0.9968  2.1324  0.2761
 9519SOL     OW40015   2.500   3.260  11.619  0.2557 -0.3777 -0.4748
 9519SOL    HW140016   2.408   3.250  11.641  0.5939  0.2272  1.2060
 9519SOL    HW240017   2.511   3.312  11.539  0.8820 -0.4324 -0.4236
 9520SOL     OW40018   4.352   4.116   6.380  0.7201  0.0813  0.0349
 9520SOL    HW140019   4.301   4.116   6.299 -0.9333 -1.7226  1.0930
 9520SOL    HW240020   4.355   4.020   6.385 -0.3472  0.0799  0.5693
 9521SOL     OW40021   1.861   3.445   4.273  0.4517 -0.3700 -0.0227
 9521SOL    HW140022   1.776   3.485   4.290  0.2103 -1.0164  0.3033
 9521SOL    HW240023   1.906   3.507   4.216 -1.8960  1.6926  0.3518
 9522SOL     OW40024   1.082   2.091   8.081  0.8206 -0.0250  0.1807
 9522SOL    HW140025   1.160   2.133   8.116  0.7762 -0.8499  1.2839
 9522SOL    HW240026   1.014   2.146   8.120  0.1716 -1.1346  0.6080
 9523SOL     OW40027   1.232   2.323   1.287  0.3773  0.1494 -0.2007
 9523SOL    HW140028   1.285   2.258   1.334 -1.7102 -0.5499  1.1762
 9523SOL    HW240029   1.240   2.289   1.198 -0.8261 -0.8870  0.0882
 9524SOL     OW40030   3.119   0.223   4.007 -0.3138 -0.3173  0.2856
 9524SOL    HW140031   3.210   0.207   4.033 -0.4231 -0.1536  0.7525
 9524SOL    HW240032   3.088   0.132   4.004  2.0552 -1.1759  1.4025
 9525SOL     OW40033   3.309   3.286   8.577  0.7752  0.5389 -0.3221
 9525SOL    HW140034   3.359   3.362   8.546  1.0481  1.5998  2.7300
 9525SOL    HW240035   3.363   3.210   8.598 -1.5962 -0.2666  2.7975
 9526SOL     OW40036   1.744   2.775  17.490  0.0179 -0.0936 -0.2562
 9526SOL    HW140037   1.819   2.818  17.448  0.6636  0.0664  1.0458
 9526SOL    HW240038   1.683   2.848  17.481  0.4419  0.1197 -1.4813
 9527SOL     OW40039   2.425   4.547   3.676  0.1056  0.7593  0.0083
 9527SOL    HW140040   2.370   4.473   3.649  1.3254 -0.7139  1.5741
 9527SOL    HW240041   2.396   4.558   3.766 -0.1528  0.6414 -0.0612
 9528SOL     OW40042   0.996   2.145  15.164 -0.2384 -0.6557 -0.0923
 9528SOL    HW140043   0.914   2.096  15.160 -0.4050 -0.5549  2.3560
 9528SOL    HW240044   0.978   2.227  15.119  0.7100 -0.8504 -0.8207
 9529SOL     OW40045   1.551   2.848   8.954  0.5204 -0.2116  0.0167
 9529SOL    HW140046   1.629   2.891   8.989  0.1073  0.8703 -0.4287
 9529SOL    HW240047   1.561   2.876   8.864 -0.2928  0.2641  0.0843
 9530SOL     OW40048   1.359   4.697   5.759  0.4374 -0.4859 -0.5816
 9530SOL    HW140049   1.348   0.063   5.783  2.0157 -0.1317 -1.2401
 9530SOL    HW240050   1.436   4.699   5.702 -0.5700 -1.3821 -1.9669
 9531SOL     OW40051   2.573   3.172   8.860  0.1216 -0.5465 -0.3644
 9531SOL    HW140052   2.502   3.123   8.900 -0.3122  1.6022  1.4954
 9531SOL    HW240053   2.624   3.195   8.938 -1.0394  1.3538 -0.1698
 9532SOL     OW40054   2.252   2.256   9.245  0.3180  0.3918 -0.4112
 9532SOL    HW140055   2.209   2.341   9.239 -0.3728  0.1984  1.6219
 9532SOL    HW240056   2.319   2.263   9.177  1.2644  2.9853  0.7756
 9533SOL     OW40057   2.029   3.994   4.009  0.4106 -0.1450 -0.5486
 9533SOL    HW140058   2.104   3.947   4.045 -0.0378 -2.3126 -2.3668
 9533SOL    HW240059   1.967   3.923   3.989  0.1269 -0.0100 -0.1380
 9534SOL     OW40060   1.231   0.648   4.836  0.0127 -0.5323  0.2277
 9534SOL    HW140061   1.223   0.682   4.748  1.5590  0.4955  0.4725
 9534SOL    HW240062   1.140   0.628   4.859  0.1867 -0.3742  1.0626
 9535SOL     OW40063   3.281   2.298   5.277  0.1515  0.2921  0.0282
 9535SOL    HW140064   3.327   2.381   5.262  1.0707 -0.2841 -0.4116
 9535SOL    HW240065   3.339   2.261   5.344  1.7921  0.3533 -1.3271
 9536SOL     OW40066   1.404   2.669   4.706  0.2937 -0.0768  1.0063
 9536SOL    HW140067   1.321   2.623   4.723  0.0129 -0.6734 -1.8501
 9536SOL    HW240068   1.435   2.685   4.795 -0.5667  1.5016  1.0254
 9537SOL     OW40069   4.500   2.488   7.919  0.0200 -0.4389  0.0995
 9537SOL    HW140070   4.405   2.492   7.917  0.1193  1.4867 -1.2726
 9537SOL    HW240071   4.528   2.402   7.949 -0.3178 -0.9333 -0.9834
 9538SOL     OW40072   0.131   1.347   8.981 -0.1341 -0.1249  0.5920
 9538SOL    HW140073   0.070   1.277   8.959 -0.0239 -0.5060  1.4921
 9538SOL    HW240074   0.185   1.378   8.908  0.1162  0.4449  1.0258
 9539SOL     OW40075   1.944   3.587   4.055  0.0278  0.8284  0.1821
 9539SOL    HW140076   2.001   3.628   3.990  1.1886 -0.1770  0.5572
 9539SOL    HW240077   1.915   3.511   4.004 -0.7204  1.6143 -0.5587
 9540SOL     OW40078   0.986   3.392  10.915 -0.1794 -0.0411  0.8541
 9540SOL    HW140079   1.027   3.309  10.940 -0.7223 -0.4443  0.4043
 9540SOL    HW240080   0.922   3.393  10.985 -0.0725  0.9382  0.9380
 9541SOL     OW40081   0.979   2.091   0.779 -0.4815 -0.9157  0.0572
 9541SOL    HW140082   0.946   2.050   0.859 -3.2666 -1.1938 -1.2386
 9541SOL    HW240083   0.923   2.168   0.773  1.4501  0.1901 -3.2264
 9542SOL     OW40084   2.917   3.707   2.933  0.8796  0.7185 -0.4623
 9542SOL    HW140085   3.011   3.692   2.943  0.9883  0.8887 -1.2024
 9542SOL    HW240086   2.911   3.793   2.974 -0.4878  0.0464  0.7357
 9543SOL     OW40087   1.504   4.259   8.326 -0.4250  0.0915 -0.2039
 9543SOL    HW140088   1.586   4.208   8.330 -1.3998 -1.4692 -0.1542
 9543SOL    HW240089   1.433   4.206   8.290 -1.0952 -0.4763  1.9762
 9544SOL     OW40090   2.150   1.816   4.303  0.0574 -0.0011  0.0035
 9544SOL    HW140091   2.112   1.728   4.294  3.2836 -1.5826  2.2736
 9544SOL    HW240092   2.073   1.863   4.271  0.0551  0.4240  0.6517
 9545SOL     OW40093   0.178   2.759   6.335  0.5254  0.6989  0.2326
 9545SOL    HW140094   0.101   2.815   6.325 -1.8845 -2.8812 -1.6122
 9545SOL    HW240095   0.143   2.707   6.409  0.6346 -0.1905 -0.3391
 9546SOL     OW40096   3.385   2.610  14.234 -0.3158 -0.4579  0.5681
 9546SOL    HW140097   3.395   2.515  14.240 -0.4958 -0.5040  0.1343
 9546SOL    HW240098   3.291   2.618  14.253 -0.2426 -0.0998  0.7769
 9547SOL     OW40099   2.450   0.369   8.995 -0.0262  0.1335  0.3848
 9547SOL    HW140100   2.389   0.315   8.945  0.8777  0.5390 -1.1437
 9547SOL    HW240101   2.400   0.451   8.999 -2.4367 -1.2654 -1.1501
 9548SOL     OW40102   0.656   3.037   6.879 -0.0777 -0.0826  0.3714
 9548SOL    HW140103   0.716   2.969   6.909 -2.1538 -2.6617 -1.2672
 9548SOL    HW240104   0.598   2.983   6.825  0.5392  0.7463 -1.1193
 9549SOL     OW40105   3.587   0.883   6.496  0.1854  0.4603  0.1181
 9549SOL    HW140106   3.519   0.931   6.448 -0.5222 -1.3406 -0.6762
 9549SOL    HW240107   3.649   0.896   6.424  1.3556 -1.9166  0.7171
 9550SOL     OW40108   4.094   1.291   6.503 -0.3239  0.4237 -0.3627
 9550SOL    HW140109   4.119   1.220   6.562  1.6845  0.3827 -1.2558
 9550SOL    HW240110   4.033   1.245   6.445  0.1874 -0.3238 -0.3126
 9551SOL     OW40111   3.207   2.364  17.182  0.8569  0.4331 -0.1747
 9551SOL    HW140112   3.154   2.284  17.186 -2.6405  2.7790  0.0984
 9551SOL    HW240113   3.297   2.332  17.175  0.1763 -1.9574  2.1396
 9552SOL     OW40114   2.580   2.132   2.284 -0.6902  0.0689  0.0710
 9552SOL    HW140115   2.584   2.161   2.192 -2.3894 -0.0413 -0.0259
 9552SOL    HW240116   2.524   2.056   2.273  1.3731 -1.3987 -0.3532
 9553SOL     OW40117   2.585   4.045   5.340 -0.0669  0.7369 -0.2540
 9553SOL    HW140118   2.523   4.116   5.321 -0.1173  0.8064  0.1711
 9553SOL    HW240119   2.655   4.056   5.275 -1.6352 -0.5997 -2.1554
 9554SOL     OW40120   1.239   2.336  10.186 -0.9427 -0.6208 -0.0336
 9554SOL    HW140121   1.254   2.264  10.247  2.0386 -0.5567 -0.7085
 9554SOL    HW240122   1.188   2.291  10.118 -3.8533  2.9018 -0.1894
 9555SOL     OW40123   1.889   2.549   6.231  0.3528  0.1086 -0.0612
 9555SOL    HW140124   1.819   2.606   6.199 -1.4818 -1.8378  0.4929
 9555SOL    HW240125   1.955   2.616   6.213  1.6008 -1.5285 -1.4556
 9556SOL     OW40126   1.973   0.694  14.569 -0.3150  0.9055 -0.4817
 9556SOL    HW140127   1.931   0.775  14.539  1.1856  1.4505 -1.1420
 9556SOL    HW240128   2.064   0.724  14.565  0.3164 -0.7101  1.9029
 9557SOL     OW40129   1.193   1.365   3.162  0.1395 -0.0470 -0.6316
 9557SOL    HW140130   1.129   1.377   3.091 -2.2619 -2.0891  1.2153
 9557SOL    HW240131   1.233   1.452   3.162  1.7513 -0.7907 -1.8455
 9558SOL     OW40132   3.482   1.283   5.861 -0.3684 -0.2555 -0.3943
 9558SOL    HW140133   3.485   1.210   5.922  0.7042  1.1229  1.1850
 9558SOL    HW240134   3.561   1.267   5.808 -0.6038 -1.5839 -0.3382
 9559SOL     OW40135   0.687   2.910   2.202  0.2835 -0.5737 -0.1654
 9559SOL    HW140136   0.774   2.919   2.240  0.1001  0.7093 -0.0451
 9559SOL    HW240137   0.710   2.961   2.125  2.5124 -2.0415 -0.4540
 9560SOL     OW40138   0.319   0.308   8.128  0.2850  0.3323 -0.0108
 9560SOL    HW140139   0.244   0.348   8.085 -0.1107  3.1393  3.3247
 9560SOL    HW240140   0.304   0.218   8.097  3.4879 -0.1915 -0.1209
 9561SOL     OW40141   4.666   0.787   8.279  0.0822  1.0023  0.1798
 9561SOL    HW140142   4.706   0.840   8.348  1.2465 -0.6705  0.7818
 9561SOL    HW240143   4.575   0.807   8.299  0.3840  0.3329  2.2336
 9562SOL     OW40144   2.924   2.063   2.185 -0.1453 -0.1379  0.0976
 9562SOL    HW140145   2.875   2.066   2.103  0.1410 -1.0404 -0.0991
 9562SOL    HW240146   2.857   2.022   2.239 -0.0148 -1.7216 -0.9661
 9563SOL     OW40147   4.341   2.188   5.429  0.2236  0.1260 -0.7580
 9563SOL    HW140148   4.305   2.230   5.507 -0.9648  1.2253 -1.8961
 9563SOL    HW240149   4.312   2.255   5.367  1.2766  1.7003  0.4654
 9564SOL     OW40150   4.648   0.101   2.167 -0.3080  0.3196  0.1853
 9564SOL    HW140151   4.692   0.099   2.252 -0.3551 -1.7455  0.1775
 9564SOL    HW240152   4.717   0.058   2.117 -0.4092  0.4258 -0.0436
 9565SOL     OW40153   4.187   2.230   9.792  0.1877  0.7419 -0.7201
 9565SOL    HW140154   4.166   2.283   9.715 -1.2144  1.5937  0.2473
 9565SOL    HW240155   4.207   2.296   9.858 -0.9610 -0.3839  0.7547
   4.72664   4.72664  17.70754
