Membrane in water
40155
    1TCq1    O1    1   0.889   0.916  10.970  0.1434 -0.0788  0.0818
    1TCq1    C1    2   0.761   0.945  10.933 -0.3317 -0.6591 -1.5515
    1TCq1    O2    3   0.739   1.009  10.833 -0.5957 -0.6069 -0.0037
    1TCq1    C2    4   0.698   0.964  11.060 -0.1957  0.8251  0.3249
    1TCq1    C3    5   0.624   1.072  11.075  0.0860  0.4158 -0.7256
    1TCq1    C4    6   0.536   1.084  11.182  0.4430  0.2809  0.3007
    1TCq1    C5    7   0.530   0.994  11.284 -0.5123  0.8922  0.5440
    1TCq1    C6    8   0.606   0.883  11.261  0.8901  0.1906  0.1981
    1TCq1    C7    9   0.685   0.859  11.143  0.7112  0.5108 -0.0253
    1TCq1    C8   10   0.580   0.766  11.353  0.3041 -0.2011 -0.4724
    1TCq1    O4   11   0.493   0.785  11.442  0.5061  0.4140 -0.2616
    1TCq1    C9   12   0.460   1.208  11.198 -0.3684  0.4084  0.0416
    1TCq1    O5   13   0.475   1.287  11.101  0.2923  0.7022 -0.0445
    1TCq1    O6   14   0.389   1.237  11.300  0.0224 -0.0590  0.0564
    1TCq1    H1   15   0.885   0.867  11.055  0.1464 -1.7673 -0.8892
    1TCq1    H2   16   0.644   1.144  10.997  2.7407  0.7913  0.3244
    1TCq1    H3   17   0.453   0.998  11.360  0.3111  1.6309  1.3247
    1TCq1    H4   18   0.699   0.760  11.100  1.8322  0.5316  0.3063
    2MPD2     C   19   0.741   0.338  11.566  0.2051  0.3116 -0.5558
    2MPD2    C1   20   0.625   0.412  11.591 -1.0055 -0.1100  1.0963
    2MPD2    C2   21   0.603   0.522  11.516  0.0271 -0.4619  0.6600
    2MPD2    C3   22   0.692   0.555  11.414  0.3529  0.2516  0.0208
    2MPD2    C4   23   0.810   0.477  11.389  0.9284  0.4906  0.1340
    2MPD2    C5   24   0.834   0.363  11.461  0.0848  0.3828 -0.7145
    2MPD2     H   25   0.509   0.574  11.528  0.5235  0.1839  1.6727
    2MPD2    H1   26   0.881   0.500  11.310 -0.6761  2.7250 -0.6615
    2MPD2    H2   27   0.755   0.245  11.620 -0.0890 -0.4075 -1.6891
    2MPD2    H3   28   0.917   0.296  11.443 -0.6913 -0.3921 -1.4458
    2MPD2     N   29   0.677   0.669  11.334 -0.1760  0.2513 -0.2996
    2MPD2    H5   30   0.755   0.696  11.274  0.9016 -0.8923  0.6029
    2MPD2    N1   31   0.531   0.372  11.686 -1.0431 -0.3904 -0.1882
    2MPD2    H7   32   0.440   0.417  11.683 -0.2819  1.1596  0.0327
    3TCq1    O1   33   3.991   0.979  10.358 -0.2651 -0.2468 -0.1585
    3TCq1    C1   34   4.034   0.933  10.484 -0.0876  0.0936 -0.1749
    3TCq1    O2   35   3.974   0.854  10.553 -0.3032  0.2863  0.2935
    3TCq1    C2   36   4.119   1.043  10.539  0.1054  0.1663  0.0101
    3TCq1    C3   37   4.206   1.116  10.460 -0.0231 -0.0548 -0.0691
    3TCq1    C4   38   4.261   1.229  10.510 -0.0604  0.5237  0.4539
    3TCq1    C5   39   4.231   1.265  10.637 -0.8667  0.1687 -0.1976
    3TCq1    C6   40   4.150   1.186  10.713 -0.1799 -0.2229 -0.5857
    3TCq1    C7   41   4.086   1.075  10.666 -0.6634 -0.0258 -0.9623
    3TCq1    C8   42   4.077   1.251  10.821  0.6022 -0.4386  0.4409
    3TCq1    O4   43   4.009   1.171  10.881 -0.4118 -0.6021 -0.6430
    3TCq1    C9   44   4.342   1.314  10.420  0.0656  0.2448  0.1092
    3TCq1    O5   45   4.401   1.413  10.478 -0.5453  0.4920  0.0221
    3TCq1    O6   46   4.369   1.266  10.305 -0.8779 -0.4017 -0.4985
    3TCq1    H1   47   4.017   1.068  10.328  1.8637 -0.7702  0.1077
    3TCq1    H2   48   4.223   1.092  10.356  0.3253  1.8865 -0.4623
    3TCq1    H3   49   4.264   1.360  10.677  0.4625 -0.4944  0.2800
    3TCq1    H4   50   4.002   1.027  10.716  0.1042  0.9265  1.2816
    4MPD2     C   51   3.897   1.608  11.131 -0.1011 -1.3226 -0.6319
    4MPD2    C1   52   3.917   1.668  11.011 -0.6221  0.7835 -0.3958
    4MPD2    C2   53   3.974   1.592  10.908  0.2217 -0.4037  0.4226
    4MPD2    C3   54   4.007   1.456  10.920 -0.3488  0.2011  0.0986
    4MPD2    C4   55   3.979   1.398  11.042 -0.4959  0.3882  0.3040
    4MPD2    C5   56   3.935   1.476  11.148  0.1396 -0.2792 -0.0122
    4MPD2     H   57   3.993   1.633  10.810  1.1810  1.5525  1.4306
    4MPD2    H1   58   4.016   1.298  11.064  0.8485  0.8122 -0.0167
    4MPD2    H2   59   3.862   1.660  11.220  1.2521  0.3532 -1.0649
    4MPD2    H3   60   3.915   1.437  11.247 -0.1295 -1.2112 -0.4345
    4MPD2     N   61   4.067   1.386  10.815 -0.5998  0.4001 -0.2568
    4MPD2    H5   62   4.107   1.433  10.734 -1.6395  0.0502 -0.9687
    4MPD2    N1   63   3.888   1.805  10.992 -0.0128  0.8277  0.1363
    4MPD2    H7   64   3.923   1.836  10.902  1.1662  1.5134  0.8365
    5TCq1    O1   65   3.669   3.460  11.666 -0.3720 -0.1941 -0.4355
    5TCq1    C1   66   3.621   3.408  11.550 -0.6656  0.0470 -0.1421
    5TCq1    O2   67   3.559   3.305  11.540 -0.0863  0.0408  0.1238
    5TCq1    C2   68   3.710   3.449  11.442  0.2498 -0.1281 -0.0944
    5TCq1    C3   69   3.838   3.483  11.466 -0.7328  0.8255 -0.2980
    5TCq1    C4   70   3.924   3.501  11.357  0.6246  0.7188  0.1078
    5TCq1    C5   71   3.888   3.456  11.236  0.5760  0.8043 -0.5564
    5TCq1    C6   72   3.766   3.403  11.223  0.5483 -0.3493  0.4808
    5TCq1    C7   73   3.672   3.408  11.320  0.3293  0.0670 -0.9127
    5TCq1    C8   74   3.742   3.324  11.104  0.3229  0.1590  0.5494
    5TCq1    O4   75   3.824   3.340  11.011  0.3240 -0.0216  0.0490
    5TCq1    C9   76   4.063   3.532  11.385  0.2143 -0.3745  0.2486
    5TCq1    O5   77   4.140   3.525  11.289 -0.1688 -0.0571 -0.5697
    5TCq1    O6   78   4.100   3.543  11.503 -0.5392  0.1794  0.0736
    5TCq1    H1   79   3.699   3.550  11.641  0.5792 -0.3323  0.2181
    5TCq1    H2   80   3.876   3.513  11.563 -0.1211 -0.1697 -0.2337
    5TCq1    H3   81   3.955   3.457  11.151 -0.1775  0.6723 -1.1428
    5TCq1    H4   82   3.567   3.389  11.305  0.6338 -1.0677 -1.6135
    6MPD2     C   83   3.462   3.099  11.047  0.4753  0.4669  0.5642
    6MPD2    C1   84   3.581   3.157  11.012  0.0776  0.6504 -0.5062
    6MPD2    C2   85   3.632   3.151  10.883  0.1838  0.0988 -0.1729
    6MPD2    C3   86   3.580   3.057  10.797 -0.1663  0.3628 -0.6547
    6MPD2    C4   87   3.463   2.995  10.830  0.1348 -0.4082 -0.2967
    6MPD2    C5   88   3.406   3.027  10.948 -0.1798 -0.7265 -1.2053
    6MPD2     H   89   3.726   3.196  10.855  0.9031 -0.7748  0.8456
    6MPD2    H1   90   3.405   2.941  10.756 -1.0259  2.5068 -1.4982
    6MPD2    H2   91   3.421   3.119  11.145 -1.8760  1.2610 -0.5848
    6MPD2    H3   92   3.316   2.970  10.968 -0.7278  0.1254 -1.2322
    6MPD2     N   93   3.643   3.042  10.670  0.1308 -0.1372 -0.1474
    6MPD2    H5   94   3.708   3.117  10.651 -2.0434  1.7167 -0.2189
    6MPD2    N1   95   3.637   3.241  11.113 -0.5730 -0.4199  0.0354
    6MPD2    H7   96   3.580   3.257  11.195  0.5090  1.1308  0.4954
    7TCq1    O1   97   1.241   3.220  13.259  0.0854 -0.3196  0.2107
    7TCq1    C1   98   1.325   3.283  13.340  0.0208 -0.0789 -0.0496
    7TCq1    O2   99   1.322   3.403  13.370  0.2214 -0.2127 -0.2841
    7TCq1    C2  100   1.454   3.232  13.294 -0.1312 -0.2324  0.4124
    7TCq1    C3  101   1.480   3.224  13.158  0.3682  0.3140  0.1795
    7TCq1    C4  102   1.611   3.197  13.123 -0.1282 -0.0521  0.4127
    7TCq1    C5  103   1.707   3.204  13.216  0.0823  0.3388 -0.1493
    7TCq1    C6  104   1.679   3.233  13.346  0.3361 -0.4067 -0.0684
    7TCq1    C7  105   1.551   3.236  13.389  1.4272 -0.5635  0.0353
    7TCq1    C8  106   1.775   3.187  13.438  0.6674  0.2771  0.2700
    7TCq1    O4  107   1.877   3.127  13.397  0.2664  0.9738  0.7155
    7TCq1    C9  108   1.639   3.165  12.986  0.5227  0.5279  0.1928
    7TCq1    O5  109   1.750   3.117  12.967 -0.0365  0.3730  0.0730
    7TCq1    O6  110   1.544   3.157  12.902  0.7231 -0.2211 -0.1581
    7TCq1    H1  111   1.267   3.126  13.251 -1.4739 -0.7980  0.9507
    7TCq1    H2  112   1.404   3.230  13.081 -0.8876 -1.8242  1.2163
    7TCq1    H3  113   1.809   3.218  13.183 -0.7327  2.6586 -1.6401
    7TCq1    H4  114   1.516   3.228  13.491 -1.7611  0.0320 -1.0120
    8MPD2     C  115   1.820   2.926  13.860 -0.2493 -0.2576 -1.1501
    8MPD2    C1  116   1.844   2.892  13.730 -0.0699  0.0846 -0.0571
    8MPD2    C2  117   1.804   2.983  13.633 -0.0721  0.6122  0.2631
    8MPD2    C3  118   1.771   3.109  13.666  0.1530 -0.1283  0.6816
    8MPD2    C4  119   1.761   3.149  13.799  0.2654  0.7310  0.2857
    8MPD2    C5  120   1.774   3.050  13.896  0.2426  0.2309 -0.5249
    8MPD2     H  121   1.785   2.950  13.531  1.4620  2.2548 -0.5611
    8MPD2    H1  122   1.714   3.244  13.822 -2.0132  0.3400 -2.7919
    8MPD2    H2  123   1.848   2.857  13.939 -0.5669  2.3252  1.2337
    8MPD2    H3  124   1.755   3.081  13.998  0.8414 -1.5054  0.1035
    8MPD2     N  125   1.732   3.199  13.567  0.0622  0.4675  0.2097
    8MPD2    H5  126   1.675   3.281  13.585 -0.9013 -0.2496  0.3933
    8MPD2    N1  127   1.892   2.762  13.698  0.0968 -0.3240 -0.4476
    8MPD2    H7  128   1.925   2.709  13.778 -0.9767  1.7174  1.3388
    9TCq1    O1  129   0.116   2.302  10.923 -0.1914  0.2711  0.2095
    9TCq1    C1  130   0.011   2.367  10.986  0.0635  0.0206  0.0581
    9TCq1    O2  131   4.719   2.487  10.984  0.4542 -0.5504 -0.1236
    9TCq1    C2  132   4.669   2.285  11.086 -0.3047  0.4764  0.0246
    9TCq1    C3  133   4.626   2.343  11.196  0.0701  0.0162 -1.0008
    9TCq1    C4  134   4.561   2.268  11.291  0.3778  0.1951  0.7153
    9TCq1    C5  135   4.545   2.136  11.277 -0.5187  0.8371  0.2301
    9TCq1    C6  136   4.595   2.075  11.168 -0.3658 -0.7061 -0.6476
    9TCq1    C7  137   4.660   2.148  11.071 -0.1115  0.0118 -0.3337
    9TCq1    C8  138   4.601   1.930  11.141  0.0994 -0.5318  1.3871
    9TCq1    O4  139   4.616   1.892  11.025 -0.0666 -0.1426  0.8934
    9TCq1    C9  140   4.497   2.335  11.400  0.1668 -0.1234  0.0300
    9TCq1    O5  141   4.427   2.267  11.479  0.2138 -0.3120  0.9911
    9TCq1    O6  142   4.522   2.461  11.406 -0.2914 -0.1491  0.3621
    9TCq1    H1  143   0.126   2.211  10.958  0.8868  0.0355 -0.7226
    9TCq1    H2  144   4.639   2.451  11.200  1.1642 -0.1212 -0.7838
    9TCq1    H3  145   4.502   2.075  11.355 -0.5848  0.5506 -0.0318
    9TCq1    H4  146   4.702   2.105  10.981  0.1926  1.3093 -0.8072
   10MPD2     C  147   4.610   1.630  11.148  0.1950 -0.0642 -0.6677
   10MPD2    C1  148   4.599   1.712  11.262  0.3545 -0.2871  0.1711
   10MPD2    C2  149   4.616   1.656  11.388 -0.3912  0.2734  0.0015
   10MPD2    C3  150   4.643   1.524  11.398  0.3306 -0.5097 -0.0748
   10MPD2    C4  151   4.636   1.441  11.285  1.1235  0.2805  1.1667
   10MPD2    C5  152   4.627   1.498  11.162 -0.0894 -1.0795  0.1816
   10MPD2     H  153   4.615   1.724  11.473 -1.3089  0.5322 -0.2205
   10MPD2    H1  154   4.649   1.333  11.285  1.8197  0.3642  1.2202
   10MPD2    H2  155   4.603   1.671  11.048 -3.2550  1.1886  0.0938
   10MPD2    H3  156   4.634   1.427  11.080 -0.6974 -1.4905  0.4857
   10MPD2     N  157   4.681   1.457  11.518 -0.8274  0.3447  0.1230
   10MPD2    H5  158   4.677   1.356  11.529 -1.6325  0.5356  1.5149
   10MPD2    N1  159   4.584   1.856  11.257 -0.4951 -0.9918 -0.5041
   10MPD2    H7  160   4.565   1.909  11.341  0.0458 -1.5652 -0.0269
   11TCq1    O1  161   1.088   1.738  14.588  0.4514  0.0164  0.2516
   11TCq1    C1  162   1.154   1.636  14.536 -0.4351  0.4581  0.0876
   11TCq1    O2  163   1.235   1.573  14.603 -0.3394 -0.3432 -0.6242
   11TCq1    C2  164   1.114   1.602  14.397 -0.2985 -0.4447 -0.0283
   11TCq1    C3  165   1.203   1.529  14.309  0.2795  0.6217  0.2393
   11TCq1    C4  166   1.150   1.484  14.189 -0.2876  0.1933  0.2200
   11TCq1    C5  167   1.028   1.527  14.143  0.9334  0.6020 -0.1911
   11TCq1    C6  168   0.950   1.602  14.232 -0.3302  0.4197  0.5111
   11TCq1    C7  169   0.984   1.639  14.356  0.8981 -0.7826  0.1306
   11TCq1    C8  170   0.807   1.615  14.201  0.3261  0.7015 -0.0781
   11TCq1    O4  171   0.750   1.712  14.257 -0.2224 -0.4703 -0.0914
   11TCq1    C9  172   1.228   1.395  14.106 -0.1921 -0.1490 -0.1273
   11TCq1    O5  173   1.179   1.346  14.003  0.2644  0.2854 -0.4271
   11TCq1    O6  174   1.330   1.341  14.160  0.3075 -0.0998  0.8963
   11TCq1    H1  175   1.056   1.799  14.518  0.0603  0.3790  0.7443
   11TCq1    H2  176   1.297   1.487  14.343 -0.6752 -1.0008  0.9148
   11TCq1    H3  177   0.993   1.512  14.042  1.6836 -1.9240 -0.0744
   11TCq1    H4  178   0.911   1.699  14.410 -0.5434  1.5995 -4.4662
   12MPD2     C  179   0.524   1.580  14.111 -0.3387 -0.4718  0.1427
   12MPD2    C1  180   0.609   1.470  14.117  0.2781 -0.2776 -0.2684
   12MPD2    C2  181   0.569   1.343  14.080  0.2186  0.2014 -0.4037
   12MPD2    C3  182   0.438   1.311  14.049  0.7554 -0.0509 -0.5879
   12MPD2    C4  183   0.343   1.416  14.050 -0.4308  0.4523 -0.1280
   12MPD2    C5  184   0.387   1.543  14.081 -0.5449  0.1172  0.9355
   12MPD2     H  185   0.648   1.269  14.066  0.8814  1.4054 -3.0472
   12MPD2    H1  186   0.239   1.388  14.036 -0.2911 -1.4833  2.6391
   12MPD2    H2  187   0.557   1.681  14.129 -0.4549  0.1876 -3.4001
   12MPD2    H3  188   0.320   1.628  14.082  0.6144  1.0448 -0.2186
   12MPD2     N  189   0.391   1.177  14.015 -0.1213  0.2109 -0.1912
   12MPD2    H5  190   0.302   1.165  13.967 -1.2172  0.7349  1.7249
   12MPD2    N1  191   0.753   1.494  14.150  0.3627 -0.6442  0.6129
   12MPD2    H7  192   0.819   1.417  14.144  0.7235 -0.0822 -2.4271
   13TCq1    O1  193   4.487   0.309  11.039  0.1039  0.1285  0.0520
   13TCq1    C1  194   4.614   0.319  11.088  0.0996 -0.4684  0.1997
   13TCq1    O2  195   4.679   0.224  11.135  0.0059 -0.0899  0.2436
   13TCq1    C2  196   4.665   0.436  11.020 -0.5392  0.2861  0.2506
   13TCq1    C3  197   0.068   0.419  10.958 -1.1553  0.8603  0.0471
   13TCq1    C4  198   0.118   0.523  10.889  0.4100  0.0750 -0.0316
   13TCq1    C5  199   0.060   0.648  10.899 -0.1142  0.0055  0.0127
   13TCq1    C6  200   4.670   0.659  10.969  0.1165 -0.5463  0.1307
   13TCq1    C7  201   4.597   0.555  11.023 -0.0672  0.1476  0.1898
   13TCq1    C8  202   4.603   0.793  10.968  0.5719 -0.2580 -0.2422
   13TCq1    O4  203   4.528   0.816  11.059 -0.1012  0.0021  0.0947
   13TCq1    C9  204   0.236   0.517  10.813  0.0727  0.2723  0.9401
   13TCq1    O5  205   0.294   0.403  10.806 -0.7327  0.2540  0.0178
   13TCq1    O6  206   0.281   0.621  10.757  0.4961  0.0387 -0.0667
   13TCq1    H1  207   4.477   0.385  10.978  2.5113  1.0139  0.7228
   13TCq1    H2  208   0.115   0.323  10.944 -0.3684  1.1683  0.5756
   13TCq1    H3  209   0.104   0.729  10.841 -1.1767 -0.2053 -1.0964
   13TCq1    H4  210   4.495   0.562  11.060 -0.5871 -2.2030 -0.8002
   14MPD2     C  211   4.629   1.052  10.709 -0.5307  0.3852  0.1442
   14MPD2    C1  212   4.587   0.996  10.828 -0.3521 -0.0290 -0.0824
   14MPD2    C2  213   4.520   1.069  10.922  0.3121  0.1626 -0.4835
   14MPD2    C3  214   4.484   1.201  10.887 -0.5689  0.0091 -0.6185
   14MPD2    C4  215   4.524   1.250  10.766 -0.3768 -0.8297 -0.2212
   14MPD2    C5  216   4.597   1.176  10.678 -0.4475  0.2448 -0.5833
   14MPD2     H  217   4.493   1.031  11.020 -0.2526  2.9765  0.4474
   14MPD2    H1  218   4.489   1.346  10.730  3.2210  1.5609  2.6145
   14MPD2    H2  219   4.689   0.993  10.641 -1.0700 -1.1762  1.0176
   14MPD2    H3  220   4.614   1.213  10.577  0.9757  0.0676 -0.4033
   14MPD2     N  221   4.408   1.270  10.984 -0.1720 -0.1375 -0.6982
   14MPD2    H5  222   4.385   1.222  11.071  3.4254 -1.7323 -0.6378
   14MPD2    N1  223   4.628   0.863  10.858 -0.5531  0.7548  0.3793
   14MPD2    H7  224   4.675   0.809  10.785  0.7986  0.9658  1.0954
   15TCq1    O1  225   1.838   0.257   2.204 -0.4175  0.5592  0.0999
   15TCq1    C1  226   1.814   0.393   2.182  0.3033  0.4631  0.2762
   15TCq1    O2  227   1.826   0.482   2.260  0.4533  0.2101  0.2268
   15TCq1    C2  228   1.748   0.400   2.053  0.4107  0.1273 -0.0617
   15TCq1    C3  229   1.667   0.508   2.029 -0.3889  0.2188 -0.3362
   15TCq1    C4  230   1.621   0.532   1.902 -0.6477  0.2572  0.5500
   15TCq1    C5  231   1.662   0.448   1.806 -0.1706  0.9416  0.2233
   15TCq1    C6  232   1.762   0.358   1.828  0.1839  0.2251  0.2525
   15TCq1    C7  233   1.796   0.324   1.950  0.1501  0.7377 -0.0014
   15TCq1    C8  234   1.833   0.289   1.716 -0.5458  0.0266  0.8162
   15TCq1    O4  235   1.925   0.212   1.754 -0.2274 -0.0492  0.5680
   15TCq1    C9  236   1.530   0.640   1.874 -0.2802 -0.1216 -0.4459
   15TCq1    O5  237   1.515   0.677   1.753  0.0820  0.4454  0.1051
   15TCq1    O6  238   1.459   0.677   1.966 -0.4581 -0.4911  0.1689
   15TCq1    H1  239   1.807   0.190   2.139  0.7456 -0.4629  0.5917
   15TCq1    H2  240   1.645   0.585   2.102  0.6569 -0.5024  0.7482
   15TCq1    H3  241   1.637   0.477   1.704 -0.2921  1.5337  0.4182
   15TCq1    H4  242   1.863   0.240   1.964 -1.7009 -0.5447  1.2031
   16MPD2     C  243   1.837   0.362   1.349  0.3639 -0.5945  0.6087
   16MPD2    C1  244   1.871   0.300   1.466  0.1386  0.3418  0.8617
   16MPD2    C2  245   1.949   0.185   1.463  0.6886 -1.0555 -0.6856
   16MPD2    C3  246   1.988   0.131   1.342 -0.5970  0.0079  0.3921
   16MPD2    C4  247   1.937   0.192   1.224 -0.4242 -0.0941  0.0076
   16MPD2    C5  248   1.857   0.300   1.233 -0.2352  0.1814 -0.4362
   16MPD2     H  249   1.987   0.135   1.551  0.2777 -1.5586 -0.7970
   16MPD2    H1  250   1.941   0.137   1.131  3.3763 -1.4311  0.9791
   16MPD2    H2  251   1.775   0.452   1.347 -0.2940 -1.0616 -0.2544
   16MPD2    H3  252   1.821   0.347   1.143  1.7355  2.6431  0.0449
   16MPD2     N  253   2.060   0.015   1.349 -0.0948  0.0572  0.5302
   16MPD2    H5  254   2.117   0.001   1.432 -1.0400  2.3389  1.5496
   16MPD2    N1  255   1.807   0.350   1.591 -0.2751  0.0008 -0.3045
   16MPD2    H7  256   1.736   0.422   1.588  1.7807  2.0193 -0.7055
   17TCq1    O1  257   0.135   1.215  11.366 -0.0954 -0.2800 -0.1485
   17TCq1    C1  258   0.075   1.094  11.339  0.9553  0.1496  0.2661
   17TCq1    O2  259   0.008   1.039  11.427 -0.3016  0.1510  0.1451
   17TCq1    C2  260   0.151   1.009  11.241  0.1695 -0.1294  0.2011
   17TCq1    C3  261   0.166   1.064  11.118  0.1419  0.0706 -0.3543
   17TCq1    C4  262   0.224   0.989  11.026 -0.5586  0.4489  0.3247
   17TCq1    C5  263   0.249   0.859  11.053 -0.8127  0.0689  0.3162
   17TCq1    C6  264   0.234   0.808  11.181  0.3927  0.0508  0.3209
   17TCq1    C7  265   0.183   0.887  11.281 -0.4922 -0.6055 -0.1423
   17TCq1    C8  266   0.264   0.672  11.211  0.3351 -0.0972  0.5477
   17TCq1    O4  267   0.211   0.623  11.310  0.2608  0.0584  0.1335
   17TCq1    C9  268   0.248   1.035  10.884 -0.1384 -0.0526 -0.5806
   17TCq1    O5  269   0.238   1.162  10.863 -0.2023  0.0877 -0.1928
   17TCq1    O6  270   0.310   0.960  10.809 -0.1110 -0.3655 -0.9913
   17TCq1    H1  271   0.215   1.216  11.309  0.6731  1.8288  1.0110
   17TCq1    H2  272   0.126   1.159  11.086 -0.0866 -0.5101 -1.8040
   17TCq1    H3  273   0.289   0.795  10.974  1.3561  1.0961  0.5847
   17TCq1    H4  274   0.159   0.856  11.382 -1.1600 -0.0402 -0.1332
   18MPD2     C  275   0.425   0.406  11.240 -0.0911  0.2378 -0.0543
   18MPD2    C1  276   0.447   0.508  11.150  0.0700 -0.6052  0.2637
   18MPD2    C2  277   0.553   0.500  11.065  0.8652  0.0374 -0.1840
   18MPD2    C3  278   0.649   0.404  11.066 -0.8025 -0.1452  0.9926
   18MPD2    C4  279   0.626   0.290  11.144 -0.5397  0.1333 -0.8602
   18MPD2    C5  280   0.522   0.299  11.236 -0.2006  0.0033 -0.5147
   18MPD2     H  281   0.560   0.582  10.994 -1.4883  2.1871  2.0786
   18MPD2    H1  282   0.695   0.208  11.157 -0.2250  0.5310 -0.0052
   18MPD2    H2  283   0.347   0.400  11.315 -1.8148  1.7276 -1.7405
   18MPD2    H3  284   0.528   0.212  11.301 -0.9120 -1.8892 -2.9579
   18MPD2     N  285   0.760   0.402  10.983  0.3301 -0.3423 -0.2103
   18MPD2    H5  286   0.822   0.324  11.000 -0.6813 -1.0358  0.3195
   18MPD2    N1  287   0.368   0.624  11.128  0.7393 -0.7134  0.3963
   18MPD2    H7  288   0.409   0.690  11.062  0.6480 -1.7871 -0.7303
   19TMC2    C1  289   1.907   1.098  13.523  0.1089 -0.4064  0.5272
   19TMC2    C2  290   1.894   1.184  13.411  0.2520 -0.7232  0.2969
   19TMC2    C3  291   1.786   1.173  13.333 -0.3155  0.4096 -0.2313
   19TMC2    C4  292   1.804   1.008  13.552 -0.5221  0.3134  0.1872
   19TMC2    C5  293   1.699   1.003  13.469 -0.3882 -0.0327 -0.2917
   19TMC2    C6  294   1.688   1.088  13.364 -0.1336  0.3788 -1.0873
   19TMC2     C  295   2.006   1.130  13.631 -0.0186  0.2708  0.6912
   19TMC2     O  296   2.079   1.226  13.595  0.1212  0.0336 -0.0742
   19TMC2     H  297   1.970   1.261  13.397 -0.0837 -0.5331 -0.4752
   19TMC2    H1  298   1.800   0.942  13.638 -1.5648 -0.8951 -0.7957
   19TMC2    H2  299   1.614   1.067  13.287 -0.6964 -2.6644  0.2920
   19TMC2    C7  300   1.603   0.897  13.492  0.3311 -0.5226  0.7834
   19TMC2    C8  301   1.732   1.294  13.263 -0.2197 -0.3942  0.8169
   19TMC2    O1  302   1.632   0.800  13.558 -0.0722 -1.1475  0.1935
   19TMC2    O2  303   1.614   1.325  13.260 -0.6076  0.7706 -0.2353
   19TMC2    O5  304   1.830   1.338  13.180  0.2765  0.2292 -0.1329
   19TMC2    H5  305   1.907   1.278  13.168 -0.2294 -0.4139 -0.1999
   20MPD2     C  306   2.171   1.185  13.874  0.1876  0.1154  0.1194
   20MPD2    C1  307   2.061   1.108  13.872 -0.3601  0.3901 -0.3252
   20MPD2    C2  308   2.006   1.070  13.997  0.7063 -0.3595  0.7038
   20MPD2    C3  309   2.042   1.113  14.117 -0.0309 -0.0289  0.5639
   20MPD2    C4  310   2.161   1.182  14.116 -0.4220 -0.3859 -0.2787
   20MPD2    C5  311   2.223   1.219  14.001 -0.8663 -0.3833 -0.3913
   20MPD2     H  312   1.917   1.009  14.003  0.4844  0.0992  1.9258
   20MPD2    H1  313   2.206   1.233  14.201 -1.0828 -1.2564  0.5965
   20MPD2    H2  314   2.222   1.226  13.787  1.1756  1.5968  1.4023
   20MPD2    H3  315   2.318   1.268  14.019 -0.3396 -1.8504  0.8389
   20MPD2     N  316   1.982   1.086  14.244  0.0971  0.2994  0.6820
   20MPD2    H5  317   2.042   1.105  14.324 -0.7336 -1.7574  1.7725
   20MPD2    N1  318   1.984   1.082  13.761 -1.2096 -0.1333 -0.9335
   20MPD2    H7  319   1.914   1.008  13.766 -0.4273 -0.9865 -2.4331
   21MPD2     C  320   4.073   1.717  14.418  0.4003  0.2154 -0.3852
   21MPD2    C1  321   4.119   1.613  14.489  0.2836  0.6166  0.4577
   21MPD2    C2  322   4.037   1.564  14.586  0.0880 -0.4838  0.2937
   21MPD2    C3  323   3.912   1.616  14.607  0.1736 -0.3939  0.0190
   21MPD2    C4  324   3.867   1.717  14.527 -0.0545 -0.6604  0.3706
   21MPD2    C5  325   3.951   1.769  14.433  0.0934  0.5960 -0.1080
   21MPD2     H  326   4.085   1.482  14.638  0.8734  0.2964  0.8010
   21MPD2    H1  327   3.771   1.765  14.538 -0.1952 -1.0802  0.9857
   21MPD2    H2  328   4.133   1.773  14.346  0.1862  0.5441 -0.3087
   21MPD2    H3  329   3.912   1.849  14.371 -3.5044 -0.1366  1.1511
   21MPD2     N  330   3.831   1.560  14.706  1.1567  0.2765 -0.2774
   21MPD2    H5  331   3.745   1.614  14.711  0.3233 -1.2523  2.0161
   21MPD2    N1  332   4.250   1.556  14.474 -0.0397  0.0160 -0.3559
   21MPD2    H7  333   4.258   1.473  14.532 -2.3366 -0.6039 -0.9230
   22TCq2    C1  334   3.862   1.459  14.801  0.2992 -0.4712 -0.3108
   22TCq2    O2  335   3.972   1.416  14.821  0.4457 -0.0311  0.5954
   22TCq2    C2  336   3.759   1.431  14.899  0.3227  0.2924 -1.0171
   22TCq2    C3  337   3.797   1.368  15.014  0.3884  0.1138  0.1646
   22TCq2    C4  338   3.705   1.333  15.107  0.5937  0.0811 -0.0227
   22TCq2    C5  339   3.576   1.321  15.073  0.9881 -0.6496  0.3909
   22TCq2    C6  340   3.538   1.370  14.949 -0.0985  0.0564 -0.3366
   22TCq2    C7  341   3.622   1.431  14.862 -0.6207 -0.6461  0.6634
   22TCq2    C8  342   3.399   1.349  14.907  0.1295  0.5075  0.1388
   22TCq2    O4  343   3.338   1.252  14.956 -0.5352  0.4945 -0.0448
   22TCq2    C9  344   3.753   1.273  15.226 -0.8369  0.2247 -0.9352
   22TCq2    O5  345   3.663   1.238  15.307 -0.1318  0.1887 -0.4816
   22TCq2    O6  346   3.873   1.249  15.239  0.1558 -0.2322 -0.5075
   22TCq2    H2  347   3.901   1.342  15.033  0.4322  0.3829  0.3012
   22TCq2    H3  348   3.501   1.275  15.136 -0.1239  0.0610 -0.4006
   22TCq2    H4  349   3.603   1.454  14.758 -0.7499 -0.1550  0.7971
   23MPD2     C  350   1.161   2.258  14.405  0.0367  0.0277 -0.2560
   23MPD2    C1  351   1.127   2.276  14.540  0.7227  0.2761  0.2771
   23MPD2    C2  352   1.041   2.377  14.577 -0.5698  0.0857  0.2319
   23MPD2    C3  353   0.985   2.461  14.482  0.3682  0.1982 -0.2646
   23MPD2    C4  354   1.024   2.445  14.352  0.0378 -0.2258  0.2601
   23MPD2    C5  355   1.105   2.346  14.316 -0.5687 -0.0817  0.3342
   23MPD2     H  356   1.003   2.385  14.679  2.3730  0.1096  1.3334
   23MPD2    H1  357   0.988   2.514  14.276  0.8170 -1.5939 -1.3549
   23MPD2    H2  358   1.226   2.178  14.373 -0.8253 -1.7075  2.3759
   23MPD2    H3  359   1.134   2.345  14.211  2.1091 -2.8743  1.1048
   23MPD2     N  360   0.896   2.572  14.512  0.9735 -0.8560 -0.6766
   23MPD2    H5  361   0.857   2.630  14.439  2.4802  1.7926  0.6193
   23MPD2    N1  362   1.175   2.183  14.643  0.1238 -0.3377  0.1279
   23MPD2    H7  363   1.152   2.213  14.737  0.4046  0.6188 -0.1128
   24TCq2    C1  364   0.850   2.602  14.640  0.0294 -0.5155 -0.1994
   24TCq2    O2  365   0.877   2.572  14.753  0.4901  0.3496  0.3678
   24TCq2    C2  366   0.731   2.683  14.631 -0.1805  0.2283  0.1533
   24TCq2    C3  367   0.729   2.784  14.541  0.3979 -0.1756  0.1823
   24TCq2    C4  368   0.601   2.818  14.497 -0.2510 -0.2567  0.6154
   24TCq2    C5  369   0.492   2.761  14.552  0.0128  0.5039  0.3986
   24TCq2    C6  370   0.495   2.657  14.632  0.0282  0.4572 -0.3952
   24TCq2    C7  371   0.618   2.616  14.668  0.2292 -0.1092 -0.0381
   24TCq2    C8  372   0.415   2.541  14.590 -0.3098  0.1101  0.1034
   24TCq2    O4  373   0.479   2.447  14.544  0.3342  0.0519 -0.1592
   24TCq2    C9  374   0.597   2.929  14.402 -0.0885 -0.5943  0.1731
   24TCq2    O5  375   0.695   2.944  14.322  0.3246 -0.4819 -0.5504
   24TCq2    O6  376   0.485   2.986  14.384 -0.3616  0.2464 -0.2636
   24TCq2    H2  377   0.816   2.830  14.495  0.8848 -1.1703  0.1094
   24TCq2    H3  378   0.397   2.802  14.519 -0.4096 -0.0884  0.8879
   24TCq2    H4  379   0.617   2.531  14.735  1.0315  2.1076  2.7458
   25TMC2    C1  380   4.134   4.550  10.836  0.2933 -0.6300 -0.2678
   25TMC2    C2  381   4.213   4.624  10.757  0.1550 -0.8046 -0.4747
   25TMC2    C3  382   4.317   4.690  10.819  0.7585 -0.4436 -0.0980
   25TMC2    C4  383   4.151   4.543  10.972  0.8953 -0.2340  0.3268
   25TMC2    C5  384   4.261   4.609  11.019 -0.5171  0.5385  0.5174
   25TMC2    C6  385   4.341   4.692  10.949  0.3162 -0.3557 -0.5717
   25TMC2     C  386   4.034   4.472  10.760 -0.3809  0.2026 -0.0601
   25TMC2     O  387   4.053   4.455  10.639  0.2786 -0.1729 -0.0545
   25TMC2     H  388   4.207   4.629  10.649  3.9333 -2.2791 -0.7614
   25TMC2    H1  389   4.094   4.476  11.035 -3.0182  1.1204 -1.8276
   25TMC2    H2  390   4.439   0.002  10.982  0.9024 -1.4648 -1.1607
   25TMC2    C7  391   4.278   4.612  11.157 -0.2339 -0.0457 -0.2410
   25TMC2    C8  392   4.424   0.026  10.743  0.2015 -0.2607  0.1618
   25TMC2    O1  393   4.240   4.511  11.221  0.3754 -0.2749 -0.1151
   25TMC2    O2  394   4.489   0.117  10.790 -0.0959  0.1186 -0.9868
   25TMC2    O5  395   4.468   4.657  10.657 -0.0494 -0.3546 -0.3465
   25TMC2    H5  396   4.405   4.587  10.630  0.0406 -0.9713  1.0659
   26MPD2     C  397   3.606   4.225  10.655 -0.5997 -0.4332 -0.3307
   26MPD2    C1  398   3.631   4.198  10.784  0.0778 -0.2532  0.3835
   26MPD2    C2  399   3.739   4.268  10.844 -0.2955  0.0399  0.3760
   26MPD2    C3  400   3.818   4.354  10.777 -0.3724  0.1947  0.2824
   26MPD2    C4  401   3.782   4.374  10.642 -0.9148 -0.2599  0.8345
   26MPD2    C5  402   3.677   4.316  10.585 -0.8405  0.1243  0.5658
   26MPD2     H  403   3.758   4.247  10.949  1.1217 -1.6309 -0.2097
   26MPD2    H1  404   3.836   4.443  10.578 -2.0901  0.7469  0.9240
   26MPD2    H2  405   3.528   4.169  10.605 -0.1457 -0.4350 -1.0307
   26MPD2    H3  406   3.650   4.340  10.483 -1.3230  1.3444  0.9741
   26MPD2     N  407   3.926   4.426  10.833  0.4446  0.9211 -0.2763
   26MPD2    H5  408   3.914   4.442  10.932  3.0154  0.3667  0.1319
   26MPD2    N1  409   3.546   4.103  10.839 -0.2275  0.4918  0.0530
   26MPD2    H7  410   3.484   4.063  10.769  1.6318 -2.9651  0.3502
   27TMC2    C1  411   2.994   2.515  12.322 -0.0427  0.0408  0.3255
   27TMC2    C2  412   3.063   2.562  12.219 -0.3160  0.6163  0.1333
   27TMC2    C3  413   3.194   2.601  12.243  0.0858  0.7156 -0.1701
   27TMC2    C4  414   3.054   2.493  12.443 -0.4691  0.0711 -0.5024
   27TMC2    C5  415   3.181   2.528  12.466  1.0167 -0.0541  0.5294
   27TMC2    C6  416   3.262   2.583  12.365 -0.3316  0.0221 -0.2507
   27TMC2     C  417   2.849   2.493  12.300  0.2830  0.0274  0.6673
   27TMC2     O  418   2.794   2.554  12.206  0.0146  0.3338  0.3442
   27TMC2     H  419   3.026   2.578  12.118 -1.4122  3.2252  0.9605
   27TMC2    H1  420   2.996   2.462  12.529  0.7804  0.6299  0.5444
   27TMC2    H2  421   3.370   2.597  12.365 -0.2418 -0.6752  2.0440
   27TMC2    C7  422   3.230   2.448  12.579 -0.0284  1.0833 -0.3246
   27TMC2    C8  423   3.255   2.698  12.149  0.2309  0.0056 -0.9762
   27TMC2    O1  424   3.160   2.364  12.636  0.4696  0.9002 -0.2750
   27TMC2    O2  425   3.198   2.799  12.116  0.0229  0.2678 -0.6327
   27TMC2    O5  426   3.338   2.635  12.063 -0.5112 -0.1566  0.0085
   27TMC2    H5  427   3.348   2.541  12.090  1.0539  0.1837  0.5932
   28MPD2     C  428   2.423   2.262  12.432  0.2123  0.2747  0.3346
   28MPD2    C1  429   2.510   2.231  12.531  0.4481  0.2283 -0.0053
   28MPD2    C2  430   2.645   2.269  12.512 -0.0510 -0.2471 -0.2909
   28MPD2    C3  431   2.676   2.343  12.397  0.4973 -0.2164  0.1170
   28MPD2    C4  432   2.581   2.373  12.300 -0.3485 -0.4441 -0.2767
   28MPD2    C5  433   2.456   2.322  12.314 -0.1551 -0.3541 -0.4698
   28MPD2     H  434   2.736   2.258  12.572  0.1245  1.3108 -0.2702
   28MPD2    H1  435   2.599   2.438  12.215  0.1766  3.0257  2.4969
   28MPD2    H2  436   2.317   2.249  12.454  0.1928 -0.4297 -0.1796
   28MPD2    H3  437   2.380   2.336  12.237 -1.7522 -0.5212  1.0953
   28MPD2     N  438   2.805   2.403  12.389  0.4570  0.3375  0.1658
   28MPD2    H5  439   2.880   2.363  12.444 -0.3786  0.0617  1.0882
   28MPD2    N1  440   2.460   2.176  12.648  0.1494 -0.0349  0.0177
   28MPD2    H7  441   2.359   2.163  12.652 -0.1237  2.0628 -0.3554
   29MPD2     C  442   2.285   4.100  13.824 -0.0276  0.0158 -0.0446
   29MPD2    C1  443   2.376   4.079  13.927  0.1620 -0.4068  0.4739
   29MPD2    C2  444   2.415   4.186  14.004 -0.5544 -0.5040  1.0587
   29MPD2    C3  445   2.375   4.315  13.975 -0.1623  0.2447  0.3602
   29MPD2    C4  446   2.296   4.337  13.867  0.1823 -0.6222 -0.1113
   29MPD2    C5  447   2.247   4.232  13.798 -0.1144 -0.2171 -0.2312
   29MPD2     H  448   2.485   4.170  14.086 -0.3966 -0.3365  0.9582
   29MPD2    H1  449   2.248   4.429  13.837  0.1632 -0.4165  0.5512
   29MPD2    H2  450   2.242   4.013  13.776 -1.3745 -0.7349  2.5483
   29MPD2    H3  451   2.177   4.251  13.717 -1.1401  0.1261  0.7375
   29MPD2     N  452   2.405   4.424  14.049  0.3743 -0.1458  0.5487
   29MPD2    H5  453   2.369   4.516  14.023 -1.1029 -0.7070  0.6483
   29MPD2    N1  454   2.424   3.952  13.963  0.1683  0.3201  0.0758
   29MPD2    H7  455   2.473   3.944  14.051  1.5972  0.0607 -0.7555
   30TCq2    C1  456   2.496   4.432  14.153  0.8428  0.4541  0.7741
   30TCq2    O2  457   2.581   4.352  14.193 -0.2865 -0.3183 -0.0874
   30TCq2    C2  458   2.494   4.559  14.223  0.0904 -0.1063  0.8070
   30TCq2    C3  459   2.368   4.617  14.236 -0.7090  0.5309 -0.0267
   30TCq2    C4  460   2.366   0.021  14.282 -0.4367 -0.0438 -0.2731
   30TCq2    C5  461   2.478   0.094  14.292 -0.0632  0.0634 -0.2239
   30TCq2    C6  462   2.597   0.033  14.277 -1.1566 -0.1056  0.1629
   30TCq2    C7  463   2.612   4.624  14.260 -0.5624  0.3920  0.0242
   30TCq2    C8  464   2.710   0.118  14.299 -0.4237  0.0785  0.9890
   30TCq2    O4  465   2.808   0.064  14.352 -0.1554 -0.9700  0.3013
   30TCq2    C9  466   2.239   0.087  14.325  0.1589 -0.1385 -0.1531
   30TCq2    O5  467   2.239   0.209  14.327 -0.2423  0.0451 -0.8926
   30TCq2    O6  468   2.155   0.019  14.387 -0.7552 -0.3113 -0.4815
   30TCq2    H2  469   2.274   4.563  14.234  0.0321 -0.7448 -0.4833
   30TCq2    H3  470   2.469   0.198  14.322 -0.7617  0.0032 -0.2359
   30TCq2    H4  471   2.710   4.579  14.249 -0.0889  1.5335 -0.4774
   31MPD2     C  472   0.666   3.454  14.746  0.5452  0.3500  0.2096
   31MPD2    C1  473   0.549   3.523  14.732 -0.2838  0.2884 -0.3885
   31MPD2    C2  474   0.470   3.537  14.839 -1.1403 -0.4901  0.6216
   31MPD2    C3  475   0.495   3.475  14.953 -0.1845 -0.1193  0.4370
   31MPD2    C4  476   0.614   3.412  14.975 -0.9198 -0.0630 -0.3653
   31MPD2    C5  477   0.700   3.402  14.866 -0.6224 -0.8725  1.1192
   31MPD2     H  478   0.382   3.599  14.827  0.2489  1.5393  0.9599
   31MPD2    H1  479   0.632   3.352  15.063  1.3547  1.1723  0.0201
   31MPD2    H2  480   0.742   3.440  14.670  0.3886 -0.2678  0.1737
   31MPD2    H3  481   0.794   3.352  14.884  0.3657  0.4064 -0.5515
   31MPD2     N  482   0.407   3.476  15.066  1.2044 -0.2666 -0.0635
   31MPD2    H5  483   0.445   3.451  15.157 -1.1867  1.2253  1.3517
   31MPD2    N1  484   0.521   3.580  14.602  0.0528 -0.2859 -0.3021
   31MPD2    H7  485   0.586   3.562  14.526  1.8405 -1.5542  1.5151
   32TCq2    C1  486   0.278   3.534  15.067 -0.0061 -0.6368  0.3447
   32TCq2    O2  487   0.230   3.608  14.984  0.1150 -0.8181 -0.3847
   32TCq2    C2  488   0.217   3.515  15.200 -0.2300  0.0163 -0.8637
   32TCq2    C3  489   0.130   3.607  15.244  0.2937 -0.6453 -0.5506
   32TCq2    C4  490   0.095   3.605  15.377 -0.4022  0.4942  0.1733
   32TCq2    C5  491   0.146   3.512  15.465  0.0233 -0.2791 -0.4257
   32TCq2    C6  492   0.233   3.416  15.420 -0.2529 -0.5789 -0.1124
   32TCq2    C7  493   0.270   3.417  15.285 -0.0505 -0.6587  0.1571
   32TCq2    C8  494   0.317   3.342  15.513  0.6066  0.1806 -0.4702
   32TCq2    O4  495   0.414   3.281  15.474 -0.0839  0.2051 -0.3854
   32TCq2    C9  496   0.000   3.703  15.417  1.0677  0.1737 -0.1226
   32TCq2    O5  497   4.683   3.720  15.538 -0.4567  0.5197 -0.0695
   32TCq2    O6  498   4.703   3.796  15.330  0.3711 -0.7826  0.3658
   32TCq2    H2  499   0.098   3.684  15.174  0.1729 -0.7504 -0.6126
   32TCq2    H3  500   0.091   3.508  15.559 -0.6338  0.0611 -0.7900
   32TCq2    H4  501   0.338   3.339  15.253  0.0282 -0.7981  0.6639
   33MPD2     C  502   1.062   0.934  10.387 -0.3367 -0.4146 -0.1575
   33MPD2    C1  503   0.951   0.868  10.434  0.0562  0.1818 -0.3846
   33MPD2    C2  504   0.825   0.911  10.389 -0.1360 -0.5019 -0.5604
   33MPD2    C3  505   0.812   0.995  10.281  0.2670  0.1792  0.6358
   33MPD2    C4  506   0.926   1.055  10.234  0.2766 -0.2456 -0.6663
   33MPD2    C5  507   1.050   1.022  10.279 -0.0693  0.2528 -0.2713
   33MPD2     H  508   0.735   0.875  10.438  0.4807 -1.5901 -0.2435
   33MPD2    H1  509   0.929   1.124  10.151 -0.9398 -0.2425 -0.6968
   33MPD2    H2  510   1.163   0.919  10.424 -1.0009 -0.0454  1.7845
   33MPD2    H3  511   1.135   1.075  10.238 -0.1851  1.4156  1.0099
   33MPD2     N  512   0.686   1.036  10.226  0.0603 -0.1114 -0.3467
   33MPD2    H5  513   0.692   1.089  10.140  1.4045  1.3599  0.6543
   33MPD2    N1  514   0.957   0.763  10.532 -0.1549  0.0042  0.0868
   33MPD2    H7  515   0.875   0.743  10.588  0.3175 -2.4403 -0.0814
   34TCq2    C1  516   0.564   0.977  10.257 -0.2482  0.2521 -0.2409
   34TCq2    O2  517   0.539   0.885  10.336 -0.3150 -0.0508  0.2377
   34TCq2    C2  518   0.457   1.018  10.164 -0.0668  0.3414 -0.1158
   34TCq2    C3  519   0.352   0.934  10.150  0.1904  0.9843 -0.0708
   34TCq2    C4  520   0.255   0.983  10.065 -0.0212 -0.1188  0.2872
   34TCq2    C5  521   0.267   1.099   9.996  0.5692 -0.1299  0.1457
   34TCq2    C6  522   0.365   1.191  10.029 -0.1996  0.8043  0.0695
   34TCq2    C7  523   0.470   1.151  10.112 -0.4256 -0.9017 -0.2543
   34TCq2    C8  524   0.365   1.323   9.962  0.1004 -0.8279 -0.1054
   34TCq2    O4  525   0.459   1.396   9.985  0.6900 -0.3159  1.2138
   34TCq2    C9  526   0.140   0.900  10.045 -0.0668  0.3924 -0.0289
   34TCq2    O5  527   0.050   0.961   9.990 -0.7025  0.3132  0.3143
   34TCq2    O6  528   0.159   0.773  10.060 -0.3539 -0.1392 -0.4193
   34TCq2    H2  529   0.330   0.845  10.208 -1.1016  0.6288 -1.0940
   34TCq2    H3  530   0.198   1.121   9.915  0.1272 -2.1929 -0.0239
   34TCq2    H4  531   0.556   1.210  10.141 -1.2681  0.1250  0.1689
   35MPD2     C  532   1.610   2.082  11.790  0.0421 -0.7522  0.4109
   35MPD2    C1  533   1.613   1.953  11.847 -0.1633  0.1955  0.2265
   35MPD2    C2  534   1.521   1.856  11.816  0.0377  0.8002  0.4184
   35MPD2    C3  535   1.416   1.898  11.738 -0.8584  0.6851  0.5574
   35MPD2    C4  536   1.396   2.026  11.689  0.2052  0.4349 -0.3843
   35MPD2    C5  537   1.502   2.116  11.713  0.5010  0.0565 -1.2484
   35MPD2     H  538   1.525   1.752  11.847  2.0621  0.2723 -1.6498
   35MPD2    H1  539   1.308   2.058  11.636  0.0731  0.5924 -0.0691
   35MPD2    H2  540   1.690   2.152  11.809  1.2290 -1.9400 -0.2220
   35MPD2    H3  541   1.493   2.218  11.676 -0.0637  0.3039 -0.4254
   35MPD2     N  542   1.319   1.795  11.719  0.0584  0.2481  0.2455
   35MPD2    H5  543   1.336   1.699  11.749 -0.1551  0.4789  1.1155
   35MPD2    N1  544   1.730   1.921  11.929 -0.1949  0.2394  0.3766
   35MPD2    H7  545   1.799   1.995  11.932 -1.1247  1.2620 -2.8142
   36TCq2    C1  546   1.189   1.821  11.679  0.5650 -0.4727 -0.4378
   36TCq2    O2  547   1.124   1.923  11.684 -0.1613 -0.1503  0.1650
   36TCq2    C2  548   1.119   1.705  11.642 -0.1818 -0.1950  0.3008
   36TCq2    C3  549   0.982   1.698  11.665 -1.1134 -0.4444  0.1302
   36TCq2    C4  550   0.919   1.577  11.632  0.0120  0.2239 -1.0118
   36TCq2    C5  551   0.989   1.479  11.581 -0.7182  0.6391 -0.0003
   36TCq2    C6  552   1.123   1.499  11.551 -0.1624 -0.7726  0.3921
   36TCq2    C7  553   1.190   1.612  11.581  0.8500 -0.2156  0.1897
   36TCq2    C8  554   1.179   1.393  11.475  0.3491 -0.7495  0.3833
   36TCq2    O4  555   1.103   1.308  11.425 -0.1646 -0.1739  0.2515
   36TCq2    C9  556   0.784   1.559  11.663 -0.9298 -0.9267  0.3429
   36TCq2    O5  557   0.727   1.457  11.618  0.4410  0.3824  0.2528
   36TCq2    O6  558   0.712   1.653  11.707  0.5519  0.4893 -0.2955
   36TCq2    H2  559   0.926   1.780  11.708 -0.8017  0.7324 -1.7046
   36TCq2    H3  560   0.932   1.397  11.540 -0.9689  1.7096 -1.8120
   36TCq2    H4  561   1.289   1.636  11.544 -0.1436  1.3020 -1.4735
   37TMC2    C1  562   4.053   2.464  11.790 -0.1184 -0.6812  0.2779
   37TMC2    C2  563   4.040   2.365  11.694  0.0563  1.1453  0.1079
   37TMC2    C3  564   4.130   2.371  11.593  0.3550 -0.2836 -0.0293
   37TMC2    C4  565   4.159   2.550  11.807  0.0625 -0.0334  0.3810
   37TMC2    C5  566   4.248   2.545  11.699  0.1962  0.0706  0.1733
   37TMC2    C6  567   4.232   2.464  11.592 -0.5646 -0.0458 -0.0363
   37TMC2     C  568   3.958   2.471  11.900  0.3187  0.1086  0.0679
   37TMC2     O  569   3.842   2.431  11.888 -0.5187 -0.1789  0.2285
   37TMC2     H  570   3.954   2.300  11.684 -0.3383  1.5985  0.5520
   37TMC2    H1  571   4.181   2.606  11.897  0.9636 -0.6654  0.5595
   37TMC2    H2  572   4.277   2.490  11.496  1.0438 -1.0386  0.4395
   37TMC2    C7  573   4.387   2.579  11.743 -0.1896  0.2016  0.0580
   37TMC2    C8  574   4.089   2.305  11.473 -0.2744  0.1836  0.1142
   37TMC2    O1  575   4.395   2.660  11.833  0.5454 -0.2142  0.5305
   37TMC2    O2  576   3.974   2.268  11.459  0.2695  0.4503 -0.1252
   37TMC2    O5  577   4.185   2.227  11.424  0.3566 -0.4335 -0.0028
   37TMC2    H5  578   4.277   2.236  11.457  0.3008  1.7325 -0.3971
   38MPD2     C  579   3.866   2.399  12.401  0.3441 -0.2925 -0.1575
   38MPD2    C1  580   4.003   2.395  12.377  1.2096 -0.2787 -0.6036
   38MPD2    C2  581   4.046   2.424  12.253 -0.2616 -0.3784 -0.1407
   38MPD2    C3  582   3.962   2.467  12.153 -0.5202 -0.2856 -0.2285
   38MPD2    C4  583   3.830   2.481  12.180  0.1483 -0.5876 -0.1063
   38MPD2    C5  584   3.781   2.449  12.303 -0.6234  1.1499  0.1377
   38MPD2     H  585   4.150   2.412  12.228 -0.3864 -4.0250  1.0745
   38MPD2    H1  586   3.762   2.523  12.106 -0.8063  0.4992  1.3820
   38MPD2    H2  587   3.838   2.372  12.503  0.2873 -0.8689 -0.3278
   38MPD2    H3  588   3.674   2.462  12.311 -0.9946 -2.1603  0.4151
   38MPD2     N  589   4.024   2.483  12.022 -0.2512  1.1057 -0.7415
   38MPD2    H5  590   4.124   2.468  12.016 -0.5209 -1.0233  0.1546
   38MPD2    N1  591   4.100   2.352  12.472  0.3579 -0.3192  0.1243
   38MPD2    H7  592   4.196   2.349  12.439  1.5032  0.0640  3.4179
   39MPD2     C  593   2.472   4.012   1.705  0.0499  0.4071  0.5573
   39MPD2    C1  594   2.363   4.069   1.766  0.1425  0.0683 -0.6543
   39MPD2    C2  595   2.261   4.113   1.687 -0.2374 -0.1185 -0.1686
   39MPD2    C3  596   2.273   4.096   1.552 -0.0691 -0.6506 -0.1321
   39MPD2    C4  597   2.378   4.027   1.491  0.3170  1.3076  0.3559
   39MPD2    C5  598   2.484   3.997   1.569  0.6808  1.0317  0.2064
   39MPD2     H  599   2.173   4.153   1.735 -0.4057  1.3450 -1.7002
   39MPD2    H1  600   2.380   4.008   1.384 -2.2322  1.0732  0.3344
   39MPD2    H2  601   2.554   3.999   1.776  2.1687  0.7297 -1.8465
   39MPD2    H3  602   2.573   3.954   1.525 -0.0259  0.3938 -0.5820
   39MPD2     N  603   2.175   4.132   1.458  0.8245  0.1491  0.0577
   39MPD2    H5  604   2.195   4.109   1.361  0.5803 -0.8339  0.2399
   39MPD2    N1  605   2.368   4.092   1.911  0.7720 -0.0010 -0.4799
   39MPD2    H7  606   2.452   4.056   1.954 -0.4815 -1.9193  0.3818
   40TCq2    C1  607   2.267   4.133   1.998  0.1912  0.1158 -0.0539
   40TCq2    O2  608   2.149   4.149   1.970 -0.4266 -0.0881  0.0094
   40TCq2    C2  609   2.310   4.152   2.141 -0.0225  0.0596  0.4152
   40TCq2    C3  610   2.226   4.132   2.243 -0.3618 -0.0422  0.5865
   40TCq2    C4  611   2.273   4.127   2.369  0.5584 -0.2656  0.0338
   40TCq2    C5  612   2.410   4.148   2.393  0.1544  0.0585 -0.4144
   40TCq2    C6  613   2.492   4.170   2.290 -0.2353  0.3631  0.3374
   40TCq2    C7  614   2.446   4.166   2.162  0.3907 -0.2967  0.1067
   40TCq2    C8  615   2.634   4.156   2.313  0.1042 -0.1912 -0.2912
   40TCq2    O4  616   2.679   4.075   2.397 -0.2866  0.3005  0.3548
   40TCq2    C9  617   2.190   4.081   2.473  0.4354 -0.1047  0.2850
   40TCq2    O5  618   2.240   4.095   2.584 -0.2529  0.2072 -0.2460
   40TCq2    O6  619   2.082   4.024   2.441 -0.1206  0.6538  0.2915
   40TCq2    H2  620   2.130   4.091   2.216  0.0400 -0.5387 -0.0889
   40TCq2    H3  621   2.456   4.151   2.491 -0.6460 -1.9991  0.0140
   40TCq2    H4  622   2.512   4.185   2.078  0.5315 -0.8976  0.0850
   41TMC2    C1  623   0.949   2.355  13.408 -0.0408 -0.2727  0.2573
   41TMC2    C2  624   0.856   2.387  13.503 -0.3480 -0.7490  0.5865
   41TMC2    C3  625   0.751   2.468  13.462 -1.6358 -0.3867  0.7117
   41TMC2    C4  626   0.943   2.405  13.279 -0.0308 -1.0285 -0.1554
   41TMC2    C5  627   0.845   2.490  13.246 -0.5079  0.1708 -1.1246
   41TMC2    C6  628   0.741   2.523  13.331 -0.4569  0.2084  0.0454
   41TMC2     C  629   1.069   2.292  13.443 -0.4998 -0.2374  0.0074
   41TMC2     O  630   1.143   2.260  13.348 -0.1476  0.0466 -0.3901
   41TMC2     H  631   0.856   2.342  13.602 -1.8875 -2.2441 -0.0901
   41TMC2    H1  632   1.012   2.369  13.204 -0.1121  0.8682 -1.1608
   41TMC2    H2  633   0.659   2.586  13.299 -1.6831 -1.7516 -0.7121
   41TMC2    C7  634   0.817   2.513  13.106 -0.0358 -0.2073 -0.3299
   41TMC2    C8  635   0.638   2.483  13.549  0.3049  0.0609  0.2335
   41TMC2    O1  636   0.699   2.510  13.073 -0.3195  0.0643  0.2818
   41TMC2    O2  637   0.533   2.533  13.505  0.5016  0.1887 -0.2227
   41TMC2    O5  638   0.687   2.500  13.672  0.3338  0.3317  0.0169
   41TMC2    H5  639   0.780   2.468  13.675  0.5599  0.9683 -0.1432
   42MPD2     C  640   1.261   2.130  13.571 -0.5393  0.3544 -0.0796
   42MPD2    C1  641   1.208   2.239  13.633 -0.7271 -0.2201 -0.7728
   42MPD2    C2  642   1.253   2.275  13.756  0.1400  0.0274 -0.0694
   42MPD2    C3  643   1.351   2.206  13.820 -1.0102 -0.8810  0.6298
   42MPD2    C4  644   1.410   2.102  13.750  0.5199  0.2399 -0.0494
   42MPD2    C5  645   1.362   2.068  13.627  0.2776 -0.5463 -0.3302
   42MPD2     H  646   1.204   2.356  13.809  1.1406  1.7872 -1.8067
   42MPD2    H1  647   1.497   2.052  13.793 -1.0995 -1.6543  1.0547
   42MPD2    H2  648   1.232   2.085  13.476  0.5484 -2.1664  0.7875
   42MPD2    H3  649   1.406   1.987  13.571  0.4989 -0.1158 -0.7793
   42MPD2     N  650   1.400   2.232  13.949  0.3326  0.0041  0.3815
   42MPD2    H5  651   1.460   2.164  13.994 -0.9470 -0.6472  1.1147
   42MPD2    N1  652   1.102   2.305  13.574 -0.0380 -0.2744 -0.1671
   42MPD2    H7  653   1.051   2.372  13.632  0.8095 -2.6671  3.3593
   43MPD2     C  654   2.792   0.728   1.007  0.1351  0.1672  0.0745
   43MPD2    C1  655   2.888   0.692   1.099  0.3622  0.0740 -0.3632
   43MPD2    C2  656   2.885   0.749   1.230 -0.0309  0.4644  0.4815
   43MPD2    C3  657   2.783   0.835   1.264  0.3751 -0.2814  0.7561
   43MPD2    C4  658   2.697   0.882   1.169  0.2392 -0.5554 -0.4632
   43MPD2    C5  659   2.705   0.830   1.040 -0.2507  0.3324 -0.2093
   43MPD2     H  660   2.952   0.712   1.307 -0.8338  0.9407  1.4082
   43MPD2    H1  661   2.621   0.955   1.194  0.0672 -1.4228  1.5573
   43MPD2    H2  662   2.778   0.674   0.914  1.3852  1.3138 -0.7689
   43MPD2    H3  663   2.640   0.871   0.964 -2.9073  0.2437  2.0197
   43MPD2     N  664   2.762   0.886   1.401  0.0594  0.0164 -0.0872
   43MPD2    H5  665   2.664   0.906   1.417 -0.1025 -0.2714 -0.7196
   43MPD2    N1  666   2.975   0.593   1.069  0.4001  0.3630  0.0607
   43MPD2    H7  667   3.021   0.549   1.148  0.8417  0.9700  0.1364
   44TCq2    C1  668   2.783   0.722   1.970  0.7425  0.0596  0.6233
   44TCq2    O2  669   2.896   0.674   1.961 -0.1600  0.4530 -0.3422
   44TCq2    C2  670   2.726   0.787   1.852 -0.2289  0.1592  0.3455
   44TCq2    C3  671   2.617   0.875   1.868 -0.2058  0.4469  0.5130
   44TCq2    C4  672   2.594   0.956   1.762 -0.2157 -0.2837 -0.7054
   44TCq2    C5  673   2.663   0.954   1.648  1.2070 -0.4730 -0.5019
   44TCq2    C6  674   2.769   0.875   1.642 -0.2836 -0.4061 -0.1012
   44TCq2    C7  675   2.809   0.788   1.739 -0.3556  0.3614 -0.5417
   44TCq2    C8  676   2.832   0.854   1.516  0.3137  0.1879 -0.5725
   44TCq2    O4  677   2.942   0.802   1.517  0.1724  0.1214 -0.1396
   44TCq2    C9  678   2.515   1.075   1.779  1.1338  0.1854  0.6188
   44TCq2    O5  679   2.502   1.160   1.693 -0.2282 -0.3129  0.4183
   44TCq2    O6  680   2.495   1.110   1.901  0.3442 -0.4657 -0.7009
   44TCq2    H2  681   2.559   0.889   1.958  0.8400  0.8827  1.1256
   44TCq2    H3  682   2.643   1.024   1.568 -0.2558 -1.2329 -0.7915
   44TCq2    H4  683   2.906   0.740   1.729 -0.6293 -0.5228  0.9865
   45TMC2    C1  684   2.968   2.568   9.200  0.0099  0.1680 -0.5172
   45TMC2    C2  685   2.928   2.528   9.076  0.4319  0.0419 -0.3562
   45TMC2    C3  686   2.930   2.620   8.979 -0.2903 -0.1794 -0.3909
   45TMC2    C4  687   3.004   2.691   9.236 -0.4250 -0.8158  0.3018
   45TMC2    C5  688   2.996   2.783   9.130  0.2512 -0.4221  0.3113
   45TMC2    C6  689   2.964   2.750   9.005  0.3426 -0.2560 -0.2876
   45TMC2     C  690   2.968   2.477   9.307 -0.0551  0.2603 -0.9496
   45TMC2     O  691   3.053   2.498   9.395  0.1410  0.5351 -0.1281
   45TMC2     H  692   2.903   2.424   9.055  1.0021  0.6220 -3.8810
   45TMC2    H1  693   3.014   2.718   9.340  0.1463  2.0793 -0.4839
   45TMC2    H2  694   2.977   2.829   8.932  0.9884  0.0469  0.1554
   45TMC2    C7  695   3.013   2.931   9.159 -0.8074 -0.0726  0.8284
   45TMC2    C8  696   2.912   2.595   8.839  0.1872  0.3158  0.2607
   45TMC2    O1  697   2.996   3.003   9.062 -0.5414  0.3052 -0.3489
   45TMC2    O2  698   2.929   2.686   8.757 -0.5164 -0.1774 -0.2020
   45TMC2    O5  699   2.813   2.498   8.823  0.1796 -0.6941  0.6896
   45TMC2    H5  700   2.811   2.446   8.906  1.8701 -0.4490  0.8736
   46MPD2     C  701   2.947   2.212   9.448  0.1367  0.4611  0.6277
   46MPD2    C1  702   2.874   2.247   9.337  0.8038 -0.4771 -0.3303
   46MPD2    C2  703   2.779   2.161   9.286 -0.1038 -0.4770  0.4811
   46MPD2    C3  704   2.752   2.045   9.347 -0.0591 -0.3433 -0.0951
   46MPD2    C4  705   2.825   2.008   9.457  0.1996  0.6241 -0.1963
   46MPD2    C5  706   2.932   2.090   9.498  0.4768  0.0423 -0.2989
   46MPD2     H  707   2.723   2.184   9.196 -3.3217 -2.3014  2.0154
   46MPD2    H1  708   2.818   1.908   9.499  0.8187  0.3552 -0.7284
   46MPD2    H2  709   3.017   2.281   9.493 -0.4297  0.7013  1.1387
   46MPD2    H3  710   3.001   2.057   9.575  0.2532 -1.8890 -0.9333
   46MPD2     N  711   2.649   1.969   9.297  0.7165  0.7183 -0.1173
   46MPD2    H5  712   2.608   2.011   9.215 -0.0977 -1.1323 -0.6497
   46MPD2    N1  713   2.889   2.369   9.276  0.2590  0.2523 -0.3567
   46MPD2    H7  714   2.815   2.389   9.209  1.3588 -0.1472 -1.6823
   47TMC2    C1  715   4.346   3.348   9.555  0.0286 -0.4536 -0.1708
   47TMC2    C2  716   4.356   3.228   9.485 -0.1447 -0.0350 -0.1011
   47TMC2    C3  717   4.271   3.221   9.381  0.2532 -0.0771  0.5792
   47TMC2    C4  718   4.256   3.450   9.528 -0.1351  0.0999  0.4716
   47TMC2    C5  719   4.174   3.429   9.427  0.0208 -0.4054 -0.1437
   47TMC2    C6  720   4.167   3.309   9.362 -0.2831  0.2943 -0.0076
   47TMC2     C  721   4.443   3.385   9.657  0.2874 -0.5044 -0.6241
   47TMC2     O  722   4.403   3.444   9.755  0.2430  0.7108  0.1778
   47TMC2     H  723   4.440   3.160   9.493  0.5572  0.8290 -0.0778
   47TMC2    H1  724   4.264   3.546   9.576  2.5767  0.6285 -1.0063
   47TMC2    H2  725   4.099   3.286   9.281 -0.0455 -0.5851  0.0357
   47TMC2    C7  726   4.075   3.541   9.409 -0.1323  0.0712  0.2331
   47TMC2    C8  727   4.306   3.119   9.287 -0.2439  0.1137 -0.6160
   47TMC2    O1  728   4.088   3.642   9.474 -0.5568 -0.3292 -0.1353
   47TMC2    O2  729   4.410   3.053   9.288  0.1815 -0.3852 -0.4382
   47TMC2    O5  730   4.194   3.084   9.219 -0.1808 -0.2878  0.3965
   47TMC2    H5  731   4.104   3.117   9.238 -0.6438 -1.5656  0.3946
   48MPD2     C  732   4.668   3.379   9.851  1.0185 -0.3848  0.7445
   48MPD2    C1  733   4.672   3.320   9.729  0.6690  0.0810 -1.0151
   48MPD2    C2  734   0.058   3.243   9.685 -0.4848 -0.1075 -0.3514
   48MPD2    C3  735   0.169   3.238   9.770 -0.2430  0.4849 -0.5558
   48MPD2    C4  736   0.161   3.304   9.889  0.1008  0.5660 -0.0831
   48MPD2    C5  737   0.053   3.367   9.935  0.1080 -0.3720  0.0348
   48MPD2     H  738   0.053   3.193   9.590  2.1142  1.3131 -1.2625
   48MPD2    H1  739   0.242   3.300   9.961  0.6408  0.3008 -0.7027
   48MPD2    H2  740   4.589   3.450   9.876 -0.3048 -1.5487 -0.1119
   48MPD2    H3  741   0.059   3.428  10.024  0.7068 -0.8233  0.3029
   48MPD2     N  742   0.276   3.157   9.726  0.1493 -0.8431 -0.2925
   48MPD2    H5  743   0.273   3.114   9.634  0.0150 -1.7778  0.1434
   48MPD2    N1  744   4.564   3.316   9.636  0.3453  0.3970  1.3533
   48MPD2    H7  745   4.578   3.264   9.550 -2.2235 -0.0377  1.2109
   49MPD2     C  746   4.690   0.203   9.803 -0.5827 -0.7143 -0.3964
   49MPD2    C1  747   4.614   0.127   9.889 -0.4821 -0.3675 -0.1735
   49MPD2    C2  748   4.592   0.177  10.014  0.1940 -0.6930 -0.3900
   49MPD2    C3  749   4.639   0.306  10.048 -0.2330  0.2999  0.0179
   49MPD2    C4  750   4.716   0.377   9.960 -0.1351  0.2506 -0.0243
   49MPD2    C5  751   0.013   0.328   9.833  0.4986  0.0764 -0.1436
   49MPD2     H  752   4.536   0.119  10.086 -0.4056 -1.2359 -1.2931
   49MPD2    H1  753   0.009   0.484   9.974 -0.5624  0.4501 -0.9959
   49MPD2    H2  754   4.705   0.182   9.697  0.7129 -1.6276 -0.0429
   49MPD2    H3  755   0.072   0.382   9.759  2.0577 -0.5802  0.6161
   49MPD2     N  756   4.615   0.372  10.178 -0.3499 -0.3447 -0.4422
   49MPD2    H5  757   4.639   0.470  10.188  0.0047 -0.1886 -2.8325
   49MPD2    N1  758   4.538   0.018   9.840 -0.2296 -0.0297 -0.5217
   49MPD2    H7  759   4.480   4.695   9.908  1.7659  2.1508  2.7275
   50TCq2    C1  760   4.557   4.679   9.719 -0.6213 -0.1061  0.3808
   50TCq2    O2  761   4.646   4.701   9.636  0.5797 -0.2204  0.1258
   50TCq2    C2  762   4.450   4.583   9.688  0.3717  0.5805 -0.3122
   50TCq2    C3  763   4.470   4.518   9.568  0.5025 -0.6846 -0.0604
   50TCq2    C4  764   4.363   4.450   9.512  0.0125  0.2458 -0.3872
   50TCq2    C5  765   4.242   4.433   9.580  0.0397 -0.1257  0.7178
   50TCq2    C6  766   4.235   4.492   9.699  0.0815  0.3318  0.3491
   50TCq2    C7  767   4.331   4.565   9.759 -0.5463 -0.0855  0.3352
   50TCq2    C8  768   4.116   4.472   9.779  1.0565  0.2432 -0.3720
   50TCq2    O4  769   4.005   4.464   9.722 -0.0855  0.0565 -0.1951
   50TCq2    C9  770   4.384   4.391   9.378  0.4617  0.0866  0.1558
   50TCq2    O5  771   4.473   4.443   9.305  0.1281  0.6290  0.5185
   50TCq2    O6  772   4.293   4.318   9.332  0.0520  0.3075  0.2456
   50TCq2    H2  773   4.563   4.516   9.511  1.1029 -1.6818  0.9530
   50TCq2    H3  774   4.154   4.386   9.539 -0.0238  1.1367 -0.5924
   50TCq2    H4  775   4.313   4.645   9.830 -1.7338 -0.7874  0.8242
   51MPD2     C  776   4.157   4.121   1.094  0.7262  0.1804  0.7118
   51MPD2    C1  777   4.247   4.016   1.121 -0.2491 -0.1821  0.5919
   51MPD2    C2  778   4.334   4.021   1.231 -0.0968  0.7944 -0.3646
   51MPD2    C3  779   4.338   4.127   1.315  0.4425 -0.5323  0.5200
   51MPD2    C4  780   4.252   4.228   1.280  0.2299 -0.5553  0.2612
   51MPD2    C5  781   4.168   4.231   1.179 -0.6791 -0.3368 -0.2021
   51MPD2     H  782   4.398   3.937   1.258 -2.4204 -0.3601  1.5983
   51MPD2    H1  783   4.248   4.320   1.336  0.7807  0.2334 -0.9980
   51MPD2    H2  784   4.095   4.118   1.005  1.8956 -2.2099 -0.0262
   51MPD2    H3  785   4.101   4.313   1.158 -0.0814 -0.0234 -0.8379
   51MPD2     N  786   4.408   4.140   1.436  0.4855  0.0772  0.2746
   51MPD2    H5  787   4.407   4.234   1.474 -0.4086 -0.5745  1.8536
   51MPD2    N1  788   4.265   3.907   1.033  0.0068  0.1256 -0.3269
   51MPD2    H7  789   4.354   3.859   1.041  0.5152  1.3704  1.6737
   52TCq2    C1  790   4.473   4.034   1.499 -0.3169  0.1054 -0.0139
   52TCq2    O2  791   4.476   3.916   1.468  0.3921 -0.6816  0.2083
   52TCq2    C2  792   4.531   4.069   1.628 -0.4983 -0.1774  0.1157
   52TCq2    C3  793   4.562   3.963   1.709 -0.7113  0.2842  0.6157
   52TCq2    C4  794   4.669   3.967   1.790  0.5323 -0.4809  0.3179
   52TCq2    C5  795   0.022   4.074   1.793  0.1705  0.7809 -0.0293
   52TCq2    C6  796   4.716   4.184   1.710 -0.3681 -0.2719  0.0287
   52TCq2    C7  797   4.605   4.179   1.626 -0.4957 -0.8399  0.2457
   52TCq2    C8  798   0.086   4.293   1.690  0.0508 -0.1699  0.7350
   52TCq2    O4  799   0.040   4.396   1.642  0.3772 -0.0452 -0.5582
   52TCq2    C9  800   4.696   3.856   1.881 -0.6302 -0.6080 -0.3939
   52TCq2    O5  801   4.598   3.778   1.907 -0.1530  0.3999 -0.0007
   52TCq2    O6  802   0.091   3.835   1.922  0.1265  0.6220  0.0237
   52TCq2    H2  803   4.494   3.880   1.718 -0.4722  0.3579  3.0417
   52TCq2    H3  804   0.102   4.069   1.866 -0.5585 -2.5208  0.5851
   52TCq2    H4  805   4.592   4.246   1.542  1.3066 -0.3619  0.3582
   53TMC2    C1  806   0.108   2.497  12.311  0.4674 -0.2432 -0.2340
   53TMC2    C2  807   0.201   2.452  12.400  0.5302 -0.0775  0.0731
   53TMC2    C3  808   0.168   2.469  12.533  0.3946  0.1796 -0.2857
   53TMC2    C4  809   4.713   2.562  12.336 -0.1826  0.0838 -0.9612
   53TMC2    C5  810   4.682   2.555  12.471  0.4403  0.6017  0.5268
   53TMC2    C6  811   0.037   2.507  12.570 -0.9548 -0.3509  0.6789
   53TMC2     C  812   0.137   2.455  12.174  0.5371 -0.7073 -0.1686
   53TMC2     O  813   0.251   2.426  12.147 -0.4629 -0.1036 -0.0195
   53TMC2     H  814   0.290   2.403  12.364  0.8925  0.9828 -0.4779
   53TMC2    H1  815   4.656   2.612  12.260 -0.3818 -1.0191 -1.5422
   53TMC2    H2  816   0.007   2.504  12.674 -0.0267 -1.5805  0.9068
   53TMC2    C7  817   4.545   2.578  12.498  0.3390  0.6332  0.2051
   53TMC2    C8  818   0.238   2.404  12.636 -0.7978  0.0647  0.6141
   53TMC2    O1  819   4.476   2.622  12.412 -0.1505 -0.2480  0.0239
   53TMC2    O2  820   0.193   2.347  12.736 -0.5090  0.3591  0.1954
   53TMC2    O5  821   0.358   2.468  12.627  0.1333 -0.4455 -0.8584
   53TMC2    H5  822   0.390   2.485  12.536 -0.1697  1.0933 -0.6820
   54MPD2     C  823   0.131   2.422  11.885  0.3649  0.3460  0.1404
   54MPD2    C1  824   0.027   2.476  11.956 -0.2566  0.0182 -0.9497
   54MPD2    C2  825   4.633   2.499  11.893 -0.3848 -0.5992  0.6189
   54MPD2    C3  826   4.610   2.473  11.757 -0.4362 -0.4838 -0.6965
   54MPD2    C4  827   4.718   2.428  11.685  0.7712  0.1008  0.8804
   54MPD2    C5  828   0.113   2.406  11.745  0.1542 -0.3393  0.3125
   54MPD2     H  829   4.550   2.532  11.956  0.6785  3.2965 -0.0292
   54MPD2    H1  830   4.701   2.404  11.581  0.1105 -0.0441  1.0155
   54MPD2    H2  831   0.228   2.407  11.931 -0.4010 -0.7871  1.4131
   54MPD2    H3  832   0.192   2.361  11.686  0.2019 -0.9012  0.7987
   54MPD2     N  833   4.487   2.493  11.693 -0.0727  0.6008 -0.1806
   54MPD2    H5  834   4.476   2.444  11.605  2.7768 -2.5225  1.2072
   54MPD2    N1  835   0.032   2.490  12.092  0.3695  0.1336 -0.1237
   54MPD2    H7  836   4.668   2.517  12.134 -0.0727 -2.7169  0.8195
   55MPD2     C  837   0.613   0.473   0.751 -0.1815 -0.9926 -0.3323
   55MPD2    C1  838   0.543   0.358   0.790 -0.6448  0.1814 -0.7498
   55MPD2    C2  839   0.404   0.371   0.797 -0.2502  0.2603 -0.2740
   55MPD2    C3  840   0.341   0.494   0.785 -0.2916 -0.7063  0.0084
   55MPD2    C4  841   0.418   0.603   0.766 -0.3489  0.0400  0.5683
   55MPD2    C5  842   0.550   0.588   0.756 -0.4852 -0.6530 -1.0334
   55MPD2     H  843   0.339   0.284   0.802  0.0181  0.1990  1.9188
   55MPD2    H1  844   0.373   0.699   0.744  0.2402  0.9747  3.4339
   55MPD2    H2  845   0.721   0.476   0.739 -0.1268 -0.2824  0.3251
   55MPD2    H3  846   0.611   0.676   0.736 -0.9066 -0.0742  0.2108
   55MPD2     N  847   0.200   0.497   0.791  0.2765 -0.2447 -0.3894
   55MPD2    H5  848   0.158   0.409   0.820  1.2331 -0.7891 -0.6468
   55MPD2    N1  849   0.606   0.233   0.794 -0.0759 -0.0612 -0.3467
   55MPD2    H7  850   0.707   0.231   0.782  0.2347 -3.2368  2.6407
   56TCq2    C1  851   0.551   0.107   0.815 -0.0596  0.0270 -0.1341
   56TCq2    O2  852   0.433   0.072   0.841  0.0848 -0.0773  0.0477
   56TCq2    C2  853   0.656   0.009   0.836 -1.0406 -0.1374 -0.1750
   56TCq2    C3  854   0.780   0.016   0.769  0.0082  0.0298 -0.0207
   56TCq2    C4  855   0.864   4.631   0.775  0.4086 -0.3334 -0.3443
   56TCq2    C5  856   0.826   4.512   0.829 -0.8811 -1.0715  0.0552
   56TCq2    C6  857   0.701   4.507   0.879 -0.0569 -0.8667 -0.2931
   56TCq2    C7  858   0.616   4.617   0.894 -0.1857 -0.9532 -0.4722
   56TCq2    C8  859   0.663   4.375   0.929  0.3894 -0.6540 -0.0246
   56TCq2    O4  860   0.750   4.286   0.932  0.2545 -0.1136 -0.0988
   56TCq2    C9  861   0.983   4.636   0.692  0.5935 -0.6154  0.0528
   56TCq2    O5  862   1.073   4.554   0.715  0.3404  0.6002 -0.2715
   56TCq2    O6  863   0.986   4.716   0.593 -0.1219 -0.2222  0.3393
   56TCq2    H2  864   0.807   0.105   0.714 -1.1372  0.5394  0.2501
   56TCq2    H3  865   0.882   4.424   0.799 -1.1443 -0.2980 -2.7450
   56TCq2    H4  866   0.514   4.611   0.932 -0.4400  0.9326 -0.8316
   57TMC2    C1  867   4.706   1.506  13.056  0.0969  0.4405 -0.2673
   57TMC2    C2  868   4.674   1.634  13.042  0.1650  0.9669  0.4681
   57TMC2    C3  869   4.715   1.705  12.927 -1.1391  1.0927  0.1199
   57TMC2    C4  870   0.079   1.449  12.983  0.3669 -0.3979  0.1678
   57TMC2    C5  871   0.126   1.519  12.871  0.3365  0.1965  0.0058
   57TMC2    C6  872   0.086   1.650  12.851  0.3199  0.4556 -0.4619
   57TMC2     C  873   4.621   1.426  13.139 -0.1120 -0.2352  0.0674
   57TMC2     O  874   4.531   1.488  13.187  0.1033  0.1831  0.7500
   57TMC2     H  875   4.601   1.683  13.106  0.2701  2.8819 -0.8723
   57TMC2    H1  876   0.120   1.353  13.014  1.1744  0.6804  2.4140
   57TMC2    H2  877   0.130   1.708  12.771  1.9741  0.3664  0.3703
   57TMC2    C7  878   0.223   1.463  12.775  0.6136  0.4160 -0.0356
   57TMC2    C8  879   4.689   1.849  12.931 -0.0281  0.1767 -0.1632
   57TMC2    O1  880   0.240   1.538  12.678  0.1240  0.1279  0.4838
   57TMC2    O2  881   4.663   1.915  13.035  0.0271  0.0768  0.3520
   57TMC2    O5  882   4.655   1.882  12.804 -0.0451  0.0367  0.3021
   57TMC2    H5  883   4.659   1.814  12.734 -0.9961  1.0908 -0.7743
   58MPD2     C  884   4.523   1.030  13.438 -0.2567 -0.1984  0.0515
   58MPD2    C1  885   4.490   1.161  13.449  0.1119  0.2720 -0.3024
   58MPD2    C2  886   4.534   1.249  13.353  0.3182 -0.1721 -0.2911
   58MPD2    C3  887   4.598   1.206  13.244  0.6565 -0.0704 -0.3521
   58MPD2    C4  888   4.642   1.075  13.235  0.5331  0.3558  0.6543
   58MPD2    C5  889   4.606   0.995  13.339  0.3270  0.5726  0.0162
   58MPD2     H  890   4.506   1.352  13.370 -1.2756 -0.4445 -1.2946
   58MPD2    H1  891   4.692   1.033  13.149 -2.6517 -0.0450 -0.9993
   58MPD2    H2  892   4.511   0.960  13.519  0.0544  0.2524  0.4893
   58MPD2    H3  893   4.636   0.890  13.337 -1.4096  0.0878 -0.7062
   58MPD2     N  894   4.649   1.292  13.146  0.6855 -0.3360  0.3225
   58MPD2    H5  895   4.720   1.257  13.083 -0.6541  0.0541 -1.3913
   58MPD2    N1  896   4.434   1.219  13.565  0.5590 -0.3518  0.0262
   58MPD2    H7  897   4.448   1.319  13.572 -2.2959  0.1268 -1.0654
   59MPD2     C  898   2.299   1.354  13.252  0.2229  0.0846  0.2068
   59MPD2    C1  899   2.411   1.370  13.165  0.4848 -0.1740  0.7295
   59MPD2    C2  900   2.496   1.478  13.194  0.3375 -0.0090 -0.6113
   59MPD2    C3  901   2.487   1.536  13.317 -0.5921  0.3608 -0.4049
   59MPD2    C4  902   2.376   1.522  13.394  0.1106  0.3230  0.1703
   59MPD2    C5  903   2.277   1.433  13.354  0.1476 -1.2870  0.1498
   59MPD2     H  904   2.587   1.486  13.136  0.2097  1.3808 -0.6014
   59MPD2    H1  905   2.353   1.576  13.484  1.6460  1.2902 -0.0279
   59MPD2    H2  906   2.218   1.283  13.236 -0.3161  0.9546 -0.9488
   59MPD2    H3  907   2.190   1.423  13.417  0.1662  0.3508  0.4314
   59MPD2     N  908   2.576   1.624  13.375 -0.1642  0.7323  0.2952
   59MPD2    H5  909   2.559   1.637  13.474 -1.4020 -0.9541  0.2942
   59MPD2    N1  910   2.438   1.280  13.053 -0.0367 -0.4515  0.5038
   59MPD2    H7  911   2.515   1.308  12.992  0.3221 -0.7008  0.8391
   60TCq2    C1  912   2.372   1.164  13.031 -0.2485 -0.0827 -0.8338
   60TCq2    O2  913   2.307   1.096  13.109  0.9203 -0.2637  0.3794
   60TCq2    C2  914   2.411   1.102  12.904  0.1792 -0.5326 -0.2404
   60TCq2    C3  915   2.414   0.964  12.894  0.1012  0.3180  0.3279
   60TCq2    C4  916   2.457   0.904  12.776 -0.4743  0.5596  0.6760
   60TCq2    C5  917   2.491   0.979  12.672  0.1100 -0.0780 -0.8533
   60TCq2    C6  918   2.476   1.117  12.676  0.5213 -0.0011  0.8186
   60TCq2    C7  919   2.434   1.181  12.789  0.1321 -0.3235 -0.3622
   60TCq2    C8  920   2.525   1.200  12.563  0.3368 -0.2684 -0.8301
   60TCq2    O4  921   2.611   1.168  12.481  0.0754  0.3023 -0.1432
   60TCq2    C9  922   2.466   0.758  12.786  0.2297 -0.1488 -0.0277
   60TCq2    O5  923   2.528   0.697  12.698  0.1733  0.3176 -0.6452
   60TCq2    O6  924   2.421   0.703  12.893  0.3845 -0.3943  0.7092
   60TCq2    H2  925   2.393   0.898  12.978 -0.9599  0.0058 -0.1780
   60TCq2    H3  926   2.515   0.924  12.582 -1.8404 -0.7209 -0.9655
   60TCq2    H4  927   2.426   1.289  12.791 -1.1342 -0.3986 -2.2244
   61MPD2     C  928   1.947   2.585  15.834 -0.7135 -0.4642  0.4498
   61MPD2    C1  929   1.946   2.716  15.789 -0.6819  0.2942  0.5229
   61MPD2    C2  930   1.973   2.739  15.663 -0.3459 -0.2163 -0.4010
   61MPD2    C3  931   2.013   2.643  15.571  1.0655 -0.4201  0.1660
   61MPD2    C4  932   2.017   2.512  15.612 -0.7175  0.8300 -0.7497
   61MPD2    C5  933   1.988   2.487  15.743 -0.5623 -0.7378  0.1070
   61MPD2     H  934   1.980   2.843  15.633  2.1665 -0.1936  0.2564
   61MPD2    H1  935   2.053   2.429  15.552  0.8156  1.6897 -1.0151
   61MPD2    H2  936   1.913   2.553  15.932 -0.2703  2.2740  1.4876
   61MPD2    H3  937   1.998   2.393  15.795 -0.9459 -0.2880  0.9979
   61MPD2     N  938   2.055   2.694  15.444  0.1530  0.7806  0.2970
   61MPD2    H5  939   2.042   2.795  15.435  0.7116  0.9172  1.0195
   61MPD2    N1  940   1.928   2.830  15.873  0.2949  0.3851 -0.9646
   61MPD2    H7  941   1.920   2.921  15.828  0.0186  1.1042  0.5445
   62TCq2    C1  942   1.889   2.835  16.008 -0.0922  0.1479 -0.1886
   62TCq2    O2  943   1.888   2.743  16.087  0.4109  0.0275  0.4218
   62TCq2    C2  944   1.826   2.960  16.040 -0.3414  0.2887 -0.0822
   62TCq2    C3  945   1.740   2.962  16.145 -1.0339  0.2947 -0.6977
   62TCq2    C4  946   1.675   3.074  16.174 -0.8427 -0.3920  0.5938
   62TCq2    C5  947   1.688   3.184  16.100  0.8438 -0.3794 -0.0534
   62TCq2    C6  948   1.770   3.181  15.993 -0.5063  0.1420  0.0646
   62TCq2    C7  949   1.846   3.068  15.960  1.0760  0.5804  0.4877
   62TCq2    C8  950   1.754   3.292  15.900 -0.5322  0.0751  0.4068
   62TCq2    O4  951   1.840   3.309  15.815 -0.9067  0.0194  0.1113
   62TCq2    C9  952   1.578   3.078  16.284 -0.2530  0.1397  0.6962
   62TCq2    O5  953   1.516   3.181  16.311 -0.1553  0.1523  0.3303
   62TCq2    O6  954   1.555   2.969  16.341 -0.3794 -0.2088 -0.8675
   62TCq2    H2  955   1.729   2.874  16.207  3.3891  2.2018  2.7986
   62TCq2    H3  956   1.646   3.277  16.139 -0.3183 -0.6334 -0.7255
   62TCq2    H4  957   1.890   3.075  15.861  1.1053  1.5601  0.5732
   63TMC2    C1  958   1.153   2.699  11.306 -0.1460 -0.4656  0.0991
   63TMC2    C2  959   1.253   2.751  11.384  0.6065 -0.2136  0.5147
   63TMC2    C3  960   1.326   2.847  11.324  0.5384  0.3158  0.1544
   63TMC2    C4  961   1.135   2.733  11.174 -0.1735 -0.4786  0.1345
   63TMC2    C5  962   1.218   2.823  11.120  0.2947  0.1668 -0.1885
   63TMC2    C6  963   1.313   2.879  11.197  0.2790  0.0742  0.3076
   63TMC2     C  964   1.088   2.574  11.352 -0.0215 -0.7750 -0.2983
   63TMC2     O  965   1.055   2.565  11.469  0.3557  0.3723  0.2526
   63TMC2     H  966   1.273   2.721  11.486  3.0985  0.2396  0.1632
   63TMC2    H1  967   1.056   2.693  11.112  0.2365 -3.0944  1.3340
   63TMC2    H2  968   1.373   2.964  11.167  0.0438 -0.4180 -1.5568
   63TMC2    C7  969   1.206   2.864  10.983  0.3413 -0.0661  0.0731
   63TMC2    C8  970   1.453   2.884  11.377 -0.0580  0.3205 -0.1322
   63TMC2    O1  971   1.098   2.848  10.934  0.3019  0.1906 -0.0129
   63TMC2    O2  972   1.550   2.912  11.312  0.5571  0.4692 -0.2441
   63TMC2    O5  973   1.432   2.923  11.505  0.4752  0.1311  0.1694
   63TMC2    H5  974   1.335   2.928  11.519  0.4262  1.8492 -0.7560
   64MPD2     C  975   0.842   2.137  11.224  1.3584 -0.1240  0.2808
   64MPD2    C1  976   0.917   2.194  11.118 -0.0822 -0.4870  0.0278
   64MPD2    C2  977   0.990   2.309  11.130  0.0491  0.0620  0.6554
   64MPD2    C3  978   1.003   2.368  11.250 -0.0232 -0.0898  0.6847
   64MPD2    C4  979   0.922   2.321  11.356  0.1201  0.1817  0.3779
   64MPD2    C5  980   0.850   2.204  11.339 -0.6938  0.1234 -0.0348
   64MPD2     H  981   1.062   2.337  11.054 -0.8252  0.0677 -0.1794
   64MPD2    H1  982   0.929   2.358  11.457  1.1938 -0.9880  0.7249
   64MPD2    H2  983   0.795   2.040  11.225  0.1983  0.4347 -0.7140
   64MPD2    H3  984   0.786   2.162  11.416 -1.3640 -0.2789 -0.8224
   64MPD2     N  985   1.077   2.486  11.251  0.3816 -0.7347  0.0588
   64MPD2    H5  986   1.132   2.509  11.169  1.9129 -2.1173  0.6965
   64MPD2    N1  987   0.949   2.126  11.001  0.5688  0.0918 -0.4687
   64MPD2    H7  988   1.023   2.159  10.940  1.7758 -0.1303  0.8721
   65MPD2     C  989   2.339   2.125  15.992 -0.3904  0.4759 -0.2786
   65MPD2    C1  990   2.315   2.141  15.853  0.3720  0.0244 -0.6467
   65MPD2    C2  991   2.260   2.034  15.790  0.9991  0.4465  0.4839
   65MPD2    C3  992   2.222   1.915  15.857  0.1349  0.0465 -0.2969
   65MPD2    C4  993   2.242   1.904  15.991  0.1293 -0.1536 -0.7186
   65MPD2    C5  994   2.304   2.008  16.057 -0.4286  0.0068 -0.4788
   65MPD2     H  995   2.240   2.052  15.685  2.6825 -1.4652 -0.1762
   65MPD2    H1  996   2.218   1.814  16.046 -2.4348  0.4099 -0.8970
   65MPD2    H2  997   2.388   2.206  16.045  0.7744  0.3901 -1.2218
   65MPD2    H3  998   2.331   1.999  16.161 -3.1698 -0.6959  0.1736
   65MPD2     N  999   2.160   1.803  15.799 -0.8614  0.2054 -0.1120
   65MPD2    H5 1000   2.110   1.739  15.859  0.0989  0.2713  0.7674
   65MPD2    N1 1001   2.342   2.256  15.776 -0.2099 -0.1990 -0.1109
   65MPD2    H7 1002   2.326   2.260  15.676 -1.3984 -0.4363  0.0799
   66TCq2    C1 1003   2.368   2.386  15.825  0.0275 -0.4345  0.3292
   66TCq2    O2 1004   2.351   2.437  15.934  0.4530 -0.6816 -0.0661
   66TCq2    C2 1005   2.393   2.479  15.722 -0.2011  0.3793 -0.1253
   66TCq2    C3 1006   2.464   2.429  15.615  0.2559 -0.2297 -0.1969
   66TCq2    C4 1007   2.498   2.520  15.520  0.2805  0.5088  0.2906
   66TCq2    C5 1008   2.463   2.649  15.525  0.5677  0.6933  0.0456
   66TCq2    C6 1009   2.384   2.688  15.629 -0.5882  0.2866 -0.3033
   66TCq2    C7 1010   2.348   2.608  15.735  0.4680 -0.0598 -0.0810
   66TCq2    C8 1011   2.348   2.829  15.635  0.6860 -0.5049 -0.2319
   66TCq2    O4 1012   2.360   2.901  15.539 -0.0254 -0.7021  0.3256
   66TCq2    C9 1013   2.547   2.471  15.395  0.0385  0.3078 -0.4948
   66TCq2    O5 1014   2.500   2.362  15.346 -0.2185  0.1007  0.6376
   66TCq2    O6 1015   2.591   2.559  15.313 -0.0488  0.1700  0.6316
   66TCq2    H2 1016   2.504   2.330  15.597  1.2379  0.4216 -1.5570
   66TCq2    H3 1017   2.484   2.719  15.445 -1.3786  1.2029 -0.0393
   66TCq2    H4 1018   2.263   2.628  15.799 -1.0723  0.4616 -2.2792
   67MPD2     C 1019   2.518   1.665  14.074  0.0759  0.3276  0.0620
   67MPD2    C1 1020   2.416   1.702  14.158  0.7373 -1.0298  0.2479
   67MPD2    C2 1021   2.286   1.669  14.130 -1.1729  0.3745 -0.6430
   67MPD2    C3 1022   2.262   1.596  14.014 -0.1344  0.0044 -0.0928
   67MPD2    C4 1023   2.362   1.566  13.925 -0.3250 -0.4389 -0.0231
   67MPD2    C5 1024   2.487   1.610  13.953  0.1094  0.1461  0.1156
   67MPD2     H 1025   2.203   1.710  14.187 -1.7331 -0.8681 -0.5600
   67MPD2    H1 1026   2.335   1.510  13.836  1.8633 -1.4179 -0.0720
   67MPD2    H2 1027   2.620   1.693  14.093  0.1956  0.7048 -1.1525
   67MPD2    H3 1028   2.571   1.590  13.887 -0.9002  0.2281 -1.1937
   67MPD2     N 1029   2.144   1.552  13.971  0.1470  0.0038 -0.4122
   67MPD2    H5 1030   2.139   1.510  13.879 -0.5224  0.2926 -0.5071
   67MPD2    N1 1031   2.455   1.788  14.263 -0.5622  1.1031  0.4510
   67MPD2    H7 1032   2.553   1.796  14.287  0.5515  0.1252 -3.9040
   68TCq2    C1 1033   2.369   1.878  14.329 -0.7796 -0.4652 -0.0249
   68TCq2    O2 1034   2.256   1.911  14.297  0.1553 -0.3981  0.0973
   68TCq2    C2 1035   2.430   1.948  14.444  0.1122 -0.6797 -0.4665
   68TCq2    C3 1036   2.370   2.058  14.499  0.0518  0.0764  0.3831
   68TCq2    C4 1037   2.409   2.115  14.611  0.3736 -0.2666 -0.5256
   68TCq2    C5 1038   2.520   2.058  14.677 -0.5868 -0.3815  0.2162
   68TCq2    C6 1039   2.573   1.945  14.631 -0.4092  0.4411 -0.4020
   68TCq2    C7 1040   2.541   1.894  14.507  0.3309  0.0580 -0.2093
   68TCq2    C8 1041   2.660   1.863  14.714 -0.7085  0.0034 -0.5090
   68TCq2    O4 1042   2.739   1.793  14.647 -0.5267  0.0343 -1.1366
   68TCq2    C9 1043   2.329   2.210  14.675  0.6594  0.1561 -0.2366
   68TCq2    O5 1044   2.239   2.269  14.603 -0.4086 -0.2045  0.1805
   68TCq2    O6 1045   2.330   2.207  14.804  0.1772 -0.2228  0.5168
   68TCq2    H2 1046   2.276   2.086  14.454  0.6386  1.7246  0.1899
   68TCq2    H3 1047   2.548   2.094  14.775  1.2882 -0.0255 -0.4602
   68TCq2    H4 1048   2.576   1.800  14.467 -1.6329 -1.0250  0.6293
   69TMC2    C1 1049   3.812   3.202  12.036 -0.2695 -0.2300 -0.2306
   69TMC2    C2 1050   3.683   3.232  12.055  0.1469  0.0437 -0.2276
   69TMC2    C3 1051   3.605   3.225  11.949  0.3239 -0.4572 -1.3354
   69TMC2    C4 1052   3.860   3.152  11.925 -0.1124 -0.4846 -0.0289
   69TMC2    C5 1053   3.777   3.138  11.818  0.2438 -0.7491 -0.3172
   69TMC2    C6 1054   3.645   3.171  11.835  0.1211 -0.7389  0.6881
   69TMC2     C 1055   3.891   3.177  12.157  0.2647 -0.4167  0.4142
   69TMC2     O 1056   3.832   3.161  12.264  0.7253 -0.3651  0.3059
   69TMC2     H 1057   3.652   3.266  12.153  0.1859  0.9698 -0.5412
   69TMC2    H1 1058   3.967   3.151  11.904  0.2642 -1.5519  1.9754
   69TMC2    H2 1059   3.584   3.158  11.746  0.0467 -0.4063  0.6931
   69TMC2    C7 1060   3.831   3.166  11.684 -0.5724  1.1961 -0.6273
   69TMC2    C8 1061   3.481   3.296  11.955  0.1178  0.0148  0.5719
   69TMC2    O1 1062   3.926   3.240  11.670 -0.2644  0.5057  0.5752
   69TMC2    O2 1063   3.411   3.312  11.854  0.5038 -0.2197 -0.7410
   69TMC2    O5 1064   3.428   3.316  12.082 -0.0061 -0.6558 -0.3533
   69TMC2    H5 1065   3.503   3.298  12.143  0.8329 -0.5099 -1.3402
   70MPD2     C 1066   4.222   3.291  12.226 -0.0693  0.3910  0.6885
   70MPD2    C1 1067   4.112   3.214  12.253 -0.4849 -0.3087 -0.0157
   70MPD2    C2 1068   4.093   3.152  12.382 -0.7405 -0.4455  0.3101
   70MPD2    C3 1069   4.199   3.169  12.481 -0.1774 -0.1767  0.1118
   70MPD2    C4 1070   4.310   3.244  12.445 -0.2268  0.0882  0.0103
   70MPD2    C5 1071   4.326   3.293  12.319 -0.4310 -0.6172 -0.2954
   70MPD2     H 1072   4.011   3.087  12.413 -0.1889 -0.0723  2.5071
   70MPD2    H1 1073   4.389   3.264  12.517 -1.4079 -1.1833  1.6784
   70MPD2    H2 1074   4.235   3.334  12.127  0.7996 -1.0593  0.1838
   70MPD2    H3 1075   4.421   3.337  12.291  0.1324 -0.6976  1.4917
   70MPD2     N 1076   4.198   3.112  12.605 -0.1207 -0.6469  0.8281
   70MPD2    H5 1077   4.276   3.120  12.670  0.7254 -2.0114 -0.0183
   70MPD2    N1 1078   4.022   3.211  12.143  0.3439 -0.0281 -0.6216
   70MPD2    H7 1079   4.039   3.268  12.061  0.7625 -0.3002 -0.7248
   71TMC2    C1 1080   1.430   3.050   1.753  0.0137 -0.8414 -0.7715
   71TMC2    C2 1081   1.499   3.007   1.869  0.2600  0.2393 -0.4826
   71TMC2    C3 1082   1.424   2.987   1.983 -0.1269 -0.0021  0.6926
   71TMC2    C4 1083   1.293   3.039   1.744 -0.3155  0.9205  0.5160
   71TMC2    C5 1084   1.230   3.003   1.854  0.0731 -0.2481  0.2053
   71TMC2    C6 1085   1.289   2.973   1.978  0.0247 -0.8338 -0.2688
   71TMC2     C 1086   1.507   3.099   1.638 -0.0828  0.5779  0.8272
   71TMC2     O 1087   1.443   3.169   1.564  0.0841 -0.1821 -0.2269
   71TMC2     H 1088   1.600   3.042   1.888  0.5521 -0.6675 -0.3771
   71TMC2    H1 1089   1.248   3.076   1.652 -3.0904  0.9692  1.8821
   71TMC2    H2 1090   1.232   2.935   2.062  1.3386 -2.6975 -0.2203
   71TMC2    C7 1091   1.088   2.987   1.845 -0.0681  0.5012  0.0712
   71TMC2    C8 1092   1.504   2.950   2.105 -0.7624 -0.6623 -0.7141
   71TMC2    O1 1093   1.042   2.904   1.923  0.4880 -0.5087 -0.4060
   71TMC2    O2 1094   1.628   2.941   2.100 -0.3704 -0.7950 -0.1827
   71TMC2    O5 1095   1.433   3.000   2.208  0.2836 -0.2183  0.0914
   71TMC2    H5 1096   1.356   3.053   2.177  1.0478  0.7285 -0.1851
   72MPD2     C 1097   1.957   3.139   1.393 -0.7894 -0.2616 -0.3247
   72MPD2    C1 1098   1.838   3.200   1.364  0.2545 -0.2047 -0.5316
   72MPD2    C2 1099   1.734   3.179   1.450 -0.2927 -0.1655  0.2069
   72MPD2    C3 1100   1.755   3.101   1.566 -0.5998  0.2880 -0.3345
   72MPD2    C4 1101   1.874   3.038   1.593 -0.2628  0.5711  0.7222
   72MPD2    C5 1102   1.975   3.068   1.506  0.0537 -0.0364  0.1444
   72MPD2     H 1103   1.636   3.221   1.432  0.2664  0.7189 -0.7771
   72MPD2    H1 1104   1.895   2.976   1.679  0.9612  0.6712  0.4884
   72MPD2    H2 1105   2.043   3.150   1.327 -1.1614 -1.6657 -1.0460
   72MPD2    H3 1106   2.068   3.012   1.504 -1.1426 -2.0086 -1.0409
   72MPD2     N 1107   1.643   3.077   1.653  0.3851  0.4488 -0.1771
   72MPD2    H5 1108   1.676   3.023   1.732 -1.4375 -1.5246 -0.7446
   72MPD2    N1 1109   1.811   3.284   1.258  0.0114 -0.7162  0.5826
   72MPD2    H7 1110   1.714   3.315   1.256  0.7347  1.6677  1.7511
   73TMC2    C1 1111   2.277   0.702  13.966 -0.2147  0.0052 -0.2752
   73TMC2    C2 1112   2.151   0.707  14.022  0.7836 -0.4523  0.3622
   73TMC2    C3 1113   2.154   0.706  14.157 -0.3803  0.2946 -0.4738
   73TMC2    C4 1114   2.397   0.712  14.039  0.3751 -0.0345 -0.4089
   73TMC2    C5 1115   2.389   0.746  14.172 -0.7222 -0.5383  0.3263
   73TMC2    C6 1116   2.265   0.733  14.234 -0.2694 -0.2863  0.1793
   73TMC2     C 1117   2.293   0.770  13.838  0.0226  0.6061 -0.2539
   73TMC2     O 1118   2.400   0.831  13.815  0.7231  0.4653  0.3339
   73TMC2     H 1119   2.060   0.690  13.967  1.6634  0.7222 -1.4408
   73TMC2    H1 1120   2.495   0.704  13.994  1.0711  1.4031  0.8209
   73TMC2    H2 1121   2.251   0.743  14.341 -1.1854  0.5020 -0.0125
   73TMC2    C7 1122   2.464   0.867  14.201 -0.0503  0.1517  0.0351
   73TMC2    C8 1123   2.029   0.704  14.235 -0.0730 -0.0667  0.6329
   73TMC2    O1 1124   2.501   0.888  14.314 -0.7886  0.2701 -0.1653
   73TMC2    O2 1125   2.017   0.747  14.349  0.1195  0.4679 -0.3405
   73TMC2    O5 1126   1.937   0.637  14.158  0.2088  0.0530 -0.0002
   73TMC2    H5 1127   1.972   0.562  14.107  2.2760  1.2600 -0.3594
   74MPD2     C 1128   2.163   0.866  13.355 -0.3764 -0.1928 -0.1252
   74MPD2    C1 1129   2.270   0.920  13.425 -0.3391 -0.9341 -0.3099
   74MPD2    C2 1130   2.275   0.894  13.560  0.1768 -0.8238  0.3722
   74MPD2    C3 1131   2.186   0.799  13.617  0.3651  0.5147 -0.8705
   74MPD2    C4 1132   2.073   0.761  13.552 -0.0170 -0.0839  0.3076
   74MPD2    C5 1133   2.063   0.791  13.415  0.1205  0.3032  0.6414
   74MPD2     H 1134   2.352   0.944  13.617 -1.0147  0.8698  0.4899
   74MPD2    H1 1135   1.999   0.695  13.597  0.3002 -0.9414 -0.4447
   74MPD2    H2 1136   2.157   0.885  13.249 -1.1722 -1.4353 -0.3049
   74MPD2    H3 1137   1.974   0.756  13.364  0.6867  0.2016 -0.2788
   74MPD2     N 1138   2.189   0.748  13.751  0.2215 -0.1704  0.0745
   74MPD2    H5 1139   2.122   0.678  13.779 -0.7534  0.5316 -0.5115
   74MPD2    N1 1140   2.372   0.996  13.363  0.3772  0.7961 -0.3761
   74MPD2    H7 1141   2.360   1.047  13.276 -1.2806 -0.0214 -0.6212
   75TCq2    C1 1142   2.030   1.553  14.050 -0.0621 -0.1901 -0.6200
   75TCq2    O2 1143   2.017   1.579  14.169  0.2534  0.1654  0.5770
   75TCq2    C2 1144   1.918   1.483  13.985  0.4096 -0.2828 -0.7494
   75TCq2    C3 1145   1.835   1.423  14.073 -0.8312  0.4225  0.8238
   75TCq2    C4 1146   1.735   1.346  14.016 -0.7948 -0.3173 -0.2658
   75TCq2    C5 1147   1.710   1.341  13.879  0.1018  0.4104 -0.0571
   75TCq2    C6 1148   1.796   1.408  13.799 -0.3590 -0.3941  0.3223
   75TCq2    C7 1149   1.901   1.482  13.844 -0.3690  0.1787  0.3002
   75TCq2    C8 1150   1.742   1.448  13.672 -0.2026  0.5861 -1.3090
   75TCq2    O4 1151   1.682   1.359  13.613 -0.0312 -0.2617 -0.2649
   75TCq2    C9 1152   1.656   1.268  14.105  0.6576  0.7993 -0.5600
   75TCq2    O5 1153   1.556   1.213  14.048  0.4429  0.0692 -0.1953
   75TCq2    O6 1154   1.644   1.317  14.224  0.1519 -0.6094  0.5701
   75TCq2    H2 1155   1.859   1.406  14.178 -0.7165  1.5505  0.9756
   75TCq2    H3 1156   1.642   1.272  13.831  1.5699 -1.6797  0.8940
   75TCq2    H4 1157   1.971   1.535  13.780  0.7577 -0.4901  0.9589
   76MPD2     C 1158   0.195   3.325  11.156  0.1356  0.6361 -0.0116
   76MPD2    C1 1159   0.102   3.287  11.257 -0.0600  0.0556 -0.6726
   76MPD2    C2 1160   0.142   3.276  11.388  0.1570 -0.8949  0.1100
   76MPD2    C3 1161   0.279   3.288  11.420 -0.0212 -0.6216  0.1880
   76MPD2    C4 1162   0.366   3.320  11.319 -1.3023 -0.2294  0.2584
   76MPD2    C5 1163   0.328   3.335  11.190 -0.3324 -0.4293  0.3334
   76MPD2     H 1164   0.071   3.256  11.467 -0.0527  1.9628  0.6394
   76MPD2    H1 1165   0.471   3.334  11.342 -0.8737 -2.3580 -0.4311
   76MPD2    H2 1166   0.156   3.346  11.057 -0.8940  0.0501  0.2704
   76MPD2    H3 1167   0.404   3.370  11.120  1.5191 -2.6583  1.2378
   76MPD2     N 1168   0.331   3.282  11.553  0.9621 -0.1140  0.4777
   76MPD2    H5 1169   0.432   3.280  11.562  0.9390  0.5201  0.8754
   76MPD2    N1 1170   4.688   3.264  11.228 -0.6089 -0.3210 -0.0517
   76MPD2    H7 1171   4.621   3.261  11.304  0.2750  1.0801  0.7958
   77TCq2    C1 1172   0.260   3.256  11.669  0.2202 -0.3136  0.7850
   77TCq2    O2 1173   0.142   3.231  11.676  0.2663  0.1287 -0.0274
   77TCq2    C2 1174   0.340   3.255  11.790 -0.4098 -0.3018  0.4234
   77TCq2    C3 1175   0.293   3.175  11.895  0.2461  0.7319  0.3656
   77TCq2    C4 1176   0.380   3.135  11.989  0.1612 -0.0663 -0.0628
   77TCq2    C5 1177   0.500   3.195  12.011  0.1436  0.1724  0.0960
   77TCq2    C6 1178   0.538   3.286  11.910  0.7794  0.7248  0.2583
   77TCq2    C7 1179   0.462   3.315  11.797 -0.2429  0.1591 -0.5563
   77TCq2    C8 1180   0.676   3.333  11.894  0.1617  0.5399 -0.2600
   77TCq2    O4 1181   0.710   3.410  11.803 -0.5038  0.1266  0.2019
   77TCq2    C9 1182   0.345   3.025  12.082 -0.0978  0.1043  0.4107
   77TCq2    O5 1183   0.439   2.955  12.132  0.1059 -0.4498  0.0364
   77TCq2    O6 1184   0.222   2.994  12.084  0.2051  0.0847 -0.6186
   77TCq2    H2 1185   0.204   3.121  11.865  0.3648  0.5437  0.3509
   77TCq2    H3 1186   0.565   3.146  12.082  0.6392  0.3366 -0.2425
   77TCq2    H4 1187   0.505   3.367  11.713  2.3496 -0.6681  0.2352
   78MPD1     C 1188   3.516   0.645   2.761 -0.7620  0.0097  0.8750
   78MPD1    C1 1189   3.393   0.681   2.723  0.4320 -0.2324  0.7275
   78MPD1    C2 1190   3.374   0.814   2.678 -0.2990  0.0274 -0.3260
   78MPD1    C3 1191   3.481   0.907   2.694  0.9551  0.1523  0.4297
   78MPD1    C4 1192   3.590   0.863   2.755 -0.3971 -0.8240 -0.1608
   78MPD1    C5 1193   3.613   0.731   2.779 -0.1774 -0.2401  0.1878
   78MPD1     H 1194   3.296   0.842   2.608 -1.8258  0.4530  1.5451
   78MPD1    H1 1195   3.672   0.933   2.768  0.2706 -2.2771  3.4564
   78MPD1    H2 1196   3.528   0.544   2.800  0.4463 -1.0126 -2.1245
   78MPD1    H3 1197   3.711   0.707   2.818  0.8899  1.4241 -1.4996
   78MPD1     N 1198   3.493   1.036   2.632 -0.6701  0.3361 -0.0677
   78MPD1    H5 1199   3.577   1.087   2.659  1.2374 -3.1114  0.4759
   78MPD1    N1 1200   3.297   0.582   2.692  0.4993 -0.8524 -0.1397
   78MPD1    H6 1201   3.204   0.616   2.716  0.4469 -0.9925 -0.1468
   78MPD1    H7 1202   3.308   0.499   2.749  0.8677 -1.8266 -1.6404
   79TCq2    C1 1203   3.389   1.102   2.566  0.3812 -0.7008 -0.4208
   79TCq2    O2 1204   3.284   1.064   2.523  0.5711 -0.5990 -0.4322
   79TCq2    C2 1205   3.429   1.237   2.534  0.3253 -0.2137 -0.4138
   79TCq2    C3 1206   3.511   1.304   2.623  0.0123  0.4602  0.2027
   79TCq2    C4 1207   3.544   1.433   2.587  0.1462 -0.2336 -0.4902
   79TCq2    C5 1208   3.490   1.500   2.480 -0.0477 -0.8260  0.4248
   79TCq2    C6 1209   3.393   1.425   2.409  0.4060 -0.8905  1.6490
   79TCq2    C7 1210   3.364   1.298   2.431  0.3233  0.4436  0.2219
   79TCq2    C8 1211   3.358   1.473   2.275  0.9458  0.1500 -0.1471
   79TCq2    O4 1212   3.437   1.545   2.214  0.3422  0.1739  0.9078
   79TCq2    C9 1213   3.624   1.509   2.678  0.7356  0.1469 -0.2909
   79TCq2    O5 1214   3.699   1.448   2.759  0.4618 -0.1909 -0.3484
   79TCq2    O6 1215   3.623   1.633   2.669  0.6498  0.0254 -0.0231
   79TCq2    H2 1216   3.526   1.273   2.725  2.1937 -0.6866 -0.4790
   79TCq2    H3 1217   3.518   1.603   2.464 -1.9884 -0.5291 -1.0432
   79TCq2    H4 1218   3.294   1.244   2.368 -0.8507  2.2066  0.0068
   80MPD2     C 1219   0.294   2.077  12.373 -0.4719  0.8532  0.0661
   80MPD2    C1 1220   0.185   2.108  12.287  0.0722  0.1837  0.5007
   80MPD2    C2 1221   0.063   2.120  12.355  0.2370 -0.2034  0.6242
   80MPD2    C3 1222   0.045   2.106  12.492  0.4379 -0.0725 -0.7225
   80MPD2    C4 1223   0.157   2.062  12.569  0.7044  0.0323  0.2152
   80MPD2    C5 1224   0.279   2.066  12.510  0.3817 -0.4111  1.2379
   80MPD2     H 1225   4.695   2.135  12.300  0.9249  0.5911 -0.3322
   80MPD2    H1 1226   0.148   2.044  12.675 -1.3241 -0.0138  0.0425
   80MPD2    H2 1227   0.397   2.066  12.341 -0.6724 -0.0219 -0.2774
   80MPD2    H3 1228   0.363   2.043  12.574  0.9465  3.9434  2.0378
   80MPD2     N 1229   4.636   2.111  12.552 -0.4781 -0.0457  0.2171
   80MPD2    H5 1230   4.612   2.067  12.641  3.3870 -0.4091  1.0787
   80MPD2    N1 1231   0.188   2.110  12.146  0.1315 -0.3417 -0.1872
   80MPD2    H7 1232   0.110   2.147  12.092 -0.6601 -2.3271 -0.3868
   81TCq2    C1 1233   0.290   2.065  12.068 -0.1831 -0.1184  0.2796
   81TCq2    O2 1234   0.396   2.018  12.101  0.2735  0.6346  0.1747
   81TCq2    C2 1235   0.270   2.085  11.926  0.1870 -0.4148  0.0979
   81TCq2    C3 1236   0.385   2.075  11.855 -0.2424  0.5452 -0.0803
   81TCq2    C4 1237   0.379   2.083  11.716  0.1197  0.0805  0.1274
   81TCq2    C5 1238   0.256   2.088  11.656  0.0459  0.0749 -0.5868
   81TCq2    C6 1239   0.144   2.081  11.735  0.3251 -0.5957  0.3236
   81TCq2    C7 1240   0.146   2.079  11.869  0.1360 -0.3714 -0.3852
   81TCq2    C8 1241   0.021   2.054  11.661 -0.8577 -0.3228 -0.1014
   81TCq2    O4 1242   4.720   2.094  11.547  0.2201 -0.3551 -0.1522
   81TCq2    C9 1243   0.503   2.059  11.641 -0.1898  0.7313  0.7762
   81TCq2    O5 1244   0.509   2.097  11.519 -0.1713 -0.3086 -0.6468
   81TCq2    O6 1245   0.594   1.998  11.701  0.3700 -0.4022 -0.7122
   81TCq2    H2 1246   0.479   2.059  11.907 -0.1032  2.2583  0.1653
   81TCq2    H3 1247   0.241   2.077  11.549  0.6313 -0.3181 -0.6279
   81TCq2    H4 1248   0.060   2.063  11.933 -0.4236  0.1881 -0.9978
   82MPD2     C 1249   2.414   1.743  10.883  0.1226 -0.7311  0.2806
   82MPD2    C1 1250   2.429   1.652  10.780  0.2941  0.1956 -0.3391
   82MPD2    C2 1251   2.538   1.574  10.777  0.8858  0.6199  0.6664
   82MPD2    C3 1252   2.644   1.590  10.855  0.0865  0.4654  0.3354
   82MPD2    C4 1253   2.640   1.688  10.947 -0.1419  0.5043  0.3277
   82MPD2    C5 1254   2.524   1.759  10.962 -0.0114 -0.5254 -0.0343
   82MPD2     H 1255   2.542   1.501  10.697  0.7709  0.9968  0.3145
   82MPD2    H1 1256   2.714   1.702  11.025  2.7358 -2.7835 -1.8114
   82MPD2    H2 1257   2.337   1.819  10.888  3.0106  2.1901  0.6249
   82MPD2    H3 1258   2.529   1.834  11.039 -1.4260 -1.9597  1.4486
   82MPD2     N 1259   2.763   1.513  10.862 -0.1985  0.1359 -0.1156
   82MPD2    H5 1260   2.829   1.547  10.931 -0.9805 -3.5114  2.3994
   82MPD2    N1 1261   2.322   1.650  10.690  0.0158  0.0531  0.3492
   82MPD2    H7 1262   2.244   1.705  10.724 -1.6937 -2.1561 -0.0138
   83TCq2    C1 1263   2.778   1.386  10.821 -0.3784 -0.3454  0.8111
   83TCq2    O2 1264   2.693   1.308  10.784  0.0604  0.3205 -0.0738
   83TCq2    C2 1265   2.901   1.335  10.878 -0.0762  0.2477 -0.2345
   83TCq2    C3 1266   3.012   1.422  10.878  0.3750 -1.2211 -0.6519
   83TCq2    C4 1267   3.126   1.371  10.938 -0.0823  0.2055  0.6959
   83TCq2    C5 1268   3.130   1.251  10.993  0.1513 -0.0640  0.1370
   83TCq2    C6 1269   3.029   1.161  10.970  0.5220 -0.4675 -0.1763
   83TCq2    C7 1270   2.909   1.210  10.927 -0.1036  0.0214 -0.3200
   83TCq2    C8 1271   3.023   1.033  11.033  0.2713 -0.6152  0.6899
   83TCq2    O4 1272   2.923   0.973  11.058 -0.3674 -0.0754  0.0767
   83TCq2    C9 1273   3.243   1.455  10.933  0.1480  0.0456  1.0103
   83TCq2    O5 1274   3.311   1.455  11.035 -0.2621  0.1594  0.2917
   83TCq2    O6 1275   3.244   1.551  10.848 -0.0143  0.2168  0.4582
   83TCq2    H2 1276   3.010   1.524  10.842  1.3269  0.0907  3.0543
   83TCq2    H3 1277   3.224   1.231  11.043 -0.1109  2.8805  1.8107
   83TCq2    H4 1278   2.828   1.138  10.922 -0.1651 -0.1734  3.1387
   84TCq2    C1 1279   4.555   0.311  10.282  0.6792 -0.0468 -0.5939
   84TCq2    O2 1280   4.505   0.202  10.296 -0.0313 -0.1588  0.2811
   84TCq2    C2 1281   4.562   0.387  10.402  0.0778  0.5836  0.4423
   84TCq2    C3 1282   4.632   0.507  10.409 -0.4237  0.3639 -0.1312
   84TCq2    C4 1283   4.634   0.574  10.528 -0.4725 -0.4929 -0.1558
   84TCq2    C5 1284   4.549   0.533  10.633 -0.0813 -0.8959 -0.2964
   84TCq2    C6 1285   4.467   0.425  10.613  0.6448  0.1126 -0.3754
   84TCq2    C7 1286   4.483   0.346  10.508  0.1214 -0.1093  0.1229
   84TCq2    C8 1287   4.389   0.381  10.724  0.1097 -1.2832  0.0568
   84TCq2    O4 1288   4.408   0.447  10.825  0.6055 -0.2525 -0.0388
   84TCq2    C9 1289   0.008   0.680  10.522 -0.3520 -0.2996 -0.7318
   84TCq2    O5 1290   0.119   0.657  10.460 -0.0031 -0.0068  0.5470
   84TCq2    O6 1291   0.002   0.763  10.617 -0.6609  0.5016 -0.0978
   84TCq2    H2 1292   4.700   0.538  10.331 -0.1187 -0.8843 -0.3631
   84TCq2    H3 1293   4.542   0.591  10.724  2.1628 -1.9720  0.5704
   84TCq2    H4 1294   4.446   0.244  10.510 -1.5180  0.4570 -0.9528
   85MPD2     C 1295   0.193   3.154  16.487 -0.4783  0.0040  0.3299
   85MPD2    C1 1296   0.099   3.196  16.395  0.1101  0.4495  0.1230
   85MPD2    C2 1297   0.117   3.313  16.329 -0.1719 -0.1753 -0.4753
   85MPD2    C3 1298   0.238   3.387  16.333  0.4568  0.0761  0.1626
   85MPD2    C4 1299   0.335   3.336  16.409 -0.2268 -0.0848  0.1367
   85MPD2    C5 1300   0.312   3.226  16.491 -0.2226  0.8218  0.1287
   85MPD2     H 1301   0.041   3.349  16.261 -1.9692 -1.2969  0.9682
   85MPD2    H1 1302   0.433   3.383  16.405  0.8591 -2.4903 -1.5918
   85MPD2    H2 1303   0.199   3.053  16.527 -1.6812 -0.4743 -0.6865
   85MPD2    H3 1304   0.387   3.186  16.558 -2.1092 -1.2324  1.0100
   85MPD2     N 1305   0.258   3.501  16.247 -0.0959  0.1067  0.4088
   85MPD2    H5 1306   0.177   3.521  16.188  0.7045 -1.4261 -1.2275
   85MPD2    N1 1307   4.708   3.120  16.363 -0.5832 -0.0055 -0.5861
   85MPD2    H7 1308   4.661   3.142  16.276 -2.0013  0.0413  0.1983
   86TCq2    C1 1309   0.355   3.598  16.261 -0.0156  0.1820 -0.3843
   86TCq2    O2 1310   0.439   3.599  16.349 -0.2364  0.3822  0.1331
   86TCq2    C2 1311   0.335   3.714  16.178  0.3421 -0.1015  0.2332
   86TCq2    C3 1312   0.232   3.712  16.087 -0.5696  0.0098 -0.1585
   86TCq2    C4 1313   0.209   3.830  16.021 -0.5043 -0.1572 -0.4645
   86TCq2    C5 1314   0.269   3.946  16.046  0.0721 -0.3460  1.0326
   86TCq2    C6 1315   0.372   3.947  16.140  0.0322 -0.1740  0.1354
   86TCq2    C7 1316   0.406   3.834  16.207  0.5238 -0.1313 -0.0978
   86TCq2    C8 1317   0.456   4.067  16.159 -0.2808  0.0301 -0.1722
   86TCq2    O4 1318   0.513   4.071  16.266 -0.2267 -0.1043  0.5122
   86TCq2    C9 1319   0.108   3.832  15.917 -0.4684 -0.1559 -0.0202
   86TCq2    O5 1320   0.091   3.943  15.870 -0.1380 -0.6080 -0.7613
   86TCq2    O6 1321   0.024   3.734  15.913  0.2627  0.3406  0.2474
   86TCq2    H2 1322   0.184   3.618  16.061 -2.3326  1.1859 -1.1528
   86TCq2    H3 1323   0.248   4.043  16.002 -3.0694 -0.8878  1.4035
   86TCq2    H4 1324   0.488   3.838  16.278  1.4579  0.3724 -1.1816
   87MPD2     C 1325   2.422   2.309   1.297  0.1138 -0.1121 -0.3344
   87MPD2    C1 1326   2.346   2.253   1.397 -0.3101 -0.2255  1.0187
   87MPD2    C2 1327   2.261   2.336   1.469  0.1961 -0.9452  0.7588
   87MPD2    C3 1328   2.247   2.470   1.436  0.0286  0.0522  0.6064
   87MPD2    C4 1329   2.321   2.521   1.332  0.0012  0.3991 -1.5275
   87MPD2    C5 1330   2.394   2.437   1.261 -0.1630 -0.1149  0.2019
   87MPD2     H 1331   2.202   2.283   1.542  0.4984 -0.3865  1.4070
   87MPD2    H1 1332   2.319   2.622   1.292 -0.0867 -0.0989 -2.7727
   87MPD2    H2 1333   2.484   2.255   1.226 -2.1297 -1.3245 -1.3682
   87MPD2    H3 1334   2.454   2.468   1.176  0.3894  0.5606  0.8365
   87MPD2     N 1335   2.145   2.560   1.489  0.0210 -0.2868  0.3381
   87MPD2    H5 1336   2.142   2.659   1.465  0.9780 -0.5007 -0.6741
   87MPD2    N1 1337   2.375   2.115   1.421 -0.4551 -0.4668 -0.3506
   87MPD2    H7 1338   2.440   2.064   1.362  0.5656 -0.5224  0.8309
   88TCq2    C1 1339   2.331   2.042   1.527 -0.3749 -0.1912 -0.3385
   88TCq2    O2 1340   2.277   2.089   1.626  0.3091 -0.0751  0.1216
   88TCq2    C2 1341   2.386   1.905   1.523 -0.0298  0.7091 -0.3586
   88TCq2    C3 1342   2.412   1.836   1.635  0.5493  0.5401  0.2361
   88TCq2    C4 1343   2.470   1.713   1.625 -0.2435 -0.7245 -0.2057
   88TCq2    C5 1344   2.486   1.647   1.502  0.2879 -0.0679 -0.1713
   88TCq2    C6 1345   2.458   1.722   1.390 -0.1284  0.2476  0.9222
   88TCq2    C7 1346   2.397   1.845   1.398  0.4266  0.7137  0.1855
   88TCq2    C8 1347   2.490   1.663   1.262  0.1340 -0.3114  0.7889
   88TCq2    O4 1348   2.493   1.738   1.169  0.2490 -0.0783  0.3621
   88TCq2    C9 1349   2.489   1.625   1.735 -0.8907 -0.0396  0.6852
   88TCq2    O5 1350   2.490   1.678   1.849 -0.0709 -0.2581 -0.4159
   88TCq2    O6 1351   2.491   1.501   1.712  0.2569  0.1990 -0.1411
   88TCq2    H2 1352   2.388   1.879   1.731  0.3462  0.3651  0.2640
   88TCq2    H3 1353   2.549   1.560   1.494 -0.5436 -0.6616 -0.2902
   88TCq2    H4 1354   2.385   1.894   1.302  0.3988 -1.7950 -1.0789
   89MPD2     C 1355   2.930   4.172   2.288  0.0604 -1.1833  0.2805
   89MPD2    C1 1356   2.841   4.256   2.221 -0.0593  0.1621  0.0419
   89MPD2    C2 1357   2.892   4.362   2.151 -0.3670  0.3867 -1.0877
   89MPD2    C3 1358   3.024   4.395   2.155  0.6510 -0.2845  0.0058
   89MPD2    C4 1359   3.105   4.316   2.231 -0.2030  0.6783 -0.3169
   89MPD2    C5 1360   3.060   4.202   2.291 -0.7072  0.2685  0.4393
   89MPD2     H 1361   2.825   4.425   2.094 -1.1712  0.3970 -0.1311
   89MPD2    H1 1362   3.208   4.348   2.240  0.2960 -1.6300  1.9528
   89MPD2    H2 1363   2.894   4.086   2.343 -3.3116  0.0245 -0.0518
   89MPD2    H3 1364   3.124   4.136   2.348  1.6957  2.2371  0.0264
   89MPD2     N 1365   3.066   4.506   2.083  0.0567 -0.2971 -0.1003
   89MPD2    H5 1366   2.995   4.570   2.048 -0.9745 -0.6723  1.3050
   89MPD2    N1 1367   2.702   4.243   2.230 -0.2744  0.3085  0.1641
   89MPD2    H7 1368   2.644   4.306   2.176 -1.5503  1.4296  2.8240
   90TCq2    C1 1369   3.195   4.554   2.073 -0.0165 -0.6900 -0.3393
   90TCq2    O2 1370   3.299   4.527   2.136  0.2365 -0.5309 -0.2889
   90TCq2    C2 1371   3.199   4.653   1.962 -0.1645  0.4158  0.0960
   90TCq2    C3 1372   3.104   4.671   1.867  0.0836 -0.1046 -0.3614
   90TCq2    C4 1373   3.100   0.069   1.804 -0.4617  0.0993  0.3769
   90TCq2    C5 1374   3.194   0.169   1.834  0.1970 -0.4812  1.1015
   90TCq2    C6 1375   3.291   0.141   1.922 -0.1625 -0.9543 -0.2940
   90TCq2    C7 1376   3.291   0.029   1.994 -0.4646 -0.5710  0.3241
   90TCq2    C8 1377   3.360   0.257   1.966  0.0718 -0.0222 -0.0880
   90TCq2    O4 1378   3.369   0.271   2.089 -0.0055  1.0640  0.0863
   90TCq2    C9 1379   3.006   0.086   1.695  0.0820  0.6232  0.7796
   90TCq2    O5 1380   2.972   4.708   1.621 -0.0444  0.4781  0.1485
   90TCq2    O6 1381   3.004   0.205   1.654 -0.3888 -0.3508  0.8984
   90TCq2    H2 1382   3.034   4.598   1.828  2.5135 -2.4717 -0.3162
   90TCq2    H3 1383   3.186   0.262   1.780 -2.7909 -0.6748  1.2286
   90TCq2    H4 1384   3.363   0.028   2.075 -1.0552 -0.5764  0.8463
   91TMC2    C1 1385   0.561   4.431  16.896 -0.1575  1.0151 -0.3120
   91TMC2    C2 1386   0.639   4.489  16.991 -0.2741 -0.5761 -0.4643
   91TMC2    C3 1387   0.578   4.523  17.110 -0.1834  0.1582 -0.0664
   91TMC2    C4 1388   0.426   4.432  16.908 -0.0056 -0.0373  0.5498
   91TMC2    C5 1389   0.369   4.484  17.022 -0.5138 -0.1879  0.2195
   91TMC2    C6 1390   0.446   4.532  17.128  0.4865  0.6652  0.0652
   91TMC2     C 1391   0.616   4.368  16.780 -0.0859 -0.0477 -0.1931
   91TMC2     O 1392   0.556   4.265  16.743 -0.0862  0.6264  0.3272
   91TMC2     H 1393   0.747   4.485  16.980 -0.1614  1.2320  0.0499
   91TMC2    H1 1394   0.376   4.382  16.826  0.6893 -0.6090  0.4684
   91TMC2    H2 1395   0.399   4.585  17.211 -0.8493 -1.4361  0.6601
   91TMC2    C7 1396   0.225   4.490  17.034  0.0048  0.3342 -0.0739
   91TMC2    C8 1397   0.648   4.610  17.194  0.5444  0.7235 -0.8688
   91TMC2    O1 1398   0.179   4.476  17.150 -0.1709 -0.2353 -0.1423
   91TMC2    O2 1399   0.725   4.690  17.154  0.0319  0.1647  0.0755
   91TMC2    O5 1400   0.616   4.608  17.325 -0.1140 -0.2568  0.3863
   91TMC2    H5 1401   0.586   4.519  17.356  0.7287  0.8018  4.2263
   92MPD2     C 1402   0.792   4.284  16.546  0.0595 -0.3477  0.4001
   92MPD2    C1 1403   0.795   4.404  16.606 -0.5680  0.0229  0.6741
   92MPD2    C2 1404   0.877   4.506  16.554 -0.0507  0.1044 -0.2591
   92MPD2    C3 1405   0.955   4.484  16.447  0.4115  0.0881 -0.2558
   92MPD2    C4 1406   0.959   4.358  16.393 -0.1845 -0.2105 -0.7116
   92MPD2    C5 1407   0.880   4.261  16.442  0.3365  0.4495  0.5796
   92MPD2     H 1408   0.881   4.604  16.599 -2.6624  0.2604 -0.3492
   92MPD2    H1 1409   1.012   4.329  16.304  0.9505  2.3091 -0.8619
   92MPD2    H2 1410   0.722   4.207  16.576 -0.4199 -0.4426 -0.9773
   92MPD2    H3 1411   0.885   4.167  16.388 -1.2662 -0.9568  2.8836
   92MPD2     N 1412   1.025   4.588  16.397 -1.0710  0.1954 -0.2495
   92MPD2    H5 1413   0.992   4.675  16.436  1.0381  0.9741 -0.1797
   92MPD2    N1 1414   0.714   4.441  16.716 -0.1893 -0.1971  0.2486
   92MPD2    H7 1415   0.723   4.539  16.740 -3.4131  0.8487 -2.7803
   93MPD2     C 1416   1.781   4.346  13.861 -0.0477  0.0440 -0.4720
   93MPD2    C1 1417   1.723   4.461  13.918  0.0959 -0.9761 -0.3187
   93MPD2    C2 1418   1.585   4.469  13.935  0.0470 -0.4404 -0.5212
   93MPD2    C3 1419   1.508   4.367  13.880 -0.3770 -0.1395  0.6023
   93MPD2    C4 1420   1.566   4.264  13.808 -0.4547  0.4790 -0.2132
   93MPD2    C5 1421   1.703   4.252  13.810 -0.0467 -0.1068 -0.0563
   93MPD2     H 1422   1.547   4.552  13.993 -1.1205 -0.8372 -0.7296
   93MPD2    H1 1423   1.498   4.196  13.759 -0.8600  2.5731 -2.5797
   93MPD2    H2 1424   1.888   4.331  13.857 -0.0979 -0.5785  0.5171
   93MPD2    H3 1425   1.745   4.163  13.763  0.4889  0.4423 -0.6063
   93MPD2     N 1426   1.368   4.368  13.878 -0.0029  0.1367 -0.1177
   93MPD2    H5 1427   1.326   4.298  13.818 -0.8298  0.0396  0.5707
   93MPD2    N1 1428   1.803   4.568  13.959  0.2115  0.5351 -0.3881
   93MPD2    H7 1429   1.752   4.655  13.957  0.1485  0.5308  0.8973
   94TCq2    C1 1430   1.941   4.565  13.967 -0.1945  0.4976  0.1625
   94TCq2    O2 1431   2.015   4.473  13.994  0.3007 -0.2850  0.5028
   94TCq2    C2 1432   2.002   4.698  13.970  0.3748  0.3611  0.6417
   94TCq2    C3 1433   1.932   0.089  14.000  0.4192 -0.0097  0.2051
   94TCq2    C4 1434   2.006   0.198  14.018 -0.0526  0.5573 -0.0390
   94TCq2    C5 1435   2.144   0.198  14.005  0.3031  0.4497  0.0756
   94TCq2    C6 1436   2.209   0.083  13.969 -0.0757  0.2414 -0.4438
   94TCq2    C7 1437   2.136   4.697  13.943 -0.1783 -0.1895 -0.0955
   94TCq2    C8 1438   2.350   0.079  13.942 -0.4000  0.0186  0.3445
   94TCq2    O4 1439   2.392   4.699  13.892 -0.5425  0.1474  0.2250
   94TCq2    C9 1440   1.942   0.323  14.049  0.1133  0.7393  0.3633
   94TCq2    O5 1441   1.818   0.321  14.051  0.4341  0.0711 -0.3923
   94TCq2    O6 1442   2.005   0.432  14.029 -0.1478  0.2056 -0.2359
   94TCq2    H2 1443   1.826   0.087  14.022  0.6074 -1.6729  0.9926
   94TCq2    H3 1444   2.200   0.286  14.035  0.5220 -0.9418  3.6799
   94TCq2    H4 1445   2.189   4.607  13.914  0.8513  0.5380 -0.4656
   95TMC2    C1 1446   1.237   1.531  16.144 -0.4338 -0.2895 -0.4831
   95TMC2    C2 1447   1.099   1.530  16.134  0.5905  0.2888 -0.5315
   95TMC2    C3 1448   1.025   1.560  16.249 -0.4946  0.3673 -0.1531
   95TMC2    C4 1449   1.299   1.567  16.260 -0.0146  0.4790 -0.0759
   95TMC2    C5 1450   1.208   1.590  16.368  0.4666 -0.7553  0.1978
   95TMC2    C6 1451   1.079   1.603  16.361 -0.8944  0.5456 -0.7541
   95TMC2     C 1452   1.338   1.488  16.042  0.5582  0.0558  0.9729
   95TMC2     O 1453   1.455   1.493  16.069 -0.0038  0.5317  0.2138
   95TMC2     H 1454   1.060   1.521  16.034  0.7633 -1.3012 -0.4476
   95TMC2    H1 1455   1.405   1.551  16.272  0.4404  1.3856 -2.9105
   95TMC2    H2 1456   1.027   1.614  16.455 -0.9064 -1.4275 -0.5209
   95TMC2    C7 1457   1.267   1.625  16.501 -0.3113  0.4730 -0.0465
   95TMC2    C8 1458   0.880   1.583  16.244  0.1507 -0.5518 -0.2680
   95TMC2    O1 1459   1.204   1.584  16.600  0.0951 -0.0147 -0.6087
   95TMC2    O2 1460   0.823   1.679  16.292  0.2067  0.6231 -0.7151
   95TMC2    O5 1461   0.830   1.462  16.234 -0.0719 -0.1177  0.7290
   95TMC2    H5 1462   0.893   1.399  16.192 -1.8453  0.2501 -2.4162
   96MPD2     C 1463   1.466   1.340  15.569 -0.0720  0.0975 -0.1357
   96MPD2    C1 1464   1.543   1.408  15.659 -0.0223 -0.4042  0.0952
   96MPD2    C2 1465   1.479   1.440  15.778 -0.2911 -0.5644  0.2134
   96MPD2    C3 1466   1.347   1.398  15.807 -0.0000 -0.0075 -0.6612
   96MPD2    C4 1467   1.275   1.322  15.719 -0.1296  0.1901 -0.5091
   96MPD2    C5 1468   1.341   1.300  15.597  0.7088 -0.0455  0.2249
   96MPD2     H 1469   1.529   1.503  15.850 -1.2535  0.0590  0.3450
   96MPD2    H1 1470   1.176   1.287  15.744  0.2054 -0.2494  0.1923
   96MPD2    H2 1471   1.508   1.296  15.479 -2.1949 -1.1648 -0.4993
   96MPD2    H3 1472   1.283   1.238  15.530  1.6100 -0.9300  0.2758
   96MPD2     N 1473   1.277   1.433  15.931  0.7598 -0.3356  0.1198
   96MPD2    H5 1474   1.176   1.425  15.925  0.9300 -1.3611 -1.5806
   96MPD2    N1 1475   1.672   1.451  15.622  0.2020  0.0240  0.3117
   96MPD2    H7 1476   1.702   1.424  15.528 -0.0292  2.1924 -0.3952
   97MPD2     C 1477   3.589   3.242   0.772 -0.1131  0.2002  0.3442
   97MPD2    C1 1478   3.651   3.366   0.781  0.3462 -0.2014 -0.2799
   97MPD2    C2 1479   3.682   3.426   0.664 -0.6245  0.6700  0.5604
   97MPD2    C3 1480   3.645   3.378   0.542 -0.4126 -0.0187  0.2762
   97MPD2    C4 1481   3.581   3.262   0.533 -0.1362 -0.0824 -0.0786
   97MPD2    C5 1482   3.553   3.193   0.649 -1.1635  0.2935  0.2681
   97MPD2     H 1483   3.721   3.527   0.668  2.0897 -0.4255  1.5520
   97MPD2    H1 1484   3.562   3.234   0.430 -2.0107 -1.1872  0.5616
   97MPD2    H2 1485   3.571   3.179   0.858  1.6877 -2.8922 -1.5332
   97MPD2    H3 1486   3.493   3.103   0.656 -0.4636 -0.3731 -2.0872
   97MPD2     N 1487   3.667   3.440   0.418 -0.0126 -0.0924  0.3659
   97MPD2    H5 1488   3.626   3.388   0.341  0.4098 -0.6852  0.5345
   97MPD2    N1 1489   3.659   3.418   0.913  0.1973 -0.1806 -0.3725
   97MPD2    H7 1490   3.629   3.361   0.991  1.8178  0.9565  1.0882
   98TCq2    C1 1491   3.735   3.561   0.396 -0.3618  0.3518  0.4607
   98TCq2    O2 1492   3.775   3.638   0.483 -0.3529  0.0315  0.1288
   98TCq2    C2 1493   3.763   3.585   0.253 -0.1190 -0.5128  0.1512
   98TCq2    C3 1494   3.726   3.496   0.150 -0.8361 -0.3964  0.5968
   98TCq2    C4 1495   3.733   3.531   0.018  0.0092  0.2283 -0.4100
   98TCq2    C5 1496   3.781   3.661  17.694 -0.8047 -0.4227  0.0621
   98TCq2    C6 1497   3.810   3.753   0.095  0.7780 -0.8468 -0.1704
   98TCq2    C7 1498   3.802   3.715   0.224 -0.0790 -0.0944 -0.4185
   98TCq2    C8 1499   3.880   3.874   0.061  0.6006  0.5290 -0.1827
   98TCq2    O4 1500   3.940   3.929   0.151 -0.2448 -0.1240  0.3434
   98TCq2    C9 1501   3.699   3.442  17.607  0.4952  0.0504 -0.1807
   98TCq2    O5 1502   3.695   3.316  17.631 -0.4654  0.1303  0.4687
   98TCq2    O6 1503   3.685   3.504  17.499 -0.1303 -0.1669 -0.3473
   98TCq2    H2 1504   3.689   3.396   0.172 -2.3059  0.0428  0.1228
   98TCq2    H3 1505   3.782   3.690  17.590  0.1559 -3.3440 -0.7349
   98TCq2    H4 1506   3.838   3.776   0.306 -0.1697 -3.8136  2.3678
   99MPD2     C 1507   2.748   0.544   2.450  0.3613 -0.0378  0.0694
   99MPD2    C1 1508   2.625   0.583   2.416 -1.2225  0.0751 -0.1158
   99MPD2    C2 1509   2.597   0.620   2.285  0.3544 -0.4305 -0.0905
   99MPD2    C3 1510   2.708   0.641   2.198 -0.3839 -0.1532  0.2674
   99MPD2    C4 1511   2.838   0.604   2.243 -0.2493 -0.6296  0.8115
   99MPD2    C5 1512   2.852   0.554   2.367  0.5052  0.0563  0.0553
   99MPD2     H 1513   2.496   0.637   2.248 -0.2826 -0.6228  1.5889
   99MPD2    H1 1514   2.925   0.610   2.178  0.4706  2.1236  2.0017
   99MPD2    H2 1515   2.781   0.521   2.551 -1.2275  0.3477  0.6713
   99MPD2    H3 1516   2.949   0.538   2.414 -0.0120  0.1250  1.1591
   99MPD2     N 1517   2.689   0.707   2.072  0.7386 -0.3302  0.0974
   99MPD2    H5 1518   2.597   0.737   2.042  1.6334 -0.0129 -2.3760
   99MPD2    N1 1519   2.514   0.592   2.511  0.5097  0.2417 -0.7437
   99MPD2    H7 1520   2.424   0.621   2.473  0.5796  1.8153  0.2819
  100TCq2    C1 1521   2.523   0.571   2.645  1.0060  0.7691  0.3554
  100TCq2    O2 1522   2.619   0.538   2.717 -0.5706  0.1098  0.2329
  100TCq2    C2 1523   2.395   0.596   2.717  0.7600  0.5525 -0.1535
  100TCq2    C3 1524   2.395   0.553   2.844  0.8146 -0.0993 -0.4298
  100TCq2    C4 1525   2.288   0.585   2.921  0.3620  1.2349  0.4064
  100TCq2    C5 1526   2.181   0.658   2.870  0.5054  0.1950  0.6502
  100TCq2    C6 1527   2.183   0.712   2.744 -0.0146 -0.4638 -0.3926
  100TCq2    C7 1528   2.289   0.669   2.660  0.0094 -0.0706 -0.1101
  100TCq2    C8 1529   2.073   0.780   2.691  0.2443 -0.5084 -0.2887
  100TCq2    O4 1530   1.983   0.811   2.769  0.2007 -0.0369  0.3303
  100TCq2    C9 1531   2.279   0.560   3.059 -0.4571  0.3277 -0.2215
  100TCq2    O5 1532   2.384   0.514   3.108  0.6454  0.1189 -1.1470
  100TCq2    O6 1533   2.172   0.586   3.122  0.3116 -0.3540  0.5308
  100TCq2    H2 1534   2.486   0.517   2.891  0.3619 -2.1618 -1.1152
  100TCq2    H3 1535   2.103   0.687   2.940 -2.3572 -3.0991 -1.2112
  100TCq2    H4 1536   2.288   0.718   2.563  1.0562 -0.8044 -0.4981
  101MPD2     C 1537   3.258   2.249  13.087 -0.3951 -0.0742 -0.6046
  101MPD2    C1 1538   3.121   2.240  13.076 -0.0875 -0.0777  0.1728
  101MPD2    C2 1539   3.059   2.140  13.149 -0.1074 -0.2678 -0.4294
  101MPD2    C3 1540   3.130   2.057  13.239  0.0150 -0.2358  0.7947
  101MPD2    C4 1541   3.267   2.078  13.252 -0.9810  0.6400  0.5580
  101MPD2    C5 1542   3.328   2.170  13.175  0.5314 -0.2726 -0.1141
  101MPD2     H 1543   2.951   2.130  13.145  0.1191 -2.4867 -1.0626
  101MPD2    H1 1544   3.333   2.020  13.315  0.6217  0.7214 -1.0606
  101MPD2    H2 1545   3.304   2.329  13.030  0.7392 -0.5218 -0.3166
  101MPD2    H3 1546   3.432   2.187  13.198  1.3481 -2.0879 -2.4473
  101MPD2     N 1547   3.056   1.969  13.320  0.2175  0.4070  0.6878
  101MPD2    H5 1548   2.957   1.983  13.335 -0.5638 -2.2805 -1.9378
  101MPD2    N1 1549   3.053   2.337  13.000  0.3919 -0.3317  0.4472
  101MPD2    H7 1550   3.111   2.400  12.946  0.8273  0.0513  1.3620
  102TCq2    C1 1551   3.000   2.721  12.697 -0.0048  0.2958  0.4616
  102TCq2    O2 1552   3.113   2.709  12.742 -0.4117  0.5647  0.2941
  102TCq2    C2 1553   2.898   2.626  12.753  0.2526 -0.3724  0.2780
  102TCq2    C3 1554   2.768   2.617  12.705  0.0658  0.1685 -1.0581
  102TCq2    C4 1555   2.688   2.518  12.752 -0.3250 -1.0647 -0.0430
  102TCq2    C5 1556   2.740   2.421  12.829 -0.1854 -0.4587 -0.6485
  102TCq2    C6 1557   2.870   2.426  12.870 -0.1165  0.2671  0.5493
  102TCq2    C7 1558   2.952   2.532  12.839  0.0088  0.4698 -0.4108
  102TCq2    C8 1559   2.919   2.332  12.969  0.7553 -0.9936  0.4860
  102TCq2    O4 1560   2.828   2.262  13.015 -0.2812  0.2350  0.2318
  102TCq2    C9 1561   2.546   2.522  12.721  0.0868 -0.6531 -0.2018
  102TCq2    O5 1562   2.478   2.489  12.822 -0.2937 -0.4282 -0.2791
  102TCq2    O6 1563   2.496   2.599  12.631  0.1008  0.3217 -0.4418
  102TCq2    H2 1564   2.734   2.693  12.636 -1.5586  1.2765  1.0010
  102TCq2    H3 1565   2.666   2.353  12.870 -1.9058  2.1100  0.5738
  102TCq2    H4 1566   3.046   2.544  12.891 -0.2157 -1.6128  0.4672
  103TMC2    C1 1567   1.211   3.107  12.453 -0.0521  0.0199 -1.0035
  103TMC2    C2 1568   1.331   3.165  12.447  0.1132  0.3047  0.3999
  103TMC2    C3 1569   1.419   3.120  12.545  0.3630 -0.7238 -0.2827
  103TMC2    C4 1570   1.180   3.002  12.533  0.3599 -0.4805 -0.1154
  103TMC2    C5 1571   1.274   2.949  12.616  0.9650 -0.0589 -0.3197
  103TMC2    C6 1572   1.396   3.008  12.625 -0.1831  0.1228 -0.3097
  103TMC2     C 1573   1.112   3.139  12.356 -0.0815 -0.1397  0.2143
  103TMC2     O 1574   1.007   3.083  12.364  0.3907 -0.6943  0.3705
  103TMC2     H 1575   1.360   3.255  12.394  1.5902 -0.8194 -0.6936
  103TMC2    H1 1576   1.074   2.977  12.534  0.1107  0.5187 -1.3193
  103TMC2    H2 1577   1.469   2.962  12.691 -2.2909 -0.6654  1.4475
  103TMC2    C7 1578   1.238   2.842  12.696  0.1414  0.4642 -0.6827
  103TMC2    C8 1579   1.553   3.178  12.539 -0.3344  0.3334 -0.4377
  103TMC2    O1 1580   1.302   2.807  12.793 -0.0664 -0.2890  0.0894
  103TMC2    O2 1581   1.605   3.233  12.440 -0.0665 -0.1378 -0.3260
  103TMC2    O5 1582   1.621   3.133  12.643 -0.0077  0.2143  0.1823
  103TMC2    H5 1583   1.564   3.134  12.723  0.0234 -0.2636  0.2096
  104MPD2     C 1584   1.151   3.371  12.076  0.0277 -0.5455  0.3487
  104MPD2    C1 1585   1.086   3.279  12.156  0.6944  0.3229 -0.4390
  104MPD2    C2 1586   0.952   3.251  12.131  0.0771  0.1064  0.2933
  104MPD2    C3 1587   0.892   3.305  12.017 -0.4048  0.8349  1.2603
  104MPD2    C4 1588   0.962   3.395  11.937  0.3014 -0.0111  0.0639
  104MPD2    C5 1589   1.089   3.419  11.968  0.0780 -0.4893  0.7360
  104MPD2     H 1590   0.884   3.182  12.180  0.1368  0.4981  0.9331
  104MPD2    H1 1591   0.932   3.438  11.842 -0.3808  0.7578  0.6237
  104MPD2    H2 1592   1.256   3.394  12.092 -0.3048  1.6830 -0.6881
  104MPD2    H3 1593   1.149   3.486  11.907 -0.7719 -0.4770 -0.0868
  104MPD2     N 1594   0.758   3.274  11.989 -0.7228  0.0095 -0.0554
  104MPD2    H5 1595   0.704   3.215  12.051  0.5098 -2.1622 -1.0461
  104MPD2    N1 1596   1.164   3.228  12.262 -0.2836 -0.2010 -0.0968
  104MPD2    H7 1597   1.263   3.246  12.271 -0.2916 -0.7545  1.2360
  105MPD2     C 1598   3.098   1.407  17.568  0.1151 -0.0588 -0.7031
  105MPD2    C1 1599   3.068   1.541  17.593 -0.9135 -0.9133  0.3637
  105MPD2    C2 1600   2.970   1.574  17.688 -0.6276 -0.1022 -0.2644
  105MPD2    C3 1601   2.900   1.478   0.057  0.6646 -0.4712  0.3785
  105MPD2    C4 1602   2.910   1.347   0.008 -1.4709  0.7031  0.3490
  105MPD2    C5 1603   3.016   1.314  17.623  0.6226 -0.4615  0.2058
  105MPD2     H 1604   2.945   1.676   0.017 -4.8933 -1.4267  0.9356
  105MPD2    H1 1605   2.841   1.267   0.035  0.8066 -1.6724 -0.8653
  105MPD2    H2 1606   3.172   1.386  17.491 -0.9080 -0.8490 -1.4732
  105MPD2    H3 1607   3.021   1.214  17.581 -1.1392 -0.5145  0.1083
  105MPD2     N 1608   2.813   1.525   0.156 -0.2504  0.1637 -0.5326
  105MPD2    H5 1609   2.837   1.619   0.185  0.9305 -0.0782 -0.7308
  105MPD2    N1 1610   3.128   1.649  17.514 -0.1121 -0.2698  0.1384
  105MPD2    H7 1611   3.080   1.738  17.523 -0.5743 -0.2884 -1.9631
  106TCq2    C1 1612   2.727   1.449   0.232 -0.0531  0.1405 -0.0250
  106TCq2    O2 1613   2.693   1.335   0.210  0.0821 -0.1750  0.5726
  106TCq2    C2 1614   2.685   1.517   0.352 -0.2257 -0.0538  0.1279
  106TCq2    C3 1615   2.707   1.650   0.372 -0.0274 -0.6397  0.4464
  106TCq2    C4 1616   2.669   1.707   0.490 -0.3009 -0.2516  0.5086
  106TCq2    C5 1617   2.613   1.627   0.584  0.0021 -0.1303 -0.6082
  106TCq2    C6 1618   2.599   1.488   0.562  0.4152 -0.4449 -0.7234
  106TCq2    C7 1619   2.625   1.435   0.446  0.3563 -0.2446  0.2862
  106TCq2    C8 1620   2.588   1.395   0.674  0.1355 -0.5300  0.0396
  106TCq2    O4 1621   2.583   1.278   0.649 -0.6644 -0.1515  0.6660
  106TCq2    C9 1622   2.687   1.848   0.517 -0.1659 -0.3455 -0.7796
  106TCq2    O5 1623   2.754   1.919   0.433  0.1925  0.1345  0.3502
  106TCq2    O6 1624   2.663   1.886   0.631 -0.1002  0.4877 -0.1048
  106TCq2    H2 1625   2.758   1.711   0.299 -1.8110 -0.4030 -0.6182
  106TCq2    H3 1626   2.580   1.669   0.679  0.5961  2.5802 -1.5921
  106TCq2    H4 1627   2.609   1.328   0.442 -0.4780 -0.0903 -0.4965
  107TMC2    C1 1628   4.008   0.262  11.506 -0.5615 -0.1724 -0.6641
  107TMC2    C2 1629   3.998   0.155  11.588  0.8003  0.0156  0.4373
  107TMC2    C3 1630   3.971   0.031  11.529 -0.1060 -0.3848  0.8556
  107TMC2    C4 1631   3.988   0.258  11.370 -0.4006 -0.1709 -0.2306
  107TMC2    C5 1632   3.957   0.136  11.318 -0.3653 -0.3061  0.2908
  107TMC2    C6 1633   3.943   0.026  11.395 -0.1083  0.8186  0.0148
  107TMC2     C 1634   4.010   0.386  11.583 -1.1614 -0.4934 -0.4329
  107TMC2     O 1635   4.008   0.380  11.706  0.2824  0.4445  0.1866
  107TMC2     H 1636   4.026   0.155  11.693  0.5537 -0.4298  0.5016
  107TMC2    H1 1637   3.994   0.342  11.302  1.3657 -0.1187 -0.0034
  107TMC2    H2 1638   3.932   4.651  11.353 -0.4147  1.1235 -0.6246
  107TMC2    C7 1639   3.964   0.102  11.172 -0.1998  0.1169  0.1258
  107TMC2    C8 1640   3.983   4.627  11.595  0.2182  0.4474  0.4865
  107TMC2    O1 1641   3.948   4.709  11.146 -0.6436 -0.4873  1.0383
  107TMC2    O2 1642   4.020   4.528  11.527 -0.3287  0.2208 -0.0758
  107TMC2    O5 1643   3.985   4.638  11.727  0.5026  0.6325 -0.1492
  107TMC2    H5 1644   3.959   0.003  11.759  2.1654  0.5909  1.3788
  108MPD2     C 1645   3.923   0.718  11.440  0.3712  0.0218  0.7169
  108MPD2    C1 1646   3.928   0.622  11.537 -0.3148 -0.3410 -0.3865
  108MPD2    C2 1647   3.875   0.651  11.667 -0.0401 -0.0441  0.7246
  108MPD2    C3 1648   3.814   0.771  11.684  0.6536 -0.2798  0.2969
  108MPD2    C4 1649   3.814   0.868  11.585  0.0490  0.5788  0.4365
  108MPD2    C5 1650   3.870   0.840  11.464  1.0972 -0.6814 -0.5410
  108MPD2     H 1651   3.884   0.579  11.748  0.8144  0.0759  0.7318
  108MPD2    H1 1652   3.771   0.967  11.598 -3.5285 -0.9003 -0.3724
  108MPD2    H2 1653   3.956   0.697  11.339  2.8443  1.4857  1.2364
  108MPD2    H3 1654   3.870   0.914  11.385 -2.3957 -0.0342  0.0713
  108MPD2     N 1655   3.754   0.810  11.810 -0.3050 -0.0757  0.1296
  108MPD2    H5 1656   3.693   0.891  11.807 -1.3486 -0.8690 -0.1584
  108MPD2    N1 1657   3.993   0.502  11.505  0.1611  0.4756 -0.6479
  108MPD2    H7 1658   3.998   0.497  11.403 -1.7927 -0.2917 -0.7214
  109MPD2     C 1659   3.862   2.151   1.993 -0.5599 -0.2329 -0.8093
  109MPD2    C1 1660   3.790   2.254   1.943 -0.6961  0.3982  0.5529
  109MPD2    C2 1661   3.848   2.377   1.915 -1.0926  0.3767 -0.0503
  109MPD2    C3 1662   3.992   2.395   1.927  0.4852  0.0863  0.0614
  109MPD2    C4 1663   4.063   2.280   1.970  0.4760  0.4790  0.0513
  109MPD2    C5 1664   3.999   2.160   2.010  0.1859  0.3237 -0.0416
  109MPD2     H 1665   3.781   2.452   1.875  0.6246  2.4270  0.9104
  109MPD2    H1 1666   4.170   2.280   1.988  0.3024  0.5217  1.1015
  109MPD2    H2 1667   3.823   2.053   2.021 -1.4296 -0.3025 -2.2421
  109MPD2    H3 1668   4.059   2.077   2.045  0.0234 -0.7044 -2.1687
  109MPD2     N 1669   4.042   2.523   1.895 -1.0651  0.1096 -0.4791
  109MPD2    H5 1670   3.976   2.587   1.852  0.8257  3.4337  1.5612
  109MPD2    N1 1671   3.652   2.223   1.928 -0.6025  0.5181  0.5956
  109MPD2    H7 1672   3.625   2.126   1.939 -1.6539  0.6857 -0.4628
  110TCq2    C1 1673   4.177   2.563   1.906  0.2825 -0.5115  0.2644
  110TCq2    O2 1674   4.272   2.508   1.964  0.0405  0.0418 -0.4448
  110TCq2    C2 1675   4.217   2.690   1.842  0.2075 -0.4703 -0.0098
  110TCq2    C3 1676   4.339   2.744   1.881 -0.3871 -0.6000 -0.4103
  110TCq2    C4 1677   4.385   2.858   1.825 -0.3505  0.5940  0.1337
  110TCq2    C5 1678   4.299   2.925   1.735 -0.1485  0.9457  0.4245
  110TCq2    C6 1679   4.175   2.874   1.710  0.0641  0.5452 -0.5763
  110TCq2    C7 1680   4.132   2.752   1.757 -0.0231  0.0916 -0.5478
  110TCq2    C8 1681   4.083   2.967   1.639 -0.0501 -0.5432 -0.5642
  110TCq2    O4 1682   4.137   3.070   1.600 -0.9898 -0.2360 -0.2524
  110TCq2    C9 1683   4.507   2.916   1.865 -0.1050 -0.7043 -0.1758
  110TCq2    O5 1684   4.549   3.005   1.788 -0.1853 -0.1646  0.0148
  110TCq2    O6 1685   4.569   2.866   1.964 -0.4573 -0.2980  0.2829
  110TCq2    H2 1686   4.400   2.695   1.956 -0.9709  0.8041  0.9858
  110TCq2    H3 1687   4.325   3.022   1.695  3.5682  0.6913  2.2144
  110TCq2    H4 1688   4.047   2.697   1.717 -0.5896 -1.2846  2.4911
  111TMC2    C1 1689   3.743   2.640  11.286  0.5339 -0.0616  0.0330
  111TMC2    C2 1690   3.861   2.627  11.213  0.8841 -0.7199 -0.4500
  111TMC2    C3 1691   3.980   2.669  11.267  0.4830  0.1721  0.6407
  111TMC2    C4 1692   3.739   2.675  11.419 -0.0839  0.0529 -0.0667
  111TMC2    C5 1693   3.863   2.712  11.468 -0.1914 -0.1600  0.4443
  111TMC2    C6 1694   3.984   2.706  11.398 -0.2270 -0.6511  0.0345
  111TMC2     C 1695   3.616   2.637  11.214 -0.2409  0.3353 -0.8336
  111TMC2     O 1696   3.616   2.599  11.096 -0.0731 -0.5053 -0.6063
  111TMC2     H 1697   3.862   2.583  11.114 -1.4949 -0.9966 -0.3587
  111TMC2    H1 1698   3.655   2.654  11.486  0.0565  1.4242  0.5287
  111TMC2    H2 1699   4.079   2.715  11.450  0.1356 -0.6660 -0.6245
  111TMC2    C7 1700   3.864   2.754  11.609  0.2708 -0.2856  0.0430
  111TMC2    C8 1701   4.097   2.612  11.210 -0.2095  0.0270 -0.4748
  111TMC2    O1 1702   3.772   2.722  11.678  0.2837  0.1803  0.5675
  111TMC2    O2 1703   4.179   2.550  11.277 -0.8459 -0.0550 -0.3964
  111TMC2    O5 1704   4.121   2.669  11.091  0.1729  0.3144 -0.4905
  111TMC2    H5 1705   4.042   2.716  11.056 -0.1753  0.5516  0.6088
  112MPD2     C 1706   3.146   2.826  11.149 -0.1217  0.9375  0.2942
  112MPD2    C1 1707   3.229   2.759  11.063  0.1783  0.1448 -0.0597
  112MPD2    C2 1708   3.355   2.713  11.110 -0.9119 -0.4625  0.7756
  112MPD2    C3 1709   3.399   2.737  11.245 -0.3215  0.0187  0.4328
  112MPD2    C4 1710   3.306   2.803  11.329 -0.3647  0.4479 -0.0481
  112MPD2    C5 1711   3.184   2.846  11.284  0.3883 -0.4128 -0.3791
  112MPD2     H 1712   3.407   2.649  11.040 -1.4170  0.7595 -0.7134
  112MPD2    H1 1713   3.322   2.818  11.435 -1.1951  1.3062 -0.0456
  112MPD2    H2 1714   3.046   2.860  11.125 -1.0778 -1.5996  0.6436
  112MPD2    H3 1715   3.107   2.875  11.355  1.7428 -1.9919  1.7697
  112MPD2     N 1716   3.514   2.693  11.294  0.3108 -0.3658 -0.2028
  112MPD2    H5 1717   3.526   2.709  11.393  2.5116  0.6072 -0.6208
  112MPD2    N1 1718   3.190   2.725  10.934  0.7811  0.1990  0.2576
  112MPD2    H7 1719   3.252   2.649  10.909 -1.5324 -1.9762  1.0349
  113MPD2     C 1720   2.277   0.832   1.832 -0.6692  0.3637 -0.1705
  113MPD2    C1 1721   2.210   0.925   1.910  0.6978  0.1091 -0.3263
  113MPD2    C2 1722   2.142   1.021   1.844  0.4781  0.3704  0.4413
  113MPD2    C3 1723   2.125   1.020   1.705 -0.1824 -0.2944 -0.3426
  113MPD2    C4 1724   2.179   0.917   1.631 -0.2237  1.1318 -0.3366
  113MPD2    C5 1725   2.260   0.825   1.697 -0.4307  1.0507 -0.2196
  113MPD2     H 1726   2.105   1.100   1.909 -0.2762 -1.4827  2.2417
  113MPD2    H1 1727   2.161   0.908   1.524  0.9567  1.1395 -0.5288
  113MPD2    H2 1728   2.341   0.755   1.874 -0.7043 -1.2053 -2.9896
  113MPD2    H3 1729   2.316   0.744   1.652  1.1123  2.1471 -0.2796
  113MPD2     N 1730   2.035   1.110   1.644  0.1978  0.4287  0.0698
  113MPD2    H5 1731   2.020   1.089   1.546 -0.4767  2.9317 -0.3615
  113MPD2    N1 1732   2.210   0.927   2.050  0.5004 -0.6850 -0.2637
  113MPD2    H7 1733   2.168   1.008   2.094  0.0213  1.1199 -3.9994
  114TCq2    C1 1734   1.959   1.214   1.700  0.3881 -0.2452  0.6271
  114TCq2    O2 1735   1.948   1.245   1.816 -0.2276 -1.0580  0.4101
  114TCq2    C2 1736   1.888   1.301   1.604  0.0588 -0.3907 -0.3071
  114TCq2    C3 1737   1.825   1.407   1.653  0.3758  0.4524 -0.3175
  114TCq2    C4 1738   1.772   1.502   1.563  0.1719 -0.4483  0.1020
  114TCq2    C5 1739   1.762   1.475   1.435 -0.0154  0.1869  0.1497
  114TCq2    C6 1740   1.814   1.357   1.393 -0.8737  0.3736  0.6225
  114TCq2    C7 1741   1.877   1.267   1.472  0.6294 -0.1593 -0.3519
  114TCq2    C8 1742   1.776   1.309   1.262 -0.1328 -0.3949  0.4163
  114TCq2    O4 1743   1.725   1.389   1.186 -0.2312 -0.1102 -0.6812
  114TCq2    C9 1744   1.731   1.621   1.618  0.7189  0.1870 -0.2582
  114TCq2    O5 1745   1.650   1.692   1.555  0.1079 -0.5527  0.1189
  114TCq2    O6 1746   1.757   1.652   1.738 -0.3880  0.2839  0.4479
  114TCq2    H2 1747   1.826   1.443   1.755 -1.0219 -1.6783  0.4452
  114TCq2    H3 1748   1.705   1.540   1.369 -3.3285 -1.6596  1.1994
  114TCq2    H4 1749   1.932   1.186   1.426  0.7212  0.7557 -1.8621
  115TMC2    C1 1750   2.612   3.351   0.160  1.1207 -0.1769  0.4777
  115TMC2    C2 1751   2.675   3.301   0.053  0.1188  0.3348 -0.6064
  115TMC2    C3 1752   2.739   3.385  17.672 -0.0491 -0.1940 -0.0978
  115TMC2    C4 1753   2.604   3.484   0.182  0.0852  0.1518  0.5996
  115TMC2    C5 1754   2.671   3.568   0.095  0.4007 -0.1274 -0.2968
  115TMC2    C6 1755   2.726   3.517  17.678  0.4755 -0.0746  0.8022
  115TMC2     C 1756   2.507   3.267   0.213  0.4881  0.7108  0.6402
  115TMC2     O 1757   2.517   3.146   0.215  0.1371 -0.4996  0.1682
  115TMC2     H 1758   2.660   3.195   0.032  0.7364  0.2868 -0.8052
  115TMC2    H1 1759   2.565   3.521   0.277 -1.2091  1.4352 -0.4329
  115TMC2    H2 1760   2.797   3.575  17.620 -0.3318  0.6531  0.5576
  115TMC2    C7 1761   2.657   3.710   0.115 -0.5295  0.0162 -0.0082
  115TMC2    C8 1762   2.813   3.329  17.569 -0.2843 -0.2197 -0.3456
  115TMC2    O1 1763   2.589   3.748   0.208 -0.3178  0.1785  0.3198
  115TMC2    O2 1764   2.873   3.227  17.592 -0.7609 -0.0533 -0.5465
  115TMC2    O5 1765   2.717   3.316  17.481 -0.7918 -0.4258 -0.2768
  115TMC2    H5 1766   2.660   3.395  17.470  0.8313  0.6209 -1.2680
  116MPD2     C 1767   2.010   3.198   0.273  0.3584  0.2462  0.0400
  116MPD2    C1 1768   2.099   3.127   0.208 -0.3180  0.2689 -0.1285
  116MPD2    C2 1769   2.233   3.171   0.200 -0.5652 -0.7798 -0.1913
  116MPD2    C3 1770   2.267   3.290   0.263  0.8431  0.2565 -0.5969
  116MPD2    C4 1771   2.166   3.363   0.324  0.1375  0.5447 -0.5273
  116MPD2    C5 1772   2.040   3.313   0.334  0.5994  0.7125 -0.2374
  116MPD2     H 1773   2.299   3.114   0.135  0.0825  0.6290 -0.7793
  116MPD2    H1 1774   2.194   3.452   0.378 -2.1307  0.0324  1.5007
  116MPD2    H2 1775   1.909   3.158   0.278  0.4814  0.2885  2.6361
  116MPD2    H3 1776   1.968   3.368   0.394  0.1192  1.9046 -1.9119
  116MPD2     N 1777   2.396   3.342   0.253  0.0506 -0.0161  0.6126
  116MPD2    H5 1778   2.406   3.437   0.287 -2.2621  0.0370  1.1254
  116MPD2    N1 1779   2.050   3.018   0.133  0.0723  0.4000  0.4365
  116MPD2    H7 1780   1.950   3.005   0.144  0.2204 -2.0900 -1.2623
  117TMC2    C1 1781   1.164   0.231  13.856  0.1424 -0.2548  0.1916
  117TMC2    C2 1782   1.220   0.111  13.828  0.0926 -0.3578  0.8511
  117TMC2    C3 1783   1.319   0.123  13.736 -0.2725  0.6714  0.7422
  117TMC2    C4 1784   1.192   0.351  13.790  0.4496  0.0928  0.0535
  117TMC2    C5 1785   1.299   0.348  13.701 -0.6244  0.3642 -0.1076
  117TMC2    C6 1786   1.367   0.233  13.675  0.1438  0.2027  0.0339
  117TMC2     C 1787   1.043   0.217  13.940  0.8678 -0.8440 -0.7854
  117TMC2     O 1788   1.008   0.106  13.975  0.3711  0.1941 -0.2300
  117TMC2     H 1789   1.191   0.015  13.871  1.5136 -1.4063 -0.5740
  117TMC2    H1 1790   1.163   0.447  13.831  1.4715  0.1688  0.6135
  117TMC2    H2 1791   1.439   0.226  13.594  0.7777 -1.0004  0.7036
  117TMC2    C7 1792   1.340   0.452  13.620 -0.6153  0.1654  0.3535
  117TMC2    C8 1793   1.374   4.720  13.697 -0.2754 -0.8735  0.0748
  117TMC2    O1 1794   1.455   0.463  13.578  0.0126 -0.1192 -0.2117
  117TMC2    O2 1795   1.475   4.710  13.632 -0.4800 -0.7303 -0.4439
  117TMC2    O5 1796   1.261   4.640  13.684  0.3693  0.0107 -0.1828
  117TMC2    H5 1797   1.174   4.674  13.713  0.3536 -1.7017  1.7810
  118MPD2     C 1798   1.124   0.741  13.501 -0.2200 -0.2163 -0.7277
  118MPD2    C1 1799   1.232   0.670  13.538 -0.1440 -0.1136  0.6236
  118MPD2    C2 1800   1.354   0.735  13.517  0.2409 -0.2130 -0.2283
  118MPD2    C3 1801   1.363   0.861  13.457 -0.0885 -0.4129 -0.9154
  118MPD2    C4 1802   1.245   0.922  13.420 -0.4480 -0.2373 -0.6488
  118MPD2    C5 1803   1.125   0.865  13.445 -0.5105 -0.0552  1.2513
  118MPD2     H 1804   1.445   0.682  13.540  0.8297  0.9490  0.1082
  118MPD2    H1 1805   1.245   1.019  13.372 -0.4012 -0.2187 -0.6109
  118MPD2    H2 1806   1.028   0.690  13.503 -0.3541  0.0612 -0.1328
  118MPD2    H3 1807   1.028   0.910  13.426  0.4479  0.8251 -1.6276
  118MPD2     N 1808   1.481   0.938  13.446  0.7404 -0.2793  0.3894
  118MPD2    H5 1809   1.478   1.036  13.419  0.7375 -0.4353 -0.1862
  118MPD2    N1 1810   1.227   0.537  13.598 -0.2792  0.5425 -0.4578
  118MPD2    H7 1811   1.139   0.511  13.642  1.5917 -2.7471  1.3175
  119MPD2     C 1812   4.560   1.905  13.601 -0.0183  0.0609 -0.5586
  119MPD2    C1 1813   4.525   1.778  13.588 -0.3839 -0.2936 -1.2346
  119MPD2    C2 1814   4.489   1.742  13.456  0.8099 -0.9717  0.2893
  119MPD2    C3 1815   4.464   1.837  13.358  0.5142  0.3396 -0.3040
  119MPD2    C4 1816   4.508   1.964  13.376  0.1264 -0.6661 -0.4654
  119MPD2    C5 1817   4.550   1.996  13.497 -0.1465 -0.5794 -0.3293
  119MPD2     H 1818   4.473   1.638  13.428  0.4286 -0.1485 -2.5506
  119MPD2    H1 1819   4.501   2.046  13.305  0.6012  0.5290  0.8647
  119MPD2    H2 1820   4.580   1.943  13.700 -0.6816 -2.0081  0.3621
  119MPD2    H3 1821   4.572   2.101  13.515  1.5940 -1.0834  0.4178
  119MPD2     N 1822   4.416   1.793  13.232  0.1343  0.1310  0.0803
  119MPD2    H5 1823   4.397   1.696  13.212  2.0015 -0.6173  1.8394
  119MPD2    N1 1824   4.521   1.683  13.694 -0.1707 -0.0755 -0.2140
  119MPD2    H7 1825   4.529   1.723  13.787  1.1455 -1.0561  0.0751
  120TCq2    C1 1826   4.341   1.882  13.153  0.3145  0.4361  0.5922
  120TCq2    O2 1827   4.314   2.000  13.165  0.1464 -0.1951  0.1107
  120TCq2    C2 1828   4.268   1.812  13.055  0.2740 -0.2124  0.2737
  120TCq2    C3 1829   4.325   1.713  12.985 -0.1778 -0.2014 -0.8158
  120TCq2    C4 1830   4.245   1.616  12.929 -0.5344 -0.4060 -0.1585
  120TCq2    C5 1831   4.112   1.615  12.938 -0.5622  0.2111  0.4298
  120TCq2    C6 1832   4.056   1.718  13.003 -0.8140 -0.0991 -0.0949
  120TCq2    C7 1833   4.129   1.827  13.057  0.1423  0.0435  0.1940
  120TCq2    C8 1834   3.928   1.688  13.047 -0.4171 -0.5489  0.7674
  120TCq2    O4 1835   3.878   1.579  13.027 -0.6867 -0.1825 -0.1629
  120TCq2    C9 1836   4.309   1.509  12.849 -0.6301  0.0870 -0.1096
  120TCq2    O5 1837   4.429   1.521  12.821  0.3466 -0.1503 -0.3361
  120TCq2    O6 1838   4.224   1.449  12.778 -0.5515  0.3207  0.0313
  120TCq2    H2 1839   4.433   1.704  12.976 -0.0291  0.8658 -0.0156
  120TCq2    H3 1840   4.062   1.525  12.905  1.1462 -0.0165 -1.4786
  120TCq2    H4 1841   4.085   1.889  13.134 -0.1972 -0.5807  0.4979
  121TMC2    C1 1842   0.414   3.322  14.228 -0.4570 -0.5815 -0.1110
  121TMC2    C2 1843   0.417   3.185  14.200 -0.5260  0.2929 -0.4082
  121TMC2    C3 1844   0.293   3.125  14.178 -0.0765  0.0101 -0.5223
  121TMC2    C4 1845   0.297   3.400  14.236  0.0184  0.9428  0.5449
  121TMC2    C5 1846   0.179   3.332  14.202 -0.4315  0.3375  0.1614
  121TMC2    C6 1847   0.179   3.199  14.167  0.6942 -0.4784 -0.0090
  121TMC2     C 1848   0.546   3.381  14.257  0.1264 -0.4104 -0.9485
  121TMC2     O 1849   0.563   3.448  14.358 -0.4055  0.5324 -0.3710
  121TMC2     H 1850   0.507   3.126  14.189 -0.1117  0.7897  0.3827
  121TMC2    H1 1851   0.305   3.507  14.252 -0.1263  1.3163 -1.8414
  121TMC2    H2 1852   0.086   3.150  14.138  0.2602  0.5556 -0.3836
  121TMC2    C7 1853   0.052   3.408  14.191  0.5641  0.0666  0.3415
  121TMC2    C8 1854   0.291   3.001  14.106 -1.0393  0.3151  0.4380
  121TMC2    O1 1855   0.069   3.529  14.177 -0.2401  0.4366 -0.0227
  121TMC2    O2 1856   0.213   2.983  14.012  0.0825  0.0184  0.4243
  121TMC2    O5 1857   0.308   2.908  14.201 -0.1333 -0.1926  0.1195
  121TMC2    H5 1858   0.365   2.958  14.262 -1.4858  1.1478  0.2724
  122MPD2     C 1859   0.814   3.503  14.232 -0.4194  0.2840  0.4462
  122MPD2    C1 1860   0.734   3.471  14.125  0.7726  0.0399  0.1661
  122MPD2    C2 1861   0.786   3.495  13.998  0.3715 -0.0895 -0.5617
  122MPD2    C3 1862   0.912   3.543  13.984 -0.3941 -0.3468 -0.0880
  122MPD2    C4 1863   1.002   3.544  14.092  0.2370 -0.2169 -0.3183
  122MPD2    C5 1864   0.948   3.534  14.214 -0.5488 -0.0588  0.3636
  122MPD2     H 1865   0.727   3.468  13.912  0.8484 -1.6292 -0.4099
  122MPD2    H1 1866   1.099   3.593  14.087  0.6930 -0.8684  1.9784
  122MPD2    H2 1867   0.780   3.505  14.335 -1.9710 -3.1560 -0.0247
  122MPD2    H3 1868   1.003   3.542  14.308 -1.4753 -1.1559  0.9960
  122MPD2     N 1869   0.967   3.572  13.861 -0.1354 -0.7833  0.2426
  122MPD2    H5 1870   1.064   3.600  13.847  0.2279 -2.3461 -0.4388
  122MPD2    N1 1871   0.607   3.412  14.136  0.0850 -0.1586  0.0247
  122MPD2    H7 1872   0.549   3.384  14.058 -1.0480  0.2323  0.7372
  123MPD2     C 1873   3.266   1.041  10.004 -0.4662 -0.4392 -0.3017
  123MPD2    C1 1874   3.238   1.140   9.922  0.4654 -1.0818 -0.0011
  123MPD2    C2 1875   3.321   1.254   9.924 -0.3112  0.6013  0.5523
  123MPD2    C3 1876   3.441   1.260   9.996 -0.5874  0.9405  0.4672
  123MPD2    C4 1877   3.471   1.153  10.081 -0.2478 -0.1991 -0.1005
  123MPD2    C5 1878   3.377   1.043  10.077  0.0758  0.2584 -0.5146
  123MPD2     H 1879   3.303   1.344   9.866 -0.7794  0.3999  0.3847
  123MPD2    H1 1880   3.557   1.149  10.146  0.8188  0.6550 -1.4434
  123MPD2    H2 1881   3.209   0.950  10.018  1.2342 -1.5922 -0.8115
  123MPD2    H3 1882   3.395   0.961  10.147  0.6591  2.1304  1.5318
  123MPD2     N 1883   3.521   1.377   9.985  0.5870 -0.6896  0.0521
  123MPD2    H5 1884   3.494   1.445   9.914 -0.6881 -0.6635  0.5606
  123MPD2    N1 1885   3.123   1.118   9.840 -0.4167  0.4483 -0.0513
  123MPD2    H7 1886   3.087   1.024   9.854 -1.7684  1.5119  3.7688
  124TCq2    C1 1887   3.623   1.415  10.070  0.6699  0.5032  0.0985
  124TCq2    O2 1888   3.671   1.353  10.165 -0.6195  0.0655 -0.2657
  124TCq2    C2 1889   3.697   1.529  10.027  0.3926  0.5220 -0.7263
  124TCq2    C3 1890   3.672   1.587   9.903  0.6387 -0.2331  0.2650
  124TCq2    C4 1891   3.773   1.654   9.845 -0.4399 -0.7201 -0.3545
  124TCq2    C5 1892   3.900   1.646   9.892 -0.1271 -0.3267 -0.1462
  124TCq2    C6 1893   3.918   1.577  10.010  1.1592  0.2749  0.6065
  124TCq2    C7 1894   3.820   1.521  10.085 -0.5470  0.1065 -0.5364
  124TCq2    C8 1895   4.053   1.536  10.054 -0.0076 -0.8101  0.5543
  124TCq2    O4 1896   4.067   1.461  10.148 -0.4198  0.2459 -0.1939
  124TCq2    C9 1897   3.753   1.725   9.724  0.6261  0.8563  0.0559
  124TCq2    O5 1898   3.828   1.826   9.706 -0.7563  0.2611  0.0824
  124TCq2    O6 1899   3.644   1.702   9.663 -0.1268 -0.4039 -0.2793
  124TCq2    H2 1900   3.579   1.595   9.848  0.5374  0.4004  0.5199
  124TCq2    H3 1901   3.972   1.696   9.829 -0.2405  3.0229  2.4153
  124TCq2    H4 1902   3.842   1.473  10.179  0.0657 -0.3554 -0.9123
  125TMC2    C1 1903   3.723   4.200   9.648  0.9403  0.0436 -0.2688
  125TMC2    C2 1904   3.752   4.335   9.619 -0.2369  0.1407  0.4354
  125TMC2    C3 1905   3.772   4.354   9.482  0.0055  0.3130  0.3724
  125TMC2    C4 1906   3.706   4.102   9.557  0.2721  0.1635 -0.2900
  125TMC2    C5 1907   3.716   4.130   9.424  0.1674  0.1612 -0.5801
  125TMC2    C6 1908   3.740   4.260   9.382 -0.3313  0.9415 -0.2297
  125TMC2     C 1909   3.682   4.158   9.779 -0.2521 -0.0383  0.1672
  125TMC2     O 1910   3.660   4.037   9.796 -0.5170 -0.0221 -0.4539
  125TMC2     H 1911   3.762   4.409   9.698  0.2005 -2.4796  2.8101
  125TMC2    H1 1912   3.707   3.999   9.590 -3.5127  1.2261  3.1863
  125TMC2    H2 1913   3.729   4.282   9.277  0.2799  0.3625 -0.4104
  125TMC2    C7 1914   3.692   4.041   9.308  1.1560  0.1462 -0.1907
  125TMC2    C8 1915   3.771   4.491   9.441 -0.5219 -0.0252  0.2480
  125TMC2    O1 1916   3.664   4.084   9.197  1.1912 -0.3311  0.3293
  125TMC2    O2 1917   3.716   4.527   9.336  0.3006  0.0055 -0.6706
  125TMC2    O5 1918   3.831   4.570   9.529  0.2015  0.2522  0.6726
  125TMC2    H5 1919   3.877   4.525   9.603 -0.0298 -3.2532 -1.3088
  126MPD1     C 1920   3.583   4.193  10.278 -0.3214 -0.0403 -0.2010
  126MPD1    C1 1921   3.654   4.101  10.207 -0.7737  0.5533 -0.3732
  126MPD1    C2 1922   3.669   4.123  10.067 -0.1105 -0.7342  0.2349
  126MPD1    C3 1923   3.628   4.234  10.008  0.4284  0.1068 -0.1716
  126MPD1    C4 1924   3.565   4.331  10.089  0.6401  0.2842 -0.1084
  126MPD1    C5 1925   3.539   4.309  10.223  0.4589  0.0457 -0.5596
  126MPD1     H 1926   3.735   4.056  10.014  1.6833  0.0583  1.4781
  126MPD1    H1 1927   3.534   4.424  10.044  0.2603  0.4807  0.5534
  126MPD1    H2 1928   3.552   4.167  10.379  1.5927 -0.6034  0.2345
  126MPD1    H3 1929   3.477   4.378  10.280  1.2540 -0.4038  0.8506
  126MPD1     N 1930   3.651   4.261   9.871  0.6490  0.0596  0.6407
  126MPD1    H5 1931   3.638   4.358   9.846 -0.9109 -0.3849 -0.2328
  126MPD1    N1 1932   3.684   3.977  10.268 -0.1263 -0.1154  0.2175
  126MPD1    H6 1933   3.757   3.931  10.213  0.2217 -0.7367  1.2084
  126MPD1    H7 1934   3.710   3.987  10.366 -3.0883  0.9127  0.8989
  127MPD2     C 1935   0.509   2.399   9.217 -0.3344  0.5877  0.3018
  127MPD2    C1 1936   0.593   2.381   9.326 -0.5005  0.1981  0.7142
  127MPD2    C2 1937   0.620   2.487   9.407  0.0664 -0.2395 -0.2500
  127MPD2    C3 1938   0.577   2.614   9.378 -0.2795 -0.3909  0.5127
  127MPD2    C4 1939   0.520   2.634   9.252 -0.1955 -0.0079  1.2236
  127MPD2    C5 1940   0.478   2.527   9.182  0.4596 -0.3637 -0.1702
  127MPD2     H 1941   0.667   2.477   9.504 -1.5374  1.7638  0.7406
  127MPD2    H1 1942   0.495   2.732   9.213  0.6037 -0.4542 -0.3674
  127MPD2    H2 1943   0.479   2.314   9.156 -1.0915  1.6970 -0.8602
  127MPD2    H3 1944   0.410   2.546   9.099  1.5042  1.0952 -0.6768
  127MPD2     N 1945   0.616   2.717   9.465 -0.7310 -0.0493 -0.3136
  127MPD2    H5 1946   0.689   2.703   9.534 -1.6354 -0.7611  0.4929
  127MPD2    N1 1947   0.622   2.245   9.351  0.5863 -0.2771  0.1401
  127MPD2    H7 1948   0.572   2.168   9.310 -0.2685  1.2220 -1.6408
  128TCq2    C1 1949   0.723   2.215   9.440  0.2056  0.3657 -0.5621
  128TCq2    O2 1950   0.819   2.289   9.462  0.2854  0.3766  0.8409
  128TCq2    C2 1951   0.712   2.084   9.503  0.5820 -0.0789 -0.1887
  128TCq2    C3 1952   0.821   2.030   9.561 -0.9813  0.3360  0.1439
  128TCq2    C4 1953   0.797   1.921   9.642  0.6563  0.6425  0.6232
  128TCq2    C5 1954   0.675   1.869   9.664 -0.7044 -0.2303 -0.3860
  128TCq2    C6 1955   0.568   1.916   9.588  0.9160  0.2117 -0.2189
  128TCq2    C7 1956   0.588   2.026   9.512  0.0661  0.4453  0.6983
  128TCq2    C8 1957   0.434   1.865   9.607 -0.9925 -0.0542 -0.1458
  128TCq2    O4 1958   0.335   1.924   9.569  0.1457  0.2288 -0.5972
  128TCq2    C9 1959   0.909   1.885   9.730 -0.6498 -0.9906  0.3029
  128TCq2    O5 1960   1.006   1.967   9.727  0.2644  0.5957  0.0323
  128TCq2    O6 1961   0.880   1.801   9.816  0.0873 -0.0266  0.1417
  128TCq2    H2 1962   0.917   2.082   9.564 -1.5244  1.2957  1.0340
  128TCq2    H3 1963   0.657   1.798   9.744 -0.2182 -0.5583 -0.5638
  128TCq2    H4 1964   0.500   2.073   9.472 -2.2621 -2.2236  2.6997
  129MPD2     C 1965   3.934   2.934   1.057 -0.7293 -0.4966 -0.8042
  129MPD2    C1 1966   4.069   2.956   1.086  0.0211  0.4492  0.0433
  129MPD2    C2 1967   4.131   3.073   1.047 -0.5314  0.1760  0.6991
  129MPD2    C3 1968   4.060   3.172   0.984 -0.4394  0.3181 -0.0971
  129MPD2    C4 1969   3.923   3.150   0.951  0.1468  0.2070  0.0060
  129MPD2    C5 1970   3.867   3.032   0.989 -0.2795  1.0014  0.1731
  129MPD2     H 1971   4.236   3.094   1.065 -0.3083 -0.4723  0.1531
  129MPD2    H1 1972   3.861   3.227   0.906  0.4184 -0.3951 -1.4219
  129MPD2    H2 1973   3.890   2.836   1.066  1.4163 -1.4574 -0.6986
  129MPD2    H3 1974   3.762   3.020   0.965 -0.5577 -0.7465  2.2746
  129MPD2     N 1975   4.124   3.290   0.952  0.4695  0.2224 -0.0945
  129MPD2    H5 1976   4.223   3.281   0.975  0.3259 -0.4231  0.2818
  129MPD2    N1 1977   4.138   2.860   1.161  0.5761  0.0168 -0.2184
  129MPD2    H7 1978   4.239   2.867   1.160  0.5775 -0.3406 -2.4677
  130TCq2    C1 1979   4.083   2.760   1.245  0.3255  0.2689 -0.4243
  130TCq2    O2 1980   3.964   2.732   1.259 -0.2027 -0.3473  0.0750
  130TCq2    C2 1981   4.176   2.680   1.327  0.5297  0.5854  0.3778
  130TCq2    C3 1982   4.292   2.740   1.359 -0.3732  0.2978  0.5346
  130TCq2    C4 1983   4.369   2.678   1.454 -0.2514 -0.4394  0.4933
  130TCq2    C5 1984   4.340   2.565   1.518  0.6374  0.2328  0.6359
  130TCq2    C6 1985   4.216   2.513   1.487 -0.7872  0.5012  0.3107
  130TCq2    C7 1986   4.133   2.566   1.393 -0.0250 -0.0746  0.7016
  130TCq2    C8 1987   4.186   2.385   1.541  0.4545 -0.7305 -0.4391
  130TCq2    O4 1988   4.076   2.344   1.516 -0.2286  0.2048 -0.0520
  130TCq2    C9 1989   4.498   2.743   1.482  0.1696  0.0980  0.3286
  130TCq2    O5 1990   4.532   2.839   1.411 -0.5298 -0.3028  0.3999
  130TCq2    O6 1991   4.577   2.677   1.558 -0.2227  0.7676 -0.1618
  130TCq2    H2 1992   4.331   2.834   1.323 -0.9864 -0.0028 -0.8904
  130TCq2    H3 1993   4.402   2.536   1.602  1.0611  0.4090  0.3850
  130TCq2    H4 1994   4.040   2.520   1.363  0.0389  0.0756  0.2653
  131MPD2     C 1995   2.832   1.732   9.128 -0.1453  0.0011 -0.3815
  131MPD2    C1 1996   2.935   1.728   9.219 -0.2621  0.0483 -0.6841
  131MPD2    C2 1997   2.932   1.619   9.308  0.1885  0.5776 -0.0616
  131MPD2    C3 1998   2.841   1.516   9.308  0.4142 -0.2883  0.5968
  131MPD2    C4 1999   2.743   1.524   9.215 -0.1088  0.7524 -0.3775
  131MPD2    C5 2000   2.731   1.634   9.132 -0.3944  0.1919 -0.0730
  131MPD2     H 2001   3.003   1.620   9.391  0.7485  1.5517 -0.5545
  131MPD2    H1 2002   2.665   1.451   9.200 -1.7431  2.3330  0.5514
  131MPD2    H2 2003   2.840   1.800   9.044 -0.8052  0.1447 -0.3346
  131MPD2    H3 2004   2.662   1.632   9.049 -0.4886 -2.1813  0.0674
  131MPD2     N 2005   2.840   1.414   9.408 -0.4847 -0.0076 -0.2305
  131MPD2    H5 2006   2.909   1.420   9.481 -0.3173 -3.9846 -0.0333
  131MPD2    N1 2007   3.023   1.833   9.224  0.4279 -0.2576 -0.4659
  131MPD2    H7 2008   3.004   1.902   9.152  0.2591  0.8530  0.6481
  132TCq2    C1 2009   3.220   2.271   9.088 -0.1831 -0.7455  0.2670
  132TCq2    O2 2010   3.144   2.242   8.993 -0.4823 -0.6191  0.1736
  132TCq2    C2 2011   3.255   2.170   9.181  0.2099  0.4612  0.2934
  132TCq2    C3 2012   3.358   2.190   9.265  0.7578 -0.2493  0.3222
  132TCq2    C4 2013   3.376   2.108   9.371 -0.4218 -0.8617  0.5826
  132TCq2    C5 2014   3.299   1.997   9.379 -0.2408  1.6416 -0.2014
  132TCq2    C6 2015   3.196   1.977   9.296  0.0191 -0.1105 -0.5326
  132TCq2    C7 2016   3.167   2.060   9.195 -0.0321 -0.5612  0.0485
  132TCq2    C8 2017   3.131   1.851   9.314 -0.0704  0.0480 -0.1287
  132TCq2    O4 2018   3.168   1.776   9.400 -0.3711 -0.4771  0.1138
  132TCq2    C9 2019   3.484   2.145   9.459 -0.1472  0.3914  0.3813
  132TCq2    O5 2020   3.515   2.063   9.553 -0.2149  0.1742 -0.1353
  132TCq2    O6 2021   3.541   2.250   9.435  0.0627  0.3664  0.0058
  132TCq2    H2 2022   3.426   2.275   9.257 -1.0544  1.2933  1.1814
  132TCq2    H3 2023   3.313   1.928   9.462  0.3047  1.7273 -0.2193
  132TCq2    H4 2024   3.082   2.051   9.129  0.1852 -1.3599 -0.1205
  133MPD2     C 2025   2.233   2.513   8.909 -0.4548  0.1760 -1.1904
  133MPD2    C1 2026   2.339   2.476   8.989 -0.3018 -0.1081  0.2594
  133MPD2    C2 2027   2.361   2.340   9.016 -0.1713  0.6763  0.0767
  133MPD2    C3 2028   2.269   2.248   8.971  0.3626 -0.2221 -0.4507
  133MPD2    C4 2029   2.158   2.288   8.899 -0.1506 -0.3931 -0.4973
  133MPD2    C5 2030   2.150   2.416   8.860  0.1485 -0.5282  0.3577
  133MPD2     H 2031   2.453   2.316   9.068 -0.6692  2.0357  1.5643
  133MPD2    H1 2032   2.086   2.215   8.863  3.0567 -2.6041 -2.3952
  133MPD2    H2 2033   2.217   2.614   8.874 -0.4911  0.8220  0.6579
  133MPD2    H3 2034   2.067   2.436   8.794  1.0777 -0.6714 -0.8515
  133MPD2     N 2035   2.289   2.110   8.990  0.1359 -0.3972  0.0885
  133MPD2    H5 2036   2.214   2.049   8.959 -0.0770 -0.7364  1.2906
  133MPD2    N1 2037   2.430   2.579   9.022 -0.0366  0.0816 -0.0577
  133MPD2    H7 2038   2.398   2.674   9.010 -1.2308 -0.4450 -1.0478
  134TCq2    C1 2039   2.541   2.576   9.105  0.1205  0.1227  0.2614
  134TCq2    O2 2040   2.607   2.483   9.143 -0.1114  0.0624  0.4337
  134TCq2    C2 2041   2.593   2.709   9.126 -0.1371 -0.0318  0.1113
  134TCq2    C3 2042   2.583   2.800   9.033 -0.9025 -0.3056  0.6361
  134TCq2    C4 2043   2.633   2.921   9.058 -0.5015 -0.9276 -0.0591
  134TCq2    C5 2044   2.705   2.946   9.164 -0.0675  0.4497 -0.0227
  134TCq2    C6 2045   2.717   2.853   9.261  0.7465 -0.4126  0.4993
  134TCq2    C7 2046   2.657   2.736   9.248 -1.2983 -0.4346  0.0038
  134TCq2    C8 2047   2.761   2.892   9.398  0.0344  0.4149 -0.2420
  134TCq2    O4 2048   2.786   2.800   9.474  0.0080 -0.5415  0.2686
  134TCq2    C9 2049   2.616   3.031   8.966  0.3639 -0.5545 -0.5355
  134TCq2    O5 2050   2.672   3.143   8.995  0.4356 -0.0733 -0.3657
  134TCq2    O6 2051   2.524   3.016   8.877  0.2131  0.0585 -0.2641
  134TCq2    H2 2052   2.533   2.774   8.940  1.0207 -1.5641 -0.0403
  134TCq2    H3 2053   2.748   3.045   9.175 -0.3361  0.4493  1.0569
  134TCq2    H4 2054   2.643   2.665   9.328 -0.3174  0.6728  1.1456
  135MPD2     C 2055   4.446   3.436   9.168 -0.8690 -0.0961 -0.2391
  135MPD2    C1 2056   4.453   3.543   9.256 -0.6070 -0.3664  0.2680
  135MPD2    C2 2057   4.557   3.549   9.351  0.0040  0.2799  0.3041
  135MPD2    C3 2058   4.657   3.454   9.357 -0.2735 -0.4336 -0.9902
  135MPD2    C4 2059   4.652   3.353   9.266  0.1614 -0.0367 -0.6140
  135MPD2    C5 2060   4.544   3.341   9.185 -0.5765 -0.7151 -0.3290
  135MPD2     H 2061   4.562   3.640   9.408 -1.5337  1.6066 -1.6840
  135MPD2    H1 2062   0.004   3.275   9.265 -0.4741 -0.6456 -2.2949
  135MPD2    H2 2063   4.365   3.413   9.100 -1.3497 -0.6492  0.5375
  135MPD2    H3 2064   4.537   3.253   9.123 -0.5518 -0.0331 -1.2926
  135MPD2     N 2065   0.049   3.461   9.441 -0.1457  0.0844 -0.2397
  135MPD2    H5 2066   0.114   3.385   9.427  0.4304  0.3924  0.7628
  135MPD2    N1 2067   4.360   3.652   9.246 -0.1588  0.4129  0.6108
  135MPD2    H7 2068   4.366   3.719   9.323  2.5113  0.9312 -0.0382
  136TCq2    C1 2069   4.287   3.686   9.141  0.2183  0.0388 -0.1938
  136TCq2    O2 2070   4.300   3.645   9.027  0.6609  0.6000  0.3401
  136TCq2    C2 2071   4.217   3.810   9.159 -0.5363 -0.5907 -0.1031
  136TCq2    C3 2072   4.182   3.881   9.043 -0.5095 -0.1617  0.5868
  136TCq2    C4 2073   4.085   3.985   9.053 -1.0450 -0.3363  0.1084
  136TCq2    C5 2074   4.051   4.032   9.177 -0.4011 -0.1514 -0.8935
  136TCq2    C6 2075   4.085   3.966   9.289  0.2118  0.6989 -0.0423
  136TCq2    C7 2076   4.172   3.851   9.281  0.3821 -0.0622 -0.0443
  136TCq2    C8 2077   4.068   4.028   9.422  0.1651  0.1920 -0.1289
  136TCq2    O4 2078   4.033   4.142   9.431 -0.5146 -0.4496  0.2223
  136TCq2    C9 2079   4.042   4.051   8.932 -0.0236 -0.3139  0.5373
  136TCq2    O5 2080   3.993   4.169   8.948  0.5200  0.0162 -0.3549
  136TCq2    O6 2081   4.039   3.977   8.832 -0.2841  0.9885  0.3190
  136TCq2    H2 2082   4.210   3.845   8.945  0.5126 -0.2748  0.9187
  136TCq2    H3 2083   3.980   4.113   9.184  1.2459  1.0749  1.5574
  136TCq2    H4 2084   4.203   3.791   9.366 -1.8996  0.0876  0.9041
  137MPD2     C 2085   0.157   3.036   8.978 -0.3872 -0.7544  0.3400
  137MPD2    C1 2086   0.021   3.055   8.989 -0.1716  0.3407  0.4883
  137MPD2    C2 2087   4.677   3.025   9.109  0.3883 -0.2205 -0.0385
  137MPD2    C3 2088   0.021   3.002   9.221 -0.0768  0.2527 -0.3602
  137MPD2    C4 2089   0.155   2.990   9.215 -0.6096 -0.0869  0.1421
  137MPD2    C5 2090   0.223   3.004   9.094 -0.2043  0.5032 -0.5056
  137MPD2     H 2091   4.570   3.026   9.119  0.3582 -1.0476 -0.2807
  137MPD2    H1 2092   0.219   2.963   9.298  0.7500  2.8049  0.0264
  137MPD2    H2 2093   0.217   3.050   8.888  0.4635  2.2466  1.3561
  137MPD2    H3 2094   0.330   2.985   9.090 -0.2434 -0.4049  2.7651
  137MPD2     N 2095   4.673   2.969   9.346 -0.4214 -0.4797 -0.2268
  137MPD2    H5 2096   4.573   2.957   9.335 -0.6134  0.9625 -0.1179
  137MPD2    N1 2097   4.676   3.094   8.869 -0.1957  0.1932 -0.8347
  137MPD2    H7 2098   0.006   3.141   8.797  1.7830 -0.9004 -0.0789
  138TCq2    C1 2099   4.541   3.104   8.855  0.0891  0.3080 -0.3748
  138TCq2    O2 2100   4.446   3.078   8.925  0.0404  0.2248  0.1812
  138TCq2    C2 2101   4.515   3.158   8.721  0.7243 -0.7335 -0.0010
  138TCq2    C3 2102   4.601   3.153   8.618 -0.8760 -0.2702  0.1611
  138TCq2    C4 2103   4.573   3.203   8.497 -0.2573  0.2178  0.2906
  138TCq2    C5 2104   4.450   3.247   8.476 -0.1120  0.5332 -0.1605
  138TCq2    C6 2105   4.359   3.245   8.579  0.1544 -0.8315  0.5305
  138TCq2    C7 2106   4.388   3.203   8.707 -0.2089 -0.2234 -0.0173
  138TCq2    C8 2107   4.217   3.268   8.548  0.2762  0.4424  0.1886
  138TCq2    O4 2108   4.195   3.315   8.437 -0.0284  0.5561  0.2249
  138TCq2    C9 2109   4.680   3.223   8.407 -0.9299  0.0995  0.3558
  138TCq2    O5 2110   0.073   3.194   8.443 -0.0194 -0.0356  0.0730
  138TCq2    O6 2111   4.647   3.269   8.292 -0.2472 -0.0696 -0.8109
  138TCq2    H2 2112   4.705   3.126   8.631 -0.1134  1.5789 -2.0957
  138TCq2    H3 2113   4.426   3.292   8.381 -0.5133  0.5787 -0.0384
  138TCq2    H4 2114   4.325   3.226   8.792  0.7044  1.9054  0.0913
  139TMC2    C1 2115   0.771   1.135  13.091  0.7518 -0.6396  0.4961
  139TMC2    C2 2116   0.853   1.193  12.997  0.2022  0.5449 -0.1806
  139TMC2    C3 2117   0.802   1.299  12.934 -0.5231  0.0751  0.3578
  139TMC2    C4 2118   0.654   1.191  13.136  0.0649 -0.8103  0.6345
  139TMC2    C5 2119   0.608   1.302  13.063  0.0196  0.5671 -0.1905
  139TMC2    C6 2120   0.679   1.351  12.957  0.0800  0.1392 -0.1089
  139TMC2     C 2121   0.814   1.012  13.148 -0.1554 -0.2386  0.6552
  139TMC2     O 2122   0.894   0.955  13.077 -0.4859  0.5902  0.0671
  139TMC2     H 2123   0.939   1.136  12.962 -0.6938 -0.5753 -0.5510
  139TMC2    H1 2124   0.584   1.150  13.209  0.3413 -1.7652  0.3590
  139TMC2    H2 2125   0.654   1.426  12.883  0.2842  0.2678 -0.0502
  139TMC2    C7 2126   0.493   1.378  13.103 -0.0006  0.7025 -0.2230
  139TMC2    C8 2127   0.885   1.345  12.821 -0.0157 -0.4594 -0.2302
  139TMC2    O1 2128   0.458   1.460  13.022  0.4048  0.2123 -0.7920
  139TMC2    O2 2129   0.974   1.278  12.764 -0.5829 -0.0012  0.3474
  139TMC2    O5 2130   0.906   1.477  12.843 -0.3375 -0.4861  0.2045
  139TMC2    H5 2131   0.854   1.527  12.909  0.0324  1.0173 -0.6316
  140MPD2     C 2132   0.664   0.802  13.416 -0.3973 -0.3201  0.3073
  140MPD2    C1 2133   0.752   0.833  13.312 -1.1556 -0.9027 -0.7138
  140MPD2    C2 2134   0.842   0.743  13.263  0.6469  0.3336 -0.4140
  140MPD2    C3 2135   0.840   0.614  13.315  0.5237  0.1697 -0.2281
  140MPD2    C4 2136   0.755   0.587  13.422 -0.7557  0.2655  0.6255
  140MPD2    C5 2137   0.667   0.680  13.476  0.2245  0.0353  0.3408
  140MPD2     H 2138   0.923   0.771  13.197 -0.2070  1.8809 -0.8003
  140MPD2    H1 2139   0.760   0.493  13.475 -1.3419  0.1273  0.4359
  140MPD2    H2 2140   0.607   0.886  13.455  0.4952 -0.3673  1.7090
  140MPD2    H3 2141   0.613   0.659  13.567 -0.8097  0.5728 -0.1493
  140MPD2     N 2142   0.932   0.519  13.267 -0.0102  0.3833  0.5781
  140MPD2    H5 2143   1.000   0.551  13.199  0.0531 -0.4797  0.2414
  140MPD2    N1 2144   0.746   0.963  13.257 -0.0736 -0.0938 -0.1332
  140MPD2    H7 2145   0.689   1.033  13.304  2.2753  2.0182 -0.4293
  141TCq2    C1 2146   1.361   2.340  14.026 -0.1194 -0.4236  0.0716
  141TCq2    O2 2147   1.312   2.446  13.987  0.0023 -0.4066 -0.1824
  141TCq2    C2 2148   1.423   2.324  14.158 -0.8565 -0.3408  0.0632
  141TCq2    C3 2149   1.464   2.202  14.212  0.3537 -0.1743  0.5457
  141TCq2    C4 2150   1.527   2.204  14.336 -0.3718 -0.5860  0.2645
  141TCq2    C5 2151   1.541   2.322  14.403 -0.0215 -0.1827  0.5970
  141TCq2    C6 2152   1.494   2.438  14.351  0.4209 -0.4589  0.4712
  141TCq2    C7 2153   1.439   2.443  14.227 -0.5394 -0.1802  0.1188
  141TCq2    C8 2154   1.492   2.559  14.430 -0.0660  0.9987 -0.2821
  141TCq2    O4 2155   1.413   2.647  14.399  0.4543 -0.4109  0.3816
  141TCq2    C9 2156   1.583   2.075  14.383 -0.0228 -0.4118  0.6526
  141TCq2    O5 2157   1.580   1.971  14.306 -0.3776 -0.3184  0.2636
  141TCq2    O6 2158   1.634   2.076  14.502  0.1696  0.0897 -0.0153
  141TCq2    H2 2159   1.449   2.107  14.162  0.9580  0.1451 -0.2481
  141TCq2    H3 2160   1.582   2.310  14.503 -2.2481  0.4404  1.5759
  141TCq2    H4 2161   1.404   2.536  14.183  1.3816 -0.0238 -1.0872
  142MPD2     C 2162   4.196   0.652  10.581 -0.5468  0.1120  0.4634
  142MPD2    C1 2163   4.238   0.636  10.445  0.7093  0.4256  1.1402
  142MPD2    C2 2164   4.343   0.710  10.397 -0.0757 -0.4374  0.0378
  142MPD2    C3 2165   4.397   0.809  10.475  0.1328 -0.4105 -0.4461
  142MPD2    C4 2166   4.356   0.816  10.610 -0.0859 -0.5546  0.4154
  142MPD2    C5 2167   4.259   0.737  10.660 -0.1332 -0.3273  0.2557
  142MPD2     H 2168   4.384   0.684  10.300 -0.0869 -0.7758  0.1241
  142MPD2    H1 2169   4.401   0.887  10.678  0.3086  0.1110 -0.5517
  142MPD2    H2 2170   4.105   0.602  10.612  0.6739 -1.5283  1.4273
  142MPD2    H3 2171   4.223   0.749  10.762  0.8531 -1.4619  0.7435
  142MPD2     N 2172   4.495   0.901  10.426  0.1800  0.3767  0.4536
  142MPD2    H5 2173   4.533   0.960  10.500  1.4641 -2.0886  1.7737
  142MPD2    N1 2174   4.159   0.554  10.361 -0.2487  0.1101 -0.3213
  142MPD2    H7 2175   4.076   0.510  10.400 -0.4054  1.1319  0.4618
  143TCq2    C1 2176   4.536   0.914  10.298 -0.7773 -0.4109 -0.5400
  143TCq2    O2 2177   4.494   0.856  10.198 -0.0021  0.2416 -0.1844
  143TCq2    C2 2178   4.639   1.013  10.295  0.4381 -0.0147 -0.0203
  143TCq2    C3 2179   0.018   1.009  10.375 -0.7565 -0.2530  0.1251
  143TCq2    C4 2180   0.093   1.122  10.386 -0.4967 -0.4190 -0.9520
  143TCq2    C5 2181   0.067   1.236  10.321  0.7338 -0.1788  0.0652
  143TCq2    C6 2182   4.686   1.233  10.236  0.5617  0.4202  0.8143
  143TCq2    C7 2183   4.616   1.120  10.218  0.2130 -0.1097 -0.1032
  143TCq2    C8 2184   4.675   1.346  10.150 -0.0978  0.2706 -0.3275
  143TCq2    O4 2185   0.058   1.404  10.114 -0.2892  0.0320  0.4611
  143TCq2    C9 2186   0.199   1.120  10.484 -0.9040 -0.2037 -0.6752
  143TCq2    O5 2187   0.237   1.011  10.534 -0.4245 -0.1273  0.7215
  143TCq2    O6 2188   0.276   1.223  10.490  0.2498  1.0265  0.1611
  143TCq2    H2 2189   0.053   0.920  10.425 -3.3328  0.6808  3.5971
  143TCq2    H3 2190   0.110   1.334  10.342  1.4495  0.0389 -2.4336
  143TCq2    H4 2191   4.535   1.121  10.146 -0.2627  0.0172  0.4379
  144MPD2     C 2192   1.711   0.654   0.848  1.3655  0.1114  0.1592
  144MPD2    C1 2193   1.678   0.522   0.837  0.1036 -0.2762 -0.1903
  144MPD2    C2 2194   1.777   0.426   0.849 -0.6292 -0.1572 -0.0111
  144MPD2    C3 2195   1.907   0.467   0.884  0.4448 -0.1330  0.3593
  144MPD2    C4 2196   1.927   0.600   0.910 -0.6685  0.5123  0.8227
  144MPD2    C5 2197   1.833   0.697   0.882  0.0474 -0.6693 -0.6120
  144MPD2     H 2198   1.751   0.321   0.851  0.4705 -0.4268  0.3799
  144MPD2    H1 2199   2.020   0.643   0.943  0.2341  0.3982 -1.5559
  144MPD2    H2 2200   1.641   0.733   0.820 -0.4984 -1.7854 -0.5323
  144MPD2    H3 2201   1.848   0.803   0.900  0.6812 -0.5671 -1.7779
  144MPD2     N 2202   2.009   0.379   0.917  0.1361 -0.3929 -0.1135
  144MPD2    H5 2203   2.093   0.411   0.965 -0.0761 -0.0858  0.0536
  144MPD2    N1 2204   1.547   0.478   0.805 -0.1647  0.5340 -0.1822
  144MPD2    H7 2205   1.532   0.380   0.786  0.4588  0.7038 -1.5311
  145TCq2    C1 2206   2.017   0.251   0.859 -0.2722 -0.6630 -0.2133
  145TCq2    O2 2207   1.949   0.204   0.767 -0.1441 -0.3506  0.4099
  145TCq2    C2 2208   2.133   0.179   0.911  0.2175 -0.7089 -0.1282
  145TCq2    C3 2209   2.161   0.064   0.841  0.0616 -0.9191 -0.6518
  145TCq2    C4 2210   2.276   4.718   0.872  0.0332  0.2835 -0.4056
  145TCq2    C5 2211   2.339   0.027   0.987 -0.2622 -0.0862 -0.0117
  145TCq2    C6 2212   2.307   0.141   1.055  0.7450 -0.0256 -0.2836
  145TCq2    C7 2213   2.213   0.227   1.010  0.0008 -0.2318 -0.9163
  145TCq2    C8 2214   2.357   0.147   1.196  0.2694  0.2319  0.5334
  145TCq2    O4 2215   2.445   0.075   1.238  0.4952 -0.0464  0.4421
  145TCq2    C9 2216   2.301   4.597   0.801  0.6553 -0.0664 -0.3039
  145TCq2    O5 2217   2.263   4.572   0.687  0.1752  0.1042  0.4508
  145TCq2    O6 2218   2.375   4.521   0.861 -0.2237 -0.0659 -0.7314
  145TCq2    H2 2219   2.107   0.044   0.749  0.6350  3.4945 -1.9438
  145TCq2    H3 2220   2.424   4.693   1.022  0.3807 -0.4196 -2.1053
  145TCq2    H4 2221   2.185   0.321   1.056  0.2179 -1.0815  0.9663
  146TMC2    C1 2222   2.420   3.613  12.877  0.6311 -0.3815 -0.3600
  146TMC2    C2 2223   2.315   3.686  12.833  0.1609 -0.2652 -0.8114
  146TMC2    C3 2224   2.223   3.614  12.771 -0.8800  0.0836  0.0233
  146TMC2    C4 2225   2.425   3.482  12.873 -0.5143 -0.0515  0.3049
  146TMC2    C5 2226   2.323   3.416  12.807 -0.0533  0.3131 -0.0070
  146TMC2    C6 2227   2.217   3.483  12.747 -0.3115 -0.4355  0.2245
  146TMC2     C 2228   2.546   3.691  12.890  0.5128  0.3210  0.4866
  146TMC2     O 2229   2.539   3.813  12.881 -0.0699 -0.8360 -0.3654
  146TMC2     H 2230   2.322   3.793  12.819  2.0169 -0.1509  0.8663
  146TMC2    H1 2231   2.501   3.435  12.934 -2.5389 -1.2833  1.8793
  146TMC2    H2 2232   2.128   3.436  12.707 -0.2263  0.8647 -1.4851
  146TMC2    C7 2233   2.306   3.270  12.824 -0.8253 -0.2418 -0.5983
  146TMC2    C8 2234   2.168   3.697  12.665 -0.0152  0.5177 -0.8549
  146TMC2    O1 2235   2.210   3.226  12.762 -0.0119 -0.0860 -0.5194
  146TMC2    O2 2236   2.217   3.801  12.622 -0.2556 -0.0553 -0.3073
  146TMC2    O5 2237   2.040   3.668  12.659  0.0773  0.0811 -0.1916
  146TMC2    H5 2238   2.008   3.611  12.733 -1.6743 -0.4087 -1.3278
  147MPD2     C 2239   2.401   2.813  13.021 -0.2494  0.1950 -0.2575
  147MPD2    C1 2240   2.519   2.887  13.011 -0.3671 -0.2443 -0.0888
  147MPD2    C2 2241   2.516   3.024  12.989 -0.4613  0.3739  0.3048
  147MPD2    C3 2242   2.401   3.086  12.957 -0.0341  0.3409  0.6029
  147MPD2    C4 2243   2.282   3.019  12.958  0.3570  0.0707 -0.0634
  147MPD2    C5 2244   2.287   2.882  12.993 -0.1380  0.2650 -0.3698
  147MPD2     H 2245   2.605   3.084  12.992 -0.4917  0.5368 -1.6283
  147MPD2    H1 2246   2.187   3.057  12.925 -0.9243 -0.6575  2.7696
  147MPD2    H2 2247   2.384   2.707  13.036 -1.2677  0.1025 -2.0696
  147MPD2    H3 2248   2.192   2.830  12.997  0.3120 -0.2450  3.1072
  147MPD2     N 2249   2.406   3.215  12.898 -0.0366 -0.1234 -0.0097
  147MPD2    H5 2250   2.495   3.263  12.907  0.4832 -0.5609 -2.6707
  147MPD2    N1 2251   2.637   2.819  13.043  0.0093 -0.0177  0.0682
  147MPD2    H7 2252   2.622   2.720  13.059  0.2776  0.0919  0.9758
  148MPD2     C 2253   2.738   2.119  11.029 -0.2339  0.4436 -0.2569
  148MPD2    C1 2254   2.848   2.058  10.979 -0.7702 -0.6182 -0.7927
  148MPD2    C2 2255   2.833   1.986  10.859  0.0526 -0.3628  0.4862
  148MPD2    C3 2256   2.721   1.986  10.782  0.9302  0.3923  0.7189
  148MPD2    C4 2257   2.612   2.045  10.835 -0.9088 -0.0354  0.2501
  148MPD2    C5 2258   2.623   2.107  10.958 -0.0400 -0.2133 -0.5848
  148MPD2     H 2259   2.919   1.930  10.824  0.1784  0.1678 -0.0580
  148MPD2    H1 2260   2.513   2.039  10.790 -0.3048 -1.5644 -0.8352
  148MPD2    H2 2261   2.730   2.165  11.127  1.4488  2.6068 -1.1440
  148MPD2    H3 2262   2.533   2.150  11.000  1.5812  2.3111  0.2667
  148MPD2     N 2263   2.713   1.902  10.658  0.2189 -0.3383  0.6110
  148MPD2    H5 2264   2.627   1.914  10.605  1.3827  2.0350 -0.7678
  148MPD2    N1 2265   2.976   2.057  11.031 -0.1670 -0.2964  0.4549
  148MPD2    H7 2266   3.049   2.016  10.973 -1.3904 -1.8710  0.0146
  149TCq2    C1 2267   3.015   2.103  11.153 -0.0802  0.2753  0.0699
  149TCq2    O2 2268   2.941   2.141  11.242  0.1214  0.3916 -0.8493
  149TCq2    C2 2269   3.146   2.056  11.196  0.1521  0.6415 -0.3496
  149TCq2    C3 2270   3.167   1.986  11.314  0.6036  1.0648  0.0643
  149TCq2    C4 2271   3.273   1.900  11.327 -0.7172 -0.2827  0.0310
  149TCq2    C5 2272   3.344   1.875  11.215  0.3134  0.6734  0.6453
  149TCq2    C6 2273   3.329   1.951  11.100 -0.0789  0.2649  0.4052
  149TCq2    C7 2274   3.233   2.051  11.096  0.8329 -0.1596 -0.0408
  149TCq2    C8 2275   3.402   1.913  10.984 -0.5983 -0.3071  0.6096
  149TCq2    O4 2276   3.435   1.793  10.981 -0.0320 -0.6957 -0.2180
  149TCq2    C9 2277   3.273   1.792  11.426  0.1710 -0.4298  0.0562
  149TCq2    O5 2278   3.204   1.808  11.523 -0.1622  0.8580  0.2888
  149TCq2    O6 2279   3.352   1.696  11.406  0.0611  0.1547 -0.1648
  149TCq2    H2 2280   3.096   2.004  11.393 -0.5355 -0.0755 -0.6983
  149TCq2    H3 2281   3.412   1.791  11.214 -2.5059 -1.5898  1.8565
  149TCq2    H4 2282   3.209   2.113  11.009 -1.5558  0.3146  0.9778
  150MPD2     C 2283   0.648   1.114  11.968 -0.1802  0.4975 -0.7976
  150MPD2    C1 2284   0.593   1.238  11.953  0.3799  0.1467 -1.0130
  150MPD2    C2 2285   0.680   1.341  11.946  0.2194 -0.2226  0.3925
  150MPD2    C3 2286   0.815   1.332  11.960  0.0836  0.4520  0.4394
  150MPD2    C4 2287   0.873   1.205  11.971 -0.5137 -0.1324  0.0078
  150MPD2    C5 2288   0.784   1.102  11.982 -1.0558  0.4211  0.3376
  150MPD2     H 2289   0.648   1.444  11.933 -1.4260 -0.6753  0.7886
  150MPD2    H1 2290   0.980   1.191  11.979 -0.3252  0.4996 -1.4814
  150MPD2    H2 2291   0.589   1.024  11.977  1.8135 -0.8334 -1.1625
  150MPD2    H3 2292   0.819   1.000  11.992 -1.2384  0.3717  0.4624
  150MPD2     N 2293   0.885   1.456  11.968  0.9099  0.2333 -0.4122
  150MPD2    H5 2294   0.822   1.535  11.975 -0.9679 -1.2566 -0.3926
  150MPD2    N1 2295   0.452   1.251  11.924 -0.1480 -0.1379  0.5040
  150MPD2    H7 2296   0.403   1.163  11.923 -0.3121 -0.0557  1.3709
  151TCq2    C1 2297   1.023   1.469  11.988  0.8096 -0.0719 -0.2163
  151TCq2    O2 2298   1.105   1.381  11.999 -0.7212 -0.0663 -0.0831
  151TCq2    C2 2299   1.062   1.609  12.008  0.3753  0.5330 -0.1927
  151TCq2    C3 2300   0.988   1.715  11.973  0.1401 -0.7327  0.2058
  151TCq2    C4 2301   1.007   1.841  12.019 -0.3759 -0.2755 -0.2570
  151TCq2    C5 2302   1.111   1.865  12.103  0.6775  0.0937  0.3452
  151TCq2    C6 2303   1.180   1.750  12.146 -0.9201 -0.4074 -0.0033
  151TCq2    C7 2304   1.167   1.625  12.092 -0.0500 -0.1703  0.1675
  151TCq2    C8 2305   1.297   1.784  12.227  0.2356  0.0750  0.1328
  151TCq2    O4 2306   1.325   1.901  12.244 -0.1551  0.2311  0.2212
  151TCq2    C9 2307   0.918   1.946  11.975  0.3177  0.3842 -0.4060
  151TCq2    O5 2308   0.814   1.916  11.909  0.0029 -0.4313 -0.1771
  151TCq2    O6 2309   0.952   2.066  12.005 -0.5849 -0.1287  0.0864
  151TCq2    H2 2310   0.902   1.708  11.907  0.4504  0.1821 -0.2993
  151TCq2    H3 2311   1.136   1.962  12.143  0.6654  0.5269 -0.6848
  151TCq2    H4 2312   1.229   1.539  12.115 -1.2870 -1.2525 -0.4918
  152MPD2     C 2313   0.148   1.116  12.520 -0.0232 -0.2359 -0.4867
  152MPD2    C1 2314   0.172   1.189  12.405  0.4794 -0.1268 -0.1791
  152MPD2    C2 2315   0.070   1.219  12.317 -0.1557  0.2108 -0.1694
  152MPD2    C3 2316   4.661   1.195  12.355 -0.3211 -0.1370  0.0904
  152MPD2    C4 2317   4.640   1.128  12.472  0.0629 -0.2691  0.0845
  152MPD2    C5 2318   0.017   1.087  12.548 -0.5094 -0.2249 -0.0100
  152MPD2     H 2319   0.086   1.258  12.216 -0.2943 -0.5603 -0.4872
  152MPD2    H1 2320   4.540   1.095  12.501 -0.1327 -0.0193 -0.3040
  152MPD2    H2 2321   0.225   1.065  12.577 -0.4809  0.3034  0.6034
  152MPD2    H3 2322   4.720   1.018  12.629 -0.0076 -1.2342 -0.7277
  152MPD2     N 2323   4.552   1.229  12.269  0.6255 -0.1562 -0.3954
  152MPD2    H5 2324   4.575   1.257  12.174  1.0508  3.1694  0.6932
  152MPD2    N1 2325   0.309   1.221  12.386  0.4557 -0.5258 -0.8628
  152MPD2    H7 2326   0.385   1.189  12.445  0.2744 -1.4915 -1.1495
  153TCq2    C1 2327   0.352   1.292  12.275  0.4317  0.3495 -0.3963
  153TCq2    O2 2328   0.295   1.367  12.195  0.1967  0.1032  0.5881
  153TCq2    C2 2329   0.490   1.287  12.276 -0.1091  0.0195 -0.6730
  153TCq2    C3 2330   0.547   1.172  12.303  0.6582  0.3426 -0.1161
  153TCq2    C4 2331   0.682   1.153  12.307  0.1978 -0.8673  0.6024
  153TCq2    C5 2332   0.756   1.266  12.282 -0.7962  0.5432 -0.7310
  153TCq2    C6 2333   0.694   1.391  12.259  0.3957 -0.2431  0.0424
  153TCq2    C7 2334   0.558   1.404  12.260  0.0624  0.2357 -0.0810
  153TCq2    C8 2335   0.771   1.507  12.274  0.2895  0.0689  0.1282
  153TCq2    O4 2336   0.732   1.607  12.210 -0.2567  0.0564 -0.0184
  153TCq2    C9 2337   0.745   1.027  12.335  0.9060  0.0348 -0.5349
  153TCq2    O5 2338   0.658   0.942  12.381  1.0275  0.0283  0.2194
  153TCq2    O6 2339   0.869   1.029  12.348 -0.1460 -0.1027 -0.0857
  153TCq2    H2 2340   0.486   1.082  12.310  0.2373  0.4086 -2.7940
  153TCq2    H3 2341   0.864   1.256  12.287 -0.9732 -2.5505 -2.6921
  153TCq2    H4 2342   0.515   1.501  12.235  1.6617  0.6722 -1.1722
  154MPD2     C 2343   2.169   0.948   1.122  0.1654 -0.1278 -0.8594
  154MPD2    C1 2344   2.254   0.937   1.234  0.2537  0.2935  0.7687
  154MPD2    C2 2345   2.260   1.057   1.306  0.2089 -0.4320  0.3562
  154MPD2    C3 2346   2.192   1.173   1.272 -0.4630 -0.3207  0.0254
  154MPD2    C4 2347   2.115   1.167   1.157  0.4485  0.2728  0.0804
  154MPD2    C5 2348   2.105   1.059   1.083  0.1885  0.1888 -0.0900
  154MPD2     H 2349   2.337   1.067   1.381 -0.1802  0.6171  0.6186
  154MPD2    H1 2350   2.056   1.248   1.115  2.1396  0.9658 -0.9728
  154MPD2    H2 2351   2.172   0.869   1.048 -1.9004 -0.1935 -0.8587
  154MPD2    H3 2352   2.044   1.067   0.993  1.2174 -0.0612 -0.8048
  154MPD2     N 2353   2.196   1.286   1.362  0.3633  0.3691  0.0872
  154MPD2    H5 2354   2.267   1.283   1.435 -0.0256  0.0148  0.4484
  154MPD2    N1 2355   2.321   0.813   1.257 -0.2032  0.6085  0.5264
  154MPD2    H7 2356   2.287   0.733   1.204  0.6842 -0.1274  1.0585
  155TCq2    C1 2357   2.418   0.791   1.360  0.6544  0.5052 -0.0977
  155TCq2    O2 2358   2.469   0.872   1.437  0.1495  0.4435  0.5804
  155TCq2    C2 2359   2.468   0.653   1.354  0.4454  0.6359  0.1216
  155TCq2    C3 2360   2.538   0.605   1.463  1.0743 -0.4181 -0.0897
  155TCq2    C4 2361   2.633   0.506   1.447 -0.3156 -0.6108  0.1119
  155TCq2    C5 2362   2.639   0.435   1.324 -0.1496  0.0583  0.2826
  155TCq2    C6 2363   2.582   0.499   1.217  0.5199  0.0384  0.5282
  155TCq2    C7 2364   2.498   0.605   1.226 -0.1829 -0.7363 -0.0682
  155TCq2    C8 2365   2.566   0.413   1.102  0.0735 -0.0383 -0.4760
  155TCq2    O4 2366   2.467   0.437   1.029 -0.4230 -0.6674  0.5191
  155TCq2    C9 2367   2.715   0.449   1.547  0.0261 -0.2285 -0.3175
  155TCq2    O5 2368   2.807   0.373   1.510  0.8811  0.2287 -0.3539
  155TCq2    O6 2369   2.695   0.471   1.670 -0.1653 -0.5346  0.2017
  155TCq2    H2 2370   2.531   0.652   1.561  0.7459 -1.9762  0.6309
  155TCq2    H3 2371   2.705   0.350   1.320  0.4604  0.5714 -0.4078
  155TCq2    H4 2372   2.450   0.648   1.139  2.6881  0.6987 -0.9468
  156MPD2     C 2373   1.196   3.565  11.484  0.3267  0.0249 -0.4109
  156MPD2    C1 2374   1.064   3.593  11.474 -0.6533 -0.5313  0.6720
  156MPD2    C2 2375   1.006   3.660  11.576  0.4385 -0.2131  0.0538
  156MPD2    C3 2376   1.082   3.699  11.685  0.0026 -0.2397  0.3821
  156MPD2    C4 2377   1.208   3.652  11.701 -0.3441  0.1405 -0.6729
  156MPD2    C5 2378   1.266   3.574  11.605  0.2630  0.7270  0.1350
  156MPD2     H 2379   0.900   3.682  11.572  0.6766  0.7026 -0.9813
  156MPD2    H1 2380   1.263   3.672  11.793 -0.3462 -1.9275 -0.2307
  156MPD2    H2 2381   1.253   3.538  11.395  0.4543 -0.3018 -0.2289
  156MPD2    H3 2382   1.370   3.544  11.615 -0.0337 -1.3952 -3.3066
  156MPD2     N 2383   1.009   3.762  11.788 -0.0635  0.0545  0.5664
  156MPD2    H5 2384   0.931   3.819  11.755  0.2302 -1.0563 -2.0708
  156MPD2    N1 2385   1.003   3.580  11.349 -0.2747  0.2929 -0.1646
  156MPD2    H7 2386   1.062   3.559  11.269  0.1425 -0.8067  0.4358
  157TCq2    C1 2387   0.870   3.596  11.317  0.2878 -0.2087  0.1289
  157TCq2    O2 2388   0.778   3.624  11.394 -0.3910 -0.0545  0.2522
  157TCq2    C2 2389   0.842   3.611  11.171  0.5737 -0.7310  0.2796
  157TCq2    C3 2390   0.951   3.605  11.081  0.4995 -0.0341 -0.5159
  157TCq2    C4 2391   0.924   3.629  10.951 -0.0856  0.0076 -0.3191
  157TCq2    C5 2392   0.803   3.679  10.909 -0.8817  0.2383  0.0634
  157TCq2    C6 2393   0.709   3.707  11.005  0.7217 -0.3085  0.0560
  157TCq2    C7 2394   0.724   3.661  11.136 -0.2000 -0.5392 -0.3883
  157TCq2    C8 2395   0.596   3.799  10.991 -0.0304 -0.3966 -0.1475
  157TCq2    O4 2396   0.608   3.897  10.915 -0.5343 -0.0950  0.2679
  157TCq2    C9 2397   1.031   3.602  10.848  0.1508  0.0929 -0.3241
  157TCq2    O5 2398   1.038   3.689  10.756 -0.4357 -0.0835 -0.6802
  157TCq2    O6 2399   1.135   3.549  10.898  0.0370 -0.1304 -0.5807
  157TCq2    H2 2400   1.044   3.564  11.117 -0.4853 -1.2600  0.6106
  157TCq2    H3 2401   0.787   3.713  10.808 -0.7745 -0.8970 -0.3265
  157TCq2    H4 2402   0.665   3.707  11.214 -0.5878 -0.4495 -0.7300
  158TMC2    C1 2403   1.194   1.566  13.379 -0.3695  0.0640  0.9919
  158TMC2    C2 2404   1.190   1.448  13.310  0.2779  0.2889  1.1934
  158TMC2    C3 2405   1.134   1.450  13.188  0.0659 -0.0906 -0.1485
  158TMC2    C4 2406   1.160   1.689  13.332  0.5580 -0.3033  0.6924
  158TMC2    C5 2407   1.111   1.678  13.205 -0.1431  0.5429 -0.4707
  158TMC2    C6 2408   1.108   1.568  13.128 -1.1418  0.6965  0.2444
  158TMC2     C 2409   1.263   1.550  13.505 -0.2715 -0.0629  0.3480
  158TMC2     O 2410   1.322   1.442  13.527 -0.3766  0.3492  0.1095
  158TMC2     H 2411   1.218   1.354  13.356 -1.8773 -1.1284 -0.4006
  158TMC2    H1 2412   1.173   1.781  13.388 -0.5472 -0.6249  1.4716
  158TMC2    H2 2413   1.072   1.571  13.026  1.5509  0.6894 -0.7076
  158TMC2    C7 2414   1.052   1.798  13.142  0.0839  0.7316 -0.0445
  158TMC2    C8 2415   1.155   1.337  13.100  0.1783  0.1578  0.4826
  158TMC2    O1 2416   1.072   1.815  13.022  0.0207  0.3730  0.3413
  158TMC2    O2 2417   1.175   1.355  12.980  0.8320 -0.4935 -0.0653
  158TMC2    O5 2418   1.138   1.218  13.159  0.1352 -0.1244  0.8351
  158TMC2    H5 2419   1.088   1.226  13.243  0.4095  1.6707  0.8152
  159MPD2     C 2420   1.354   1.732  13.962 -0.3479 -0.2097 -0.0721
  159MPD2    C1 2421   1.264   1.817  13.905  1.0065 -0.5034  0.3137
  159MPD2    C2 2422   1.233   1.794  13.778 -0.3600  0.6496 -0.3994
  159MPD2    C3 2423   1.285   1.682  13.712  0.7045  0.5327 -0.6287
  159MPD2    C4 2424   1.387   1.601  13.769 -0.2636  0.3506  0.0980
  159MPD2    C5 2425   1.415   1.631  13.897 -0.2526  0.4154  0.3417
  159MPD2     H 2426   1.162   1.854  13.723 -0.0526  0.2399 -1.2417
  159MPD2    H1 2427   1.445   1.528  13.713 -1.7472  0.2514 -1.3124
  159MPD2    H2 2428   1.403   1.752  14.057 -0.9367  2.1349 -0.2777
  159MPD2    H3 2429   1.488   1.570  13.950 -0.5726 -0.8385 -0.6665
  159MPD2     N 2430   1.236   1.660  13.583  0.2646 -0.4594 -0.5565
  159MPD2    H5 2431   1.171   1.732  13.554 -0.6562 -1.5837 -1.2923
  159MPD2    N1 2432   1.216   1.919  13.995  0.1000 -0.2938 -0.3236
  159MPD2    H7 2433   1.268   1.927  14.082 -1.2063 -1.2777  0.5419
  160TMC2    C1 2434   0.639   0.488   1.123  0.2096  0.5538 -0.6762
  160TMC2    C2 2435   0.743   0.402   1.096 -0.2180 -0.8784 -0.2455
  160TMC2    C3 2436   0.862   0.451   1.054 -0.8348 -0.3611  0.4629
  160TMC2    C4 2437   0.641   0.614   1.081 -0.6390  0.2947  0.5840
  160TMC2    C5 2438   0.755   0.664   1.033 -0.4908 -0.3666  0.3594
  160TMC2    C6 2439   0.870   0.585   1.029 -0.4371 -0.2913  0.0208
  160TMC2     C 2440   0.518   0.429   1.180  0.2850  0.8278 -0.1994
  160TMC2     O 2441   0.523   0.306   1.183 -0.3070 -0.1457 -0.2626
  160TMC2     H 2442   0.739   0.299   1.129 -1.4774  0.2406  3.1745
  160TMC2    H1 2443   0.552   0.667   1.049 -0.2584  0.7128  0.2244
  160TMC2    H2 2444   0.962   0.621   0.983 -0.5399 -0.4857 -0.3405
  160TMC2    C7 2445   0.760   0.803   0.987  0.3553 -0.1571 -0.1238
  160TMC2    C8 2446   0.968   0.357   1.015 -0.5745  0.4583 -0.0811
  160TMC2    O1 2447   0.652   0.858   0.967 -0.4491 -0.0365  0.1483
  160TMC2    O2 2448   1.078   0.411   0.999  0.4805  0.3237  0.2355
  160TMC2    O5 2449   0.911   0.243   0.964  0.2468 -0.1441  0.4518
  160TMC2    H5 2450   0.975   0.179   0.927  0.6152  1.4334 -1.6984
  161MPD2     C 2451   0.237   0.354   1.227 -0.4018  0.6748 -0.5127
  161MPD2    C1 2452   0.284   0.485   1.214 -0.1489  0.3074  0.5887
  161MPD2    C2 2453   0.194   0.592   1.232 -0.6059 -0.1809 -0.7172
  161MPD2    C3 2454   0.058   0.572   1.249  0.3324  0.2014 -1.1442
  161MPD2    C4 2455   0.010   0.444   1.247  0.1281  0.0719 -0.0213
  161MPD2    C5 2456   0.097   0.338   1.230 -0.4763 -0.1154 -0.5350
  161MPD2     H 2457   0.226   0.696   1.230 -1.1197  0.0185  0.9010
  161MPD2    H1 2458   4.629   0.416   1.248  0.2106 -0.2791 -0.9496
  161MPD2    H2 2459   0.297   0.265   1.210  1.0287  1.6870 -0.8350
  161MPD2    H3 2460   0.051   0.241   1.246  1.7889 -1.0771  0.0346
  161MPD2     N 2461   4.682   0.667   1.271  0.3048 -0.4413 -0.0254
  161MPD2    H5 2462   4.591   0.622   1.279  0.7515 -1.5391 -1.1457
  161MPD2    N1 2463   0.414   0.519   1.196  0.1962 -0.0729  0.3779
  161MPD2    H7 2464   0.433   0.613   1.163 -1.7181 -0.0606 -0.7178
  162TMC2    C1 2465   3.034   2.110   1.276  0.1623  0.6273 -0.6051
  162TMC2    C2 2466   2.896   2.095   1.292 -0.5979  0.5350 -0.1233
  162TMC2    C3 2467   2.855   2.026   1.403  0.6485 -0.3540  0.1961
  162TMC2    C4 2468   3.125   2.042   1.349 -0.3079  0.3837 -0.3129
  162TMC2    C5 2469   3.078   1.964   1.446 -0.0598  0.6554 -0.1490
  162TMC2    C6 2470   2.944   1.947   1.472 -0.2833 -0.1507 -0.2601
  162TMC2     C 2471   3.083   2.182   1.152 -0.8190 -0.3332  0.2039
  162TMC2     O 2472   2.991   2.220   1.075 -0.2832  0.0956 -0.7022
  162TMC2     H 2473   2.822   2.161   1.247  0.7923  1.8614 -0.4456
  162TMC2    H1 2474   3.233   2.044   1.339 -0.2357 -1.4629 -0.0081
  162TMC2    H2 2475   2.915   1.878   1.549 -0.9181 -1.7536 -1.9458
  162TMC2    C7 2476   3.175   1.905   1.535 -0.3827 -0.8291 -0.0556
  162TMC2    C8 2477   2.720   1.988   1.413 -0.0171  0.1618 -0.0642
  162TMC2    O1 2478   3.284   1.952   1.543 -0.0566  0.2134  0.3356
  162TMC2    O2 2479   2.646   1.990   1.313 -0.5694 -0.3921 -1.0324
  162TMC2    O5 2480   2.686   1.977   1.541 -0.6620 -0.4747 -0.6261
  162TMC2    H5 2481   2.759   1.992   1.605 -0.2254  1.5464 -1.5963
  163MPD2     C 2482   3.455   2.313   0.830 -0.7059  0.8754  0.4106
  163MPD2    C1 2483   3.323   2.298   0.796 -0.2778 -0.3009  0.2764
  163MPD2    C2 2484   3.239   2.249   0.896  0.2316  0.5006 -0.8398
  163MPD2    C3 2485   3.289   2.208   1.019 -0.1836 -0.5573 -0.2080
  163MPD2    C4 2486   3.426   2.224   1.046  0.1052 -0.3709  0.5201
  163MPD2    C5 2487   3.511   2.277   0.953 -0.3979 -0.2657  0.1414
  163MPD2     H 2488   3.134   2.251   0.868  0.3269  0.8814 -1.1681
  163MPD2    H1 2489   3.465   2.198   1.144 -1.0150  1.5906  1.4743
  163MPD2    H2 2490   3.525   2.340   0.751  0.1164  0.8755  1.1386
  163MPD2    H3 2491   3.616   2.296   0.968 -0.9449  0.5621  2.8488
  163MPD2     N 2492   3.217   2.167   1.132  0.0044  0.1539 -0.0403
  163MPD2    H5 2493   3.276   2.137   1.209 -1.6136 -1.8734  0.4249
  163MPD2    N1 2494   3.276   2.329   0.672 -0.3827  0.0615  0.4954
  163MPD2    H7 2495   3.177   2.310   0.663 -0.5587  0.5296  1.4531
  164TCq2    C1 2496   3.820   1.898  11.070 -0.3299  0.8981 -0.3597
  164TCq2    O2 2497   3.752   1.869  11.169 -0.2325 -0.2389 -0.2788
  164TCq2    C2 2498   3.812   2.034  11.020  0.0603 -0.2097  0.9407
  164TCq2    C3 2499   3.867   2.078  10.899  0.0513 -0.0319  0.0068
  164TCq2    C4 2500   3.830   2.196  10.839  0.7872  0.2906 -0.1057
  164TCq2    C5 2501   3.743   2.276  10.905  0.0555 -0.1000  0.2490
  164TCq2    C6 2502   3.681   2.226  11.019  0.8104  0.5936  0.8076
  164TCq2    C7 2503   3.714   2.104  11.078  0.9874 -0.0196 -0.2254
  164TCq2    C8 2504   3.549   2.272  11.050  0.3681  0.2580 -0.1111
  164TCq2    O4 2505   3.470   2.310  10.963 -0.1048  0.2148 -0.0913
  164TCq2    C9 2506   3.890   2.231  10.715 -0.5545 -0.4126  0.5500
  164TCq2    O5 2507   3.972   2.150  10.658 -0.2462  0.0171 -0.1195
  164TCq2    O6 2508   3.859   2.333  10.655  0.0022  0.0676 -0.2853
  164TCq2    H2 2509   3.944   2.022  10.847  1.6511  1.8838  0.3069
  164TCq2    H3 2510   3.698   2.367  10.867  0.6621  0.3402  0.5963
  164TCq2    H4 2511   3.674   2.080  11.176 -0.4483 -2.5105 -1.4224
  165MPD2     C 2512   0.444   4.301   1.697 -0.0169  0.1443  0.4615
  165MPD2    C1 2513   0.322   4.348   1.695 -0.2151 -0.3038 -0.0003
  165MPD2    C2 2514   0.310   4.487   1.692  0.7391 -0.2921 -0.4453
  165MPD2    C3 2515   0.426   4.568   1.680  0.6879  0.7255 -0.1273
  165MPD2    C4 2516   0.550   4.513   1.658  0.8976 -0.5534  0.0353
  165MPD2    C5 2517   0.556   4.381   1.677  0.8888  0.4374  0.3337
  165MPD2     H 2518   0.209   4.525   1.694  1.7299  2.2841  0.7643
  165MPD2    H1 2519   0.635   4.577   1.639  1.1129 -0.7967  0.1759
  165MPD2    H2 2520   0.453   4.193   1.707  0.7486  0.1692  0.0617
  165MPD2    H3 2521   0.645   4.319   1.683  0.6284 -0.0070 -0.3319
  165MPD2     N 2522   0.416   4.710   1.670  0.0294 -0.4467 -0.2542
  165MPD2    H5 2523   0.499   0.036   1.638 -0.7653  2.1892  1.7603
  165MPD2    N1 2524   0.217   4.257   1.719 -0.2995  0.2158  0.8839
  165MPD2    H7 2525   0.239   4.162   1.747  0.3680  0.4281  1.0752
  166TCq2    C1 2526   0.305   0.053   1.708 -0.2315  0.7065 -0.7689
  166TCq2    O2 2527   0.217   0.013   1.785 -0.7533  0.4820  0.1777
  166TCq2    C2 2528   0.329   0.200   1.706 -0.6100 -0.3698  0.2873
  166TCq2    C3 2529   0.250   0.275   1.794  0.1630 -0.2680 -0.5684
  166TCq2    C4 2530   0.285   0.405   1.799 -0.3353 -0.3261  0.2330
  166TCq2    C5 2531   0.386   0.460   1.718  0.4449 -0.4285  0.1221
  166TCq2    C6 2532   0.441   0.381   1.621 -0.6342  0.2167  0.0392
  166TCq2    C7 2533   0.428   0.248   1.622 -0.4693 -0.4614  0.7909
  166TCq2    C8 2534   0.556   0.433   1.548 -0.0410  0.4249 -0.2441
  166TCq2    O4 2535   0.644   0.351   1.516 -0.7255 -1.2364 -0.4209
  166TCq2    C9 2536   0.230   0.492   1.895  0.1178  0.3639  0.1641
  166TCq2    O5 2537   0.278   0.606   1.901 -0.1437  0.0819  0.2633
  166TCq2    O6 2538   0.122   0.453   1.950  0.8162  0.2260 -0.1238
  166TCq2    H2 2539   0.167   0.237   1.852  3.2857 -2.4662  2.4837
  166TCq2    H3 2540   0.400   0.568   1.722 -1.1933 -0.1577 -1.5928
  166TCq2    H4 2541   0.472   0.190   1.542  0.7673  2.3702 -0.6095
  167TMC2    C1 2542   3.480   1.857  12.934  0.5257  0.1232  0.5547
  167TMC2    C2 2543   3.353   1.861  12.977  0.2909 -0.1206 -0.1166
  167TMC2    C3 2544   3.306   1.745  13.036  0.7377 -0.5246  0.2472
  167TMC2    C4 2545   3.553   1.743  12.946  0.7823 -0.2522 -0.3699
  167TMC2    C5 2546   3.501   1.634  13.007  0.0634  0.1015 -0.1690
  167TMC2    C6 2547   3.373   1.631  13.046  0.0092 -0.6506 -0.8637
  167TMC2     C 2548   3.549   1.957  12.864  0.3283  0.4645 -0.4441
  167TMC2     O 2549   3.661   1.936  12.819  0.1852  0.7124  0.2791
  167TMC2     H 2550   3.290   1.949  12.982 -0.6087 -0.7686  0.0147
  167TMC2    H1 2551   3.658   1.739  12.916  1.5998  3.8648  2.0029
  167TMC2    H2 2552   3.332   1.538  13.084 -0.8120 -0.2662 -0.8112
  167TMC2    C7 2553   3.540   1.504  12.960 -0.6975  0.8184  0.0699
  167TMC2    C8 2554   3.164   1.740  13.059 -0.8402 -0.5170  0.0704
  167TMC2    O1 2555   3.550   1.422  13.048  0.0161  0.7465  0.4021
  167TMC2    O2 2556   3.094   1.803  12.979  0.2129 -0.0220  0.3537
  167TMC2    O5 2557   3.118   1.634  13.123 -0.5230  0.4486 -0.7072
  167TMC2    H5 2558   3.179   1.607  13.195 -1.3259  0.4778 -0.0305
  168MPD2     C 2559   3.632   2.223  12.791  0.5411  0.1566  0.3401
  168MPD2    C1 2560   3.500   2.184  12.787  0.1131  0.0747 -0.1422
  168MPD2    C2 2561   3.407   2.272  12.739 -0.3075  0.4947  0.2187
  168MPD2    C3 2562   3.446   2.387  12.677  0.0167  0.2702  0.0224
  168MPD2    C4 2563   3.579   2.428  12.695  0.2763 -0.0542  0.0519
  168MPD2    C5 2564   3.668   2.343  12.750 -0.6697  0.7738 -0.0548
  168MPD2     H 2565   3.306   2.235  12.731 -0.4314  1.0410 -0.7204
  168MPD2    H1 2566   3.618   2.520  12.654 -0.7302  1.6417  2.9488
  168MPD2    H2 2567   3.708   2.156  12.829 -1.3089 -0.7289  2.5364
  168MPD2    H3 2568   3.766   2.385  12.770 -0.9600  1.7803 -0.7630
  168MPD2     N 2569   3.359   2.469  12.597  0.0373  0.0117  0.7764
  168MPD2    H5 2570   3.396   2.555  12.556  0.1449 -0.5971 -0.4040
  168MPD2    N1 2571   3.463   2.060  12.834  0.5925  0.1314 -0.0612
  168MPD2    H7 2572   3.366   2.031  12.831  0.2220  1.3256  0.2824
  169MPD1     C 2573   4.252   1.730   9.268 -0.2335  0.4624  1.1725
  169MPD1    C1 2574   4.286   1.601   9.309 -0.4093 -0.0700 -0.1011
  169MPD1    C2 2575   4.418   1.572   9.327 -0.0231 -0.1391 -0.0676
  169MPD1    C3 2576   4.518   1.661   9.305 -0.8355  0.2770 -0.2941
  169MPD1    C4 2577   4.483   1.787   9.279  0.3418  0.4283  0.1080
  169MPD1    C5 2578   4.349   1.824   9.249  0.6272 -0.5435  0.2729
  169MPD1     H 2579   4.444   1.473   9.361  0.6567 -0.8737 -2.6671
  169MPD1    H1 2580   4.557   1.866   9.274  1.5005 -0.6019  0.7810
  169MPD1    H2 2581   4.149   1.763   9.255  0.4095  2.3949  0.8785
  169MPD1    H3 2582   4.330   1.930   9.234  1.6052 -0.6833 -1.8617
  169MPD1     N 2583   4.651   1.619   9.330  0.2786 -0.1392  0.1659
  169MPD1    H5 2584   4.670   1.520   9.337 -1.2498 -0.2247  3.1565
  169MPD1    N1 2585   4.176   1.523   9.343  0.8107  0.4768  0.1991
  169MPD1    H6 2586   4.190   1.432   9.387  0.4817  0.7326  0.8334
  169MPD1    H7 2587   4.088   1.574   9.354  0.7637  0.4108  0.1317
  170MPD1     C 2588   3.978   3.779  12.935 -0.3595  0.2193  0.0051
  170MPD1    C1 2589   3.938   3.748  13.069  0.1952  0.4009 -0.0064
  170MPD1    C2 2590   3.939   3.852  13.161 -0.4479 -0.6599  0.0014
  170MPD1    C3 2591   3.967   3.984  13.120  0.5659  0.3966 -0.2987
  170MPD1    C4 2592   4.001   4.011  12.986 -0.1514  0.2845  0.7677
  170MPD1    C5 2593   4.012   3.904  12.896 -0.4892 -0.0309  0.0751
  170MPD1     H 2594   3.913   3.831  13.264  0.7114 -0.3805  0.3490
  170MPD1    H1 2595   4.013   4.112  12.950 -0.6911  0.1593  0.2543
  170MPD1    H2 2596   3.997   3.697  12.866  0.4596  0.0274  0.4678
  170MPD1    H3 2597   4.042   3.936  12.797 -0.0116  0.0154  0.2332
  170MPD1     N 2598   3.962   4.079  13.224  0.8281 -0.3832 -0.5266
  170MPD1    H5 2599   3.936   4.033  13.311  1.8959  0.1827  0.0789
  170MPD1    N1 2600   3.917   3.613  13.101 -0.1321  0.1710 -0.0790
  170MPD1    H6 2601   3.880   3.559  13.023 -0.0583  1.8725 -1.2877
  170MPD1    H7 2602   3.849   3.600  13.175  0.0655  0.6724  0.1887
  171MPD1     C 2603   3.396   1.055  15.434  0.1788  0.1073 -0.1457
  171MPD1    C1 2604   3.396   0.969  15.326  0.1730 -0.3519  0.0928
  171MPD1    C2 2605   3.315   0.857  15.345 -0.0559  0.1362 -0.4507
  171MPD1    C3 2606   3.226   0.835  15.447  0.9479  0.3043  0.5031
  171MPD1    C4 2607   3.217   0.937  15.541 -0.6086  0.2907  0.1083
  171MPD1    C5 2608   3.314   1.040  15.539  0.2387 -0.2000 -0.3537
  171MPD1     H 2609   3.309   0.784  15.265  1.4943 -1.6212  1.0431
  171MPD1    H1 2610   3.144   0.935  15.622 -0.0643  2.6508  0.6559
  171MPD1    H2 2611   3.454   1.147  15.426 -2.7749  1.9618 -0.2374
  171MPD1    H3 2612   3.320   1.115  15.617  1.4461 -0.9283  0.2412
  171MPD1     N 2613   3.146   0.723  15.463  0.1755  0.4040 -0.3104
  171MPD1    H5 2614   3.066   0.741  15.524  0.7383  0.0705  0.5209
  171MPD1    N1 2615   3.485   0.990  15.213 -0.2766 -0.3490 -0.2727
  171MPD1    H6 2616   3.502   1.088  15.193 -1.4832 -0.0213  0.2884
  171MPD1    H7 2617   3.462   0.937  15.129  0.4634 -1.2323  0.0827
  172MPD1     C 2618   1.512   4.694   0.490 -0.3558 -0.7671  0.7206
  172MPD1    C1 2619   1.496   0.084   0.423  1.2839 -0.1781  0.6447
  172MPD1    C2 2620   1.579   0.184   0.447  0.1375  0.3166  0.4855
  172MPD1    C3 2621   1.682   0.180   0.537 -0.1298  0.0665  0.8234
  172MPD1    C4 2622   1.707   0.063   0.599 -0.1467 -0.6404 -0.2859
  172MPD1    C5 2623   1.615   4.684   0.582  0.1359 -0.2020  0.5716
  172MPD1     H 2624   1.565   0.278   0.396  0.3500  0.8565  1.4165
  172MPD1    H1 2625   1.781   0.051   0.678  0.0196 -2.8671 -0.7848
  172MPD1    H2 2626   1.443   4.611   0.482 -0.4587 -0.4808 -1.2410
  172MPD1    H3 2627   1.635   4.587   0.625 -0.0583 -0.8334 -0.7673
  172MPD1     N 2628   1.781   0.281   0.553  0.2878 -0.0602  0.6511
  172MPD1    H5 2629   1.868   0.264   0.603  2.2221  0.0487 -2.6296
  172MPD1    N1 2630   1.378   0.103   0.351 -0.7407 -0.3957 -0.2753
  172MPD1    H6 2631   1.335   0.018   0.316  1.4593 -0.7982 -1.9340
  172MPD1    H7 2632   1.401   0.164   0.273  0.7541 -0.6305 -0.0129
  173MPD1     C 2633   3.264   0.164  14.012 -0.0675 -0.7989 -0.0730
  173MPD1    C1 2634   3.147   0.210  14.068 -0.6039  0.0231 -0.0745
  173MPD1    C2 2635   3.076   0.117  14.141 -0.4199 -0.2191  0.0141
  173MPD1    C3 2636   3.111   4.708  14.150  1.0230 -0.7848  0.3679
  173MPD1    C4 2637   3.224   4.661  14.086  0.7700  1.0491  0.4617
  173MPD1    C5 2638   3.296   0.031  14.019  0.3486  0.0889  0.0138
  173MPD1     H 2639   2.985   0.150  14.191 -1.0432  0.5196 -1.5780
  173MPD1    H1 2640   3.253   4.557  14.086 -1.7992  0.3265 -1.5081
  173MPD1    H2 2641   3.344   0.228  13.975 -1.7863  1.6170  0.3708
  173MPD1    H3 2642   3.389   4.723  13.973  1.0741 -0.3502  1.7908
  173MPD1     N 2643   3.039   4.635  14.242  0.0748  0.2001  0.8933
  173MPD1    H5 2644   2.964   4.684  14.292 -1.8421 -2.3695  0.5311
  173MPD1    N1 2645   3.118   0.345  14.078 -0.3169 -0.3003  0.1347
  173MPD1    H6 2646   3.143   0.403  13.999 -1.7797  2.0809  1.4240
  173MPD1    H7 2647   3.024   0.361  14.114 -0.3881  1.0735 -0.6662
  174MPD1     C 2648   2.756   3.650  14.244 -0.9405 -0.5363 -0.1526
  174MPD1    C1 2649   2.731   3.696  14.368  0.2062 -0.0086  0.1291
  174MPD1    C2 2650   2.760   3.828  14.395 -0.3338 -0.5619  0.2992
  174MPD1    C3 2651   2.792   3.916  14.289 -0.0233 -0.1445  0.4929
  174MPD1    C4 2652   2.811   3.868  14.163  0.5204 -0.2890 -0.5057
  174MPD1    C5 2653   2.796   3.732  14.142  0.4770  0.0900  0.2811
  174MPD1     H 2654   2.755   3.870  14.495  1.4640 -0.7209  0.4545
  174MPD1    H1 2655   2.850   3.930  14.083  1.0295 -0.7346 -0.6029
  174MPD1    H2 2656   2.750   3.542  14.246  0.1221 -0.5815  1.1559
  174MPD1    H3 2657   2.810   3.681  14.047  1.3531  0.9740 -0.0659
  174MPD1     N 2658   2.799   4.055  14.303 -0.2241  0.0675 -0.1515
  174MPD1    H5 2659   2.818   4.109  14.219 -0.4129  0.0855 -0.1820
  174MPD1    N1 2660   2.703   3.607  14.468 -0.2372  0.1943  0.1490
  174MPD1    H6 2661   2.656   3.519  14.449  3.2920 -1.2351 -1.9131
  174MPD1    H7 2662   2.669   3.659  14.549  1.6329 -0.1520  1.1453
  175MPD1     C 2663   1.449   0.965  15.421  0.7334  0.0423  0.8404
  175MPD1    C1 2664   1.328   0.963  15.500  0.1113 -0.8852 -0.1653
  175MPD1    C2 2665   1.339   0.985  15.636 -0.4501  0.3354  0.2727
  175MPD1    C3 2666   1.459   1.037  15.688  0.2161  0.1874 -0.1021
  175MPD1    C4 2667   1.576   1.043  15.614  0.7101 -0.5169  0.1676
  175MPD1    C5 2668   1.570   1.007  15.482  0.8714  0.6836  0.2240
  175MPD1     H 2669   1.259   0.977  15.708 -0.2571  0.7463  0.5359
  175MPD1    H1 2670   1.672   1.079  15.650  1.1909 -0.6067 -1.0103
  175MPD1    H2 2671   1.445   0.939  15.316  1.2695  0.8909  0.6080
  175MPD1    H3 2672   1.659   1.015  15.421  0.3102  0.1304 -0.6730
  175MPD1     N 2673   1.469   1.063  15.826  0.2145 -0.0379 -0.3928
  175MPD1    H5 2674   1.563   1.084  15.857  0.9790 -3.9109 -0.0293
  175MPD1    N1 2675   1.207   0.919  15.450 -0.3574  1.0041 -0.6938
  175MPD1    H6 2676   1.197   0.959  15.357 -1.0632 -1.0815 -1.5169
  175MPD1    H7 2677   1.136   0.951  15.516 -1.0528 -0.9746 -0.5124
  176MPD1     C 2678   3.602   1.784  17.502  0.2750  0.3468  0.0975
  176MPD1    C1 2679   3.544   1.850  17.614  0.4886 -0.0087  0.4008
  176MPD1    C2 2680   3.467   1.962  17.590  0.0537  0.5626  0.3255
  176MPD1    C3 2681   3.444   2.006  17.463 -0.0242 -0.0360 -0.5606
  176MPD1    C4 2682   3.475   1.929  17.356 -0.3672 -0.3770 -0.4213
  176MPD1    C5 2683   3.561   1.824  17.379 -0.4907 -0.2565 -0.1022
  176MPD1     H 2684   3.439   2.030  17.670 -2.3687  1.3408 -1.1780
  176MPD1    H1 2685   3.462   1.962  17.254  2.2022 -3.7412 -1.8541
  176MPD1    H2 2686   3.673   1.702  17.506 -1.5003 -1.1261  1.7784
  176MPD1    H3 2687   3.599   1.773  17.291 -0.8889 -2.3540  0.9482
  176MPD1     N 2688   3.381   2.135  17.447  0.6118 -0.0362  0.2235
  176MPD1    H5 2689   3.361   2.183  17.534 -1.9886  2.0326 -1.5387
  176MPD1    N1 2690   3.586   1.808   0.045 -0.4438  0.2165  0.2276
  176MPD1    H6 2691   3.512   1.805   0.114  0.5715  0.1215  1.3088
  176MPD1    H7 2692   3.631   1.717   0.041 -0.4280  0.2851 -1.3280
  177MPD1     C 2693   1.365   2.996   9.794 -0.9364  0.1497 -0.2163
  177MPD1    C1 2694   1.318   2.876   9.759  0.4884  0.1400 -0.3893
  177MPD1    C2 2695   1.176   2.858   9.742 -0.2204 -0.0887  0.6474
  177MPD1    C3 2696   1.088   2.966   9.776  0.3288 -0.0424 -0.0632
  177MPD1    C4 2697   1.142   3.088   9.817  0.1672 -0.2142 -0.8083
  177MPD1    C5 2698   1.282   3.100   9.828 -0.2383  0.4452 -0.5065
  177MPD1     H 2699   1.137   2.763   9.706  1.0011  0.1707 -1.4039
  177MPD1    H1 2700   1.086   3.177   9.839 -0.0057 -0.2316 -1.1888
  177MPD1    H2 2701   1.471   3.015   9.797 -0.9017 -0.1836  0.7984
  177MPD1    H3 2702   1.316   3.196   9.864  2.6668 -0.4956 -0.7614
  177MPD1     N 2703   0.953   2.950   9.740  0.3245  0.8993  0.5042
  177MPD1    H5 2704   0.925   2.866   9.691 -0.7660  1.6209 -0.0981
  177MPD1    N1 2705   1.408   2.764   9.767  0.5317 -0.4466  0.3008
  177MPD1    H6 2706   1.390   2.690   9.700 -0.1387  0.8425 -0.9495
  177MPD1    H7 2707   1.500   2.794   9.735  0.2270  0.2630  0.0857
  178MPD1     C 2708   4.058   3.487   0.505  0.5597 -0.3123  0.1720
  178MPD1    C1 2709   4.052   3.368   0.440 -0.3698  0.9496  0.2240
  178MPD1    C2 2710   4.124   3.358   0.325 -0.1600  0.2478  0.2757
  178MPD1    C3 2711   4.176   3.474   0.262  0.4104  0.5505  0.1799
  178MPD1    C4 2712   4.171   3.598   0.324  0.3370 -0.3035  0.2223
  178MPD1    C5 2713   4.119   3.599   0.450  0.3529 -0.2891 -0.0859
  178MPD1     H 2714   4.133   3.267   0.268 -2.8701 -0.3957  0.8711
  178MPD1    H1 2715   4.222   3.686   0.286  0.9622 -0.2384  1.1961
  178MPD1    H2 2716   3.998   3.506   0.593  0.8525 -4.4928  1.2623
  178MPD1    H3 2717   4.104   3.693   0.501  1.2897 -0.3343  0.2726
  178MPD1     N 2718   4.249   3.466   0.142  0.0813  0.4415 -0.5475
  178MPD1    H5 2719   4.305   3.546   0.115  0.6522  0.4334  0.6242
  178MPD1    N1 2720   4.002   3.254   0.510  0.0647  0.8022  0.2007
  178MPD1    H6 2721   3.980   3.179   0.446  1.8730  0.2861  0.2032
  178MPD1    H7 2722   3.926   3.265   0.578  1.2454  0.7840  1.5241
  179MPD1     C 2723   3.631   2.124  15.241 -0.1067  0.2096  0.0277
  179MPD1    C1 2724   3.750   2.068  15.284 -0.5643  0.0662 -0.3044
  179MPD1    C2 2725   3.750   1.961  15.368 -0.1055  1.1389 -0.5433
  179MPD1    C3 2726   3.636   1.915  15.427  0.0946 -0.9367  0.7469
  179MPD1    C4 2727   3.520   1.988  15.401 -0.1729 -0.4238 -0.3780
  179MPD1    C5 2728   3.523   2.082  15.298  0.7295  0.8631 -0.2478
  179MPD1     H 2729   3.841   1.906  15.392 -0.4228  1.1293  0.6649
  179MPD1    H1 2730   3.427   1.964  15.450  1.0869 -1.9578  1.2728
  179MPD1    H2 2731   3.621   2.200  15.164 -0.2698  1.3216  1.1379
  179MPD1    H3 2732   3.427   2.122  15.267  0.3368 -0.0286 -0.1870
  179MPD1     N 2733   3.623   1.798  15.504  0.5121  0.3208 -0.7044
  179MPD1    H5 2734   3.528   1.773  15.527  0.3504  0.1612 -1.5509
  179MPD1    N1 2735   3.856   2.095  15.212 -0.1353 -0.6924 -0.3816
  179MPD1    H6 2736   3.864   2.189  15.174  1.4398 -0.4594  0.5150
  179MPD1    H7 2737   3.942   2.074  15.262 -2.0231 -1.4980  2.5433
  180MPD1     C 2738   3.164   3.748  14.517 -0.3834  0.1249  0.1604
  180MPD1    C1 2739   3.226   3.685  14.627  0.1679 -0.5251  0.0517
  180MPD1    C2 2740   3.230   3.547  14.635  0.0548 -0.0396 -0.4086
  180MPD1    C3 2741   3.160   3.461  14.546 -0.0576  0.2797 -0.0857
  180MPD1    C4 2742   3.093   3.528  14.440 -0.6516  0.3964  0.2455
  180MPD1    C5 2743   3.092   3.666  14.432  0.5430 -0.1683 -1.1857
  180MPD1     H 2744   3.279   3.507  14.723  0.1263 -0.2153 -0.5269
  180MPD1    H1 2745   3.029   3.470  14.375  0.2439  0.4062 -0.6349
  180MPD1    H2 2746   3.159   3.856  14.520  0.0376  0.1347  0.5393
  180MPD1    H3 2747   3.041   3.717  14.351  0.2824  0.2566 -0.7527
  180MPD1     N 2748   3.163   3.319  14.563  0.1962 -0.5519 -0.6536
  180MPD1    H5 2749   3.232   3.288  14.632 -1.0523 -0.2673  0.7149
  180MPD1    N1 2750   3.302   3.757  14.721 -0.0807  0.2122 -0.5761
  180MPD1    H6 2751   3.246   3.836  14.753  1.0877  1.5046 -1.7048
  180MPD1    H7 2752   3.316   3.698  14.803 -0.2323  1.2768  0.2142
  181MPD1     C 2753   4.526   4.142  10.362  0.5357  0.5229  0.0611
  181MPD1    C1 2754   4.594   4.079  10.261  0.2506  0.2828  0.0866
  181MPD1    C2 2755   4.705   4.144  10.208  0.2760 -0.4628  0.6694
  181MPD1    C3 2756   0.034   4.256  10.268  0.5884 -0.5309 -0.5095
  181MPD1    C4 2757   4.679   4.324  10.368 -0.1032  0.6794  0.4200
  181MPD1    C5 2758   4.571   4.259  10.416  0.3170  0.1712  0.0713
  181MPD1     H 2759   0.031   4.094  10.126  4.8050  1.6900  2.1376
  181MPD1    H1 2760   4.712   4.416  10.415  2.2291  0.4577 -0.7617
  181MPD1    H2 2761   4.429   4.112  10.398  0.2336  1.2610 -0.1383
  181MPD1    H3 2762   4.520   4.308  10.499 -2.3438  0.1425 -1.5623
  181MPD1     N 2763   0.164   4.310  10.239 -0.0432 -0.9644  0.0963
  181MPD1    H5 2764   0.175   4.407  10.265  0.2703 -1.0830  0.4201
  181MPD1    N1 2765   4.533   3.972  10.202  0.1062 -0.3185 -0.2520
  181MPD1    H6 2766   4.595   3.903  10.160  0.3188 -0.2502 -0.0460
  181MPD1    H7 2767   4.470   3.931  10.270  2.7698 -0.7339  1.9752
  182MPD1     C 2768   1.783   3.614   1.432 -0.1774 -0.0676  0.9039
  182MPD1    C1 2769   1.655   3.633   1.477 -0.6004  0.0576 -0.4400
  182MPD1    C2 2770   1.572   3.723   1.410  0.0245  0.4419 -0.0331
  182MPD1    C3 2771   1.625   3.814   1.320 -0.2902 -0.0122  0.2935
  182MPD1    C4 2772   1.761   3.812   1.296 -1.2490  0.2779  0.0905
  182MPD1    C5 2773   1.839   3.713   1.353 -0.3490  0.1173  0.7156
  182MPD1     H 2774   1.467   3.721   1.436 -0.3074 -1.2210 -1.5239
  182MPD1    H1 2775   1.804   3.878   1.222 -1.0530 -0.8255 -0.7750
  182MPD1    H2 2776   1.854   3.543   1.473  0.2899  0.0166  0.2569
  182MPD1    H3 2777   1.945   3.708   1.333 -0.5287  3.0553 -1.0663
  182MPD1     N 2778   1.533   3.902   1.246  0.6339 -0.2497 -0.2668
  182MPD1    H5 2779   1.571   3.941   1.160  0.0234 -2.2388 -1.4449
  182MPD1    N1 2780   1.603   3.521   1.549 -0.1648 -0.4536  0.0706
  182MPD1    H6 2781   1.671   3.468   1.603 -2.0812 -0.9613  1.9920
  182MPD1    H7 2782   1.520   3.546   1.604  0.2220 -1.4625  1.1215
  183MPD1     C 2783   2.352   0.131   9.390 -0.1774 -0.6867 -0.1455
  183MPD1    C1 2784   2.302   0.226   9.466  0.4530 -0.2645  0.7382
  183MPD1    C2 2785   2.175   0.205   9.518 -0.3160  0.7175 -0.5858
  183MPD1    C3 2786   2.108   0.085   9.514  0.0857 -0.2375  0.0446
  183MPD1    C4 2787   2.164   4.710   9.440  0.5751  0.6226 -0.2178
  183MPD1    C5 2788   2.286   0.010   9.386  0.5414 -0.0230  0.6020
  183MPD1     H 2789   2.132   0.283   9.579  0.0178  0.5301 -0.1097
  183MPD1    H1 2790   2.114   4.615   9.426 -0.1894  0.6002  2.5929
  183MPD1    H2 2791   2.444   0.142   9.334  1.6961  1.1784  3.2911
  183MPD1    H3 2792   2.327   4.658   9.320 -1.0542 -1.3005  1.0870
  183MPD1     N 2793   1.989   0.079   9.583 -0.2583  0.4967  0.1625
  183MPD1    H5 2794   1.956   0.156   9.640  1.0249  0.8441  0.4238
  183MPD1    N1 2795   2.363   0.351   9.464  0.4899 -0.3623  0.1898
  183MPD1    H6 2796   2.465   0.345   9.458  0.2348 -1.8935 -2.5413
  183MPD1    H7 2797   2.326   0.394   9.549  2.8237  1.9644  0.0282
  184MPD1     C 2798   1.009   1.703  10.540  0.7446 -0.1084  0.0494
  184MPD1    C1 2799   0.867   1.704  10.536  0.3116 -0.3760  0.2176
  184MPD1    C2 2800   0.803   1.810  10.476  0.3640 -0.3645 -0.3620
  184MPD1    C3 2801   0.874   1.899  10.398 -0.3297 -0.2994 -0.3928
  184MPD1    C4 2802   1.009   1.898  10.404 -0.0951 -0.0754  0.2480
  184MPD1    C5 2803   1.076   1.797  10.463  0.1560  0.2601 -0.0712
  184MPD1     H 2804   0.695   1.820  10.481  0.3229 -1.5396  1.0001
  184MPD1    H1 2805   1.056   1.974  10.343 -0.8439  1.0432  1.0569
  184MPD1    H2 2806   1.064   1.631  10.599  0.4017  0.6748  1.3219
  184MPD1    H3 2807   1.183   1.812  10.461  0.3802 -1.3797  0.1568
  184MPD1     N 2808   0.817   1.996  10.314  0.7796  0.8798  0.0885
  184MPD1    H5 2809   0.875   2.040  10.243 -0.1097  1.8681 -0.0327
  184MPD1    N1 2810   0.782   1.625  10.619  0.0381 -0.2531 -0.3304
  184MPD1    H6 2811   0.819   1.531  10.621  1.3678  0.2567 -1.6759
  184MPD1    H7 2812   0.685   1.619  10.589  0.6013 -1.1313 -1.9468
  185MPD1     C 2813   4.535   2.144  10.200  0.2635 -0.6302 -0.3155
  185MPD1    C1 2814   4.595   2.226  10.105 -0.5721  0.2423 -0.5083
  185MPD1    C2 2815   0.010   2.248  10.107  0.6810 -0.6653  0.1017
  185MPD1    C3 2816   0.085   2.166  10.192 -0.7021  0.2425  0.2598
  185MPD1    C4 2817   0.022   2.086  10.286  0.2257  0.0850 -0.0679
  185MPD1    C5 2818   4.607   2.071  10.291  0.0537 -0.9515 -0.5660
  185MPD1     H 2819   0.064   2.308  10.035 -0.7204 -0.5614 -0.8694
  185MPD1    H1 2820   0.077   2.025  10.356 -1.3765  1.1615  2.1072
  185MPD1    H2 2821   4.428   2.127  10.206  0.1448  0.5536  1.0485
  185MPD1    H3 2822   4.562   1.996  10.354  1.3622 -0.6813  0.6852
  185MPD1     N 2823   0.232   2.172  10.188 -0.8019  0.3535 -0.1241
  185MPD1    H5 2824   0.281   2.107  10.248 -0.4040  2.4887  1.8711
  185MPD1    N1 2825   4.517   2.313  10.025  0.5335 -0.1148 -0.6635
  185MPD1    H6 2826   4.442   2.265   9.976  0.6789  0.8240 -1.7921
  185MPD1    H7 2827   4.578   2.348   9.952  0.2958 -0.9056 -1.2377
  186MPD1     C 2828   4.423   1.224  16.022 -0.5080 -0.4868 -0.3558
  186MPD1    C1 2829   4.457   1.325  15.943 -1.3340 -0.4340 -0.0009
  186MPD1    C2 2830   4.448   1.452  15.993 -1.1202  0.5308  0.9933
  186MPD1    C3 2831   4.389   1.482  16.113 -0.4206  0.2914 -0.1980
  186MPD1    C4 2832   4.343   1.377  16.186 -0.2622 -0.3854 -0.2653
  186MPD1    C5 2833   4.370   1.247  16.141  0.3296 -0.4291 -0.1235
  186MPD1     H 2834   4.475   1.533  15.925  1.5630 -0.4311  0.9356
  186MPD1    H1 2835   4.304   1.384  16.287 -1.0296 -1.8413 -0.4594
  186MPD1    H2 2836   4.440   1.120  15.997 -3.9162 -1.3186  0.8120
  186MPD1    H3 2837   4.355   1.168  16.213 -0.4576  0.5983  0.8473
  186MPD1     N 2838   4.386   1.604  16.173 -0.8121 -0.0884 -0.5097
  186MPD1    H5 2839   4.339   1.620  16.262  0.1721  2.0987 -0.3985
  186MPD1    N1 2840   4.525   1.300  15.829 -0.5849  0.2731 -0.4149
  186MPD1    H6 2841   4.496   1.209  15.795 -0.5652 -0.5322  1.7202
  186MPD1    H7 2842   4.505   1.374  15.761 -3.1851 -0.1240 -0.0747
  187MPD1     C 2843   3.255   3.236   0.559 -0.7161  0.0898  0.3755
  187MPD1    C1 2844   3.261   3.372   0.550  0.4951 -0.3483 -0.6021
  187MPD1    C2 2845   3.274   3.427   0.428 -0.2298  0.0334 -0.1256
  187MPD1    C3 2846   3.308   3.350   0.318  0.1747 -0.8402 -0.3721
  187MPD1    C4 2847   3.312   3.211   0.331  0.2201  0.2913  0.3369
  187MPD1    C5 2848   3.273   3.161   0.450  0.6373 -0.4769 -0.5967
  187MPD1     H 2849   3.259   3.534   0.419  1.0133  0.4450  2.6843
  187MPD1    H1 2850   3.335   3.147   0.246 -0.1693  0.6846 -0.0598
  187MPD1    H2 2851   3.233   3.187   0.653 -0.1192 -1.0019 -0.0498
  187MPD1    H3 2852   3.270   3.053   0.462  0.5281 -0.3990  0.0422
  187MPD1     N 2853   3.341   3.408   0.190  0.0249 -0.8163  0.7504
  187MPD1    H5 2854   3.351   3.340   0.115 -0.8960  0.3796 -0.4464
  187MPD1    N1 2855   3.229   3.452   0.659 -0.1840 -0.2814  0.0875
  187MPD1    H6 2856   3.311   3.513   0.662  1.0838 -2.1070  3.1707
  187MPD1    H7 2857   3.218   3.417   0.754  0.6401 -0.6677  0.0398
  188MPD1     C 2858   2.332   3.662   9.515  0.5011 -0.1734 -0.7244
  188MPD1    C1 2859   2.309   3.626   9.651 -0.0230  0.0921 -0.2888
  188MPD1    C2 2860   2.329   3.492   9.689  0.1067 -0.3634  0.7774
  188MPD1    C3 2861   2.364   3.397   9.594  0.5726  0.4841 -0.1526
  188MPD1    C4 2862   2.363   3.432   9.460  0.6843  0.5158  0.7379
  188MPD1    C5 2863   2.346   3.560   9.424  0.5980 -0.8278 -0.2744
  188MPD1     H 2864   2.318   3.461   9.792 -0.0783  0.7503  1.0956
  188MPD1    H1 2865   2.392   3.364   9.381  0.3246 -0.0205  1.0684
  188MPD1    H2 2866   2.323   3.765   9.482  2.2771 -0.2098 -1.3595
  188MPD1    H3 2867   2.346   3.583   9.318  0.0749  2.5849  0.4858
  188MPD1     N 2868   2.409   3.266   9.627  0.1700 -0.0992  0.1793
  188MPD1    H5 2869   2.410   3.187   9.564  0.8986  1.4323 -1.7042
  188MPD1    N1 2870   2.277   3.724   9.746  0.0631 -0.5589 -1.1979
  188MPD1    H6 2871   2.277   3.821   9.716 -1.0013  0.1681  1.1564
  188MPD1    H7 2872   2.314   3.708   9.839 -0.9716  2.1215 -0.3284
  189MPD1     C 2873   0.039   4.008   0.679  0.0659  1.2942  0.5761
  189MPD1    C1 2874   4.699   3.938   0.583  0.1357  0.1289  0.0964
  189MPD1    C2 2875   4.670   3.999   0.464  0.8000  0.0787  0.6015
  189MPD1    C3 2876   4.695   4.135   0.445  0.1997 -0.5522 -0.2575
  189MPD1    C4 2877   0.022   4.205   0.554  0.3704 -0.0877 -0.4235
  189MPD1    C5 2878   0.062   4.139   0.669  0.3538  0.5654 -0.0791
  189MPD1     H 2879   4.638   3.935   0.383  1.6375  0.1283  0.2288
  189MPD1    H1 2880   0.059   4.306   0.542  1.2122 -0.2612  0.7626
  189MPD1    H2 2881   0.069   3.972   0.777  0.0096  0.4837  0.2950
  189MPD1    H3 2882   0.120   4.197   0.740  1.5855  0.0957 -0.7062
  189MPD1     N 2883   4.658   4.195   0.325  0.8447 -0.0193  0.0545
  189MPD1    H5 2884   4.617   4.135   0.254  1.2078  0.1823 -0.3285
  189MPD1    N1 2885   4.680   3.800   0.595  0.2025  0.4153  0.2492
  189MPD1    H6 2886   4.669   3.781   0.695  0.9128  1.8310  0.5864
  189MPD1    H7 2887   4.592   3.777   0.549  1.3284 -1.2306 -1.1139
  190MPD1     C 2888   3.468   3.447  15.311  0.5765 -0.2460  0.5474
  190MPD1    C1 2889   3.440   3.345  15.405 -0.2662 -0.1895 -0.3916
  190MPD1    C2 2890   3.540   3.308  15.496 -0.4445  0.8050 -0.4976
  190MPD1    C3 2891   3.657   3.375  15.497  0.2672 -0.0833  0.5976
  190MPD1    C4 2892   3.686   3.466  15.394 -0.1809  0.0858 -1.1704
  190MPD1    C5 2893   3.589   3.504  15.292  1.0089  0.1053  0.5291
  190MPD1     H 2894   3.505   3.242  15.574  0.7357 -1.0421 -1.5383
  190MPD1    H1 2895   3.788   3.504  15.389  0.3105 -0.9989  0.4523
  190MPD1    H2 2896   3.386   3.480  15.249  1.1853  2.0297  0.9474
  190MPD1    H3 2897   3.613   3.576  15.215 -0.4752  1.7985  1.6494
  190MPD1     N 2898   3.755   3.349  15.595 -0.1092 -0.6625  0.0321
  190MPD1    H5 2899   3.833   3.414  15.592  1.4453 -2.5940 -1.5959
  190MPD1    N1 2900   3.309   3.295  15.411 -0.6957  0.4028  0.0845
  190MPD1    H6 2901   3.277   3.280  15.315 -0.0508  1.7458 -0.3433
  190MPD1    H7 2902   3.303   3.207  15.462  1.3507 -0.2418 -0.8061
  191MPD1     C 2903   3.446   0.195  12.879 -0.5595 -0.3606 -0.3327
  191MPD1    C1 2904   3.379   0.265  12.783 -0.0151 -0.0629  0.6745
  191MPD1    C2 2905   3.423   0.261  12.655 -0.0456  0.6302  0.0680
  191MPD1    C3 2906   3.530   0.181  12.621 -0.1952 -0.3477 -0.1098
  191MPD1    C4 2907   3.603   0.112  12.718 -0.4797 -0.1609  0.4095
  191MPD1    C5 2908   3.558   0.117  12.849  0.2057 -0.3788  0.5876
  191MPD1     H 2909   3.375   0.326  12.582  0.9278 -0.0360 -1.1542
  191MPD1    H1 2910   3.687   0.045  12.702 -1.1173 -0.6800 -0.8261
  191MPD1    H2 2911   3.413   0.189  12.982 -1.9298 -1.2742 -0.8302
  191MPD1    H3 2912   3.606   0.067  12.932  0.9747 -0.5462  0.0438
  191MPD1     N 2913   3.574   0.175  12.485 -0.2014 -0.4681  0.0680
  191MPD1    H5 2914   3.530   0.243  12.424  2.6332  0.4516 -0.9515
  191MPD1    N1 2915   3.273   0.349  12.816  0.1062 -0.3905 -0.3225
  191MPD1    H6 2916   3.189   0.325  12.764  1.1485 -0.1032 -2.1770
  191MPD1    H7 2917   3.252   0.352  12.915 -2.8369 -1.2665 -0.9292
  192MPD1     C 2918   3.323   0.618  11.704  0.3278 -0.5826 -0.1837
  192MPD1    C1 2919   3.244   0.532  11.774  0.5230 -0.4485  0.0535
  192MPD1    C2 2920   3.312   0.434  11.854 -0.2660  0.1324  0.5097
  192MPD1    C3 2921   3.447   0.431  11.865  0.0977 -0.2706 -0.1350
  192MPD1    C4 2922   3.521   0.528  11.798  0.2526  0.0429  0.0353
  192MPD1    C5 2923   3.459   0.621  11.725  0.3988  0.0152 -0.4194
  192MPD1     H 2924   3.247   0.360  11.901 -1.1120  0.0476 -0.7771
  192MPD1    H1 2925   3.629   0.525  11.805  0.0492 -2.9367  1.9750
  192MPD1    H2 2926   3.278   0.696  11.644  2.6609 -0.8489 -2.2875
  192MPD1    H3 2927   3.515   0.703  11.681  0.6702  0.9987  1.7833
  192MPD1     N 2928   3.514   0.332  11.942  0.1065 -0.6219 -0.4159
  192MPD1    H5 2929   3.614   0.347  11.952  0.0847  1.6097 -3.4328
  192MPD1    N1 2930   3.106   0.525  11.753 -0.2385 -0.3091  0.4659
  192MPD1    H6 2931   3.075   0.447  11.696 -2.7190  0.0787  1.3038
  192MPD1    H7 2932   3.056   0.510  11.840  0.4702 -1.7270  0.6297
  193MPD1     C 2933   2.364   0.657  16.377 -0.5453 -0.3481  0.6033
  193MPD1    C1 2934   2.455   0.556  16.412  0.0526  0.4200  0.7336
  193MPD1    C2 2935   2.554   0.596  16.495  0.1903 -0.1475  0.3294
  193MPD1    C3 2936   2.582   0.725  16.524 -0.4656 -0.0256  0.7096
  193MPD1    C4 2937   2.501   0.829  16.476  0.7138 -0.7090 -0.7853
  193MPD1    C5 2938   2.386   0.791  16.418  0.1090  0.2823  0.0774
  193MPD1     H 2939   2.622   0.526  16.543  1.0370  0.8616  0.5961
  193MPD1    H1 2940   2.531   0.933  16.484 -0.5368 -0.5034  1.1831
  193MPD1    H2 2941   2.265   0.631  16.340 -0.7047  2.8281 -1.2315
  193MPD1    H3 2942   2.314   0.865  16.387 -1.3473 -1.1482 -0.0033
  193MPD1     N 2943   2.686   0.771  16.608 -0.1987  0.6159  0.2216
  193MPD1    H5 2944   2.671   0.858  16.657 -0.0426  1.5536 -1.3972
  193MPD1    N1 2945   2.418   0.420  16.404  0.1929 -0.1513  0.0583
  193MPD1    H6 2946   2.354   0.398  16.328  0.7845 -2.2615  0.1563
  193MPD1    H7 2947   2.496   0.356  16.385 -0.6702 -0.2736 -3.1139
  194MPD1     C 2948   2.288   2.675  16.372 -0.1388 -0.2510 -0.6510
  194MPD1    C1 2949   2.171   2.658  16.303 -0.2993  0.8130  0.7378
  194MPD1    C2 2950   2.079   2.571  16.353  0.1845 -0.2910 -0.4453
  194MPD1    C3 2951   2.104   2.500  16.473  0.6736 -0.3945 -0.3007
  194MPD1    C4 2952   2.231   2.517  16.527 -0.2787 -0.2364 -0.2751
  194MPD1    C5 2953   2.314   2.613  16.487  0.2166 -0.0938  0.5075
  194MPD1     H 2954   1.991   2.548  16.294  0.5222 -0.0615 -1.0401
  194MPD1    H1 2955   2.242   2.476  16.626 -2.7952  1.1478  0.5909
  194MPD1    H2 2956   2.361   2.744  16.330 -0.8021  1.2297  0.6069
  194MPD1    H3 2957   2.409   2.622  16.540 -0.1323 -0.0327  1.1295
  194MPD1     N 2958   2.011   2.415  16.532  0.4130  0.7814 -0.3249
  194MPD1    H5 2959   2.032   2.384  16.626 -1.1565 -0.1662 -0.2931
  194MPD1    N1 2960   2.168   2.702  16.166 -0.1171  0.1491 -0.3700
  194MPD1    H6 2961   2.071   2.701  16.136 -0.5118 -1.0776  0.9676
  194MPD1    H7 2962   2.198   2.799  16.167 -1.6895  0.6520 -1.7212
  195MPD1     C 2963   3.137   3.981   0.032 -0.4629 -0.4454 -0.0647
  195MPD1    C1 2964   3.111   3.868  17.652 -0.3641 -0.0956  0.1271
  195MPD1    C2 2965   3.067   3.747   0.015 -0.7284 -0.9295 -0.1333
  195MPD1    C3 2966   3.047   3.742   0.156 -0.7158  0.4461  0.0438
  195MPD1    C4 2967   3.075   3.856   0.230  0.0858 -0.0262  0.1203
  195MPD1    C5 2968   3.119   3.967   0.170 -0.1117  0.3172 -0.9337
  195MPD1     H 2969   3.059   3.664  17.642 -0.3536  0.1479 -1.4722
  195MPD1    H1 2970   3.067   3.855   0.338  2.1117  0.3395  0.2732
  195MPD1    H2 2971   3.171   4.076  17.689 -1.2792  0.5098  1.5231
  195MPD1    H3 2972   3.126   4.050   0.240  2.5431 -0.0519 -0.7584
  195MPD1     N 2973   3.016   3.630   0.238 -0.6064  0.0889  0.2325
  195MPD1    H5 2974   3.015   3.639   0.339  0.9242  3.4927 -0.0420
  195MPD1    N1 2975   3.108   3.875  17.513 -0.2384 -0.5017 -0.1660
  195MPD1    H6 2976   3.195   3.920  17.486 -1.3386  2.4240  1.1166
  195MPD1    H7 2977   3.092   3.782  17.474 -0.0119 -0.8808  0.6620
  196MPD1     C 2978   1.067   3.635   1.121  0.4808 -0.8139 -0.1991
  196MPD1    C1 2979   1.137   3.721   1.042  0.1118 -0.4338  0.6066
  196MPD1    C2 2980   1.269   3.692   1.013 -0.7049 -0.4429  0.0874
  196MPD1    C3 2981   1.338   3.588   1.083  0.1206 -0.1272 -0.2454
  196MPD1    C4 2982   1.255   3.495   1.139  0.2364 -0.3392 -0.2688
  196MPD1    C5 2983   1.120   3.523   1.165 -0.2008 -0.9774  0.1617
  196MPD1     H 2984   1.324   3.763   0.953  1.0643 -2.1264 -0.3030
  196MPD1    H1 2985   1.282   3.398   1.179 -1.6139 -0.1553  1.4446
  196MPD1    H2 2986   0.960   3.646   1.135  0.3783  0.5055 -2.0169
  196MPD1    H3 2987   1.061   3.453   1.223  0.6537  0.2140  2.4620
  196MPD1     N 2988   1.477   3.557   1.075 -0.1347 -0.4759  0.5618
  196MPD1    H5 2989   1.516   3.489   1.139  1.8880  0.2054  0.0629
  196MPD1    N1 2990   1.078   3.840   1.006  0.4991 -0.1679  0.1923
  196MPD1    H6 2991   0.977   3.844   0.994  0.3204  0.6646  1.9761
  196MPD1    H7 2992   1.125   3.880   0.926  1.6473 -0.7179  0.5864
  197MPD1     C 2993   1.181   0.978   0.127  0.9146 -0.0792  0.0467
  197MPD1    C1 2994   1.319   0.955   0.145  0.4630 -0.4695  0.2915
  197MPD1    C2 2995   1.412   1.036   0.077  0.8769  0.1732 -0.5385
  197MPD1    C3 2996   1.363   1.124  17.679  0.3052 -0.3286  0.8084
  197MPD1    C4 2997   1.227   1.143  17.667 -0.0307  0.1049 -1.0528
  197MPD1    C5 2998   1.134   1.067   0.034 -0.0407  0.0545 -0.2863
  197MPD1     H 2999   1.517   1.016   0.095  0.7763 -0.7957 -0.9824
  197MPD1    H1 3000   1.196   1.215  17.593  1.8997 -1.1233 -3.0339
  197MPD1    H2 3001   1.106   0.915   0.172  0.1976  0.1147 -0.9028
  197MPD1    H3 3002   1.031   1.083   0.004 -0.7019  0.6573  2.3465
  197MPD1     N 3003   1.454   1.195  17.595 -0.1995 -0.2211  0.4940
  197MPD1    H5 3004   1.401   1.245  17.525 -0.3030 -0.4620  0.4032
  197MPD1    N1 3005   1.367   0.852   0.228  0.5419 -0.0028 -0.0354
  197MPD1    H6 3006   1.292   0.788   0.250  1.2197 -0.8399 -0.1500
  197MPD1    H7 3007   1.443   0.810   0.175 -1.7010 -1.4168 -2.1011
  198MPD1     C 3008   3.888   4.268  15.732 -0.1012  0.4509 -0.3571
  198MPD1    C1 3009   3.980   4.373  15.718  0.1972 -0.1108  0.3314
  198MPD1    C2 3010   4.087   4.366  15.801 -0.5639 -0.1487  0.3840
  198MPD1    C3 3011   4.102   4.278  15.905  0.2899  0.1432 -0.3945
  198MPD1    C4 3012   4.004   4.181  15.925  0.1660 -0.0139  0.3812
  198MPD1    C5 3013   3.906   4.174  15.834 -0.5130 -0.5207  0.1903
  198MPD1     H 3014   4.169   4.434  15.780 -0.3411 -0.7466 -0.6787
  198MPD1    H1 3015   3.994   4.105  16.002  0.7666 -3.5250 -2.9932
  198MPD1    H2 3016   3.807   4.253  15.662 -1.7275 -0.0191  1.6055
  198MPD1    H3 3017   3.833   4.095  15.848 -2.7690  1.6334  0.6194
  198MPD1     N 3018   4.205   4.293  15.994 -0.4882 -0.4214  0.3386
  198MPD1    H5 3019   4.275   4.363  15.969  0.0577 -1.0942 -0.0115
  198MPD1    N1 3020   3.986   4.447  15.601  0.6644  0.2194 -0.0364
  198MPD1    H6 3021   4.034   4.537  15.603 -2.1495  1.7094  1.2876
  198MPD1    H7 3022   3.889   4.465  15.575  1.1629 -1.9743 -3.3772
  199MPD1     C 3023   1.698   0.948  10.168 -0.4065  0.5701  0.2424
  199MPD1    C1 3024   1.616   1.060  10.143 -0.2077 -0.1457  0.4312
  199MPD1    C2 3025   1.485   1.040  10.090  0.7509  0.4243 -0.0202
  199MPD1    C3 3026   1.448   0.914  10.041  0.6049  0.2281 -0.1412
  199MPD1    C4 3027   1.538   0.809  10.047  0.0757  0.0564 -0.3967
  199MPD1    C5 3028   1.652   0.833  10.113 -0.4176 -0.0491 -0.0702
  199MPD1     H 3029   1.417   1.124  10.099 -2.8897 -2.4288 -1.1488
  199MPD1    H1 3030   1.515   0.708  10.017 -0.4123  0.6397 -1.9562
  199MPD1    H2 3031   1.798   0.950  10.210 -0.2994  1.8640 -0.0890
  199MPD1    H3 3032   1.712   0.744  10.131  0.6264  1.1845  2.5088
  199MPD1     N 3033   1.314   0.890   9.986 -0.0375 -0.3654 -0.2718
  199MPD1    H5 3034   1.307   0.798   9.943 -0.7507 -0.6478  0.4656
  199MPD1    N1 3035   1.663   1.187  10.186  0.1011 -0.3294  0.7468
  199MPD1    H6 3036   1.619   1.254  10.123 -0.9464 -0.4476  1.3689
  199MPD1    H7 3037   1.764   1.193  10.170 -0.0570  1.0677  0.2653
  200MPD1     C 3038   3.775   0.156  14.311 -0.2273 -0.4821  0.6187
  200MPD1    C1 3039   3.896   0.125  14.376 -0.2799 -0.2023  0.2368
  200MPD1    C2 3040   4.011   0.194  14.340  0.3029 -0.3882  0.1608
  200MPD1    C3 3041   4.012   0.294  14.247 -0.1763 -0.3231  0.0632
  200MPD1    C4 3042   3.892   0.322  14.183  0.9566  0.3985 -0.0814
  200MPD1    C5 3043   3.782   0.258  14.215  0.0247 -0.2299 -0.5287
  200MPD1     H 3044   4.099   0.180  14.403  0.9013 -1.5660 -0.9368
  200MPD1    H1 3045   3.869   0.385  14.097  2.3215  1.0147  0.0129
  200MPD1    H2 3046   3.687   0.105  14.348 -0.1830 -0.0266  1.3633
  200MPD1    H3 3047   3.687   0.281  14.170 -0.1533  0.3241  0.1305
  200MPD1     N 3048   4.133   0.350  14.209 -0.2815  0.6728  0.7082
  200MPD1    H5 3049   4.213   0.311  14.257 -0.1554  1.0528  0.8051
  200MPD1    N1 3050   3.897   0.007  14.460  0.0014  0.5906  0.5641
  200MPD1    H6 3051   3.814   4.706  14.514  1.3281 -0.5789  2.0744
  200MPD1    H7 3052   3.976   0.002  14.524 -0.0524 -1.6880  0.4513
  201MPD1     C 3053   2.016   4.637  13.559 -0.1591  0.3291 -0.0281
  201MPD1    C1 3054   2.146   4.658  13.515 -0.7502  0.8227  0.9831
  201MPD1    C2 3055   2.215   4.541  13.471 -0.5558  0.1492 -0.2070
  201MPD1    C3 3056   2.152   4.421  13.451 -0.8556  0.7516 -0.8310
  201MPD1    C4 3057   2.017   4.410  13.485  0.1305  0.1054 -0.1704
  201MPD1    C5 3058   1.957   4.516  13.545 -0.2622  0.3249  0.1488
  201MPD1     H 3059   2.322   4.553  13.463 -0.6131  1.1127  0.4978
  201MPD1    H1 3060   1.964   4.316  13.474 -0.2296  0.2530  0.3123
  201MPD1    H2 3061   1.951   4.712  13.602  1.0448  1.3972 -0.0646
  201MPD1    H3 3062   1.852   4.507  13.571 -0.5849 -1.9113 -1.8997
  201MPD1     N 3063   2.223   4.308  13.406 -0.6077 -0.5794 -0.4074
  201MPD1    H5 3064   2.324   4.299  13.412 -0.3830  1.8251 -0.8682
  201MPD1    N1 3065   2.217   0.051  13.550  0.2727 -0.3348  0.3225
  201MPD1    H6 3066   2.291   0.075  13.484 -1.8472  0.3893 -1.7690
  201MPD1    H7 3067   2.153   0.129  13.549  2.6667  1.6589  2.0162
  202MPD1     C 3068   2.070   3.518   8.912 -0.1816 -0.4545 -0.2596
  202MPD1    C1 3069   2.131   3.612   8.992  0.0846 -0.1867 -0.1606
  202MPD1    C2 3070   2.087   3.618   9.121 -0.7060 -0.4313  0.3700
  202MPD1    C3 3071   2.012   3.513   9.175  0.0449  0.3639  0.1775
  202MPD1    C4 3072   1.984   3.401   9.097  0.4836  0.3845  0.4645
  202MPD1    C5 3073   2.010   3.405   8.966  0.2501  0.0389  0.8007
  202MPD1     H 3074   2.104   3.705   9.183  1.7786 -1.5775  1.2995
  202MPD1    H1 3075   1.925   3.321   9.141 -0.0938  1.9366  2.4881
  202MPD1    H2 3076   2.082   3.517   8.805 -1.1886 -1.4001 -0.3614
  202MPD1    H3 3077   1.969   3.326   8.905 -0.0651  0.1653  0.8435
  202MPD1     N 3078   1.972   3.526   9.310 -0.1364 -0.0508  0.0516
  202MPD1    H5 3079   1.928   3.446   9.356  0.4065  0.7703  1.9853
  202MPD1    N1 3080   2.189   3.716   8.923  0.4295 -0.4210  0.1398
  202MPD1    H6 3081   2.263   3.761   8.976  0.8952  0.2681 -1.0986
  202MPD1    H7 3082   2.226   3.688   8.833  2.4377  2.4692  0.0522
  203MPD1     C 3083   1.521   0.359  12.808 -0.3329  0.5861  0.3024
  203MPD1    C1 3084   1.445   0.291  12.718  0.3979 -0.2621  0.4268
  203MPD1    C2 3085   1.466   0.156  12.710  0.4126 -0.0268 -0.6480
  203MPD1    C3 3086   1.543   0.079  12.797 -0.0983  0.1365  0.2341
  203MPD1    C4 3087   1.607   0.157  12.904 -0.7364  0.1241  0.1448
  203MPD1    C5 3088   1.599   0.292  12.898 -0.3656  0.2017 -0.6491
  203MPD1     H 3089   1.411   0.101  12.634 -0.3021 -0.4544  0.1739
  203MPD1    H1 3090   1.666   0.110  12.981 -0.0709 -0.8558 -0.9604
  203MPD1    H2 3091   1.524   0.468  12.812 -0.6276  0.6302 -0.8415
  203MPD1    H3 3092   1.660   0.347  12.968  0.8207 -2.3603  0.3426
  203MPD1     N 3093   1.547   4.658  12.782 -0.6096 -0.5796 -0.8381
  203MPD1    H5 3094   1.488   4.614  12.712 -1.6470 -1.5334  0.6667
  203MPD1    N1 3095   1.396   0.353  12.601  0.2371  0.2367 -0.3683
  203MPD1    H6 3096   1.328   0.290  12.559  0.2431 -0.3347  0.4918
  203MPD1    H7 3097   1.351   0.443  12.618 -0.6024  0.0160 -1.4501
  204MPD1     C 3098   0.134   0.486   0.368  0.3095 -0.7088  1.0150
  204MPD1    C1 3099   0.144   0.512   0.233  0.3222  0.2138  0.7669
  204MPD1    C2 3100   0.258   0.475   0.166  0.6961  0.2063  0.0346
  204MPD1    C3 3101   0.354   0.398   0.225  0.0872 -0.3121 -0.3786
  204MPD1    C4 3102   0.342   0.369   0.358 -0.0384 -0.0981  0.1480
  204MPD1    C5 3103   0.231   0.407   0.433  0.4468  0.2386 -0.0822
  204MPD1     H 3104   0.268   0.503   0.061 -0.9368  1.5056  0.2254
  204MPD1    H1 3105   0.416   0.318   0.419 -1.9096 -3.4356 -0.4064
  204MPD1    H2 3106   0.052   0.525   0.428  0.6130 -1.3053  1.8067
  204MPD1    H3 3107   0.222   0.387   0.539  0.6198 -0.7125 -0.2538
  204MPD1     N 3108   0.469   0.361   0.153 -0.4225 -0.4826 -0.1279
  204MPD1    H5 3109   0.467   0.382   0.053 -0.7811  1.1547  0.2299
  204MPD1    N1 3110   0.047   0.591   0.171  0.1453  0.8822 -0.0611
  204MPD1    H6 3111   0.048   0.589   0.069 -1.1791 -1.2556 -0.0383
  204MPD1    H7 3112   4.677   0.567   0.204  1.1337 -2.6343  0.2259
  205MPD1     C 3113   0.189   3.994  16.581  0.0049  0.3032  0.2885
  205MPD1    C1 3114   0.296   3.909  16.609  0.3758 -0.0117 -0.8462
  205MPD1    C2 3115   0.363   3.922  16.732  0.1469 -0.2116  0.0286
  205MPD1    C3 3116   0.327   4.014  16.827 -0.0636  0.0325 -0.6282
  205MPD1    C4 3117   0.217   4.090  16.801  0.2683  0.1355 -0.1387
  205MPD1    C5 3118   0.149   4.079  16.682 -0.2031 -0.0357 -0.2535
  205MPD1     H 3119   0.442   3.849  16.747  1.1563  0.6189 -1.2015
  205MPD1    H1 3120   0.180   4.155  16.879 -0.2475 -0.7571  0.3585
  205MPD1    H2 3121   0.125   4.000  16.493 -0.6582 -1.4342  0.6521
  205MPD1    H3 3122   0.062   4.137  16.655 -0.8609 -0.3702  1.1625
  205MPD1     N 3123   0.400   4.016  16.949  0.2838 -0.3478  0.0630
  205MPD1    H5 3124   0.484   3.962  16.970  1.2245  2.0550  2.5124
  205MPD1    N1 3125   0.345   3.818  16.519  0.2005 -0.0822 -0.1304
  205MPD1    H6 3126   0.392   3.733  16.550  0.6301 -0.1889 -1.0860
  205MPD1    H7 3127   0.277   3.788  16.450 -0.5704  0.2830  0.4797
  206MPD1     C 3128   0.849   2.479  16.704  0.9641 -0.9228 -0.4231
  206MPD1    C1 3129   0.886   2.407  16.595 -0.0583  0.0524  0.3297
  206MPD1    C2 3130   0.844   2.458  16.475 -0.0549  0.1573 -0.3507
  206MPD1    C3 3131   0.749   2.560  16.462 -0.6325  0.6519 -0.3261
  206MPD1    C4 3132   0.706   2.617  16.581  0.2594 -0.1822  0.3454
  206MPD1    C5 3133   0.760   2.580  16.697 -0.2772 -0.0913 -0.3609
  206MPD1     H 3134   0.877   2.394  16.394  1.3362  0.6179 -0.1505
  206MPD1    H1 3135   0.626   2.690  16.586  1.6176  1.3750 -0.6446
  206MPD1    H2 3136   0.884   2.454  16.803 -1.5601  1.0656  0.9878
  206MPD1    H3 3137   0.736   2.646  16.779  3.7746  0.5646  0.3185
  206MPD1     N 3138   0.695   2.611  16.343  0.2404 -0.2856  0.3117
  206MPD1    H5 3139   0.637   2.695  16.347 -0.9284 -1.0505 -0.4570
  206MPD1    N1 3140   0.993   2.312  16.602 -0.3284 -0.4039 -0.2588
  206MPD1    H6 3141   0.985   2.243  16.528  1.3252 -1.4435  0.5471
  206MPD1    H7 3142   0.992   2.269  16.695 -1.1759  0.7746  0.2846
  207MPD1     C 3143   4.287   0.117   9.438 -0.1522  0.0154 -0.5944
  207MPD1    C1 3144   4.157   0.094   9.470  0.2296  0.5301 -0.2276
  207MPD1    C2 3145   4.102   0.149   9.588  0.6084  0.3760 -1.4538
  207MPD1    C3 3146   4.190   0.208   9.675  0.5637 -0.5703  0.2902
  207MPD1    C4 3147   4.322   0.228   9.641 -0.1461 -0.1023 -0.4699
  207MPD1    C5 3148   4.369   0.182   9.525 -0.4196  0.1815 -0.3879
  207MPD1     H 3149   3.996   0.139   9.608  1.0620  1.2066  1.2468
  207MPD1    H1 3150   4.389   0.293   9.698  0.3867 -0.2168 -0.9642
  207MPD1    H2 3151   4.325   0.087   9.341  2.2466 -2.0769  0.9819
  207MPD1    H3 3152   4.474   0.193   9.499 -0.4077  3.1285  0.9900
  207MPD1     N 3153   4.163   0.252   9.804  0.4256  0.4041  0.0789
  207MPD1    H5 3154   4.236   0.299   9.857 -1.0778  0.5347  2.0496
  207MPD1    N1 3155   4.069   0.031   9.376  0.1096 -0.1486 -0.0637
  207MPD1    H6 3156   4.128   4.712   9.305  2.1772  2.8238 -0.1563
  207MPD1    H7 3157   4.008   4.686   9.420 -1.6593  0.0113 -2.2828
  208MPD1     C 3158   2.284   4.060   0.297 -0.5185  0.7491 -0.2905
  208MPD1    C1 3159   2.176   4.137   0.317 -0.5571  0.5972  0.2403
  208MPD1    C2 3160   2.050   4.102   0.282 -0.0904 -0.0836 -0.8248
  208MPD1    C3 3161   2.024   3.972   0.239 -0.0374  0.0966 -0.2435
  208MPD1    C4 3162   2.124   3.880   0.231  0.3450  0.6042 -0.3142
  208MPD1    C5 3163   2.251   3.929   0.246  0.1395 -0.1962 -0.0948
  208MPD1     H 3164   1.966   4.165   0.310 -1.7296 -1.0666 -3.5673
  208MPD1    H1 3165   2.112   3.776   0.200 -1.1396  0.9093 -0.7767
  208MPD1    H2 3166   2.383   4.097   0.321 -0.1017 -0.2623 -0.4369
  208MPD1    H3 3167   2.338   3.871   0.222 -1.5155 -1.8295 -2.0981
  208MPD1     N 3168   1.892   3.933   0.232  0.2173  0.2225 -0.6513
  208MPD1    H5 3169   1.820   3.998   0.261  1.7463  1.3580  0.6216
  208MPD1    N1 3170   2.195   4.268   0.354 -0.5926 -0.6450  0.2422
  208MPD1    H6 3171   2.124   4.305   0.417 -1.5051  0.3057 -1.3502
  208MPD1    H7 3172   2.280   4.280   0.410 -0.2482 -0.6174 -0.2805
  209MPD1     C 3173   3.073   4.047  11.206 -0.4076  0.1198  0.5976
  209MPD1    C1 3174   3.145   4.123  11.297  0.5074  0.5146  0.3109
  209MPD1    C2 3175   3.240   4.209  11.241  0.6193  0.8485 -0.7369
  209MPD1    C3 3176   3.241   4.243  11.101  0.9486  0.3235 -0.1803
  209MPD1    C4 3177   3.162   4.169  11.015  0.0833  0.1358 -0.4741
  209MPD1    C5 3178   3.077   4.070  11.072 -0.2947  0.6027 -0.5466
  209MPD1     H 3179   3.314   4.253  11.307  0.1021  0.3939  0.1495
  209MPD1    H1 3180   3.158   4.185  10.908 -1.2240 -1.6391 -0.6989
  209MPD1    H2 3181   2.996   3.993  11.258  0.5535  0.1937  2.0913
  209MPD1    H3 3182   3.009   4.026  10.999 -0.9355  0.0225  0.4024
  209MPD1     N 3183   3.351   4.322  11.068  0.3193 -0.5128  0.3191
  209MPD1    H5 3184   3.423   4.336  11.138  0.2765  1.3445 -0.0152
  209MPD1    N1 3185   3.160   4.096  11.435 -0.5553 -0.0453 -0.3404
  209MPD1    H6 3186   3.078   4.053  11.479  0.5143 -0.9973  0.7343
  209MPD1    H7 3187   3.188   4.180  11.486 -1.1926  1.2041 -2.0458
  210MPD1     C 3188   3.679   0.430  11.461 -0.3823  0.2260 -0.2390
  210MPD1    C1 3189   3.660   0.293  11.489  0.0535  0.2258 -0.2246
  210MPD1    C2 3190   3.622   0.210  11.381 -0.1193  0.1279 -0.5162
  210MPD1    C3 3191   3.622   0.252  11.246  0.5625  0.3669 -0.3161
  210MPD1    C4 3192   3.654   0.385  11.223  0.5868  0.4386  0.1510
  210MPD1    C5 3193   3.679   0.471  11.330 -0.4579  0.3471  0.8786
  210MPD1     H 3194   3.583   0.116  11.418 -1.4142  0.9158  0.1194
  210MPD1    H1 3195   3.643   0.425  11.122 -1.6170 -1.0879 -0.2019
  210MPD1    H2 3196   3.703   0.502  11.539 -0.0079 -0.1033 -0.0537
  210MPD1    H3 3197   3.684   0.578  11.314  1.2246  0.3021  1.1137
  210MPD1     N 3198   3.613   0.155  11.141  0.8831  0.2193 -0.2267
  210MPD1    H5 3199   3.623   0.186  11.045 -2.2527 -0.2093 -0.6770
  210MPD1    N1 3200   3.649   0.260  11.623  0.2757  0.0316 -0.4322
  210MPD1    H6 3201   3.653   0.162  11.649  2.8058  0.6117  1.3895
  210MPD1    H7 3202   3.689   0.324  11.691 -0.3073  0.3293 -0.3681
  211MPD1     C 3203   1.988   0.019  16.264  0.0978 -0.5327  0.2650
  211MPD1    C1 3204   1.925   4.717  16.387  0.8535 -0.5803 -0.2962
  211MPD1    C2 3205   1.785   0.020  16.384 -0.8053 -0.1401  0.0052
  211MPD1    C3 3206   1.720   0.067  16.270  0.4254  0.5571  0.6537
  211MPD1    C4 3207   1.791   0.084  16.150  0.3522 -0.3332 -0.2581
  211MPD1    C5 3208   1.922   0.073  16.157  0.7163  0.0930  0.2577
  211MPD1     H 3209   1.731   0.001  16.476  2.7986  1.7341  2.4681
  211MPD1    H1 3210   1.744   0.113  16.057  1.6151 -0.0864 -0.8153
  211MPD1    H2 3211   2.094   4.722  16.260  0.4542  1.0653  1.3648
  211MPD1    H3 3212   1.985   0.098  16.072 -1.2792 -0.0223 -1.2493
  211MPD1     N 3213   1.579   0.076  16.277  0.2495  0.1299  0.5385
  211MPD1    H5 3214   1.540   0.025  16.355  0.9396 -2.4168 -0.7712
  211MPD1    N1 3215   1.997   4.687  16.503 -0.5218  0.3013 -0.6355
  211MPD1    H6 3216   1.944   4.660  16.585 -1.5474  0.9261 -1.0891
  211MPD1    H7 3217   2.096   4.663  16.511 -0.7934 -1.0498 -1.3453
  212MPD1     C 3218   0.532   2.937  16.579  0.2078 -0.4014  0.1787
  212MPD1    C1 3219   0.436   2.855  16.521  0.3109  0.4640 -0.7025
  212MPD1    C2 3220   0.361   2.763  16.599 -0.4093 -0.6700  0.6004
  212MPD1    C3 3221   0.389   2.758  16.739  0.5223  0.8902  0.2710
  212MPD1    C4 3222   0.478   2.849  16.796 -0.1814  0.3085  0.5036
  212MPD1    C5 3223   0.543   2.940  16.714  0.4433 -0.6161  0.0211
  212MPD1     H 3224   0.287   2.691  16.567 -0.4469 -0.1054 -0.5542
  212MPD1    H1 3225   0.499   2.855  16.903 -0.6614  2.3296  0.4824
  212MPD1    H2 3226   0.593   3.000  16.515 -0.7195  1.0381  0.7056
  212MPD1    H3 3227   0.626   2.994  16.755 -0.2875  0.8373 -0.4283
  212MPD1     N 3228   0.332   2.666  16.823 -0.6721 -0.0095  0.2564
  212MPD1    H5 3229   0.336   2.685  16.923 -0.1207  2.5303 -0.2406
  212MPD1    N1 3230   0.433   2.836  16.382 -0.1239 -0.6080 -0.9039
  212MPD1    H6 3231   0.460   2.922  16.336  1.5209 -0.2675  0.6979
  212MPD1    H7 3232   0.338   2.825  16.346 -1.2515  0.5062  1.7199
  213MPD1     C 3233   3.956   3.854  15.705  0.4706  0.3175 -0.2583
  213MPD1    C1 3234   3.892   3.759  15.784  0.6983  0.4399 -0.0727
  213MPD1    C2 3235   3.760   3.746  15.741 -0.0113 -0.2358 -0.6902
  213MPD1    C3 3236   3.695   3.818  15.641 -0.1277 -0.5287 -0.2347
  213MPD1    C4 3237   3.762   3.917  15.578  0.1509 -0.0623 -0.7276
  213MPD1    C5 3238   3.892   3.941  15.613  0.5080  0.1705 -0.8377
  213MPD1     H 3239   3.714   3.654  15.775 -2.3785  0.7585 -1.1999
  213MPD1    H1 3240   3.724   3.982  15.500 -2.3030  1.2307  1.5537
  213MPD1    H2 3241   4.062   3.864  15.724 -0.2285  0.4920  3.5009
  213MPD1    H3 3242   3.935   4.034  15.578  0.6722  0.4017 -0.0341
  213MPD1     N 3243   3.573   3.766  15.598  0.0454 -0.2855  0.2114
  213MPD1    H5 3244   3.543   3.682  15.646  1.6684 -1.8223 -1.4774
  213MPD1    N1 3245   3.971   3.653  15.827 -0.1804  0.4167  0.1106
  213MPD1    H6 3246   4.059   3.676  15.872  0.7395 -0.8324 -1.0332
  213MPD1    H7 3247   3.926   3.591  15.894 -1.1462 -0.6140 -1.4896
  214MPD1     C 3248   3.262   3.152  16.024  0.0938  0.2911 -0.4488
  214MPD1    C1 3249   3.145   3.166  15.955 -0.4134  0.4115 -0.6308
  214MPD1    C2 3250   3.149   3.256  15.843 -0.1336  0.0519  0.2880
  214MPD1    C3 3251   3.257   3.339  15.825  0.2884 -0.3740 -0.3649
  214MPD1    C4 3252   3.369   3.317  15.902 -0.3351  0.2738 -1.2405
  214MPD1    C5 3253   3.373   3.230  16.004  0.2791  0.3569  0.1497
  214MPD1     H 3254   3.059   3.271  15.785 -0.2874  1.2644  0.8218
  214MPD1    H1 3255   3.453   3.383  15.882  1.0998 -0.5508  2.1041
  214MPD1    H2 3256   3.264   3.077  16.103 -0.3620 -0.0645 -0.7753
  214MPD1    H3 3257   3.457   3.225  16.073 -0.7868  3.6968  1.7039
  214MPD1     N 3258   3.264   3.441  15.732  0.4065 -0.3933 -0.7243
  214MPD1    H5 3259   3.348   3.497  15.744 -0.8030  1.4347 -0.7367
  214MPD1    N1 3260   3.034   3.082  15.971 -0.9656 -1.0038  0.0515
  214MPD1    H6 3261   3.024   3.059  16.070  1.3594  1.0337  0.7490
  214MPD1    H7 3262   2.949   3.118  15.928 -0.0962 -0.3758 -1.1411
  215MPD1     C 3263   2.656   4.135  10.374  0.0097  0.9172  0.2851
  215MPD1    C1 3264   2.705   4.264  10.370  0.1655  0.7791  0.2584
  215MPD1    C2 3265   2.780   4.313  10.473 -0.6329 -0.1954  0.4359
  215MPD1    C3 3266   2.791   4.242  10.594 -0.0832 -0.8749 -0.0990
  215MPD1    C4 3267   2.740   4.112  10.604 -0.4005  0.9005 -0.0163
  215MPD1    C5 3268   2.679   4.061  10.489  0.1494 -0.2890  0.2492
  215MPD1     H 3269   2.837   4.405  10.464 -2.5156  1.0815  1.4912
  215MPD1    H1 3270   2.751   4.044  10.688  0.7980  2.1678  0.8576
  215MPD1    H2 3271   2.612   4.083  10.290  3.0209  0.5132 -1.0328
  215MPD1    H3 3272   2.629   3.966  10.505  0.3677 -0.3638  0.4912
  215MPD1     N 3273   2.859   4.309  10.702  0.4100 -0.5845 -0.1571
  215MPD1    H5 3274   2.897   4.402  10.685  3.0481 -1.3597  1.4186
  215MPD1    N1 3275   2.699   4.335  10.255 -0.3736  0.2944 -0.0694
  215MPD1    H6 3276   2.624   4.302  10.194 -0.9553 -0.5450  1.0994
  215MPD1    H7 3277   2.701   4.434  10.276  0.6865  0.4686 -0.9843
  216MPD1     C 3278   0.580   2.204  16.321 -0.1464  0.1273 -0.0702
  216MPD1    C1 3279   0.603   2.068  16.292  0.1312 -0.3187 -0.3694
  216MPD1    C2 3280   0.654   1.985  16.397  0.2464 -0.1223 -0.1536
  216MPD1    C3 3281   0.657   2.031  16.532  0.5642 -0.2535 -0.4484
  216MPD1    C4 3282   0.629   2.163  16.555  0.3780 -0.3049  0.2239
  216MPD1    C5 3283   0.594   2.244  16.449 -0.2363  0.2714 -0.2402
  216MPD1     H 3284   0.688   1.885  16.372 -1.9996 -0.9339 -0.0215
  216MPD1    H1 3285   0.641   2.216  16.649 -0.0716 -1.0344  0.6910
  216MPD1    H2 3286   0.555   2.278  16.246 -0.7668  2.0156  2.0063
  216MPD1    H3 3287   0.577   2.348  16.475  1.7327  0.8996 -1.4703
  216MPD1     N 3288   0.694   1.937  16.631  0.1258  0.6182  0.1159
  216MPD1    H5 3289   0.691   1.844  16.592 -0.1047  0.5083  0.3969
  216MPD1    N1 3290   0.617   2.026  16.157  0.4072 -0.4305  0.4217
  216MPD1    H6 3291   0.565   2.084  16.091 -1.5163 -1.7608  0.7687
  216MPD1    H7 3292   0.596   1.927  16.152  4.5268 -1.3145  0.5521
  217MPD1     C 3293   0.367   3.416  10.378  0.1441 -0.6427 -0.3376
  217MPD1    C1 3294   0.298   3.526  10.332  0.1855  0.4240  0.7675
  217MPD1    C2 3295   0.326   3.573  10.201  0.3114 -0.0965  0.7694
  217MPD1    C3 3296   0.392   3.491  10.116  0.0006 -0.0591  0.0433
  217MPD1    C4 3297   0.457   3.380  10.162  0.0334 -0.3238  0.1900
  217MPD1    C5 3298   0.432   3.332  10.286 -0.2401  0.3948  0.4656
  217MPD1     H 3299   0.282   3.669  10.174 -0.2910  0.6967  4.5088
  217MPD1    H1 3300   0.510   3.324  10.086 -0.0172  0.0398 -0.1100
  217MPD1    H2 3301   0.353   3.381  10.479 -2.2849  1.6235  0.1224
  217MPD1    H3 3302   0.475   3.237  10.315  1.4862  0.8309 -0.6887
  217MPD1     N 3303   0.406   3.521   9.980  0.0716  0.1966 -0.6482
  217MPD1    H5 3304   0.445   3.451   9.918  2.7931 -0.5572  1.9077
  217MPD1    N1 3305   0.202   3.593  10.407  0.0283 -0.1676 -0.0469
  217MPD1    H6 3306   0.194   3.691  10.382  1.7033 -0.2427 -0.9000
  217MPD1    H7 3307   0.217   3.579  10.507 -2.1787  2.4024  0.6512
  218MPD1     C 3308   3.032   0.557  12.080  0.2495  0.1568  0.2009
  218MPD1    C1 3309   2.930   0.467  12.063 -0.5520  0.0620  0.7016
  218MPD1    C2 3310   2.958   0.345  12.109 -0.3587 -0.0640  0.4793
  218MPD1    C3 3311   3.074   0.314  12.188  0.5003 -0.0655 -0.6170
  218MPD1    C4 3312   3.165   0.407  12.215  0.4857  0.6679  0.1841
  218MPD1    C5 3313   3.145   0.530  12.148 -0.5322  0.4189 -0.4635
  218MPD1     H 3314   2.891   0.261  12.091  0.5667 -0.3968 -1.4243
  218MPD1    H1 3315   3.259   0.397  12.267  0.1897  1.0221  0.7893
  218MPD1    H2 3316   3.022   0.651  12.027 -0.9996 -0.3732 -0.5198
  218MPD1    H3 3317   3.212   0.612  12.171  1.1739 -0.9168 -0.6267
  218MPD1     N 3318   3.105   0.179  12.221  0.7157  0.1180 -0.9032
  218MPD1    H5 3319   3.048   0.110  12.175 -1.1748  0.9210  0.2042
  218MPD1    N1 3320   2.822   0.484  11.973  0.1304 -0.2686 -0.4553
  218MPD1    H6 3321   2.742   0.423  11.990  0.5094 -0.8029 -0.6047
  218MPD1    H7 3322   2.788   0.580  11.984  0.3452 -0.4429  1.6748
  219MPD1     C 3323   3.531   4.574  11.584  0.1064  0.3482  0.1124
  219MPD1    C1 3324   3.558   4.475  11.680 -0.2174 -0.3854  0.0140
  219MPD1    C2 3325   3.505   4.478  11.810 -0.0835  0.4518  0.0768
  219MPD1    C3 3326   3.438   4.591  11.847  0.7615 -0.0327 -0.0498
  219MPD1    C4 3327   3.431   4.702  11.764  0.4326 -0.3412  0.1444
  219MPD1    C5 3328   3.479   4.685  11.636  0.6507 -0.3937  0.1279
  219MPD1     H 3329   3.517   4.405  11.889 -2.1596 -0.8553 -0.8182
  219MPD1    H1 3330   3.385   0.075  11.785  1.0411  0.4246 -1.9900
  219MPD1    H2 3331   3.568   4.566  11.483 -0.5276  0.3327 -0.1170
  219MPD1    H3 3332   3.470   0.046  11.568 -0.0748 -0.2752  0.3760
  219MPD1     N 3333   3.364   4.602  11.967 -0.7733  0.4987  0.4489
  219MPD1    H5 3334   3.329   4.691  12.000 -0.8962  1.0704 -1.2372
  219MPD1    N1 3335   3.615   4.354  11.639  0.5683 -0.1391 -0.4700
  219MPD1    H6 3336   3.674   4.352  11.556  2.0169 -0.3959  0.5547
  219MPD1    H7 3337   3.653   4.303  11.719  2.3592  1.1308 -0.5178
  220MPD1     C 3338   3.961   0.630   9.895 -0.1695  0.0645 -0.9206
  220MPD1    C1 3339   3.913   0.667  10.018  0.4307  0.1336 -0.1284
  220MPD1    C2 3340   3.793   0.618  10.066  0.3111  0.2244  0.1402
  220MPD1    C3 3341   3.727   0.524  10.000  0.1611 -0.5742 -0.1559
  220MPD1    C4 3342   3.780   0.479   9.884  0.1643  0.3285  0.4416
  220MPD1    C5 3343   3.889   0.540   9.828 -0.1585 -0.4348  0.1300
  220MPD1     H 3344   3.760   0.653  10.163 -0.0698  0.3884 -0.0490
  220MPD1    H1 3345   3.751   0.389   9.831  1.2904 -0.3339  0.9520
  220MPD1    H2 3346   4.053   0.668   9.853 -0.3434  0.8045 -0.6520
  220MPD1    H3 3347   3.925   0.509   9.731  2.3627  0.1885  0.8644
  220MPD1     N 3348   3.614   0.469  10.056 -0.2828  0.2807  0.1011
  220MPD1    H5 3349   3.568   0.527  10.126 -3.4086 -0.9310 -0.9350
  220MPD1    N1 3350   3.973   0.779  10.077 -0.0149  0.1011 -0.0446
  220MPD1    H6 3351   4.068   0.795  10.046 -0.1524  0.1814 -0.4259
  220MPD1    H7 3352   3.993   0.767  10.176 -3.4311 -0.1209  0.6217
  221MPD1     C 3353   1.287   3.585   0.257  0.3167  0.2589 -0.3683
  221MPD1    C1 3354   1.178   3.658   0.215 -0.2663 -0.2654  0.7679
  221MPD1    C2 3355   1.137   3.635   0.088  0.0898 -0.3294 -0.1727
  221MPD1    C3 3356   1.210   3.568  17.690  0.3394  0.6896 -0.0228
  221MPD1    C4 3357   1.326   3.510   0.037  0.6491 -0.5716  0.0450
  221MPD1    C5 3358   1.353   3.510   0.170  0.6493  0.5212 -0.0524
  221MPD1     H 3359   1.056   3.698   0.052  2.0166  1.7277 -0.9304
  221MPD1    H1 3360   1.381   3.437  17.675  0.5799  1.7532 -2.9356
  221MPD1    H2 3361   1.329   3.595   0.356 -0.0383 -0.8940 -0.1047
  221MPD1    H3 3362   1.422   3.435   0.207  0.7313  0.0405 -1.1662
  221MPD1     N 3363   1.160   3.553  17.558  0.1541 -0.8734  0.7569
  221MPD1    H5 3364   1.222   3.496  17.502 -2.4860 -2.0726 -0.9318
  221MPD1    N1 3365   1.106   3.727   0.315  0.1285  0.1791  0.5076
  221MPD1    H6 3366   1.163   3.764   0.390 -2.3572  0.6031  2.1825
  221MPD1    H7 3367   1.039   3.798   0.285 -0.7717 -0.7287  0.3477
  222MPD1     C 3368   4.472   2.316  17.572 -0.0659 -0.2575 -0.1716
  222MPD1    C1 3369   4.543   2.337  17.459  0.1824 -0.2789 -0.1740
  222MPD1    C2 3370   4.603   2.464  17.443 -0.2756  0.0267  0.9960
  222MPD1    C3 3371   4.580   2.561  17.540  0.7866  0.8138 -1.0247
  222MPD1    C4 3372   4.491   2.542  17.644 -0.9790  0.2501  0.4673
  222MPD1    C5 3373   4.447   2.413  17.666  0.4003  1.3192  0.0634
  222MPD1     H 3374   4.675   2.497  17.368 -0.0946  1.5899  1.8612
  222MPD1    H1 3375   4.455   2.609   0.024  0.1753  0.9523  0.3852
  222MPD1    H2 3376   4.444   2.214  17.595 -0.1089 -0.0575  0.6535
  222MPD1    H3 3377   4.381   2.397   0.053 -1.0372 -3.7362 -2.0320
  222MPD1     N 3378   4.635   2.694  17.532  0.0726 -0.1319  0.0600
  222MPD1    H5 3379   4.604   2.768  17.595 -1.0454  0.5718 -1.3180
  222MPD1    N1 3380   4.586   2.223  17.384  0.1905  0.0350 -0.3338
  222MPD1    H6 3381   4.590   2.243  17.284  1.2424  0.0638 -0.2883
  222MPD1    H7 3382   4.503   2.165  17.394 -0.6043  1.0461 -1.0610
  223MPD1     C 3383   4.695   3.427   0.336  0.2969 -0.6413  0.6011
  223MPD1    C1 3384   0.093   3.399   0.289  0.1802 -0.2219 -0.1150
  223MPD1    C2 3385   0.104   3.319   0.174 -0.4813 -0.5639 -0.4061
  223MPD1    C3 3386   0.000   3.278   0.098 -0.1631  0.6201  0.6476
  223MPD1    C4 3387   4.599   3.309   0.143  0.6470 -0.5911  0.1149
  223MPD1    C5 3388   4.584   3.383   0.265  0.3116 -0.1620  0.0401
  223MPD1     H 3389   0.203   3.305   0.131 -1.0911  2.1020 -2.7235
  223MPD1    H1 3390   4.508   3.278   0.093 -0.9023 -0.0365  2.5492
  223MPD1    H2 3391   4.681   3.479   0.431 -0.3261 -0.2345  0.2874
  223MPD1    H3 3392   4.483   3.408   0.294 -0.0667 -0.9143 -0.6369
  223MPD1     N 3393   0.018   3.207  17.669 -0.6415  0.0022 -0.8624
  223MPD1    H5 3394   0.114   3.186  17.644 -1.3065 -1.9037 -1.7766
  223MPD1    N1 3395   0.212   3.430   0.362 -0.4256 -0.1484  0.4658
  223MPD1    H6 3396   0.199   3.515   0.418  0.0334  0.4822 -0.3928
  223MPD1    H7 3397   0.286   3.432   0.293 -1.2671 -0.1482 -0.4301
  224MPD1     C 3398   1.725   0.103   9.166  0.1004 -0.0369  0.0558
  224MPD1    C1 3399   1.592   0.096   9.167 -0.3014  0.6188  0.1371
  224MPD1    C2 3400   1.537   0.004   9.261 -0.4348 -0.1318  0.3072
  224MPD1    C3 3401   1.613   4.620   9.309  0.2062  0.4794 -0.3508
  224MPD1    C4 3402   1.753   4.617   9.283 -0.8456 -0.0122  0.2780
  224MPD1    C5 3403   1.807   4.722   9.217  0.5682  0.2305 -0.4509
  224MPD1     H 3404   1.433   0.017   9.286 -1.0344 -2.2457 -1.0843
  224MPD1    H1 3405   1.824   4.539   9.310 -1.7892 -1.1734 -0.6266
  224MPD1    H2 3406   1.775   0.188   9.122 -0.2491  0.2477  0.2035
  224MPD1    H3 3407   1.915   4.714   9.212  0.3778 -1.7248 -1.5456
  224MPD1     N 3408   1.567   4.519   9.395  0.2850  0.5063 -0.4541
  224MPD1    H5 3409   1.634   4.449   9.425  2.4259  2.0743 -1.5615
  224MPD1    N1 3410   1.510   0.205   9.114 -0.5340  0.1615  0.1430
  224MPD1    H6 3411   1.415   0.178   9.091 -0.1388 -1.4242  0.3753
  224MPD1    H7 3412   1.556   0.250   9.035  1.5822 -0.9312  0.7648
  225MPD1     C 3413   3.377   0.888  12.552 -0.5698  0.1511 -0.0822
  225MPD1    C1 3414   3.332   0.753  12.566 -0.6603 -0.2191 -0.3558
  225MPD1    C2 3415   3.211   0.706  12.514 -0.0730  0.2954 -0.4203
  225MPD1    C3 3416   3.127   0.812  12.465  1.0686  0.0181  0.0174
  225MPD1    C4 3417   3.161   0.944  12.475  0.0086 -0.2970 -0.1536
  225MPD1    C5 3418   3.280   0.982  12.526  0.7995  0.7143  0.0019
  225MPD1     H 3419   3.179   0.603  12.508 -2.1017  0.9542 -0.9386
  225MPD1    H1 3420   3.094   1.022  12.441  0.6982  1.2029  1.9082
  225MPD1    H2 3421   3.478   0.914  12.581  0.3907 -0.0049 -3.3201
  225MPD1    H3 3422   3.295   1.089  12.533  2.6111  0.4340  0.5319
  225MPD1     N 3423   2.997   0.791  12.412 -0.0876 -0.2401 -0.1381
  225MPD1    H5 3424   2.942   0.875  12.405  0.1080 -0.1529 -0.6120
  225MPD1    N1 3425   3.428   0.659  12.602 -0.3027  0.0959  0.6671
  225MPD1    H6 3426   3.490   0.707  12.666 -2.2665  0.5042  2.2693
  225MPD1    H7 3427   3.388   0.572  12.636  0.7439 -0.9156 -0.6773
  226MPD1     C 3428   0.520   1.286   9.167  0.1421 -0.3613 -0.6549
  226MPD1    C1 3429   0.497   1.173   9.242  0.2429  0.1448  0.1212
  226MPD1    C2 3430   0.613   1.103   9.281  0.2433 -0.0464  0.0928
  226MPD1    C3 3431   0.740   1.159   9.288  0.1758  0.2715 -0.6281
  226MPD1    C4 3432   0.752   1.293   9.232 -0.0453 -0.3859  0.1720
  226MPD1    C5 3433   0.642   1.340   9.165  0.5007  0.4881  0.3846
  226MPD1     H 3434   0.596   1.000   9.308  0.0231 -0.4294 -1.5306
  226MPD1    H1 3435   0.843   1.351   9.227 -1.1222  1.2426 -0.7442
  226MPD1    H2 3436   0.438   1.339   9.119  1.0453 -1.6047 -3.5581
  226MPD1    H3 3437   0.651   1.435   9.115 -2.1811  1.0527  0.9623
  226MPD1     N 3438   0.849   1.079   9.330 -0.4884 -0.3692 -0.0132
  226MPD1    H5 3439   0.833   0.981   9.347 -3.5806 -0.0776 -1.2529
  226MPD1    N1 3440   0.360   1.117   9.242 -0.2534 -0.2026 -0.0842
  226MPD1    H6 3441   0.292   1.191   9.229 -0.4616 -0.3375  0.2285
  226MPD1    H7 3442   0.333   1.070   9.329  1.2410 -1.7594 -0.4427
  227MPD1     C 3443   1.807   1.003   9.816  0.6610  0.2994 -0.1454
  227MPD1    C1 3444   1.766   0.877   9.772 -0.8710  0.4528  0.0485
  227MPD1    C2 3445   1.651   0.868   9.701 -0.5160  0.1553 -0.0042
  227MPD1    C3 3446   1.560   0.968   9.699  0.6018  0.0811 -0.3205
  227MPD1    C4 3447   1.589   1.087   9.756  0.2955 -0.1856  0.7557
  227MPD1    C5 3448   1.710   1.105   9.818 -0.3780  0.1719 -0.3620
  227MPD1     H 3449   1.621   0.771   9.663 -1.9838 -1.1688  4.6422
  227MPD1    H1 3450   1.518   1.169   9.759  1.6591  0.9426  2.3583
  227MPD1    H2 3451   1.903   1.021   9.863 -0.6660  0.0046  2.6458
  227MPD1    H3 3452   1.727   1.191   9.882 -1.1160  2.3403 -3.0655
  227MPD1     N 3453   1.435   0.942   9.641  0.2389  0.0879  0.4382
  227MPD1    H5 3454   1.420   0.858   9.587 -1.4234  0.8578 -0.3121
  227MPD1    N1 3455   1.864   0.768   9.768 -0.3055 -0.0306  0.0755
  227MPD1    H6 3456   1.923   0.772   9.851 -1.0573 -1.2626  0.6602
  227MPD1    H7 3457   1.808   0.684   9.760 -0.1955 -0.1869  0.9780
  228MPD1     C 3458   3.601   3.022  12.908 -0.0663  0.7579  0.3043
  228MPD1    C1 3459   3.504   3.000  12.803 -0.6871  0.0735  0.6381
  228MPD1    C2 3460   3.396   2.912  12.835  0.3179  0.6680 -0.2777
  228MPD1    C3 3461   3.380   2.860  12.961  0.1136 -0.3378  0.0373
  228MPD1    C4 3462   3.482   2.875  13.058  0.2084  0.2567  0.2579
  228MPD1    C5 3463   3.589   2.958  13.028 -0.1772  0.5447  0.6584
  228MPD1     H 3464   3.319   2.907  12.760  1.1739  1.7356 -1.2233
  228MPD1    H1 3465   3.482   2.825  13.155  2.0833 -0.3703 -0.0658
  228MPD1    H2 3466   3.687   3.087  12.891  2.2321 -2.7972 -1.5769
  228MPD1    H3 3467   3.671   2.968  13.099 -0.1697 -2.8971  1.1468
  228MPD1     N 3468   3.260   2.799  12.987  0.4874  0.3573  0.1481
  228MPD1    H5 3469   3.188   2.801  12.916  0.0056  0.8271  0.6545
  228MPD1    N1 3470   3.504   3.081  12.684 -0.5079 -0.1784  0.0566
  228MPD1    H6 3471   3.597   3.084  12.643  0.4194 -0.8474  2.1147
  228MPD1    H7 3472   3.452   3.037  12.608  0.2663 -1.7418  0.4431
  229MPD1     C 3473   3.231   1.896  14.972 -0.0005  0.5672 -0.1019
  229MPD1    C1 3474   3.252   1.783  15.050 -0.4458  0.0042 -0.4247
  229MPD1    C2 3475   3.379   1.751  15.087 -0.1444  0.1902  0.0432
  229MPD1    C3 3476   3.491   1.824  15.056 -0.1034 -0.2831 -0.5896
  229MPD1    C4 3477   3.471   1.936  14.980  0.3265 -0.8044  0.4220
  229MPD1    C5 3478   3.347   1.967  14.946  0.0155  0.2656  0.3814
  229MPD1     H 3479   3.395   1.664  15.150 -1.6152 -0.2167 -0.1471
  229MPD1    H1 3480   3.550   2.002  14.946 -0.9990  0.7125  0.2881
  229MPD1    H2 3481   3.133   1.932  14.944 -0.5114 -0.5437  0.2526
  229MPD1    H3 3482   3.338   2.052  14.879  2.6186  0.1783 -0.0941
  229MPD1     N 3483   3.623   1.793  15.082 -0.3577 -0.3612 -0.2498
  229MPD1    H5 3484   3.693   1.857  15.046  0.1866 -0.4465  0.6309
  229MPD1    N1 3485   3.144   1.720  15.109 -0.2054 -0.1365  0.2759
  229MPD1    H6 3486   3.155   1.625  15.142 -0.4276  0.2069  1.3507
  229MPD1    H7 3487   3.055   1.736  15.064 -0.6967 -0.6091  1.0720
  230MPD1     C 3488   4.128   1.207  15.763 -0.3112  0.3318 -0.0129
  230MPD1    C1 3489   4.084   1.130  15.655  0.4787 -0.1758  0.4138
  230MPD1    C2 3490   4.046   1.196  15.538  0.0998  0.0490  0.0287
  230MPD1    C3 3491   4.065   1.331  15.521 -0.4942  0.2185 -0.1216
  230MPD1    C4 3492   4.117   1.398  15.626  0.3228 -0.4953  0.2309
  230MPD1    C5 3493   4.139   1.339  15.747 -0.1437 -0.4871  0.0655
  230MPD1     H 3494   3.990   1.144  15.461 -0.4736  3.0522 -1.5687
  230MPD1    H1 3495   4.141   1.503  15.626 -0.8173 -0.2292 -0.6549
  230MPD1    H2 3496   4.147   1.156  15.857 -2.6977  2.0245  1.4008
  230MPD1    H3 3497   4.176   1.389  15.836 -0.6694  1.0524 -0.5888
  230MPD1     N 3498   4.031   1.403  15.404  0.5352  0.0758 -0.4547
  230MPD1    H5 3499   3.977   1.349  15.337  3.3481 -1.5931 -1.3771
  230MPD1    N1 3500   4.054   0.998  15.681 -0.0128  0.5086  0.3443
  230MPD1    H6 3501   4.117   0.967  15.754  0.4322 -2.0241 -1.1118
  230MPD1    H7 3502   4.061   0.936  15.600  3.3158  0.5432  0.6246
  231MPD1     C 3503   2.205   3.624  15.855 -0.3070  0.3198  0.4615
  231MPD1    C1 3504   2.166   3.605  15.724 -0.2885 -0.4619 -0.0512
  231MPD1    C2 3505   2.251   3.639  15.622  0.4303 -0.6582 -0.8361
  231MPD1    C3 3506   2.379   3.687  15.649  0.3145 -0.1152  0.2342
  231MPD1    C4 3507   2.416   3.696  15.783  0.1220 -0.0438 -0.5962
  231MPD1    C5 3508   2.328   3.668  15.883 -0.5563  0.0345  0.5861
  231MPD1     H 3509   2.226   3.628  15.517 -0.2770 -0.8376 -0.6547
  231MPD1    H1 3510   2.506   3.749  15.813  0.2347  0.1701 -1.3117
  231MPD1    H2 3511   2.138   3.618  15.939  0.4565 -1.6542  0.9296
  231MPD1    H3 3512   2.356   3.686  15.986  2.5749 -0.1219 -0.2534
  231MPD1     N 3513   2.464   3.703  15.541  0.0195 -0.0075  0.1683
  231MPD1    H5 3514   2.428   3.686  15.448  0.3850  0.1118  0.0059
  231MPD1    N1 3515   2.032   3.575  15.686 -0.9484 -0.0075  0.1721
  231MPD1    H6 3516   2.022   3.532  15.594 -1.7204  0.9252 -0.1748
  231MPD1    H7 3517   1.985   3.520  15.757  0.0031  1.1341  1.6824
  232MPD1     C 3518   3.058   0.738  17.502 -0.5735  0.6022  0.4205
  232MPD1    C1 3519   2.959   0.829  17.530  0.4735  0.7186 -0.2766
  232MPD1    C2 3520   2.961   0.898  17.649  0.0965 -0.3412 -0.2014
  232MPD1    C3 3521   3.039   0.857   0.053  0.1916  0.6563 -0.7843
  232MPD1    C4 3522   3.124   0.754   0.037  0.0954 -0.3375 -0.1446
  232MPD1    C5 3523   3.133   0.694  17.610 -0.3122  0.0965  0.2006
  232MPD1     H 3524   2.898   0.986  17.660 -0.3227 -0.6584 -0.0403
  232MPD1    H1 3525   3.181   0.713   0.119 -1.4265  0.8966  1.5150
  232MPD1    H2 3526   3.081   0.688  17.408 -2.0740 -1.2086  1.0156
  232MPD1    H3 3527   3.204   0.612  17.602 -0.1999  0.0559  1.6455
  232MPD1     N 3528   3.038   0.930   0.171  0.0330  0.0646  0.0472
  232MPD1    H5 3529   2.962   0.995   0.189 -0.4015 -0.8727  1.6861
  232MPD1    N1 3530   2.890   0.874  17.419 -0.2268  0.9078 -0.4532
  232MPD1    H6 3531   2.798   0.911  17.444  0.8020  2.8575  0.5268
  232MPD1    H7 3532   2.885   0.801  17.348 -0.7997  0.5226 -0.0232
  233MPD1     C 3533   4.545   0.165   1.655 -0.1238  0.3996  0.9930
  233MPD1    C1 3534   4.667   0.219   1.599 -0.4184  0.0914  0.2769
  233MPD1    C2 3535   0.023   0.130   1.520  0.1565 -0.4641 -0.7157
  233MPD1    C3 3536   4.711   4.716   1.523  0.1855  0.6737 -0.1179
  233MPD1    C4 3537   4.598   4.676   1.589 -0.4793  0.1228 -0.4777
  233MPD1    C5 3538   4.508   0.036   1.647 -0.4107  0.9352  0.0332
  233MPD1     H 3539   0.116   0.156   1.470  0.5194 -2.3015 -1.0266
  233MPD1    H1 3540   4.581   4.570   1.600  0.6137 -0.0997 -0.9542
  233MPD1    H2 3541   4.482   0.230   1.714 -1.8792  0.0765 -0.5606
  233MPD1    H3 3542   4.422   4.720   1.701  0.3656 -1.6258 -0.5934
  233MPD1     N 3543   0.058   4.616   1.453  0.0926  0.7073 -1.0436
  233MPD1    H5 3544   0.029   4.520   1.467 -0.0242  0.7574 -0.9453
  233MPD1    N1 3545   4.684   0.360   1.607 -0.0147 -0.2070  0.2965
  233MPD1    H6 3546   4.652   0.397   1.696 -0.1052  1.5119 -0.4396
  233MPD1    H7 3547   0.057   0.392   1.595 -0.5764  1.6294  0.6427
  234MPD1     C 3548   1.748   2.447   9.418  0.1105 -0.6241  0.1044
  234MPD1    C1 3549   1.800   2.568   9.455  0.0254  0.3650  0.5753
  234MPD1    C2 3550   1.725   2.685   9.441  0.0887  0.1247  0.3745
  234MPD1    C3 3551   1.594   2.679   9.419  0.6999  0.4616 -0.8724
  234MPD1    C4 3552   1.536   2.562   9.384  0.6463  0.2674  0.1458
  234MPD1    C5 3553   1.615   2.451   9.396  0.3493  0.2766 -0.1138
  234MPD1     H 3554   1.768   2.784   9.450  2.7571 -0.9580 -0.4987
  234MPD1    H1 3555   1.433   2.556   9.351 -0.4591  2.6365  3.1256
  234MPD1    H2 3556   1.812   2.360   9.404  2.1072  1.0301 -1.0814
  234MPD1    H3 3557   1.578   2.357   9.355  1.8256 -0.2045 -0.3168
  234MPD1     N 3558   1.519   2.803   9.424  0.6755 -0.3292 -0.2717
  234MPD1    H5 3559   1.558   2.891   9.453 -0.9447 -0.2240  1.5810
  234MPD1    N1 3560   1.939   2.574   9.463 -0.5812  0.1154  0.3389
  234MPD1    H6 3561   1.965   2.654   9.520 -1.0913  1.7765 -1.7480
  234MPD1    H7 3562   1.974   2.490   9.508 -0.6305  0.3395  0.7892
  235MPD1     C 3563   2.188   0.797   9.859 -0.2806 -0.5504  0.9044
  235MPD1    C1 3564   2.212   0.810   9.727 -0.5725  0.3962 -0.2556
  235MPD1    C2 3565   2.338   0.859   9.687 -0.2178 -0.0730 -0.0636
  235MPD1    C3 3566   2.421   0.918   9.779  0.0270  0.0548  0.1616
  235MPD1    C4 3567   2.388   0.921   9.914  0.0027  0.0896 -0.3372
  235MPD1    C5 3568   2.271   0.855   9.951 -0.7273 -0.4002 -0.2280
  235MPD1     H 3569   2.368   0.864   9.583  0.1816 -1.4028 -0.0120
  235MPD1    H1 3570   2.449   0.964   9.992  0.2555 -0.0313 -0.4666
  235MPD1    H2 3571   2.104   0.739   9.896 -0.7006 -0.9239 -0.6235
  235MPD1    H3 3572   2.263   0.821  10.054  1.2618 -3.3202 -1.0268
  235MPD1     N 3573   2.536   0.979   9.730  0.5678 -0.3264  0.8016
  235MPD1    H5 3574   2.554   0.978   9.630 -0.9288 -0.3224  0.5359
  235MPD1    N1 3575   2.125   0.754   9.632  0.3785  0.0291  0.0889
  235MPD1    H6 3576   2.107   0.809   9.549  0.6461 -0.3210 -0.2014
  235MPD1    H7 3577   2.035   0.729   9.674  0.4978 -0.5688 -0.0141
  236MPD1     C 3578   2.237   2.026   9.973  0.0998 -0.1006 -0.1788
  236MPD1    C1 3579   2.265   1.898   9.942  0.7611  0.8690  0.1928
  236MPD1    C2 3580   2.329   1.822  10.043  0.3407  0.5613  0.1287
  236MPD1    C3 3581   2.348   1.865  10.177 -0.1530 -0.4681 -0.2077
  236MPD1    C4 3582   2.313   1.994  10.200  0.0657 -0.7824  0.4775
  236MPD1    C5 3583   2.266   2.080  10.097  0.1544 -0.0810 -0.0821
  236MPD1     H 3584   2.368   1.723  10.021  2.7302  1.6167 -0.2940
  236MPD1    H1 3585   2.332   2.038  10.297  0.2701 -1.4771  0.7526
  236MPD1    H2 3586   2.188   2.089   9.900  0.8478 -2.4539 -2.7192
  236MPD1    H3 3587   2.252   2.179  10.139 -0.0703  0.1156 -0.6174
  236MPD1     N 3588   2.422   1.796  10.279  0.0989  0.3396 -0.6180
  236MPD1    H5 3589   2.430   1.848  10.366 -0.5131 -0.2469 -0.2099
  236MPD1    N1 3590   2.238   1.840   9.815  0.0879  0.8760  0.1072
  236MPD1    H6 3591   2.237   1.908   9.739 -1.1594 -0.7505 -1.3443
  236MPD1    H7 3592   2.294   1.762   9.782 -1.0270  0.8866 -1.8158
  237MPD1     C 3593   2.771   0.077  15.071 -0.5825  0.3126 -0.4690
  237MPD1    C1 3594   2.691   0.035  15.175 -0.0256  0.7038  0.1236
  237MPD1    C2 3595   2.556   0.029  15.151 -0.0559  0.6721 -0.1887
  237MPD1    C3 3596   2.498   0.051  15.026  0.0008 -0.9805 -0.2657
  237MPD1    C4 3597   2.579   0.097  14.929  0.8819  0.1734  0.0101
  237MPD1    C5 3598   2.717   0.103  14.946  0.0852 -0.3814 -0.1999
  237MPD1     H 3599   2.493   4.709  15.228 -0.1632 -0.0362 -0.6719
  237MPD1    H1 3600   2.545   0.110  14.827  0.7791  1.8730  0.2756
  237MPD1    H2 3601   2.874   0.079  15.105 -0.8593 -1.3609  0.4812
  237MPD1    H3 3602   2.771   0.134  14.857 -0.4324 -0.5462 -0.5681
  237MPD1     N 3603   2.357   0.039  15.005 -0.3067 -0.2150  0.1640
  237MPD1    H5 3604   2.316   0.052  14.913  0.8956 -0.3714 -0.3920
  237MPD1    N1 3605   2.744   0.022  15.302  0.2357  0.0058 -0.3084
  237MPD1    H6 3606   2.845   0.015  15.308  0.0883  0.0574  2.3411
  237MPD1    H7 3607   2.700   4.666  15.349 -0.6936  1.1716  0.7783
  238MPD1     C 3608   3.690   4.248  14.539  0.0326  0.3717  0.6774
  238MPD1    C1 3609   3.702   4.170  14.426 -0.4209  0.9179 -0.0771
  238MPD1    C2 3610   3.705   4.032  14.445 -0.2658 -0.5202  0.2951
  238MPD1    C3 3611   3.704   3.965  14.565 -0.3233  0.4354  0.0814
  238MPD1    C4 3612   3.697   4.046  14.670  0.7706  0.4640 -0.6268
  238MPD1    C5 3613   3.674   4.181  14.654 -0.4143 -1.2425 -0.4144
  238MPD1     H 3614   3.734   3.960  14.370 -0.3753 -0.3384  0.0764
  238MPD1    H1 3615   3.685   4.002  14.768 -0.8242  0.8938 -0.6267
  238MPD1    H2 3616   3.696   4.356  14.548 -2.8470  0.6688 -0.8447
  238MPD1    H3 3617   3.656   4.233  14.748  0.1599 -0.0153 -0.9829
  238MPD1     N 3618   3.676   3.829  14.560 -0.1596 -0.2479  0.1856
  238MPD1    H5 3619   3.658   3.795  14.467  1.3005  1.4218 -0.7115
  238MPD1    N1 3620   3.739   4.224  14.300  0.2942 -0.1388  0.0563
  238MPD1    H6 3621   3.700   4.315  14.277 -1.7152 -0.9354  0.2547
  238MPD1    H7 3622   3.715   4.163  14.222  1.2203  1.6043 -1.5783
  239MPD1     C 3623   4.177   4.489  14.855 -0.0154 -0.4565 -0.3915
  239MPD1    C1 3624   4.279   4.550  14.791  0.0523  0.2503 -0.5996
  239MPD1    C2 3625   4.267   4.561  14.654 -0.4291 -0.7032 -0.2521
  239MPD1    C3 3626   4.167   4.516  14.574 -0.5141 -0.7131 -0.3753
  239MPD1    C4 3627   4.068   4.449  14.644  0.2425 -0.5012  0.1454
  239MPD1    C5 3628   4.082   4.428  14.777  0.3799  0.8312 -0.3805
  239MPD1     H 3629   4.345   4.612  14.598  0.7582 -1.5286  0.6471
  239MPD1    H1 3630   3.996   4.393  14.586  0.1313 -1.7704  1.5047
  239MPD1    H2 3631   4.189   4.462  14.959 -0.9707 -2.8341 -0.9057
  239MPD1    H3 3632   4.015   4.358  14.825  0.1840  0.1089 -1.6979
  239MPD1     N 3633   4.163   4.528  14.436  0.1343  0.2777  0.0357
  239MPD1    H5 3634   4.085   4.482  14.389 -0.2539  1.5426 -0.5466
  239MPD1    N1 3635   4.378   4.624  14.859  0.4631  0.6166  0.3359
  239MPD1    H6 3636   4.407   4.587  14.950 -0.2510  1.0270  0.7305
  239MPD1    H7 3637   4.463   4.637  14.804 -0.5679 -0.7163 -1.5685
  240MPD1     C 3638   3.004   4.403  13.360 -0.5238 -0.3406 -0.0749
  240MPD1    C1 3639   2.906   4.302  13.370 -0.1277  0.0120 -0.5013
  240MPD1    C2 3640   2.960   4.182  13.406 -0.0487 -0.2554  0.2058
  240MPD1    C3 3641   3.096   4.153  13.420 -0.2975  0.3757 -0.0012
  240MPD1    C4 3642   3.181   4.259  13.397  0.0166 -0.8061 -0.7693
  240MPD1    C5 3643   3.137   4.378  13.369 -0.3686 -0.5250 -0.2781
  240MPD1     H 3644   2.890   4.101  13.426 -0.6429 -0.0402 -0.9705
  240MPD1    H1 3645   3.288   4.249  13.408  0.1475  1.4772 -0.0667
  240MPD1    H2 3646   2.976   4.507  13.346 -0.8051 -0.6693 -1.9308
  240MPD1    H3 3647   3.203   4.464  13.367  0.6773 -1.2843  1.9897
  240MPD1     N 3648   3.136   4.024  13.457  0.4826  0.9677 -0.6666
  240MPD1    H5 3649   3.060   3.962  13.484  1.8002  0.0519  0.8982
  240MPD1    N1 3650   2.765   4.331  13.374 -0.3345  0.1430 -0.3431
  240MPD1    H6 3651   2.743   4.407  13.310  1.6219  0.2741 -0.8730
  240MPD1    H7 3652   2.704   4.259  13.336  0.5725 -1.7093  1.7277
  241MPD1     C 3653   3.942   3.352  13.376  0.1279  0.2984 -0.5434
  241MPD1    C1 3654   3.817   3.307  13.361 -0.0105  0.0503  0.0461
  241MPD1    C2 3655   3.716   3.391  13.399  0.5739 -0.6436 -0.7090
  241MPD1    C3 3656   3.746   3.518  13.451 -0.7651  0.3106 -0.5961
  241MPD1    C4 3657   3.876   3.567  13.451 -0.7246  0.4850  0.0365
  241MPD1    C5 3658   3.974   3.478  13.421 -0.2809  0.2436  0.3076
  241MPD1     H 3659   3.614   3.356  13.393  0.8863 -1.6846 -0.0276
  241MPD1    H1 3660   3.900   3.665  13.491 -1.8316  0.7008  0.1695
  241MPD1    H2 3661   4.018   3.298  13.322  1.8969  1.1677  1.0675
  241MPD1    H3 3662   4.078   3.507  13.424 -0.2638  0.3073 -0.8419
  241MPD1     N 3663   3.646   3.601  13.506 -0.3048  0.0213 -0.4841
  241MPD1    H5 3664   3.670   3.697  13.531 -0.5766  0.4768 -1.9300
  241MPD1    N1 3665   3.803   3.180  13.301 -0.1914 -0.4098  0.1316
  241MPD1    H6 3666   3.716   3.133  13.326 -1.4048  1.3563 -0.7405
  241MPD1    H7 3667   3.885   3.126  13.327 -1.2026 -2.4503 -0.9236
  242MPD1     C 3668   2.891   1.593  15.770 -0.8696 -0.4139  0.1653
  242MPD1    C1 3669   2.889   1.703  15.856 -0.9754 -0.7157  0.2540
  242MPD1    C2 3670   2.951   1.824  15.819  0.2018 -0.4239 -0.8815
  242MPD1    C3 3671   2.995   1.838  15.684 -0.1098 -0.1122 -0.5819
  242MPD1    C4 3672   2.970   1.741  15.595 -0.3343 -0.3634 -0.1975
  242MPD1    C5 3673   2.923   1.622  15.644 -0.5543 -0.9876 -0.5758
  242MPD1     H 3674   2.955   1.906  15.889  0.1674 -1.9631  0.9095
  242MPD1    H1 3675   2.990   1.756  15.490  1.8126  0.8853  0.3808
  242MPD1    H2 3676   2.851   1.495  15.790 -0.5920 -0.0892  2.3296
  242MPD1    H3 3677   2.913   1.533  15.582 -1.3134 -2.0114  1.0349
  242MPD1     N 3678   3.040   1.967  15.638 -0.3055 -0.6139  0.0755
  242MPD1    H5 3679   3.054   1.979  15.538 -1.3056  1.0692  0.1333
  242MPD1    N1 3680   2.851   1.690  15.991 -0.4343  0.3835  0.2677
  242MPD1    H6 3681   2.809   1.776  16.024 -1.0323 -0.6812  2.2870
  242MPD1    H7 3682   2.781   1.618  16.009 -0.1432  0.2123  0.6901
  243MPD1     C 3683   0.880   0.611   0.277 -0.1767 -0.2108 -0.4626
  243MPD1    C1 3684   0.743   0.606   0.299  0.7302 -0.0688 -0.3997
  243MPD1    C2 3685   0.658   0.616   0.194 -0.2967  0.1965  0.6563
  243MPD1    C3 3686   0.699   0.661   0.071 -0.8555  0.4734  0.0569
  243MPD1    C4 3687   0.838   0.684   0.057  0.3253 -0.4173 -0.3054
  243MPD1    C5 3688   0.920   0.644   0.155 -0.6495 -0.0737 -0.6066
  243MPD1     H 3689   0.552   0.598   0.207 -0.1044 -1.6415 -0.4041
  243MPD1    H1 3690   0.890   0.708  17.662  2.1671 -0.5294  0.7051
  243MPD1    H2 3691   0.947   0.595   0.361  1.6550  3.3747 -1.2623
  243MPD1    H3 3692   1.026   0.640   0.130 -0.4044 -0.7783  0.5458
  243MPD1     N 3693   0.611   0.682  17.663  0.7501  0.1789  0.1186
  243MPD1    H5 3694   0.514   0.661  17.682  1.3864 -2.7200  0.0660
  243MPD1    N1 3695   0.700   0.569   0.426  0.0173  0.8285  0.6686
  243MPD1    H6 3696   0.767   0.585   0.501  2.0410 -0.3503 -0.8876
  243MPD1    H7 3697   0.605   0.601   0.444 -0.4053 -0.6721  1.0674
  244MPD1     C 3698   4.507   0.990   0.095  0.6349  0.4588 -0.4229
  244MPD1    C1 3699   4.617   1.072   0.112 -0.0561  0.1619  0.4212
  244MPD1    C2 3700   0.008   1.026   0.041  0.2259  0.2823 -0.2253
  244MPD1    C3 3701   0.018   0.900  17.674 -0.0978  0.2593 -0.7373
  244MPD1    C4 3702   4.628   0.822  17.677  0.0663 -0.0806  0.5386
  244MPD1    C5 3703   4.518   0.863   0.045  0.1948 -0.5174 -0.1428
  244MPD1     H 3704   0.095   1.087   0.019  0.5203  1.1933  3.4726
  244MPD1    H1 3705   4.625   0.728  17.623  1.8243  0.1010  0.1320
  244MPD1    H2 3706   4.405   1.017   0.121  0.7588 -0.8329  1.3955
  244MPD1    H3 3707   4.428   0.804   0.030  0.1522 -0.2149 -1.1349
  244MPD1     N 3708   0.143   0.864  17.615  0.6305 -0.6539 -0.5265
  244MPD1    H5 3709   0.221   0.926  17.628 -0.2584  0.3126  0.2617
  244MPD1    N1 3710   4.603   1.204   0.161  0.0375 -0.2346 -0.2807
  244MPD1    H6 3711   4.687   1.260   0.176 -0.8201  0.4287  1.9518
  244MPD1    H7 3712   4.537   1.216   0.237  0.9535 -0.6141  0.5781
  245MPD1     C 3713   1.870   1.794  13.156 -0.0267 -0.2878  0.2120
  245MPD1    C1 3714   1.994   1.801  13.216  0.0486 -0.5946  0.5429
  245MPD1    C2 3715   2.030   1.918  13.282  0.3128  0.3440 -0.3817
  245MPD1    C3 3716   1.950   2.028  13.283 -0.1115 -0.1326  0.2175
  245MPD1    C4 3717   1.830   2.020  13.209  0.5697 -0.0961  0.2981
  245MPD1    C5 3718   1.791   1.906  13.146 -0.0873 -0.5484 -0.4814
  245MPD1     H 3719   2.125   1.923  13.333  1.0979  0.7665 -1.8672
  245MPD1    H1 3720   1.761   2.104  13.205  0.4538 -0.2879 -1.6863
  245MPD1    H2 3721   1.841   1.703  13.105 -1.0858  0.1326  0.0586
  245MPD1    H3 3722   1.703   1.904  13.083  0.2621 -1.0261 -0.9593
  245MPD1     N 3723   2.000   2.146  13.349  0.1627  0.0221 -0.3742
  245MPD1    H5 3724   2.095   2.140  13.384 -0.1430  0.7247  0.5892
  245MPD1    N1 3725   2.079   1.687  13.226  0.0257 -0.4063  0.1486
  245MPD1    H6 3726   2.076   1.623  13.146  1.0724 -2.3504  1.6710
  245MPD1    H7 3727   2.176   1.704  13.248 -0.1862  1.8429 -0.6862
  246MPD1     C 3728   2.785   3.246   9.768  1.2184  0.0043 -0.3781
  246MPD1    C1 3729   2.728   3.296   9.650  0.1902 -0.1230 -0.0803
  246MPD1    C2 3730   2.737   3.231   9.535  1.0838  0.0843  0.0216
  246MPD1    C3 3731   2.780   3.098   9.539 -0.3255 -0.1717  0.6357
  246MPD1    C4 3732   2.842   3.047   9.652  0.3887 -0.4188 -0.2078
  246MPD1    C5 3733   2.839   3.116   9.768 -0.1571 -0.1466 -0.9235
  246MPD1     H 3734   2.696   3.278   9.447 -2.1103 -1.2541  0.7837
  246MPD1    H1 3735   2.889   2.949   9.648  1.2617  0.0935 -2.7267
  246MPD1    H2 3736   2.776   3.301   9.861 -0.4088  1.7308 -1.5537
  246MPD1    H3 3737   2.904   3.085   9.849 -1.4708  0.6408  0.4358
  246MPD1     N 3738   2.760   3.025   9.418 -0.1905 -0.4547  0.0470
  246MPD1    H5 3739   2.725   3.080   9.340 -0.5093 -1.4333 -0.5050
  246MPD1    N1 3740   2.683   3.433   9.649 -0.4572 -0.3253  0.1935
  246MPD1    H6 3741   2.614   3.438   9.574 -0.0364  0.2142 -0.1510
  246MPD1    H7 3742   2.647   3.458   9.741  2.5418  2.6514  0.5214
  247MPD1     C 3743   1.585   1.892  16.805 -0.6053 -0.0970  0.4160
  247MPD1    C1 3744   1.503   1.784  16.829 -0.5129 -0.1781  0.3395
  247MPD1    C2 3745   1.415   1.741  16.729  0.4617 -0.4957  0.2159
  247MPD1    C3 3746   1.432   1.788  16.594 -0.0488  0.0859  0.1219
  247MPD1    C4 3747   1.524   1.890  16.572  0.2868 -0.8712  0.1165
  247MPD1    C5 3748   1.601   1.938  16.678  0.7773  0.4741 -0.8359
  247MPD1     H 3749   1.348   1.660  16.755 -0.9078  0.3597 -0.6343
  247MPD1    H1 3750   1.540   1.939  16.477 -1.0795 -1.0444 -0.2041
  247MPD1    H2 3751   1.645   1.934  16.886 -1.6669 -0.4799  1.3940
  247MPD1    H3 3752   1.657   2.029  16.656 -1.0025  1.7455 -0.1052
  247MPD1     N 3753   1.364   1.720  16.483 -0.4712 -0.3210  0.6081
  247MPD1    H5 3754   1.377   1.754  16.388 -1.6833  1.0333  0.9181
  247MPD1    N1 3755   1.494   1.751  16.963 -0.4359  0.6309  0.2882
  247MPD1    H6 3756   1.484   1.651  16.979 -3.1298  1.4291  3.6130
  247MPD1    H7 3757   1.586   1.766  17.003  0.3423 -1.0678 -0.8465
  248MPD1     C 3758   2.768   0.064   0.770 -0.9745  0.5578  0.3161
  248MPD1    C1 3759   2.863   0.086   0.872 -0.9173  0.0173  0.3210
  248MPD1    C2 3760   2.829   0.192   0.959 -0.3069 -0.1781  0.4213
  248MPD1    C3 3761   2.706   0.245   0.974  0.3125  0.0933  0.1592
  248MPD1    C4 3762   2.608   0.202   0.889  0.4108  0.4039 -0.0263
  248MPD1    C5 3763   2.650   0.132   0.779 -0.2048  0.4823 -0.7863
  248MPD1     H 3764   2.907   0.226   1.026  1.1625 -0.7096 -1.0144
  248MPD1    H1 3765   2.505   0.236   0.900  0.5685  0.3511  1.5814
  248MPD1    H2 3766   2.802   0.009   0.683 -1.5125  1.9881 -0.8057
  248MPD1    H3 3767   2.584   0.126   0.693 -0.5179 -0.1007 -0.5095
  248MPD1     N 3768   2.685   0.342   1.077  0.3286 -0.3432 -0.4137
  248MPD1    H5 3769   2.759   0.352   1.145  0.0229 -1.8473  0.1225
  248MPD1    N1 3770   2.990   0.036   0.863 -0.6324 -0.0761 -0.7114
  248MPD1    H6 3771   3.034   0.025   0.954 -0.9746 -0.5949 -0.6075
  248MPD1    H7 3772   2.985   4.670   0.816 -4.8078 -0.4956  0.6156
  249MPD1     C 3773   3.896   4.587  10.240 -0.2836  0.2794 -0.2430
  249MPD1    C1 3774   4.031   4.582  10.258 -0.1868  0.0432 -0.1192
  249MPD1    C2 3775   4.109   4.557  10.146  0.1791  0.1841  0.0564
  249MPD1    C3 3776   4.053   4.520  10.024  0.1009 -0.1199  0.7413
  249MPD1    C4 3777   3.919   4.520  10.015 -0.1038  0.6109 -0.4408
  249MPD1    C5 3778   3.839   4.560  10.114  0.6630 -0.4920  0.3309
  249MPD1     H 3779   4.217   4.565  10.147  0.4014 -2.6751  0.1523
  249MPD1    H1 3780   3.878   4.516   9.914  1.8408  3.0144 -1.3437
  249MPD1    H2 3781   3.830   4.622  10.318  0.9798  1.4338  0.3088
  249MPD1    H3 3782   3.733   4.577  10.101  1.1360  0.4996 -2.3917
  249MPD1     N 3783   4.138   4.506   9.916 -0.6621 -0.1023 -0.1434
  249MPD1    H5 3784   4.237   4.509   9.937 -0.2580 -2.4542 -1.7079
  249MPD1    N1 3785   4.098   4.604  10.379  0.3632  0.0687 -0.0501
  249MPD1    H6 3786   4.040   4.570  10.456  1.6511 -0.4939  0.6776
  249MPD1    H7 3787   4.190   4.562  10.389  0.0430 -0.1308  2.2005
  250MPD2     C 3788   0.286   0.312  13.177 -0.8881  0.5326 -0.1871
  250MPD2    C1 3789   0.370   0.303  13.067 -0.0040 -0.1960 -0.8222
  250MPD2    C2 3790   0.354   0.202  12.975  0.0592 -0.1744  0.0685
  250MPD2    C3 3791   0.265   0.099  13.009 -0.1406  0.5814  0.4801
  250MPD2    C4 3792   0.182   0.113  13.115  0.4010  0.9265  0.4922
  250MPD2    C5 3793   0.192   0.219  13.200  0.6811 -0.2349  0.0624
  250MPD2     H 3794   0.403   0.208  12.879 -1.0206 -0.9912 -0.5341
  250MPD2    H1 3795   0.107   0.041  13.147  1.8748 -0.7908  0.1248
  250MPD2    H2 3796   0.304   0.392  13.248 -1.3555 -0.5187  1.0982
  250MPD2    H3 3797   0.120   0.220  13.281  1.3652 -0.5824  0.6761
  250MPD2     N 3798   0.244   4.716  12.924 -0.2390  0.0006  0.0027
  250MPD2    H5 3799   0.169   4.652  12.950  0.4227 -1.3796 -1.4878
  250MPD2    N1 3800   0.455   0.413  13.042 -0.3779  0.2470  0.2038
  250MPD2    H7 3801   0.444   0.496  13.100  0.3477  0.5065 -0.0312
  251TMC3    C1 3802   0.617   0.538  12.940 -0.4896 -0.5452  0.3839
  251TMC3    C2 3803   0.550   0.652  12.961  0.1961  0.0166 -0.3260
  251TMC3    C3 3804   0.623   0.765  12.926  0.2113  0.7905 -0.3230
  251TMC3    C4 3805   0.747   0.537  12.914 -0.0023  0.4647 -0.4763
  251TMC3    C5 3806   0.818   0.650  12.893 -0.2136  0.5787 -0.7706
  251TMC3    C6 3807   0.757   0.775  12.898 -0.1981  0.1494 -0.1719
  251TMC3     C 3808   0.561   0.404  12.961 -0.4333  0.4083 -0.1988
  251TMC3     O 3809   0.615   0.306  12.903 -0.0726  0.0597  0.8067
  251TMC3     H 3810   0.443   0.663  12.968  0.4759  0.4956  3.1460
  251TMC3    H1 3811   0.799   0.443  12.899  1.1337  1.1118 -0.6852
  251TMC3    H2 3812   0.812   0.865  12.874 -2.7184  1.4442 -1.1563
  251TMC3    C7 3813   0.961   0.636  12.898 -0.4176 -0.4794  0.5641
  251TMC3    C8 3814   0.545   0.884  12.903  0.9642  0.6193  0.0943
  251TMC3    O1 3815   1.000   0.525  12.863 -0.1290 -0.0493 -0.2046
  251TMC3    O2 3816   0.434   0.887  12.949 -0.0462 -0.3169  0.2874
  252TMC3    C1 3817   0.165   1.610   9.338  0.1375  0.1565 -0.4862
  252TMC3    C2 3818   0.285   1.659   9.294 -0.8282  0.3561  0.0133
  252TMC3    C3 3819   0.398   1.590   9.332  0.0211  0.2655 -0.1617
  252TMC3    C4 3820   0.152   1.499   9.423 -0.7029  0.4167  0.7729
  252TMC3    C5 3821   0.272   1.432   9.458  0.3667 -0.0078  0.1539
  252TMC3    C6 3822   0.396   1.477   9.409 -0.1392  0.1911 -0.5012
  252TMC3     C 3823   0.043   1.696   9.326 -0.0390  0.3288  0.8614
  252TMC3     O 3824   0.057   1.817   9.309 -0.3283  0.6403 -0.4463
  252TMC3     H 3825   0.293   1.757   9.249  1.6806  1.5447  3.0191
  252TMC3    H1 3826   0.056   1.471   9.464 -0.8644  0.9625  0.7657
  252TMC3    H2 3827   0.490   1.423   9.402 -1.3592 -1.9448 -0.5137
  252TMC3    C7 3828   0.263   1.303   9.510  0.6118  0.4279 -0.7624
  252TMC3    C8 3829   0.520   1.659   9.293  0.4129 -0.3135 -0.4786
  252TMC3    O1 3830   0.158   1.242   9.495  0.5008  0.0287  0.4488
  252TMC3    O2 3831   0.511   1.751   9.214 -0.2917 -0.5892  0.4761
  253MPD2     C 3832   2.007   0.321  15.723 -0.5019 -0.0159 -0.5795
  253MPD2    C1 3833   1.870   0.341  15.730  0.3358  0.1911  1.0047
  253MPD2    C2 3834   1.811   0.366  15.847  0.0112 -0.7175 -0.3245
  253MPD2    C3 3835   1.880   0.405  15.957 -0.6837  0.4532  0.2862
  253MPD2    C4 3836   2.016   0.384  15.947 -0.1095 -0.6120 -0.2261
  253MPD2    C5 3837   2.085   0.343  15.833 -0.1316  0.0872  0.1863
  253MPD2     H 3838   1.703   0.378  15.850  0.1867  0.5212  1.0386
  253MPD2    H1 3839   2.071   0.390  16.040  1.5497 -0.4470 -1.2199
  253MPD2    H2 3840   2.067   0.290  15.638  0.8249 -1.3233  0.8184
  253MPD2    H3 3841   2.192   0.323  15.833 -0.8553 -3.6973  0.2344
  253MPD2     N 3842   1.817   0.437  16.084 -0.5283  0.0821  0.6608
  253MPD2    H5 3843   1.874   0.423  16.166  0.9332 -1.3882 -0.5965
  253MPD2    N1 3844   1.784   0.333  15.623 -0.1480  0.0261  0.6342
  253MPD2    H7 3845   1.686   0.338  15.649 -0.6384 -1.4122 -0.9047
  254TMC3    C1 3846   1.636   0.514  16.217 -0.7461 -0.0025  0.1948
  254TMC3    C2 3847   1.524   0.603  16.223  0.1639  0.8895  0.3782
  254TMC3    C3 3848   1.453   0.599  16.341  0.3735  0.5332 -0.5364
  254TMC3    C4 3849   1.668   0.432  16.317  0.0070 -0.3373 -0.0740
  254TMC3    C5 3850   1.603   0.452  16.433 -0.2745 -0.5112  1.0228
  254TMC3    C6 3851   1.500   0.533  16.451 -0.9408 -0.2281 -0.2451
  254TMC3     C 3852   1.694   0.498  16.088 -0.0784 -0.0741 -0.0187
  254TMC3     O 3853   1.640   0.559  15.996  0.6317  0.2831 -0.1254
  254TMC3     H 3854   1.494   0.671  16.144  0.2718  0.4992  0.0083
  254TMC3    H1 3855   1.745   0.357  16.306  0.6081  0.4104 -0.9359
  254TMC3    H2 3856   1.452   0.547  16.548 -1.6321 -0.0536 -0.6129
  254TMC3    C7 3857   1.668   0.401  16.554  0.3385 -0.2226  0.7812
  254TMC3    C8 3858   1.329   0.672  16.360 -0.1248 -0.2635  0.1990
  254TMC3    O1 3859   1.762   0.333  16.526 -0.1441  0.3611 -0.0003
  254TMC3    O2 3860   1.288   0.689  16.473 -1.1191 -0.1767 -0.0405
  255MPD2     C 3861   3.875   3.223   9.669  0.5521  1.3664 -0.2614
  255MPD2    C1 3862   3.949   3.218   9.786  0.8172  0.0156  0.4726
  255MPD2    C2 3863   4.065   3.150   9.796  0.1020  0.3107 -0.2234
  255MPD2    C3 3864   4.101   3.066   9.697 -0.2047  0.3104 -0.0447
  255MPD2    C4 3865   4.015   3.043   9.595  0.8305 -0.0103  0.7403
  255MPD2    C5 3866   3.903   3.122   9.582  0.4048 -0.5732 -0.1980
  255MPD2     H 3867   4.130   3.161   9.882 -1.0648  1.7597  0.4704
  255MPD2    H1 3868   4.042   2.979   9.511  0.3887  0.9687 -0.1500
  255MPD2    H2 3869   3.787   3.284   9.656 -0.6879 -0.1816  0.8787
  255MPD2    H3 3870   3.844   3.118   9.491 -0.5551  0.9991  0.3654
  255MPD2     N 3871   4.226   3.006   9.707 -0.1470  0.2641  0.6376
  255MPD2    H5 3872   4.276   3.041   9.788 -0.8178  1.2805  0.5998
  255MPD2    N1 3873   3.920   3.308   9.891 -0.4926 -0.2993  1.1347
  255MPD2    H7 3874   3.844   3.373   9.874  0.1820  0.6149  1.6501
  256TMC3    C1 3875   3.872   3.399  10.101 -0.5996  0.1960  0.0009
  256TMC3    C2 3876   3.933   3.524  10.122  0.4386  0.1274  0.5171
  256TMC3    C3 3877   3.859   3.638  10.096 -0.1164  0.2002  0.0783
  256TMC3    C4 3878   3.741   3.388  10.058  0.1554  0.1829  0.2085
  256TMC3    C5 3879   3.683   3.508  10.023 -1.2284 -1.3934 -0.5131
  256TMC3    C6 3880   3.737   3.631  10.051 -0.1977 -0.8533 -0.5383
  256TMC3     C 3881   3.963   3.311  10.024 -0.5897  0.1582  0.2204
  256TMC3     O 3882   4.050   3.241  10.076  0.0545 -0.3052 -0.5122
  256TMC3     H 3883   4.038   3.530  10.147  1.0954 -2.8769 -1.4944
  256TMC3    H1 3884   3.684   3.297  10.049  0.1198  0.1760  0.4961
  256TMC3    H2 3885   3.697   3.731  10.039  0.7707 -0.5048 -0.9120
  256TMC3    C7 3886   3.622   3.496   9.893 -0.6184 -0.7404 -0.1917
  256TMC3    C8 3887   3.919   3.763  10.089  0.1114  0.4673  0.3488
  256TMC3    O1 3888   3.637   3.385   9.848  0.7863 -0.3634 -0.2705
  256TMC3    O2 3889   3.872   3.851  10.157  0.0110 -0.2447  0.9493
  257MPD2     C 3890   4.185   0.361  13.219 -0.3758 -0.1900 -0.4146
  257MPD2    C1 3891   4.192   0.264  13.116  0.4564 -0.2414  0.3418
  257MPD2    C2 3892   4.146   0.134  13.148  0.0568 -0.2290 -0.0353
  257MPD2    C3 3893   4.112   0.097  13.275 -0.3511  0.1857 -0.3446
  257MPD2    C4 3894   4.106   0.196  13.366  0.1007 -0.6404 -0.3458
  257MPD2    C5 3895   4.142   0.325  13.341 -0.2365  0.1842  0.2173
  257MPD2     H 3896   4.134   0.062  13.067 -1.0253 -0.4108  0.2875
  257MPD2    H1 3897   4.062   0.180  13.464  3.5203 -0.9287  1.1644
  257MPD2    H2 3898   4.210   0.465  13.198 -2.8766  0.5389  0.1528
  257MPD2    H3 3899   4.133   0.406  13.412  0.9290  0.5666 -0.0674
  257MPD2     N 3900   4.070   4.687  13.314 -0.0742  1.3913  0.7352
  257MPD2    H5 3901   4.056   4.621  13.238  0.5945  0.4420  1.4433
  257MPD2    N1 3902   4.232   0.301  12.986 -0.9426 -0.4173 -0.1775
  257MPD2    H7 3903   4.225   0.227  12.916  0.5571 -0.0344 -0.7183
  258TMC3    C1 3904   4.006   4.499  13.449  0.8006 -0.2396 -0.5671
  258TMC3    C2 3905   3.991   4.427  13.335  0.4644 -0.8468  0.5851
  258TMC3    C3 3906   3.973   4.291  13.343 -0.5838 -0.2284  0.1746
  258TMC3    C4 3907   4.001   4.443  13.574 -0.4635 -0.3740  0.9420
  258TMC3    C5 3908   3.977   4.304  13.576 -1.1529 -0.2844  0.2751
  258TMC3    C6 3909   3.968   4.220  13.461  0.8824  0.2316  0.2851
  258TMC3     C 3910   4.065   4.630  13.445  0.5728  0.0289 -0.3902
  258TMC3     O 3911   4.104   4.686  13.543 -0.1399  0.2221 -0.0579
  258TMC3     H 3912   3.996   4.471  13.236 -1.1657  1.7231  1.6430
  258TMC3    H1 3913   4.033   4.499  13.661  1.4134  1.1793 -0.7914
  258TMC3    H2 3914   3.957   4.113  13.472 -1.6054  0.2444 -2.0783
  258TMC3    C7 3915   3.990   4.234  13.696  0.9180 -0.4299 -0.1288
  258TMC3    C8 3916   3.980   4.213  13.215  0.0431  0.0316  0.6023
  258TMC3    O1 3917   3.926   4.130  13.712  0.3712  0.0267  0.3383
  258TMC3    O2 3918   3.985   4.281  13.112 -0.1061 -0.3484 -0.1039
  259MPD2     C 3919   2.935   1.217   1.860 -0.8047  0.3052 -0.0849
  259MPD2    C1 3920   3.006   1.128   1.787  0.3289  0.3392 -0.0988
  259MPD2    C2 3921   3.003   1.127   1.646 -0.6263  0.2590 -0.7125
  259MPD2    C3 3922   2.931   1.218   1.576  0.6169 -0.1230 -0.7162
  259MPD2    C4 3923   2.858   1.307   1.651  0.3749  0.2856  0.0817
  259MPD2    C5 3924   2.855   1.304   1.787  0.5212  0.5189 -0.5719
  259MPD2     H 3925   3.064   1.053   1.597  1.2616  0.5365  1.2641
  259MPD2    H1 3926   2.795   1.382   1.605  1.5098 -0.1775 -2.2493
  259MPD2    H2 3927   2.930   1.223   1.968  2.0595 -0.2778  0.0549
  259MPD2    H3 3928   2.776   1.364   1.831  0.3533 -1.5162  1.8689
  259MPD2     N 3929   2.937   1.227   1.438 -0.0350  0.0222  0.3219
  259MPD2    H5 3930   3.010   1.164   1.404 -0.7552 -0.3656 -0.5087
  259MPD2    N1 3931   3.086   1.034   1.859  0.0598 -0.1161 -0.6153
  259MPD2    H7 3932   3.064   1.036   1.958 -0.5430 -3.2850 -0.6828
  260TMC3    C1 3933   2.896   1.267   1.221 -0.4029 -0.3223 -0.2198
  260TMC3    C2 3934   2.853   1.361   1.130 -0.5927 -0.4531  0.3532
  260TMC3    C3 3935   2.869   1.331   1.000  0.5390 -0.3888 -0.0134
  260TMC3    C4 3936   2.942   1.142   1.184  0.2968 -0.6555 -0.0606
  260TMC3    C5 3937   2.950   1.116   1.052 -0.8284  0.0353  0.0491
  260TMC3    C6 3938   2.919   1.211   0.959  0.5113 -0.1779  0.0526
  260TMC3     C 3939   2.860   1.301   1.351  0.7903  0.6274  0.3647
  260TMC3     O 3940   2.785   1.394   1.370  0.3221  0.1914  0.2077
  260TMC3     H 3941   2.799   1.451   1.157  0.7464  0.6673 -0.6940
  260TMC3    H1 3942   2.962   1.074   1.266 -1.9055 -2.5156 -1.0700
  260TMC3    H2 3943   2.963   1.213   0.860  1.9543  0.9580  0.7267
  260TMC3    C7 3944   3.037   1.015   1.002 -0.4745  0.7313 -0.1511
  260TMC3    C8 3945   2.882   1.456   0.923  0.2301 -0.8052  0.3612
  260TMC3    O1 3946   3.041   0.993   0.881 -0.3555  0.2069 -0.4465
  260TMC3    O2 3947   2.873   1.560   0.984  0.5999 -0.4064 -0.3207
  261MPD2     C 3948   4.663   4.460  12.299 -0.4081 -0.2518  0.4160
  261MPD2    C1 3949   0.023   4.543  12.376 -0.1037  0.2161  0.1711
  261MPD2    C2 3950   0.100   4.641  12.322 -0.3350 -0.1011  0.0391
  261MPD2    C3 3951   0.079   4.670  12.189 -0.5024  0.0876  0.7123
  261MPD2    C4 3952   4.722   4.583  12.114 -0.0478  1.1761  0.1733
  261MPD2    C5 3953   4.656   4.477  12.167 -0.2562 -0.0382 -0.1449
  261MPD2     H 3954   0.175   4.701  12.374 -0.8704 -1.7696  2.7359
  261MPD2    H1 3955   4.697   4.599  12.009 -4.3855  0.5485  1.0985
  261MPD2    H2 3956   4.599   4.382  12.338 -0.5512 -1.1517 -1.6073
  261MPD2    H3 3957   4.583   4.419  12.112  0.4360  0.7988 -1.9432
  261MPD2     N 3958   0.145   0.061  12.134  0.7197 -0.5540  0.0902
  261MPD2    H5 3959   0.197   0.126  12.192  1.6440 -0.8937 -0.3481
  261MPD2    N1 3960   0.046   4.528  12.511  0.6454 -0.3408  0.2076
  261MPD2    H7 3961   0.117   4.592  12.543 -0.2521 -0.1536  1.8135
  262TMC3    C1 3962   0.264   0.181  11.981 -0.3706 -0.4269 -0.5981
  262TMC3    C2 3963   0.216   0.304  12.023  0.7118  0.3807  0.9332
  262TMC3    C3 3964   0.288   0.412  11.978 -0.5538  0.3654  0.2829
  262TMC3    C4 3965   0.382   0.167  11.910 -0.2101  0.6331 -0.0504
  262TMC3    C5 3966   0.454   0.284  11.885  0.8325 -0.3792  0.3219
  262TMC3    C6 3967   0.410   0.405  11.922  0.0797 -0.3862  0.3527
  262TMC3     C 3968   0.178   0.067  11.997  0.4119 -0.0880  0.9012
  262TMC3     O 3969   0.192   4.708  11.911 -0.1828  0.0824  0.4809
  262TMC3     H 3970   0.128   0.312  12.087  1.6545  2.3391  1.9777
  262TMC3    H1 3971   0.417   0.066  11.889 -2.6959  0.3205 -2.7381
  262TMC3    H2 3972   0.459   0.496  11.890 -0.5532  0.1268  0.8226
  262TMC3    C7 3973   0.550   0.271  11.781 -0.3403 -1.0771 -0.0073
  262TMC3    C8 3974   0.237   0.540  12.001  0.4450 -0.0253 -0.3275
  262TMC3    O1 3975   0.627   0.173  11.789 -0.0090  0.0064 -0.3011
  262TMC3    O2 3976   0.316   0.637  12.009  0.2467 -0.4621  0.4699
  263MPD2     C 3977   1.213   4.222  11.605 -0.3224 -0.1077 -0.6860
  263MPD2    C1 3978   1.345   4.235  11.565 -0.1571  0.9156  1.2309
  263MPD2    C2 3979   1.372   4.268  11.434  0.3286  0.6907 -0.6625
  263MPD2    C3 3980   1.275   4.296  11.346  0.8952  0.3400 -0.4637
  263MPD2    C4 3981   1.142   4.302  11.391 -0.0616 -0.0554  0.7576
  263MPD2    C5 3982   1.115   4.262  11.519 -0.1466  0.3082 -0.3086
  263MPD2     H 3983   1.470   4.264  11.389  0.1444  1.2994 -1.1245
  263MPD2    H1 3984   1.060   4.323  11.324  0.6221  0.3188  0.0388
  263MPD2    H2 3985   1.196   4.178  11.703 -0.4524  0.6872 -0.3577
  263MPD2    H3 3986   1.009   4.266  11.542  0.1181  0.1355  0.9083
  263MPD2     N 3987   1.310   4.312  11.219 -0.1877 -0.3305 -0.4682
  263MPD2    H5 3988   1.408   4.292  11.202  0.4817  1.7479  0.9480
  263MPD2    N1 3989   1.445   4.196  11.657  0.9563  0.4185  0.5745
  263MPD2    H7 3990   1.414   4.162  11.748  0.3514 -0.0449  0.1950
  264TMC3    C1 3991   1.307   4.344  10.990 -0.0257 -0.1704  0.0280
  264TMC3    C2 3992   1.260   4.266  10.888 -0.8133  0.2036  0.3719
  264TMC3    C3 3993   1.362   4.227  10.802  0.4530 -0.0932  0.0021
  264TMC3    C4 3994   1.426   4.404  10.996 -0.1819  0.4642  0.4877
  264TMC3    C5 3995   1.514   4.380  10.891  0.6033 -0.2473 -0.2731
  264TMC3    C6 3996   1.479   4.288  10.798 -0.2417 -0.8907 -0.7376
  264TMC3     C 3997   1.230   4.332  11.111 -0.1413 -0.1213  0.1980
  264TMC3     O 3998   1.111   4.314  11.093  0.1902 -0.0792 -0.0643
  264TMC3     H 3999   1.165   4.217  10.874 -1.8967  2.0483  1.3419
  264TMC3    H1 4000   1.441   4.472  11.079  0.1458 -0.3411  1.0856
  264TMC3    H2 4001   1.552   4.244  10.731 -0.6997 -1.4780 -0.8495
  264TMC3    C7 4002   1.645   4.440  10.883 -0.5182 -0.1488  0.0579
  264TMC3    C8 4003   1.321   4.227  10.666 -0.1577 -0.0056  0.5733
  264TMC3    O1 4004   1.715   4.399  10.795  0.3295 -0.4579  0.2757
  264TMC3    O2 4005   1.294   4.119  10.611 -0.2877 -0.3068  0.5157
  265MPD2     C 4006   3.165   4.598  15.375 -0.1891  0.2639 -0.2425
  265MPD2    C1 4007   3.119   4.702  15.291 -0.4710 -0.1298  0.1809
  265MPD2    C2 4008   3.131   4.691  15.154  0.0439 -0.1177 -0.1784
  265MPD2    C3 4009   3.178   4.568  15.103  0.3114 -0.1240  0.1944
  265MPD2    C4 4010   3.214   4.468  15.185 -0.2808  0.4321 -0.0663
  265MPD2    C5 4011   3.213   4.480  15.319  0.2538 -0.4109  0.6339
  265MPD2     H 4012   3.096   0.050  15.093 -0.3433  0.0764  0.3096
  265MPD2    H1 4013   3.275   4.387  15.144 -0.5187  1.5461 -2.6360
  265MPD2    H2 4014   3.179   4.602  15.482 -0.3767 -2.6462 -0.1053
  265MPD2    H3 4015   3.255   4.407  15.387  0.7741  0.5412  1.3322
  265MPD2     N 4016   3.190   4.528  14.968 -0.3214  0.3978 -0.4442
  265MPD2    H5 4017   3.221   4.432  14.951 -0.1037  0.3603  0.1596
  265MPD2    N1 4018   3.076   0.102  15.347  0.3505  0.6863 -0.0409
  265MPD2    H7 4019   3.053   0.174  15.279  1.1745  3.0133  2.1318
  266TMC3    C1 4020   3.037   0.273  15.513  0.5444 -0.0230 -0.0156
  266TMC3    C2 4021   2.987   0.298  15.644 -1.5334 -0.2304  0.5051
  266TMC3    C3 4022   2.993   0.428  15.697  0.5001 -0.4240 -0.3863
  266TMC3    C4 4023   3.105   0.372  15.444  0.4481  0.4212  0.7281
  266TMC3    C5 4024   3.102   0.494  15.494 -0.1107 -0.5857 -0.3612
  266TMC3    C6 4025   3.041   0.528  15.617  0.2531  0.1817 -0.5896
  266TMC3     C 4026   3.064   0.131  15.477  0.0985 -0.2546 -0.0182
  266TMC3     O 4027   3.042   0.042  15.561 -0.0246  0.5425 -0.1377
  266TMC3     H 4028   2.927   0.222  15.694  0.1781 -1.8336  0.1106
  266TMC3    H1 4029   3.159   0.348  15.353  1.9233  1.5393  1.3148
  266TMC3    H2 4030   3.023   0.627  15.659 -0.3537 -0.2719  0.2177
  266TMC3    C7 4031   3.187   0.593  15.434 -0.6661  0.0020 -0.3339
  266TMC3    C8 4032   2.918   0.461  15.820  0.2493  0.3684 -0.1336
  266TMC3    O1 4033   3.283   0.550  15.368  0.7821 -0.0232 -0.0269
  266TMC3    O2 4034   2.826   0.381  15.840 -0.1250 -0.9440 -0.4280
  267MPD2     C 4035   0.890   1.693   0.007 -0.8198 -0.5539 -0.1596
  267MPD2    C1 4036   0.967   1.763  17.613 -0.3918 -0.4246 -0.5953
  267MPD2    C2 4037   0.921   1.799  17.489  0.2383 -0.2253 -0.4125
  267MPD2    C3 4038   0.801   1.747  17.443  0.2382  0.4815 -0.1946
  267MPD2    C4 4039   0.721   1.669  17.530 -0.4022 -0.0977  0.2706
  267MPD2    C5 4040   0.769   1.648  17.655  0.5124  0.3845  0.1956
  267MPD2     H 4041   0.982   1.859  17.423  0.7294  0.6827  0.8781
  267MPD2    H1 4042   0.633   1.613  17.502 -0.8779  1.9168 -2.3331
  267MPD2    H2 4043   0.937   1.657   0.098 -1.6343 -0.2650  0.3695
  267MPD2    H3 4044   0.728   1.565   0.014  0.8613 -0.5730 -0.9819
  267MPD2     N 4045   0.753   1.757  17.307 -0.3479 -0.4222  0.2604
  267MPD2    H5 4046   0.670   1.704  17.282 -0.2857 -0.2702 -0.2668
  267MPD2    N1 4047   1.087   1.808  17.669 -0.2129  0.0698  0.1148
  267MPD2    H7 4048   1.105   1.780   0.068  0.0740  2.4392  0.7453
  268TMC3    C1 4049   1.306   1.898  17.677 -0.1215 -0.0536 -0.2665
  268TMC3    C2 4050   1.413   1.952  17.613 -0.4682  0.7537  0.1549
  268TMC3    C3 4051   1.516   1.994  17.690 -0.2420 -0.0163  0.3080
  268TMC3    C4 4052   1.298   1.878   0.111  0.2822  0.1414  0.5364
  268TMC3    C5 4053   1.408   1.906   0.185  0.3745  0.0308 -0.5665
  268TMC3    C6 4054   1.519   1.962   0.125  0.1121  0.3273 -0.2591
  268TMC3     C 4055   1.187   1.870  17.594  0.7091  0.4810 -0.8170
  268TMC3     O 4056   1.190   1.899  17.476 -0.1228 -0.4351 -0.1750
  268TMC3     H 4057   1.419   1.975  17.507 -0.6906 -2.5254 -0.5552
  268TMC3    H1 4058   1.203   1.854   0.157  0.0741  1.6789  0.8976
  268TMC3    H2 4059   1.613   1.960   0.179  1.1380  1.5899 -2.0136
  268TMC3    C7 4060   1.414   1.869   0.323  0.1272 -0.0862  0.0741
  268TMC3    C8 4061   1.647   2.028  17.624  0.4615 -0.1396  0.1024
  268TMC3    O1 4062   1.317   1.805   0.362  0.2536 -0.1733 -0.6967
  268TMC3    O2 4063   1.750   2.033  17.689  0.0842 -0.2902 -0.8827
  269MPD2     C 4064   0.787   0.502  15.751 -0.6796 -0.0627 -0.6089
  269MPD2    C1 4065   0.685   0.551  15.676  0.4403  0.5002 -0.2943
  269MPD2    C2 4066   0.699   0.664  15.598 -0.0841 -0.5354 -0.2173
  269MPD2    C3 4067   0.809   0.740  15.617  0.4031  0.2166 -0.0817
  269MPD2    C4 4068   0.904   0.711  15.712  0.1751 -0.3660 -0.2351
  269MPD2    C5 4069   0.893   0.587  15.772  0.1785 -0.1051  0.0455
  269MPD2     H 4070   0.625   0.682  15.521  0.1218 -0.2656 -0.3514
  269MPD2    H1 4071   0.982   0.782  15.738 -2.3364  2.5919 -0.7660
  269MPD2    H2 4072   0.783   0.415  15.815 -1.1207  0.6508  0.3482
  269MPD2    H3 4073   0.970   0.554  15.841  0.5495 -1.2167 -0.9084
  269MPD2     N 4074   0.807   0.859  15.539 -0.5953  0.2280  0.2843
  269MPD2    H5 4075   0.732   0.866  15.470 -0.1698 -0.9351 -0.2824
  269MPD2    N1 4076   0.570   0.467  15.667  0.6008 -0.4356 -0.5556
  269MPD2    H7 4077   0.575   0.391  15.733  0.8438 -1.2969 -1.5537
  270TMC3    C1 4078   0.372   0.373  15.595 -0.1352 -0.6229 -0.4800
  270TMC3    C2 4079   0.327   0.333  15.475 -0.3584 -0.5487 -0.6593
  270TMC3    C3 4080   0.292   0.203  15.457 -1.1507  0.4711 -0.7085
  270TMC3    C4 4081   0.387   0.293  15.703 -0.2216 -0.3434  0.6240
  270TMC3    C5 4082   0.358   0.163  15.676  0.1677  0.5062  0.6109
  270TMC3    C6 4083   0.317   0.116  15.557  0.6829 -0.1952 -0.0438
  270TMC3     C 4084   0.462   0.485  15.582  0.1968 -0.2276 -1.1558
  270TMC3     O 4085   0.431   0.565  15.497  0.5507 -0.9659 -1.3046
  270TMC3     H 4086   0.319   0.406  15.394  2.2545  1.6639  1.0736
  270TMC3    H1 4087   0.417   0.333  15.800 -1.1614  1.3545  0.2191
  270TMC3    H2 4088   0.288   0.013  15.542  0.8578 -0.4003  0.9700
  270TMC3    C7 4089   0.458   0.081  15.735 -0.3597 -0.4068  0.4019
  270TMC3    C8 4090   0.319   0.144  15.328  0.2820 -0.2234 -0.6611
  270TMC3    O1 4091   0.506   4.714  15.663 -0.0482 -0.5034  0.2509
  270TMC3    O2 4092   0.286   0.208  15.231 -0.3471 -0.2091 -0.0447
  271MPD2     C 4093   4.715   0.237  13.750  0.1978 -0.8022 -0.0963
  271MPD2    C1 4094   4.624   0.208  13.850  0.2317  0.4842  0.4483
  271MPD2    C2 4095   4.495   0.242  13.826 -0.5668  0.0972 -0.2246
  271MPD2    C3 4096   4.446   0.293  13.704  0.4652 -0.8608  0.0620
  271MPD2    C4 4097   4.537   0.303  13.600 -1.0903  0.7951 -0.3002
  271MPD2    C5 4098   4.669   0.269  13.624  0.2448  0.6834  0.1597
  271MPD2     H 4099   4.426   0.240  13.910  0.9172 -0.7405  0.9560
  271MPD2    H1 4100   4.505   0.349  13.507  0.6210  0.7030 -0.9390
  271MPD2    H2 4101   0.098   0.222  13.762  0.1618  0.2242  1.5254
  271MPD2    H3 4102   0.020   0.299  13.551  0.1120 -1.0046 -0.6619
  271MPD2     N 4103   4.317   0.347  13.695  0.3014  0.4156 -0.1132
  271MPD2    H5 4104   4.300   0.412  13.619 -0.8283 -0.6450 -0.7703
  271MPD2    N1 4105   4.668   0.169  13.980  0.3440 -0.5923 -0.1571
  271MPD2    H7 4106   4.603   0.180  14.058 -1.4626 -0.7717 -1.6183
  272TMC3    C1 4107   0.094   0.085  14.146 -0.9548 -0.3573  0.5379
  272TMC3    C2 4108   0.210   0.006  14.174 -0.9287 -0.0370 -0.2238
  272TMC3    C3 4109   0.264   0.015  14.297 -0.3030 -0.4721 -0.2708
  272TMC3    C4 4110   0.030   0.155  14.240  0.0948  0.1728  0.3588
  272TMC3    C5 4111   0.085   0.156  14.371  0.0358 -0.3920  0.3289
  272TMC3    C6 4112   0.199   0.080  14.399  0.6929 -0.0353 -0.8769
  272TMC3     C 4113   0.061   0.104  14.002  0.1316  0.3666 -0.0678
  272TMC3     O 4114   0.149   0.066  13.924  0.3931 -0.1569 -0.3741
  272TMC3     H 4115   0.271   4.683  14.097 -0.5639  0.8101 -0.4513
  272TMC3    H1 4116   4.683   0.236  14.227  2.3913  2.1635  0.3149
  272TMC3    H2 4117   0.258   0.085  14.490  0.5856  3.7439 -1.0439
  272TMC3    C7 4118   0.026   0.249  14.464 -0.3325 -0.1724 -0.2075
  272TMC3    C8 4119   0.409   0.025  14.301  0.0726  0.2828  0.3016
  272TMC3    O1 4120   4.640   0.299  14.435 -0.5043  0.1686  0.5328
  272TMC3    O2 4121   0.456   0.081  14.199 -0.0798 -0.2197 -0.7549
  273MPD2     C 4122   1.820   2.910  11.762 -0.1458 -0.7475  0.3807
  273MPD2    C1 4123   1.923   3.002  11.756  0.0774  0.1468 -0.6667
  273MPD2    C2 4124   1.966   3.043  11.627  0.6688  1.1798 -0.0273
  273MPD2    C3 4125   1.916   2.996  11.508 -0.6195 -0.1920  0.0526
  273MPD2    C4 4126   1.817   2.895  11.522 -0.1993 -0.0122 -0.4910
  273MPD2    C5 4127   1.771   2.861  11.644  0.6656 -0.0882 -0.2982
  273MPD2     H 4128   2.020   3.137  11.625 -0.4702  1.8324 -0.4281
  273MPD2    H1 4129   1.777   2.853  11.430 -1.0148 -1.4821  0.5417
  273MPD2    H2 4130   1.774   2.879  11.856 -0.0645  1.1541  1.0519
  273MPD2    H3 4131   1.685   2.794  11.641 -0.1203  0.9082 -0.0188
  273MPD2     N 4132   1.947   3.048  11.377 -0.4800  0.2557 -0.0387
  273MPD2    H5 4133   1.895   3.006  11.301 -0.9667 -1.8488  1.4551
  273MPD2    N1 4134   1.971   3.072  11.871 -0.7516  0.3223 -0.4267
  273MPD2    H7 4135   1.909   3.077  11.951  0.9908 -0.6906  0.9847
  274TMC3    C1 4136   2.031   3.225  11.229 -0.4146 -0.0534 -0.2784
  274TMC3    C2 4137   1.929   3.189  11.138  0.2744 -0.0157  0.9145
  274TMC3    C3 4138   1.908   3.282  11.037  0.2887 -0.1508 -0.0422
  274TMC3    C4 4139   2.099   3.345  11.216 -0.7823  0.0801  0.3685
  274TMC3    C5 4140   2.079   3.430  11.110  1.2235 -0.0990 -0.0036
  274TMC3    C6 4141   1.985   3.396  11.014  0.0028 -0.0281  1.3085
  274TMC3     C 4142   2.039   3.154  11.356 -0.5310  0.1538  0.4707
  274TMC3     O 4143   2.118   3.210  11.431  0.1721  0.0155  0.3436
  274TMC3     H 4144   1.870   3.102  11.165 -0.5705 -0.4900 -2.4730
  274TMC3    H1 4145   2.179   3.373  11.284  1.1948 -1.0392 -1.4886
  274TMC3    H2 4146   1.947   3.481  10.958 -1.5773 -2.0889 -0.7407
  274TMC3    C7 4147   2.110   3.569  11.123 -0.0625 -0.4386  0.4842
  274TMC3    C8 4148   1.785   3.267  10.970 -0.8328 -0.4970 -0.4593
  274TMC3    O1 4149   2.107   3.636  11.019 -0.1822  0.4840  0.0940
  274TMC3    O2 4150   1.691   3.218  11.032 -0.7102 -0.4628 -0.2980
  275MPD2     C 4151   1.090   1.176  14.314  0.7102  0.6002  0.1166
  275MPD2    C1 4152   1.048   1.224  14.437 -0.3758 -0.1820 -0.4385
  275MPD2    C2 4153   0.912   1.232  14.460  0.1740 -0.0625  0.8286
  275MPD2    C3 4154   0.822   1.206  14.361 -0.2778 -0.6704  0.0264
  275MPD2    C4 4155   0.867   1.146  14.250 -0.2056  0.4346 -0.2699
  275MPD2    C5 4156   0.997   1.133  14.219  0.1908 -0.3456  0.4500
  275MPD2     H 4157   0.888   1.254  14.564  0.2265 -0.1627  0.8617
  275MPD2    H1 4158   0.798   1.111  14.174 -0.2230  0.3214 -0.2013
  275MPD2    H2 4159   1.193   1.159  14.285  1.9727  3.4694  2.9188
  275MPD2    H3 4160   1.019   1.081  14.127 -0.7362 -0.7624  0.4593
  275MPD2     N 4161   0.680   1.227  14.381  0.1093  0.2086 -0.0759
  275MPD2    H5 4162   0.619   1.198  14.306  0.3859 -0.0390 -0.2048
  275MPD2    N1 4163   1.135   1.246  14.542  0.2520 -0.1471 -0.3533
  275MPD2    H7 4164   1.095   1.260  14.635  1.5229 -1.9191  0.4687
  276TMC3    C1 4165   1.322   1.189  14.670 -0.2281 -1.0236 -0.2139
  276TMC3    C2 4166   1.279   1.064  14.708  0.2949 -0.7017 -0.3892
  276TMC3    C3 4167   1.375   0.979  14.753 -0.1506  0.3086  0.0346
  276TMC3    C4 4168   1.451   1.232  14.693 -0.4265  0.4273  0.6872
  276TMC3    C5 4169   1.539   1.146  14.752  0.4505  0.1521  0.0062
  276TMC3    C6 4170   1.502   1.015  14.775  0.3043  0.2577  0.3474
  276TMC3     C 4171   1.273   1.238  14.548 -0.4215  0.8463  0.3043
  276TMC3     O 4172   1.350   1.249  14.454 -0.2495  0.0646 -0.3559
  276TMC3     H 4173   1.181   1.025  14.685  0.8727 -0.6350 -3.0290
  276TMC3    H1 4174   1.471   1.338  14.685 -0.2284  0.4918  2.0360
  276TMC3    H2 4175   1.571   0.944  14.819 -1.0317 -1.7639 -0.8255
  276TMC3    C7 4176   1.633   1.206  14.839 -0.1759 -0.0800  0.2318
  276TMC3    C8 4177   1.352   0.848  14.729  0.3559 -0.2812 -0.2062
  276TMC3    O1 4178   1.646   1.161  14.949  0.1492  0.0989  0.0536
  276TMC3    O2 4179   1.285   0.828  14.630  0.1221 -0.1443  0.3529
  277MPD2     C 4180   3.646   0.036  13.248  0.2508 -0.7835 -0.1664
  277MPD2    C1 4181   3.555   0.128  13.293 -1.0432 -0.5109  0.6861
  277MPD2    C2 4182   3.472   0.088  13.393 -0.0414 -0.1257  0.6628
  277MPD2    C3 4183   3.475   4.685  13.453  0.2053 -0.5740  0.3246
  277MPD2    C4 4184   3.564   4.595  13.404 -0.4727  0.4608 -0.4264
  277MPD2    C5 4185   3.643   4.634  13.299  0.0869 -0.2008  0.1448
  277MPD2     H 4186   3.390   0.156  13.413  1.0906  1.0855  1.2100
  277MPD2    H1 4187   3.578   4.495  13.443  1.4245  1.2270  0.8425
  277MPD2    H2 4188   3.714   0.061  13.167  0.5635  0.9894  0.6314
  277MPD2    H3 4189   3.711   4.557  13.266 -0.0066 -0.4557  0.5535
  277MPD2     N 4190   3.390   4.653  13.562  0.3382 -0.5640 -0.2721
  277MPD2    H5 4191   3.327   0.003  13.591 -1.3198 -2.2658  0.4486
  277MPD2    N1 4192   3.560   0.253  13.234  0.1639  0.5740 -0.1360
  277MPD2    H7 4193   3.633   0.275  13.167 -0.6430 -0.2932 -1.2804
  278TMC3    C1 4194   3.265   4.547  13.736 -0.9732 -0.3514  1.0858
  278TMC3    C2 4195   3.238   4.431  13.798 -0.4256 -0.4983 -0.1237
  278TMC3    C3 4196   3.113   4.417  13.856 -0.6187 -0.3260  0.1465
  278TMC3    C4 4197   3.179   4.656  13.741 -0.2716  0.3218 -0.3113
  278TMC3    C5 4198   3.062   4.642  13.814 -0.3807 -0.0565 -0.0956
  278TMC3    C6 4199   3.021   4.522  13.857 -0.1634  0.8552 -0.5084
  278TMC3     C 4200   3.374   4.535  13.633  0.3465  0.5019 -0.1255
  278TMC3     O 4201   3.424   4.424  13.614 -0.1940 -0.1028  0.5084
  278TMC3     H 4202   3.304   4.346  13.788 -2.4806 -2.3321  1.6909
  278TMC3    H1 4203   3.199   0.030  13.699  2.6312 -1.0729 -2.2090
  278TMC3    H2 4204   2.929   4.499  13.910 -0.3333 -1.3596 -1.7565
  278TMC3    C7 4205   2.984   0.037  13.825  0.2143 -0.2345 -0.6131
  278TMC3    C8 4206   3.062   4.276  13.855 -0.0649  0.5379 -0.0704
  278TMC3    O1 4207   3.031   0.132  13.764 -0.4143 -0.1623 -0.4344
  278TMC3    O2 4208   3.140   4.191  13.900 -0.5022 -0.4848 -0.1947
  279MPD2     C 4209   2.588   0.454   0.680  0.1744  0.4390  0.5198
  279MPD2    C1 4210   2.504   0.378   0.604  0.2129 -0.2723  0.5929
  279MPD2    C2 4211   2.552   0.296   0.505  0.1139 -0.1900 -0.3127
  279MPD2    C3 4212   2.684   0.297   0.473 -0.2676  0.3753 -0.0067
  279MPD2    C4 4213   2.766   0.374   0.546  0.3758 -0.3400 -0.2309
  279MPD2    C5 4214   2.721   0.452   0.648 -0.3046 -1.3793 -0.0528
  279MPD2     H 4215   2.478   0.233   0.457 -2.1889  2.7320 -0.5984
  279MPD2    H1 4216   2.871   0.390   0.523  0.7462 -1.0016  1.0010
  279MPD2    H2 4217   2.558   0.535   0.746 -1.8934 -0.3848  0.5893
  279MPD2    H3 4218   2.789   0.519   0.700 -0.5628 -0.4237 -0.9442
  279MPD2     N 4219   2.738   0.233   0.357  0.5757 -0.2987  0.1645
  279MPD2    H5 4220   2.836   0.243   0.330  0.2716  0.7584 -0.5799
  279MPD2    N1 4221   2.370   0.404   0.623 -0.0804  0.2166  0.0056
  279MPD2    H7 4222   2.355   0.483   0.685  1.3913 -0.3442  1.0935
  280TMC3    C1 4223   2.146   0.453   0.561 -0.0464 -0.3294 -0.6439
  280TMC3    C2 4224   2.030   0.391   0.526 -0.4951 -0.5796 -0.0198
  280TMC3    C3 4225   1.914   0.469   0.512  0.2955 -0.3637  0.6916
  280TMC3    C4 4226   2.159   0.587   0.571 -0.1095  0.0478 -0.0377
  280TMC3    C5 4227   2.044   0.661   0.553  0.2316  0.1957 -0.0795
  280TMC3    C6 4228   1.920   0.604   0.529 -0.6890  0.5435 -0.2241
  280TMC3     C 4229   2.259   0.359   0.551 -0.2172  0.0573  0.2244
  280TMC3     O 4230   2.251   0.264   0.473  0.1707 -0.0336 -0.6855
  280TMC3     H 4231   2.016   0.284   0.521  1.9785 -0.8284 -1.7667
  280TMC3    H1 4232   2.256   0.624   0.605 -0.2863 -0.0061  0.5216
  280TMC3    H2 4233   1.825   0.656   0.524 -0.7275  0.4195 -0.8614
  280TMC3    C7 4234   2.051   0.803   0.601 -0.6384  0.8940  0.1251
  280TMC3    C8 4235   1.781   0.408   0.502  0.0390  0.3243 -0.3748
  280TMC3    O1 4236   2.156   0.834   0.654 -0.6668 -0.6980 -0.3547
  280TMC3    O2 4237   1.688   0.476   0.454 -0.8550 -0.8393 -0.2768
  281TMC3    C1 4238   1.067   0.329  13.264 -0.0643  0.2990 -0.2315
  281TMC3    C2 4239   1.170   0.405  13.224  0.6073 -0.2986 -0.4542
  281TMC3    C3 4240   1.271   0.346  13.164 -0.1928 -0.4723 -0.0404
  281TMC3    C4 4241   1.069   0.191  13.242  0.6536 -0.2770  0.1679
  281TMC3    C5 4242   1.172   0.137  13.172 -0.0990 -0.2043 -0.1164
  281TMC3    C6 4243   1.278   0.219  13.133  0.8572 -0.0484 -0.1633
  281TMC3     C 4244   0.937   0.385  13.305 -0.4840  0.2073  0.5682
  281TMC3     O 4245   0.854   0.315  13.363 -0.5596 -0.0398 -0.1230
  281TMC3     H 4246   1.180   0.503  13.271 -0.3455  0.8701 -2.6722
  281TMC3    H1 4247   0.985   0.126  13.262  0.3891  0.2945  0.9403
  281TMC3    H2 4248   1.360   0.179  13.075  1.1991 -0.7810  0.8199
  281TMC3    C7 4249   1.210   4.722  13.179  0.3480 -0.2032 -0.0671
  281TMC3    C8 4250   1.403   0.393  13.189  0.0447  0.5185 -0.3167
  281TMC3    O1 4251   1.310   4.687  13.112 -0.0051  0.0574 -0.3990
  281TMC3    O2 4252   1.487   0.313  13.217  0.5119 -0.1669  0.1803
  282MPD2     C 4253   2.784   1.656  15.163 -0.2008 -0.4966  0.1588
  282MPD2    C1 4254   2.680   1.740  15.182 -0.3486  0.0303 -0.6562
  282MPD2    C2 4255   2.642   1.815  15.069 -0.3033 -0.1688 -0.3551
  282MPD2    C3 4256   2.685   1.795  14.939  0.2131  0.3222 -0.1598
  282MPD2    C4 4257   2.774   1.691  14.924  0.6265  0.0794  0.0860
  282MPD2    C5 4258   2.828   1.631  15.036 -0.1508  0.2772  0.1551
  282MPD2     H 4259   2.567   1.890  15.091 -1.3691 -1.5372  0.6849
  282MPD2    H1 4260   2.827   1.661  14.834 -0.8277 -1.9388 -0.1022
  282MPD2    H2 4261   2.827   1.598  15.244  1.6067  0.8662  0.1442
  282MPD2    H3 4262   2.916   1.571  15.016 -0.7535 -0.3119 -0.7001
  282MPD2     N 4263   2.626   1.870  14.842 -0.3017  0.2447 -0.3885
  282MPD2    H5 4264   2.550   1.932  14.869 -0.2312  0.1012  0.1331
  282MPD2    N1 4265   2.632   1.765  15.312 -0.1229  0.3856 -0.0037
  282MPD2    H7 4266   2.567   1.842  15.321  0.6187  0.9071  0.9480
  283TMC3    C1 4267   2.577   1.732  15.541 -0.3139  0.8074  0.1138
  283TMC3    C2 4268   2.611   1.860  15.581 -0.5445 -0.0460  0.3985
  283TMC3    C3 4269   2.600   1.895  15.715 -0.4172  0.5462 -1.4863
  283TMC3    C4 4270   2.536   1.633  15.627  0.1416  0.8387 -0.2086
  283TMC3    C5 4271   2.531   1.671  15.758  0.3727 -0.5681 -0.2417
  283TMC3    C6 4272   2.564   1.796  15.804 -0.7026 -0.1027  0.1622
  283TMC3     C 4273   2.646   1.682  15.423 -0.0522  0.2343  0.7693
  283TMC3     O 4274   2.686   1.566  15.426 -0.0442 -0.5152  0.2734
  283TMC3     H 4275   2.670   1.920  15.513 -0.7870  0.1054  0.3235
  283TMC3    H1 4276   2.526   1.529  15.596 -1.6354  1.3924 -1.4438
  283TMC3    H2 4277   2.550   1.813  15.910 -0.9435  1.1238 -0.0703
  283TMC3    C7 4278   2.432   1.602  15.845  1.0764 -0.1340 -0.2975
  283TMC3    C8 4279   2.652   2.015  15.771 -0.1268  0.5358 -0.2337
  283TMC3    O1 4280   2.414   1.638  15.960 -0.5658  0.0427 -0.3635
  283TMC3    O2 4281   2.662   2.015  15.895 -0.3417  0.5991  0.4625
  284MPD2     C 4282   1.206   0.272  11.291 -0.6577 -0.7708 -0.8633
  284MPD2    C1 4283   1.226   0.405  11.293  0.1669  0.1252 -0.8517
  284MPD2    C2 4284   1.215   0.466  11.423  0.3887  0.1224  0.2260
  284MPD2    C3 4285   1.182   0.400  11.534 -0.2672 -0.1189  0.3892
  284MPD2    C4 4286   1.148   0.266  11.525 -0.3662  0.2211  0.3339
  284MPD2    C5 4287   1.175   0.207  11.403  0.4451 -0.0732  0.0037
  284MPD2     H 4288   1.233   0.573  11.431 -1.7324  0.7460 -3.0446
  284MPD2    H1 4289   1.115   0.202  11.606 -3.2054 -0.2633 -1.2144
  284MPD2    H2 4290   1.220   0.210  11.204 -1.6359 -1.1512 -0.7504
  284MPD2    H3 4291   1.164   0.100  11.400 -0.1130 -0.0155  0.0179
  284MPD2     N 4292   1.195   0.463  11.654  0.3633 -0.3025 -0.0796
  284MPD2    H5 4293   1.262   0.539  11.662 -1.3204  1.3529 -1.8139
  284MPD2    N1 4294   1.255   0.474  11.173 -0.0403 -0.2842  0.0879
  284MPD2    H7 4295   1.278   0.425  11.087 -2.4636 -0.3572 -0.5313
  285TMC3    C1 4296   1.300   0.677  11.029  0.5881  0.6141 -0.7904
  285TMC3    C2 4297   1.377   0.606  10.940  0.1272  0.9967 -0.4639
  285TMC3    C3 4298   1.483   0.671  10.887 -0.2109  0.7257  0.0496
  285TMC3    C4 4299   1.327   0.806  11.051 -0.5959  0.7312 -0.7542
  285TMC3    C5 4300   1.441   0.870  10.998  0.0002 -0.0562 -0.4415
  285TMC3    C6 4301   1.526   0.793  10.922  0.1873  0.0080  0.1845
  285TMC3     C 4302   1.253   0.616  11.155  0.6343  0.6892  0.5240
  285TMC3     O 4303   1.205   0.695  11.236 -0.2736  0.2154  0.6636
  285TMC3     H 4304   1.352   0.504  10.911 -0.8653  0.4741  2.1719
  285TMC3    H1 4305   1.259   0.865  11.111  0.3847  0.9528  0.1424
  285TMC3    H2 4306   1.610   0.833  10.866 -1.9051  2.5723 -1.1569
  285TMC3    C7 4307   1.504   0.978  11.069 -0.8003  0.1071  0.0052
  285TMC3    C8 4308   1.571   0.586  10.809 -0.4667  0.3727  0.5585
  285TMC3    O1 4309   1.622   0.952  11.089 -0.0811  0.1446 -0.3332
  285TMC3    O2 4310   1.520   0.490  10.750  0.6084  0.6196 -0.3610
  286MPD2     C 4311   1.498   0.157   1.629 -0.4449 -0.0699 -0.3762
  286MPD2    C1 4312   1.534   0.174   1.498 -0.4691 -0.2613  0.4913
  286MPD2    C2 4313   1.617   0.080   1.437  0.6366 -0.9618 -0.8527
  286MPD2    C3 4314   1.674   4.704   1.517 -0.2004  0.4334 -0.1945
  286MPD2    C4 4315   1.649   4.699   1.652 -0.5699  0.2597 -0.0203
  286MPD2    C5 4316   1.555   0.060   1.708  0.0900  0.3471  0.4833
  286MPD2     H 4317   1.659   0.094   1.339 -1.2023 -0.3100 -1.5374
  286MPD2    H1 4318   1.704   4.623   1.705  0.8261  0.7612 -0.7475
  286MPD2    H2 4319   1.424   0.218   1.680 -0.5186 -2.0160  1.8748
  286MPD2    H3 4320   1.536   0.044   1.814  2.3291  2.3957  1.2103
  286MPD2     N 4321   1.756   4.606   1.463 -0.2619  0.2340  0.1727
  286MPD2    H5 4322   1.794   4.540   1.530 -2.2736 -1.5545 -0.4511
  286MPD2    N1 4323   1.490   0.277   1.412  0.0403 -0.1199 -0.1173
  286MPD2    H7 4324   1.519   0.270   1.315  0.4543  0.1021 -0.0104
  287TMC3    C1 4325   1.837   4.431   1.302 -0.2472 -0.3203 -0.1864
  287TMC3    C2 4326   1.809   4.366   1.186 -0.1104 -0.0363  0.2948
  287TMC3    C3 4327   1.877   4.252   1.170 -0.5772 -0.2782  0.1263
  287TMC3    C4 4328   1.929   4.383   1.393 -0.3602 -0.1915  0.2844
  287TMC3    C5 4329   1.985   4.258   1.375  0.0891 -0.1380 -0.1185
  287TMC3    C6 4330   1.960   4.191   1.259 -0.4249 -0.4086  0.0484
  287TMC3     C 4331   1.763   4.556   1.329  0.1782  0.1250  0.1955
  287TMC3     O 4332   1.698   4.593   1.236  0.1902 -0.0373 -0.1078
  287TMC3     H 4333   1.718   4.380   1.129 -0.5249 -0.9019  0.7309
  287TMC3    H1 4334   1.953   4.444   1.480  0.6961  0.2826 -0.3394
  287TMC3    H2 4335   1.977   4.084   1.253 -2.5268 -0.7591  0.3379
  287TMC3    C7 4336   2.056   4.199   1.487  1.0466 -0.6613  0.1732
  287TMC3    C8 4337   1.812   4.173   1.072 -0.8538  0.4582 -0.2666
  287TMC3    O1 4338   2.022   4.235   1.594 -0.0088 -0.7607 -0.3387
  287TMC3    O2 4339   1.766   4.072   1.122 -0.0032 -0.2383 -0.1028
  288TMC3    C1 4340   2.792   4.271  14.392 -0.2270  0.3055  0.5639
  288TMC3    C2 4341   2.740   4.341  14.498 -0.5888  0.3194  0.4906
  288TMC3    C3 4342   2.795   4.466  14.520  0.3187 -0.0670  0.1395
  288TMC3    C4 4343   2.896   4.322  14.320 -0.5761  0.0178 -0.3523
  288TMC3    C5 4344   2.933   4.446  14.338  0.0112  0.3017 -0.2088
  288TMC3    C6 4345   2.891   4.522  14.445  0.2378  0.6956 -0.3676
  288TMC3     C 4346   2.792   4.127  14.422 -0.1427 -0.3960  0.0673
  288TMC3     O 4347   2.767   4.094  14.538  0.2573  0.2840  0.1196
  288TMC3     H 4348   2.654   4.306  14.553 -1.7364  0.0726 -1.4952
  288TMC3    H1 4349   2.941   4.262  14.241  0.0955 -1.1947  0.9478
  288TMC3    H2 4350   2.946   4.606  14.486  2.8343 -0.8464 -0.6797
  288TMC3    C7 4351   3.044   4.501  14.256 -0.2108 -0.4529 -0.4824
  288TMC3    C8 4352   2.807   4.495  14.663 -0.0443  0.3479 -0.2950
  288TMC3    O1 4353   3.127   4.423  14.216 -0.1220 -0.4856 -0.1568
  288TMC3    O2 4354   2.861   4.599  14.701  0.3221  0.5861 -0.0659
  289MPD2     C 4355   3.137   3.419  14.062  0.8274 -0.0358 -0.2404
  289MPD2    C1 4356   3.082   3.480  13.950  0.6613 -0.2869 -0.0231
  289MPD2    C2 4357   2.945   3.478  13.936 -0.6788  0.7205 -0.6201
  289MPD2    C3 4358   2.865   3.391  14.017 -0.3521  0.5064  0.4630
  289MPD2    C4 4359   2.926   3.318  14.123 -0.0219  0.2616 -0.1222
  289MPD2    C5 4360   3.057   3.344  14.149  0.7173 -0.0297  0.2529
  289MPD2     H 4361   2.898   3.542  13.862  1.6215  0.6965 -2.1027
  289MPD2    H1 4362   2.860   3.249  14.175  1.0270 -0.4036  0.3183
  289MPD2    H2 4363   3.241   3.438  14.084  0.9963  0.5564 -1.5773
  289MPD2    H3 4364   3.095   3.295  14.237  1.6059 -0.0122 -0.1247
  289MPD2     N 4365   2.724   3.388  14.004  0.3998 -0.6024 -0.6754
  289MPD2    H5 4366   2.670   3.328  14.066  1.5167 -0.0839  0.8093
  289MPD2    N1 4367   3.170   3.559  13.872  0.0964 -0.6033  0.1288
  289MPD2    H7 4368   3.262   3.574  13.911 -0.2014  1.9198 -0.1113
  290TMC3    C1 4369   2.520   3.495  13.938  0.7467  0.2020  0.7421
  290TMC3    C2 4370   2.493   3.614  13.883 -0.2482 -0.2833 -0.2216
  290TMC3    C3 4371   2.443   3.714  13.965 -0.3992  0.4994  0.4354
  290TMC3    C4 4372   2.482   3.471  14.073  0.0592  0.3382  0.0732
  290TMC3    C5 4373   2.415   3.566  14.141  0.2452  1.1976  0.1693
  290TMC3    C6 4374   2.419   3.697  14.098 -1.1441 -0.0243  0.8154
  290TMC3     C 4375   2.652   3.443  13.897 -0.2353  0.1233  0.4866
  290TMC3     O 4376   2.698   3.480  13.790 -0.2677  0.3974 -0.0170
  290TMC3     H 4377   2.513   3.632  13.778 -3.6568  0.1178 -0.7902
  290TMC3    H1 4378   2.464   3.365  14.089  0.7140 -0.3810 -3.8842
  290TMC3    H2 4379   2.384   3.779  14.159 -1.2043  0.2731  0.3838
  290TMC3    C7 4380   2.385   3.544  14.284  0.4509  0.4454 -0.3298
  290TMC3    C8 4381   2.398   3.832  13.896 -0.5148 -0.3247 -0.1070
  290TMC3    O1 4382   2.361   3.650  14.339 -0.0407 -0.2086 -0.2463
  290TMC3    O2 4383   2.346   3.809  13.783  0.0240 -0.3997  1.3607
  291MPD2     C 4384   2.267   3.654   0.587  0.3753  0.7070  0.3976
  291MPD2    C1 4385   2.299   3.531   0.629  0.0163 -0.1663  0.4171
  291MPD2    C2 4386   2.432   3.483   0.620  0.8174  0.2568  0.3046
  291MPD2    C3 4387   2.530   3.562   0.567 -0.1848  0.4492 -0.0969
  291MPD2    C4 4388   2.497   3.694   0.531 -0.0263 -0.0180  0.0334
  291MPD2    C5 4389   2.368   3.734   0.540  0.1628 -0.0163 -0.1339
  291MPD2     H 4390   2.446   3.377   0.639 -2.6548  0.4723  4.0107
  291MPD2    H1 4391   2.573   3.763   0.494 -0.5679 -0.6515 -2.2155
  291MPD2    H2 4392   2.165   3.691   0.586 -0.8478 -2.5914  1.7051
  291MPD2    H3 4393   2.342   3.827   0.491 -1.2584 -0.1255  0.4209
  291MPD2     N 4394   2.660   3.520   0.544  0.7113  0.4793  0.4748
  291MPD2    H5 4395   2.725   3.586   0.501  0.5375  0.6463  0.4692
  291MPD2    N1 4396   2.207   3.436   0.672 -0.5581 -0.6948  0.1303
  291MPD2    H7 4397   2.249   3.347   0.696  0.6100 -0.5140 -1.2814
  292TMC3    C1 4398   2.004   3.329   0.706 -0.3642  0.2938 -0.7884
  292TMC3    C2 4399   1.879   3.332   0.742  0.5137  0.2323 -0.3694
  292TMC3    C3 4400   1.808   3.216   0.736 -0.5608 -0.5865 -0.5289
  292TMC3    C4 4401   2.056   3.222   0.636 -0.2137  0.5192  0.1022
  292TMC3    C5 4402   1.990   3.101   0.638 -0.5543  0.3563  0.0902
  292TMC3    C6 4403   1.861   3.097   0.688  0.0328 -0.2272  0.6270
  292TMC3     C 4404   2.072   3.453   0.688  0.9017 -0.1842  0.1201
  292TMC3     O 4405   2.012   3.555   0.671 -0.2334 -0.2668  0.3032
  292TMC3     H 4406   1.834   3.424   0.777 -0.7440 -0.9361  1.0760
  292TMC3    H1 4407   2.155   3.217   0.593 -0.8701  0.0023 -1.3482
  292TMC3    H2 4408   1.809   3.001   0.686 -1.0791  0.4308 -2.5156
  292TMC3    C7 4409   2.051   2.998   0.554 -0.1409 -0.0817  0.3757
  292TMC3    C8 4410   1.696   3.215   0.824 -0.3245  0.3917 -0.5200
  292TMC3    O1 4411   2.173   3.002   0.526  0.0374  0.5568  0.6994
  292TMC3    O2 4412   1.599   3.287   0.797 -0.2887 -0.0614 -0.4470
  293MPD2     C 4413   4.624   0.327  12.319  0.6051 -0.5168  0.1053
  293MPD2    C1 4414   4.576   0.204  12.361  0.5347 -0.3694 -0.2241
  293MPD2    C2 4415   4.569   0.174  12.496  0.4219 -0.1944  0.1140
  293MPD2    C3 4416   4.638   0.249  12.587 -0.7244 -0.2994 -0.7109
  293MPD2    C4 4417   4.699   0.363  12.541  0.4371  0.0924  0.8694
  293MPD2    C5 4418   4.693   0.399  12.411  0.1862  0.9896 -0.2039
  293MPD2     H 4419   4.516   0.082  12.519 -1.5417  0.8231 -0.3548
  293MPD2    H1 4420   0.032   0.427  12.608  0.5262 -0.4378  1.2976
  293MPD2    H2 4421   4.624   0.355  12.214  0.9612 -0.3472  0.1482
  293MPD2    H3 4422   0.013   0.492  12.376 -1.6391  2.4674  1.4202
  293MPD2     N 4423   4.626   0.224  12.727  0.3905 -0.1765 -0.3700
  293MPD2    H5 4424   4.548   0.166  12.757 -0.2273  0.6660 -0.3479
  293MPD2    N1 4425   4.507   0.132  12.259 -0.6340 -0.6577 -0.6874
  293MPD2    H7 4426   4.515   0.174  12.167 -2.4260 -2.4903 -1.6863
  294TMC3    C1 4427   4.370   4.692  12.161 -0.0021  0.0276  0.4194
  294TMC3    C2 4428   4.259   4.610  12.177 -0.2457  0.1123 -0.2281
  294TMC3    C3 4429   4.197   4.579  12.059  0.2781  0.6266 -0.3208
  294TMC3    C4 4430   4.422   0.002  12.033 -0.0287  1.2648  0.2643
  294TMC3    C5 4431   4.352   4.690  11.919 -0.2395 -0.6006  0.0455
  294TMC3    C6 4432   4.248   4.607  11.935 -0.9593  0.4201 -0.2079
  294TMC3     C 4433   4.440   0.016  12.277 -0.1558  0.2942  0.6419
  294TMC3     O 4434   4.411   4.677  12.381 -0.1557  0.2592  0.3972
  294TMC3     H 4435   4.222   4.585  12.276  2.2026 -0.3248  0.6005
  294TMC3    H1 4436   4.515   0.057  12.024  0.0787  0.7112 -1.9525
  294TMC3    H2 4437   4.178   4.585  11.856 -1.9549 -1.4052  1.1839
  294TMC3    C7 4438   4.364   0.062  11.806 -1.2068  0.5495  0.2506
  294TMC3    C8 4439   4.074   4.494  12.053 -0.0222  0.7245 -0.0929
  294TMC3    O1 4440   4.410   0.174  11.832  0.2316  0.0980 -0.7609
  294TMC3    O2 4441   4.058   4.424  11.955 -0.6917 -0.6923 -0.2327
  295MPD2     C 4442   0.209   3.228   0.888  0.1508 -0.2368 -0.3397
  295MPD2    C1 4443   0.191   3.335   0.803 -0.1192  0.0685 -0.0621
  295MPD2    C2 4444   0.069   3.407   0.817 -0.2270  0.0508 -0.2450
  295MPD2    C3 4445   4.697   3.374   0.915 -0.7341  0.2337  0.4694
  295MPD2    C4 4446   0.009   3.275   1.001  0.1720  0.1243  0.4771
  295MPD2    C5 4447   0.121   3.194   0.987  0.2116 -0.0170  0.4509
  295MPD2     H 4448   0.049   3.487   0.748 -0.1614  0.4025  0.1455
  295MPD2    H1 4449   4.663   3.247   1.079 -0.0284  1.7433  0.8874
  295MPD2    H2 4450   0.300   3.168   0.879 -0.2502 -0.8836 -0.1135
  295MPD2    H3 4451   0.137   3.108   1.051 -2.5632 -0.7388  0.1791
  295MPD2     N 4452   4.571   3.436   0.936 -0.5963  0.3367  0.3089
  295MPD2    H5 4453   4.506   3.401   1.006 -1.2453  2.3707  0.7197
  295MPD2    N1 4454   0.288   3.377   0.712 -0.1102 -0.3311  0.3741
  295MPD2    H7 4455   0.277   3.467   0.666 -1.5959 -0.0629  1.2744
  296TMC3    C1 4456   4.392   3.584   0.882 -0.2387 -0.1372  0.0504
  296TMC3    C2 4457   4.356   3.717   0.880 -0.1524  0.1618  0.2666
  296TMC3    C3 4458   4.221   3.745   0.877 -0.0389 -0.8804 -1.2754
  296TMC3    C4 4459   4.306   3.480   0.888 -0.1717  0.6620 -0.5043
  296TMC3    C5 4460   4.171   3.515   0.897 -0.7066 -0.1826 -0.6627
  296TMC3    C6 4461   4.125   3.645   0.890 -0.0885  0.8869  0.6730
  296TMC3     C 4462   4.535   3.556   0.872 -0.4234 -0.2335 -0.1099
  296TMC3     O 4463   4.610   3.649   0.841 -0.4972  0.2771  0.3131
  296TMC3     H 4464   4.430   3.795   0.867  0.3139 -0.4036 -0.4558
  296TMC3    H1 4465   4.346   3.380   0.874 -0.9722 -0.2176  3.3729
  296TMC3    H2 4466   4.020   3.669   0.903 -0.1409  0.4305  1.1125
  296TMC3    C7 4467   4.074   3.406   0.899  0.3458  0.1549  0.3284
  296TMC3    C8 4468   4.176   3.862   0.941  0.1205  0.7433 -0.3938
  296TMC3    O1 4469   3.962   3.440   0.876  1.1030  0.1152 -0.1015
  296TMC3    O2 4470   4.058   3.888   0.936  0.1684  0.3942 -0.3410
  297MPD2     C 4471   1.933   0.802  16.171  0.6200  0.4833  0.3970
  297MPD2    C1 4472   1.925   0.939  16.167  0.6996 -0.1560 -0.6014
  297MPD2    C2 4473   2.041   1.011  16.131  0.3246  0.0675  0.1277
  297MPD2    C3 4474   2.163   0.945  16.101 -0.1985  0.2689  0.6917
  297MPD2    C4 4475   2.168   0.806  16.104  0.4218 -0.1561 -0.8727
  297MPD2    C5 4476   2.049   0.737  16.136  0.5608 -0.2188 -0.4065
  297MPD2     H 4477   2.036   1.119  16.132  3.0060  0.1736  1.8741
  297MPD2    H1 4478   2.250   0.738  16.084  0.4748 -1.0229  2.2909
  297MPD2    H2 4479   1.852   0.738  16.204  1.3140  0.6962  2.4852
  297MPD2    H3 4480   2.062   0.630  16.149 -0.8486 -0.1238  1.7154
  297MPD2     N 4481   2.279   1.021  16.075  0.0258 -0.4301  0.0339
  297MPD2    H5 4482   2.269   1.117  16.107 -1.7391  0.2108 -2.4008
  297MPD2    N1 4483   1.803   1.001  16.179  0.3784 -0.6730 -0.3533
  297MPD2    H7 4484   1.788   1.100  16.168 -0.8093 -0.7109  0.9548
  298TMC3    C1 4485   1.569   1.017  16.198  0.0719 -0.3949 -0.5478
  298TMC3    C2 4486   1.553   1.054  16.074  0.2281  0.6416  0.1104
  298TMC3    C3 4487   1.431   1.105  16.041 -0.6080  0.3904  0.5750
  298TMC3    C4 4488   1.473   1.026  16.292  0.0253 -0.2364  0.6099
  298TMC3    C5 4489   1.360   1.091  16.264 -0.5054 -0.3979  0.3157
  298TMC3    C6 4490   1.334   1.133  16.137 -0.5993 -0.1587 -0.0455
  298TMC3     C 4491   1.691   0.947  16.243 -0.0257 -0.0608 -0.3899
  298TMC3     O 4492   1.679   0.867  16.335 -0.0990  0.4086 -0.4135
  298TMC3     H 4493   1.636   1.041  16.005 -1.7169 -0.6777 -2.0022
  298TMC3    H1 4494   1.508   0.992  16.389 -1.5020  1.4165  1.7348
  298TMC3    H2 4495   1.243   1.186  16.109 -1.2731 -1.3805 -0.1781
  298TMC3    C7 4496   1.296   1.158  16.376 -0.2183 -0.1776 -0.5514
  298TMC3    C8 4497   1.363   1.075  15.914 -1.3177 -0.4758  1.2399
  298TMC3    O1 4498   1.364   1.200  16.468 -0.1568 -0.2012  0.3149
  298TMC3    O2 4499   1.240   1.048  15.912  0.4015 -0.0280 -0.0835
  299MPD2     C 4500   2.661   0.299  10.588  0.1751 -0.0328  0.2492
  299MPD2    C1 4501   2.786   0.345  10.547  0.1024  0.1692  0.4533
  299MPD2    C2 4502   2.813   0.356  10.407 -0.5687  0.3328 -0.3840
  299MPD2    C3 4503   2.707   0.327  10.321 -0.0589 -0.2997 -0.0683
  299MPD2    C4 4504   2.581   0.295  10.361  0.8146  0.5167  0.9964
  299MPD2    C5 4505   2.560   0.275  10.495 -0.3712 -0.7352  0.2559
  299MPD2     H 4506   2.913   0.380  10.372  0.7816 -1.0255  2.5277
  299MPD2    H1 4507   2.502   0.278  10.288  0.8758  0.6619  0.8976
  299MPD2    H2 4508   2.630   0.295  10.692 -1.2038  0.0583 -0.1613
  299MPD2    H3 4509   2.465   0.237  10.531 -1.3173  0.7434 -0.6513
  299MPD2     N 4510   2.718   0.343  10.182 -0.2383 -0.6237  0.2627
  299MPD2    H5 4511   2.635   0.326  10.125 -0.9757  0.3860  1.0307
  299MPD2    N1 4512   2.876   0.378  10.650  0.2689  0.4825  0.3956
  299MPD2    H7 4513   2.837   0.385  10.743  3.5361 -0.9309  1.8681
  300TMC3    C1 4514   2.797   0.410   9.980 -0.5413 -0.2754  0.5864
  300TMC3    C2 4515   2.728   0.531   9.992 -0.2585  0.2095 -0.5951
  300TMC3    C3 4516   2.621   0.550   9.909  0.7693  0.1129 -0.2170
  300TMC3    C4 4517   2.772   0.316   9.884  0.0130 -0.2579 -0.9038
  300TMC3    C5 4518   2.678   0.353   9.793  0.0647  0.0285  0.7112
  300TMC3    C6 4519   2.604   0.470   9.800  0.1606  0.1034  0.2355
  300TMC3     C 4520   2.833   0.370  10.112 -0.8092 -0.3191 -0.5093
  300TMC3     O 4521   2.941   0.408  10.155 -0.3694 -0.0441  0.2843
  300TMC3     H 4522   2.753   0.600  10.072 -0.8944 -0.7976  0.4681
  300TMC3    H1 4523   2.832   0.226   9.886 -0.0532 -0.2499  1.5540
  300TMC3    H2 4524   2.519   0.473   9.732  0.8365 -0.5726 -0.6366
  300TMC3    C7 4525   2.595   0.237   9.747  0.2481  0.0718 -0.2101
  300TMC3    C8 4526   2.502   0.544   9.989  0.3681 -0.0213  0.8443
  300TMC3    O1 4527   2.660   0.138   9.706  0.2392  0.2091 -0.3793
  300TMC3    O2 4528   2.419   0.456   9.957  0.8434 -0.0663  0.3983
  301MPD2     C 4529   4.624   1.690   1.372  0.8010 -0.0178 -0.1075
  301MPD2    C1 4530   4.498   1.639   1.386 -0.1057  0.9839 -0.1458
  301MPD2    C2 4531   4.465   1.504   1.369 -0.5632 -0.1242 -0.8047
  301MPD2    C3 4532   4.567   1.408   1.354 -0.3006 -0.9787  0.5251
  301MPD2    C4 4533   4.693   1.461   1.345  0.1259  0.2881  0.1678
  301MPD2    C5 4534   4.718   1.598   1.354  0.3535 -1.0619 -0.4505
  301MPD2     H 4535   4.359   1.481   1.369 -0.8138  1.0388 -1.4151
  301MPD2    H1 4536   0.052   1.392   1.330 -0.0306  0.7219 -2.6826
  301MPD2    H2 4537   4.645   1.796   1.381 -0.4505  0.1227  1.2222
  301MPD2    H3 4538   0.095   1.638   1.345 -0.6886  1.8351  0.6807
  301MPD2     N 4539   4.541   1.270   1.342  0.2385 -0.0975  0.3761
  301MPD2    H5 4540   4.616   1.213   1.304  0.1623 -0.0318  0.1310
  301MPD2    N1 4541   4.387   1.725   1.399  0.2106  0.1030 -0.0136
  301MPD2    H7 4542   4.297   1.678   1.406  1.0003 -1.1572  1.7303
  302TMC3    C1 4543   4.450   1.063   1.373  0.1898 -0.1305  0.3212
  302TMC3    C2 4544   4.574   1.001   1.360 -0.3067  0.6036 -0.0046
  302TMC3    C3 4545   4.578   0.869   1.331  0.4634  0.3749  0.3089
  302TMC3    C4 4546   4.332   0.997   1.354  0.1997 -0.4019 -0.0058
  302TMC3    C5 4547   4.343   0.868   1.319  0.0926 -0.3535 -0.0378
  302TMC3    C6 4548   4.459   0.802   1.300  0.4657  0.3226  0.3067
  302TMC3     C 4549   4.428   1.205   1.381 -0.2704  0.3104  0.3229
  302TMC3     O 4550   4.339   1.250   1.452  0.1217  0.2383  0.4195
  302TMC3     H 4551   4.667   1.057   1.369  0.2632 -0.6555  1.9513
  302TMC3    H1 4552   4.238   1.051   1.362  0.1205 -0.6327  0.6289
  302TMC3    H2 4553   4.448   0.697   1.276 -0.0967  1.0653 -2.6309
  302TMC3    C7 4554   4.239   0.821   1.226  0.2080 -0.4643 -0.4407
  302TMC3    C8 4555   4.697   0.801   1.298  0.2541  0.4009 -0.5256
  302TMC3    O1 4556   4.229   0.701   1.201 -0.2804  0.0674 -0.4825
  302TMC3    O2 4557   0.077   0.860   1.323  0.2399  0.1813  0.0343
  303MPD2     C 4558   0.076   0.115  10.717  0.0283 -0.6068 -0.0889
  303MPD2    C1 4559   0.100   4.723  10.657 -0.1937  0.0318 -0.5025
  303MPD2    C2 4560   0.127   4.717  10.521 -0.2215  0.4484 -0.0658
  303MPD2    C3 4561   0.138   0.111  10.449  0.6976  0.6521  0.9717
  303MPD2    C4 4562   0.108   0.230  10.512  0.3544  0.0396  0.3055
  303MPD2    C5 4563   0.077   0.232  10.642 -0.2026  0.6437 -0.0394
  303MPD2     H 4564   0.142   4.620  10.475  0.5893  0.1496  0.8371
  303MPD2    H1 4565   0.112   0.319  10.450  1.0310  0.6837  1.2727
  303MPD2    H2 4566   0.034   0.114  10.816  2.3442  0.2737  0.8997
  303MPD2    H3 4567   0.030   0.321  10.682 -2.1139 -0.2698 -0.2426
  303MPD2     N 4568   0.160   0.107  10.306  0.0042  0.2513 -0.4144
  303MPD2    H5 4569   0.161   0.198  10.261  1.7990 -0.1570 -1.1631
  303MPD2    N1 4570   0.078   4.608  10.737  0.0156 -0.9439  0.3459
  303MPD2    H7 4571   0.054   4.635  10.832 -3.6331 -0.8438 -0.6065
  304TMC3    C1 4572   0.026   4.390  10.798  0.2781 -0.4171 -0.3683
  304TMC3    C2 4573   4.635   4.428  10.865  0.1451  0.2317  0.0763
  304TMC3    C3 4574   4.575   4.331  10.941 -0.0195 -0.1973 -0.0141
  304TMC3    C4 4575   0.077   4.267  10.793  0.4689 -0.1803 -0.0845
  304TMC3    C5 4576   0.023   4.177  10.871 -0.5150 -0.2802  0.1840
  304TMC3    C6 4577   4.629   4.204  10.944  0.0539 -0.1557  0.2352
  304TMC3     C 4578   0.083   4.477  10.694 -0.3549 -0.3570 -0.7690
  304TMC3     O 4579   0.131   4.426  10.591  0.1078  0.1406  0.3381
  304TMC3     H 4580   4.586   4.525  10.867  0.6358  0.4512  2.0060
  304TMC3    H1 4581   0.169   4.245  10.740  0.7723  1.9487 -0.4348
  304TMC3    H2 4582   4.587   4.132  11.013 -0.7574 -1.1429 -1.2594
  304TMC3    C7 4583   0.016   4.047  10.806 -0.1488 -0.5294  0.3016
  304TMC3    C8 4584   4.436   4.322  10.897  0.4710  0.0129  0.4170
  304TMC3    O1 4585   0.114   3.972  10.811  0.1175  0.3943  0.1467
  304TMC3    O2 4586   4.396   4.395  10.805 -0.0618  0.3636 -0.1198
  305MPD2     C 4587   2.598   2.072  14.106 -0.2719 -0.6912 -0.0554
  305MPD2    C1 4588   2.712   1.999  14.136  0.1984  0.3761  1.1107
  305MPD2    C2 4589   2.762   1.927  14.033  0.0343  0.5446 -0.0378
  305MPD2    C3 4590   2.706   1.930  13.904  0.3874 -0.0073 -0.2252
  305MPD2    C4 4591   2.585   1.996  13.880 -0.5017 -1.0173 -0.1960
  305MPD2    C5 4592   2.548   2.083  13.981  1.1065  0.2988 -0.0243
  305MPD2     H 4593   2.859   1.880  14.048 -0.7689 -1.7402 -2.0041
  305MPD2    H1 4594   2.534   1.998  13.785  1.6058 -1.8148 -1.3262
  305MPD2    H2 4595   2.548   2.137  14.177  0.5675  0.0116 -0.0935
  305MPD2    H3 4596   2.477   2.162  13.960  3.3803  2.0756 -1.0090
  305MPD2     N 4597   2.749   1.861  13.790  0.0730 -0.1663 -0.0459
  305MPD2    H5 4598   2.704   1.875  13.700  0.7577 -1.7797 -0.6466
  305MPD2    N1 4599   2.770   1.986  14.259 -0.1864 -0.7575  0.4296
  305MPD2    H7 4600   2.832   1.906  14.272 -0.5211 -1.2901 -1.2089
  306TMC3    C1 4601   2.884   2.080  14.446  0.1549 -0.6444 -0.5890
  306TMC3    C2 4602   2.933   1.959  14.483  0.2618 -0.0823 -0.5367
  306TMC3    C3 4603   3.045   1.963  14.560 -0.1132 -0.2254  0.5711
  306TMC3    C4 4604   2.941   2.199  14.487 -0.2467 -0.0196 -0.6440
  306TMC3    C5 4605   3.053   2.184  14.559  0.4607  0.0412 -0.0206
  306TMC3    C6 4606   3.106   2.073  14.595 -0.2948  0.1562 -0.2601
  306TMC3     C 4607   2.771   2.090  14.357 -0.1527  0.3687  0.7099
  306TMC3     O 4608   2.696   2.184  14.367 -0.3025 -0.3350  0.1495
  306TMC3     H 4609   2.874   1.871  14.461 -0.5825  0.2425  0.4356
  306TMC3    H1 4610   2.898   2.296  14.463 -1.4281  0.0140  1.5932
  306TMC3    H2 4611   3.197   2.080  14.653 -0.4344 -1.8383  0.1800
  306TMC3    C7 4612   3.104   2.302  14.630  0.7686 -0.5834 -0.1189
  306TMC3    C8 4613   3.116   1.843  14.598 -0.3261 -0.2013 -0.6893
  306TMC3    O1 4614   3.118   2.415  14.581  0.3653 -0.3044  0.3858
  306TMC3    O2 4615   3.237   1.866  14.617 -0.7553 -0.8591  1.1608
  307MPD2     C 4616   0.519   4.128   1.015  0.1310 -0.1041 -0.7049
  307MPD2    C1 4617   0.463   4.249   0.979 -0.5628 -0.5964  0.0279
  307MPD2    C2 4618   0.325   4.253   0.961  0.2473 -0.3012  0.0175
  307MPD2    C3 4619   0.244   4.156   1.007  0.1281  0.1773  0.5836
  307MPD2    C4 4620   0.304   4.035   1.043  0.2802 -0.2131 -0.6371
  307MPD2    C5 4621   0.441   4.027   1.057 -0.7236  0.4014  0.1385
  307MPD2     H 4622   0.274   4.344   0.933 -0.2931 -0.8989 -0.9029
  307MPD2    H1 4623   0.256   3.947   1.084  1.4314 -0.3720  0.4066
  307MPD2    H2 4624   0.627   4.116   1.015 -0.1666 -2.9233  0.9035
  307MPD2    H3 4625   0.493   3.939   1.092 -1.8578  0.2029  1.2850
  307MPD2     N 4626   0.103   4.171   1.015 -0.0274  0.5057 -0.2430
  307MPD2    H5 4627   0.061   4.260   0.988  0.3758  0.3395 -1.4347
  307MPD2    N1 4628   0.531   4.363   0.938  0.0333 -0.1322 -0.3395
  307MPD2    H7 4629   0.473   4.443   0.914 -0.6458 -1.4516 -2.9753
  308TMC3    C1 4630   4.444   4.212   0.900 -0.5617  0.4971 -0.2925
  308TMC3    C2 4631   4.432   4.324   0.978 -0.0850  0.1269 -0.1286
  308TMC3    C3 4632   4.509   4.335   1.088  0.2714  0.0106 -0.4009
  308TMC3    C4 4633   4.528   4.106   0.935 -0.3645 -0.2277 -0.6030
  308TMC3    C5 4634   4.603   4.128   1.049  0.2189  0.8749 -0.4103
  308TMC3    C6 4635   4.603   4.238   1.126 -0.0670 -0.1260 -0.2859
  308TMC3     C 4636   4.391   4.205   0.770  0.1125  0.1087 -0.4810
  308TMC3     O 4637   4.371   4.091   0.730 -0.1485 -0.2297  0.3441
  308TMC3     H 4638   4.359   4.401   0.956 -1.1316 -0.7479  0.2744
  308TMC3    H1 4639   4.532   4.021   0.867  4.0770 -0.5154  0.0340
  308TMC3    H2 4640   4.670   4.229   1.210 -0.2369  0.1315 -0.1200
  308TMC3    C7 4641   0.010   4.071   1.040  0.4127  0.0982  0.0336
  308TMC3    C8 4642   4.493   4.450   1.169  0.4033 -0.1908 -0.2179
  308TMC3    O1 4643   0.029   3.949   1.034 -0.0489  0.1135 -0.9564
  308TMC3    O2 4644   4.537   4.439   1.282 -0.2993  0.0349  0.3840
  309MPD2     C 4645   0.083   0.447  17.028 -0.6268  0.4338  0.3154
  309MPD2    C1 4646   4.723   0.451  16.919  0.6026 -0.1942  0.0172
  309MPD2    C2 4647   4.605   0.529  16.935  0.5834  0.0364  0.5673
  309MPD2    C3 4648   4.573   0.583  17.056  0.3848  0.7772 -0.3658
  309MPD2    C4 4649   4.663   0.590  17.155  0.1541 -0.0083 -0.1803
  309MPD2    C5 4650   0.056   0.515  17.143  0.0259  0.4321  0.1360
  309MPD2     H 4651   4.544   0.544  16.847 -0.5578 -2.2939  0.9655
  309MPD2    H1 4652   4.632   0.642  17.245  0.3271 -0.8904  0.3901
  309MPD2    H2 4653   0.180   0.398  17.030  0.4893  2.6264  0.4792
  309MPD2    H3 4654   0.122   0.504  17.228 -1.4449  3.6645  1.6918
  309MPD2     N 4655   4.447   0.647  17.080  0.2584  0.1385  0.6768
  309MPD2    H5 4656   4.435   0.708  17.161  0.3513  0.4563  0.4499
  309MPD2    N1 4657   0.029   0.393  16.798 -0.0375  0.5111  0.1661
  309MPD2    H7 4658   4.689   0.416  16.723  1.0896 -0.4156 -1.0833
  310TMC3    C1 4659   0.132   0.273  16.636  0.2090  0.1672  0.5191
  310TMC3    C2 4660   0.041   0.301  16.541  0.5758  0.0655 -0.3739
  310TMC3    C3 4661   0.073   0.318  16.406 -0.6635 -0.1583  0.2460
  310TMC3    C4 4662   0.264   0.248  16.598  0.3872  0.3572 -0.5366
  310TMC3    C5 4663   0.301   0.276  16.468  0.2173  0.1867 -0.2916
  310TMC3    C6 4664   0.200   0.299  16.373  0.2403  0.5411  0.1902
  310TMC3     C 4665   0.119   0.299  16.776  0.2548  0.3240  0.2031
  310TMC3     O 4666   0.193   0.242  16.854  0.2812  0.4693  0.1615
  310TMC3     H 4667   4.662   0.315  16.572  0.1397 -1.2759 -1.2346
  310TMC3    H1 4668   0.338   0.235  16.675 -1.2876  0.1664  1.0391
  310TMC3    H2 4669   0.233   0.325  16.273 -1.0047 -0.2957 -0.4215
  310TMC3    C7 4670   0.440   0.289  16.427  0.4063  0.5390 -0.5533
  310TMC3    C8 4671   4.711   0.371  16.306  0.2738  0.1356  0.2334
  310TMC3    O1 4672   0.519   0.234  16.503  0.1189  0.2877  0.1547
  310TMC3    O2 4673   0.027   0.380  16.190  0.6383  0.0025  0.0624
  311MPD2     C 4674   2.209   1.479  12.855  0.1413 -0.5731  0.6794
  311MPD2    C1 4675   2.146   1.601  12.856 -0.5068 -0.6579  0.4599
  311MPD2    C2 4676   2.009   1.606  12.859  0.5132 -0.2888 -0.3806
  311MPD2    C3 4677   1.928   1.492  12.860  0.0830  0.0086  0.2309
  311MPD2    C4 4678   1.991   1.368  12.873 -1.1539 -0.3567  0.0101
  311MPD2    C5 4679   2.127   1.362  12.875  0.3175 -0.1288 -0.8091
  311MPD2     H 4680   1.953   1.691  12.823 -1.0582 -2.6257 -3.4862
  311MPD2    H1 4681   1.950   1.270  12.896 -1.5848 -0.4460 -1.1434
  311MPD2    H2 4682   2.315   1.470  12.835  0.4193 -1.3244  2.4823
  311MPD2    H3 4683   2.182   1.269  12.884  0.5644 -0.0634 -1.6263
  311MPD2     N 4684   1.786   1.501  12.861  0.8484 -0.4880  0.1077
  311MPD2    H5 4685   1.741   1.592  12.858  0.5466 -0.6709 -0.8417
  311MPD2    N1 4686   2.207   1.723  12.860 -0.3053  0.0493  0.2922
  311MPD2    H7 4687   2.152   1.808  12.852  0.4533  0.5187  0.0667
  312TMC3    C1 4688   1.574   1.444  12.905 -0.0118  0.0755 -0.4711
  312TMC3    C2 4689   1.468   1.422  12.821 -0.3396  0.1726  0.1048
  312TMC3    C3 4690   1.366   1.519  12.820  0.2117  0.5336  0.1063
  312TMC3    C4 4691   1.573   1.544  12.997  0.5943 -0.0604  0.1742
  312TMC3    C5 4692   1.458   1.625  13.005  0.1002 -0.5932 -0.4121
  312TMC3    C6 4693   1.366   1.623  12.911 -0.0890  0.4727  0.0632
  312TMC3     C 4694   1.704   1.395  12.866 -0.4481  0.7697 -0.4389
  312TMC3     O 4695   1.714   1.270  12.854  0.1262  0.1345  0.1917
  312TMC3     H 4696   1.478   1.340  12.750  2.2660 -0.0233  0.7126
  312TMC3    H1 4697   1.649   1.547  13.074  1.4822 -0.7012 -0.6781
  312TMC3    H2 4698   1.284   1.693  12.912 -1.0394 -0.6626  1.0211
  312TMC3    C7 4699   1.453   1.716  13.117  0.0087 -0.0557  0.0266
  312TMC3    C8 4700   1.269   1.513  12.714  0.1620  0.4310  0.1370
  312TMC3    O1 4701   1.424   1.831  13.094 -0.3340 -0.0505  0.9229
  312TMC3    O2 4702   1.254   1.401  12.663  0.1127 -0.1814 -0.4946
  313MPD2     C 4703   1.669   0.950  10.615  0.2614 -0.0771  0.1831
  313MPD2    C1 4704   1.532   0.945  10.625 -0.0968 -0.9412 -0.9206
  313MPD2    C2 4705   1.464   0.860  10.536  0.4775  0.3302 -0.7943
  313MPD2    C3 4706   1.530   0.762  10.464 -0.1593 -0.0730 -0.4962
  313MPD2    C4 4707   1.664   0.771  10.460  0.0301  0.0724  0.0583
  313MPD2    C5 4708   1.729   0.867  10.531 -0.0314 -0.3667 -0.4789
  313MPD2     H 4709   1.356   0.866  10.542  0.5131 -0.1051  0.2165
  313MPD2    H1 4710   1.716   0.712  10.386 -1.7011 -1.5758  0.1571
  313MPD2    H2 4711   1.727   1.019  10.675  1.1968 -1.7939  1.2509
  313MPD2    H3 4712   1.836   0.883  10.522  0.2140 -1.5101  0.4381
  313MPD2     N 4713   1.453   0.671  10.387  0.2424  0.1900 -0.6379
  313MPD2    H5 4714   1.353   0.682  10.403  0.4285 -0.0224  0.6001
  313MPD2    N1 4715   1.451   1.032  10.708  0.3680  0.2551  0.2188
  313MPD2    H7 4716   1.351   1.019  10.713  0.4136 -0.5473 -0.8662
  314TMC3    C1 4717   1.393   1.226  10.811 -0.0208 -0.7573 -0.4885
  314TMC3    C2 4718   1.418   1.322  10.910  0.5882 -0.7202  0.3311
  314TMC3    C3 4719   1.319   1.395  10.961  0.3083  0.8925  0.5883
  314TMC3    C4 4720   1.270   1.222  10.752 -0.2777 -0.0883 -0.0084
  314TMC3    C5 4721   1.166   1.304  10.807  1.4844 -0.7635  0.2512
  314TMC3    C6 4722   1.187   1.389  10.914 -0.4419  0.2971  0.6051
  314TMC3     C 4723   1.501   1.134  10.779  0.1141 -0.0882  0.1697
  314TMC3     O 4724   1.614   1.162  10.809 -0.0145  0.1552 -0.0686
  314TMC3     H 4725   1.516   1.322  10.956  0.1717 -1.4035  1.2278
  314TMC3    H1 4726   1.252   1.170  10.659 -1.5922  1.3568 -0.5756
  314TMC3    H2 4727   1.104   1.452  10.944 -0.8029  0.3783 -0.5358
  314TMC3    C7 4728   1.067   1.357  10.715 -0.5970 -0.1317 -0.7572
  314TMC3    C8 4729   1.354   1.495  11.058 -0.6892  0.0959 -1.0463
  314TMC3    O1 4730   0.975   1.422  10.760 -0.4036 -0.3457 -0.1247
  314TMC3    O2 4731   1.474   1.520  11.080 -0.0900  0.6361  0.4782
  315MPD2     C 4732   0.915   0.884   0.546 -0.5566  0.3058 -0.3140
  315MPD2    C1 4733   1.044   0.859   0.588 -0.1100 -0.4403 -0.8079
  315MPD2    C2 4734   1.140   0.955   0.558  0.0104 -0.1297  0.6940
  315MPD2    C3 4735   1.113   1.055   0.465 -0.5745  0.2831 -0.6306
  315MPD2    C4 4736   0.988   1.071   0.418 -0.0504  0.1597  0.1087
  315MPD2    C5 4737   0.888   0.989   0.456  0.0423 -0.6856  0.1868
  315MPD2     H 4738   1.236   0.941   0.608  0.9895 -1.8269 -1.6536
  315MPD2    H1 4739   0.962   1.155   0.355  0.4115  0.1850 -0.0477
  315MPD2    H2 4740   0.830   0.820   0.566 -0.4640  0.5427  0.8035
  315MPD2    H3 4741   0.788   1.014   0.421  1.0345  2.9625 -0.1047
  315MPD2     N 4742   1.222   1.144   0.428 -0.3837 -0.0253  0.1169
  315MPD2    H5 4743   1.311   1.113   0.465 -2.0765 -1.0815  3.3188
  315MPD2    N1 4744   1.082   0.738   0.653  0.0226 -0.6480 -0.2337
  315MPD2    H7 4745   1.181   0.734   0.675  0.2121  0.7857 -0.8564
  316TMC3    C1 4746   1.350   1.327   0.334  0.3162  0.2756 -0.0398
  316TMC3    C2 4747   1.436   1.333   0.440  0.3207  0.0509  0.1565
  316TMC3    C3 4748   1.541   1.423   0.440  0.0477 -0.1434 -0.7773
  316TMC3    C4 4749   1.377   1.406   0.228  0.0774  0.1181  0.0307
  316TMC3    C5 4750   1.482   1.500   0.231  0.2402  0.2550  0.0823
  316TMC3    C6 4751   1.559   1.511   0.340 -0.2567 -0.1064  0.3799
  316TMC3     C 4752   1.227   1.246   0.336  0.2738  0.0752  0.5139
  316TMC3     O 4753   1.140   1.296   0.272  0.1633  0.4665  0.0515
  316TMC3     H 4754   1.424   1.271   0.528 -1.8474  0.1186 -0.1025
  316TMC3    H1 4755   1.320   1.386   0.138 -0.5341 -1.1330  0.6899
  316TMC3    H2 4756   1.650   1.570   0.352 -1.4470  1.5969  0.9992
  316TMC3    C7 4757   1.531   1.561   0.110 -0.7033  0.4493 -0.2309
  316TMC3    C8 4758   1.645   1.410   0.538  0.5038 -0.3935 -0.1218
  316TMC3    O1 4759   1.640   1.612   0.128 -0.0939 -0.6323  0.5629
  316TMC3    O2 4760   1.718   1.508   0.565 -0.4275  0.2280  0.5329
  317MPD2     C 4761   2.823   3.789  12.863  0.3167  0.5553 -0.6633
  317MPD2    C1 4762   2.787   3.663  12.918 -0.4076  0.5776 -0.0380
  317MPD2    C2 4763   2.887   3.572  12.951 -0.7771 -0.0757 -0.1634
  317MPD2    C3 4764   3.020   3.592  12.913 -0.1625 -0.1382 -0.2729
  317MPD2    C4 4765   3.043   3.723  12.867 -0.0344 -0.0164 -0.1727
  317MPD2    C5 4766   2.951   3.815  12.839  0.2073  0.3847  0.0381
  317MPD2     H 4767   2.856   3.481  13.002 -0.1996 -0.1137  0.1178
  317MPD2    H1 4768   3.143   3.763  12.860  1.2392 -3.4996 -1.7121
  317MPD2    H2 4769   2.749   3.858  12.823 -1.4058 -0.7935  0.1481
  317MPD2    H3 4770   2.982   3.899  12.779  1.5836 -0.7021 -0.7751
  317MPD2     N 4771   3.123   3.495  12.934 -0.2722 -0.3843 -0.4242
  317MPD2    H5 4772   3.096   3.410  12.982 -0.0664  0.5736  1.3724
  317MPD2    N1 4773   2.659   3.613  12.908 -0.5475 -0.0639 -0.0517
  317MPD2    H7 4774   2.656   3.512  12.897  0.6315 -0.0467 -0.5445
  318TMC3    C1 4775   3.357   3.427  12.960 -0.5938  0.4477 -0.3163
  318TMC3    C2 4776   3.321   3.350  13.075 -0.0446  0.8784  0.4215
  318TMC3    C3 4777   3.430   3.279  13.128  0.3687 -0.2011 -0.4396
  318TMC3    C4 4778   3.482   3.426  12.903  0.2264  0.0996 -0.7976
  318TMC3    C5 4779   3.581   3.369  12.978 -0.8225  0.5762  0.5275
  318TMC3    C6 4780   3.557   3.296  13.097 -0.7599 -0.5396 -0.2987
  318TMC3     C 4781   3.253   3.512  12.902 -0.4843 -0.8565 -0.5635
  318TMC3     O 4782   3.300   3.594  12.825  0.3568  0.3048  0.2389
  318TMC3     H 4783   3.218   3.348  13.108  0.4476  2.5769  2.1022
  318TMC3    H1 4784   3.498   3.472  12.806  1.1866  2.1234  0.3130
  318TMC3    H2 4785   3.636   3.251  13.155 -2.7155  0.4390  3.1449
  318TMC3    C7 4786   3.724   3.386  12.941  0.2498 -0.2802  0.1713
  318TMC3    C8 4787   3.407   3.174  13.232  0.4805  0.0735  0.2453
  318TMC3    O1 4788   3.738   3.481  12.862  0.1411 -0.0460  0.7698
  318TMC3    O2 4789   3.493   3.149  13.315  0.4121  0.6600 -0.3444
  319MPD2     C 4790   4.509   4.720  16.408  0.2850 -0.4287 -0.2649
  319MPD2    C1 4791   4.416   4.678  16.504  0.2707  0.3705  0.2955
  319MPD2    C2 4792   4.296   4.632  16.464  0.7076  0.6292  0.6484
  319MPD2    C3 4793   4.260   4.619  16.333  0.7658 -0.0593 -0.2005
  319MPD2    C4 4794   4.350   4.660  16.241 -0.6155 -0.4514  0.6265
  319MPD2    C5 4795   4.468   0.004  16.274 -0.0222 -0.6069 -0.6753
  319MPD2     H 4796   4.225   4.595  16.536  2.7382 -1.7344  1.4349
  319MPD2    H1 4797   4.332   4.645  16.135  1.7719 -0.0652  0.1484
  319MPD2    H2 4798   4.609   0.031  16.430  0.1744  0.2093 -0.7686
  319MPD2    H3 4799   4.543   0.035  16.201  1.0940  2.6185  1.8087
  319MPD2     N 4800   4.137   4.565  16.291 -0.0820 -0.4183 -0.4726
  319MPD2    H5 4801   4.135   4.562  16.189  0.4005  0.3117 -0.5031
  319MPD2    N1 4802   4.454   4.667  16.642 -0.4175  0.3176 -0.0220
  319MPD2    H7 4803   4.377   4.635  16.700 -0.9312  0.4792 -0.6059
  320TMC3    C1 4804   3.945   4.438  16.285 -0.0398  1.0047 -0.5710
  320TMC3    C2 4805   3.912   4.481  16.162 -0.7571  0.3243  0.6501
  320TMC3    C3 4806   3.810   4.426  16.090 -0.8040  0.1256  0.6227
  320TMC3    C4 4807   3.873   4.334  16.334  0.3011 -0.7090 -0.4776
  320TMC3    C5 4808   3.773   4.278  16.267  0.1483  1.0837 -0.3130
  320TMC3    C6 4809   3.745   4.319  16.139  0.2391  0.4901  0.0948
  320TMC3     C 4810   4.034   4.511  16.370 -0.7941  0.4483  0.0392
  320TMC3     O 4811   4.030   4.501  16.494 -0.2118  0.5443 -0.2409
  320TMC3     H 4812   3.962   4.571  16.128 -1.8481  0.6857 -0.0021
  320TMC3    H1 4813   3.892   4.313  16.439  1.6792  0.5935 -0.4578
  320TMC3    H2 4814   3.678   4.259  16.078 -0.6767  1.2315  0.3553
  320TMC3    C7 4815   3.707   4.159  16.310 -0.5055 -0.0115 -0.4338
  320TMC3    C8 4816   3.748   4.511  15.992  0.8140 -0.3292  0.3161
  320TMC3    O1 4817   3.627   4.105  16.242 -0.5052 -0.4759 -0.1633
  320TMC3    O2 4818   3.792   4.627  15.989  0.4025  0.3520  0.1419
  321TMC3    C1 4819   4.548   4.706  16.843  0.0203  0.2963 -0.6721
  321TMC3    C2 4820   4.431   4.664  16.899  0.8764  0.1222  0.7073
  321TMC3    C3 4821   4.400   4.707  17.028 -0.3821 -0.0786  0.8188
  321TMC3    C4 4822   4.641   0.065  16.910 -0.1214  0.4026 -0.1834
  321TMC3    C5 4823   4.606   0.105  17.034 -0.3327  0.2096  0.5806
  321TMC3    C6 4824   4.480   0.076  17.083 -0.8321  0.4338 -0.3664
  321TMC3     C 4825   4.572   4.702  16.700 -0.1524  0.0832 -1.1850
  321TMC3     O 4826   4.678   0.016  16.645  0.1221 -0.3078  0.5371
  321TMC3     H 4827   4.360   4.597  16.853  0.3977 -0.3067  2.0683
  321TMC3    H1 4828   0.018   0.070  16.871 -1.0329  0.1805 -2.5636
  321TMC3    H2 4829   4.449   0.128  17.172 -0.6615 -0.1216  0.0187
  321TMC3    C7 4830   4.701   0.125  17.144 -0.0061  0.1484 -0.3924
  321TMC3    C8 4831   4.364   4.591  17.110 -0.1222  0.1515 -0.9840
  321TMC3    O1 4832   4.654   0.104  17.256 -0.4690 -0.0624  0.3383
  321TMC3    O2 4833   4.280   4.510  17.071 -0.1231  0.2400  0.0099
  322MPD2     C 4834   3.096   1.471  13.701  0.5083 -0.3996 -0.5863
  322MPD2    C1 4835   3.094   1.442  13.838 -0.2884 -0.8752 -0.9755
  322MPD2    C2 4836   3.030   1.324  13.882 -0.0195 -0.0930  0.1031
  322MPD2    C3 4837   2.973   1.228  13.798 -0.5084 -0.5140  0.7889
  322MPD2    C4 4838   2.978   1.260  13.662  0.4231  0.0359 -0.3923
  322MPD2    C5 4839   3.040   1.381  13.610 -0.9593  0.0284  0.0414
  322MPD2     H 4840   3.042   1.287  13.983 -0.8888 -0.1079  0.2027
  322MPD2    H1 4841   2.930   1.201  13.585 -1.5768 -1.4791  2.0243
  322MPD2    H2 4842   3.143   1.560  13.659  0.0828  0.6589  1.1800
  322MPD2    H3 4843   3.050   1.393  13.503 -0.9765 -3.2254 -0.3299
  322MPD2     N 4844   2.928   1.112  13.853  0.2256 -0.2570 -0.0596
  322MPD2    H5 4845   2.935   1.121  13.954  3.7393  2.3934 -0.5133
  322MPD2    N1 4846   3.169   1.520  13.932 -0.3886 -0.1537  0.2412
  322MPD2    H7 4847   3.215   1.600  13.890 -0.6462  0.2459  0.7132
  323TMC3    C1 4848   3.271   1.550  14.152  0.6941 -0.0781 -0.1740
  323TMC3    C2 4849   3.378   1.602  14.092 -0.1534 -0.7138  0.0087
  323TMC3    C3 4850   3.499   1.614  14.164  0.2385 -0.0155 -0.6576
  323TMC3    C4 4851   3.289   1.504  14.276  0.0131  0.5538  0.5767
  323TMC3    C5 4852   3.412   1.499  14.341  0.2024  0.4958  0.0774
  323TMC3    C6 4853   3.521   1.557  14.290 -0.1938  0.0973 -0.3145
  323TMC3     C 4854   3.163   1.499  14.073 -0.3699  0.6049  0.2709
  323TMC3     O 4855   3.079   1.438  14.140  0.1612 -0.0851 -0.5729
  323TMC3     H 4856   3.365   1.646  13.994 -2.3098  0.0969  0.6592
  323TMC3    H1 4857   3.212   1.438  14.315  1.1022 -0.9014  0.2641
  323TMC3    H2 4858   3.611   1.566  14.350 -0.7898  1.4516  0.3861
  323TMC3    C7 4859   3.430   1.395  14.439 -0.9049 -0.4618 -0.6279
  323TMC3    C8 4860   3.624   1.633  14.094 -0.4873 -0.4630 -0.1903
  323TMC3    O1 4861   3.329   1.336  14.470  0.2026  0.1301  0.3859
  323TMC3    O2 4862   3.727   1.582  14.143 -0.2848  0.0616 -0.1080
  324MPD2     C 4863   0.221   2.392  14.412  0.8515  0.6934  0.6917
  324MPD2    C1 4864   0.187   2.502  14.489  0.1146 -0.3568  0.6330
  324MPD2    C2 4865   0.055   2.540  14.499 -0.2418 -0.0873  0.2908
  324MPD2    C3 4866   4.678   2.470  14.434  0.1151  0.2514  0.6436
  324MPD2    C4 4867   4.712   2.363  14.351 -0.1873  0.4576  0.4771
  324MPD2    C5 4868   0.120   2.327  14.343  0.5225 -0.0931  0.7881
  324MPD2     H 4869   0.034   2.632  14.553  1.1251 -0.7508  1.9428
  324MPD2    H1 4870   4.637   2.299  14.306 -0.1081  0.7839 -0.1136
  324MPD2    H2 4871   0.323   2.358  14.406  0.2440 -1.0358  0.1676
  324MPD2    H3 4872   0.148   2.236  14.291  1.3149  0.3830  0.3824
  324MPD2     N 4873   4.540   2.503  14.431  0.0366 -0.1393  0.1139
  324MPD2    H5 4874   4.480   2.439  14.381  0.7763 -2.0854  1.6824
  324MPD2    N1 4875   0.286   2.574  14.565  0.1649 -0.4070  0.0405
  324MPD2    H7 4876   0.255   2.657  14.615  2.5193 -0.6996  1.9503
  325TMC3    C1 4877   4.337   2.596  14.492  0.1595 -0.1497  0.5368
  325TMC3    C2 4878   4.283   2.478  14.467 -0.4326 -0.5100  0.5458
  325TMC3    C3 4879   4.150   2.474  14.442  0.9999 -0.4944 -0.6688
  325TMC3    C4 4880   4.273   2.716  14.508 -0.4022 -0.5633 -0.6296
  325TMC3    C5 4881   4.141   2.712  14.473 -0.1288 -0.3706 -0.1509
  325TMC3    C6 4882   4.080   2.587  14.438  0.2546 -0.0735  0.0627
  325TMC3     C 4883   4.483   2.608  14.497 -0.9396  0.3848 -0.2919
  325TMC3     O 4884   4.535   2.704  14.557 -0.2865 -0.0926  0.4749
  325TMC3     H 4885   4.334   2.384  14.481  1.6567  0.6021  0.4213
  325TMC3    H1 4886   4.320   2.811  14.527 -1.8606  0.0013  0.2077
  325TMC3    H2 4887   3.980   2.581  14.396  0.0495  1.1159  0.3945
  325TMC3    C7 4888   4.081   2.829  14.411 -0.0567  0.7118 -0.8149
  325TMC3    C8 4889   4.097   2.352  14.375  0.0916  0.4020 -0.0928
  325TMC3    O1 4890   4.157   2.915  14.359 -0.0759  0.0789  0.1212
  325TMC3    O2 4891   4.171   2.273  14.319  0.0379  0.4205 -0.0998
  326MPD2     C 4892   1.238   3.243  11.251 -0.8701  0.2762  0.4606
  326MPD2    C1 4893   1.226   3.333  11.146 -0.6514  0.4052 -0.3339
  326MPD2    C2 4894   1.332   3.420  11.124 -0.4672 -0.6200  0.2298
  326MPD2    C3 4895   1.442   3.432  11.198  0.1999  0.0603  0.0683
  326MPD2    C4 4896   1.445   3.346  11.304 -0.0364  0.1856  0.5350
  326MPD2    C5 4897   1.347   3.250  11.335  0.3024 -0.1548 -0.3513
  326MPD2     H 4898   1.315   3.494  11.047 -1.4431  0.1585  1.1757
  326MPD2    H1 4899   1.520   3.352  11.383 -0.3581 -1.2621  0.9547
  326MPD2    H2 4900   1.168   3.162  11.266  0.9728 -0.9920  2.1042
  326MPD2    H3 4901   1.364   3.185  11.420  1.0707  0.2300 -0.2113
  326MPD2     N 4902   1.553   3.512  11.174  0.1062  0.2357 -0.1994
  326MPD2    H5 4903   1.633   3.500  11.235 -0.0676  1.6628  0.3072
  326MPD2    N1 4904   1.125   3.328  11.056 -0.0836 -0.0902 -0.5421
  326MPD2    H7 4905   1.131   3.397  10.982  1.0027  1.4655  0.9915
  327TMC3    C1 4906   0.989   3.204  10.907  0.4796 -0.4339  0.9030
  327TMC3    C2 4907   0.878   3.273  10.863 -0.0810  0.3032 -0.0827
  327TMC3    C3 4908   0.877   3.310  10.732 -0.5004  0.5522 -0.2311
  327TMC3    C4 4909   1.094   3.191  10.830  0.1983  0.2209  0.6475
  327TMC3    C5 4910   1.094   3.243  10.701  0.9399 -0.0528  0.0306
  327TMC3    C6 4911   0.984   3.297  10.652  0.2328  0.1667 -0.3570
  327TMC3     C 4912   1.029   3.225  11.045  0.0955 -0.1150 -0.8841
  327TMC3     O 4913   1.005   3.134  11.124  0.1073  0.1025 -0.1707
  327TMC3     H 4914   0.800   3.285  10.937  0.9891 -0.1849  1.1494
  327TMC3    H1 4915   1.185   3.147  10.871 -0.4598  0.7274  2.6391
  327TMC3    H2 4916   0.973   3.334  10.551  2.2007  0.8304 -0.3076
  327TMC3    C7 4917   1.222   3.290  10.634  0.6694 -0.0048  0.0595
  327TMC3    C8 4918   0.772   3.398  10.682 -0.8967 -0.3401  0.4916
  327TMC3    O1 4919   1.216   3.347  10.528 -0.0680 -0.4855  0.7899
  327TMC3    O2 4920   0.801   3.481  10.596 -0.1585 -0.2530  0.7093
  328MPD2     C 4921   3.534   2.924  17.148  0.5297  0.0141  0.0013
  328MPD2    C1 4922   3.394   2.906  17.139 -0.1650 -0.6262 -0.1508
  328MPD2    C2 4923   3.321   3.019  17.113  0.2227 -0.7039 -0.0331
  328MPD2    C3 4924   3.379   3.139  17.063  0.7730 -0.0071 -0.3541
  328MPD2    C4 4925   3.512   3.156  17.077  0.0297  0.2653 -0.4651
  328MPD2    C5 4926   3.588   3.047  17.130 -0.0207 -0.2539  0.4823
  328MPD2     H 4927   3.215   3.002  17.124  0.1953 -1.8368 -1.9528
  328MPD2    H1 4928   3.548   3.256  17.055  1.0711  0.2390  1.1381
  328MPD2    H2 4929   3.599   2.846  17.186 -1.5497 -1.5788  0.2749
  328MPD2    H3 4930   3.692   3.065  17.154  0.6277 -1.9890 -1.0037
  328MPD2     N 4931   3.309   3.246  17.004  0.2191 -0.3639  0.0006
  328MPD2    H5 4932   3.348   3.339  17.001  0.1695 -0.3600 -0.4424
  328MPD2    N1 4933   3.327   2.786  17.177  0.1555  0.5075 -0.5676
  328MPD2    H7 4934   3.227   2.792  17.193  0.3578  0.0375  0.8037
  329TMC3    C1 4935   3.322   2.557  17.270  0.5281  0.1719 -0.1004
  329TMC3    C2 4936   3.223   2.588  17.353 -0.6053 -0.3975 -0.4062
  329TMC3    C3 4937   3.168   2.488  17.423 -0.3797 -0.3607  0.1542
  329TMC3    C4 4938   3.380   2.433  17.262 -0.3984 -0.6200  0.7106
  329TMC3    C5 4939   3.336   2.344  17.358  0.7119 -0.1675  0.2374
  329TMC3    C6 4940   3.226   2.366  17.437 -0.1485  0.6533 -0.2216
  329TMC3     C 4941   3.391   2.665  17.198  0.1725  0.2270  0.3113
  329TMC3     O 4942   3.503   2.634  17.162  0.0209 -0.0710 -0.1607
  329TMC3     H 4943   3.175   2.686  17.355  1.3757  0.5973 -1.5124
  329TMC3    H1 4944   3.454   2.416  17.185 -0.5211  1.4451  0.1489
  329TMC3    H2 4945   3.176   2.281  17.483 -0.0943 -0.1741 -1.7062
  329TMC3    C7 4946   3.367   2.207  17.332  0.4828 -0.0497 -0.6208
  329TMC3    C8 4947   3.074   2.512  17.538  0.3727  0.2638 -0.4421
  329TMC3    O1 4948   3.415   2.182  17.220 -0.1060  0.2101  0.1709
  329TMC3    O2 4949   3.017   2.416  17.583 -0.4231 -0.2922  0.5745
  330TMC3    C1 4950   0.496   3.070   9.734  0.1930 -0.3486 -0.2125
  330TMC3    C2 4951   0.465   2.987   9.632 -0.2125 -0.5876  0.1290
  330TMC3    C3 4952   0.573   2.917   9.584 -0.2791 -0.5856 -1.1243
  330TMC3    C4 4953   0.621   3.087   9.784 -0.3531  0.9044  0.4298
  330TMC3    C5 4954   0.730   3.017   9.728 -0.0285 -0.0716  0.7463
  330TMC3    C6 4955   0.707   2.931   9.621 -0.4573  0.2325  0.7154
  330TMC3     C 4956   0.397   3.154   9.797  0.7006 -0.0018  0.1514
  330TMC3     O 4957   0.425   3.196   9.908  0.3821  0.5466 -0.6875
  330TMC3     H 4958   0.364   2.950   9.619  0.8667 -3.4170 -0.1994
  330TMC3    H1 4959   0.643   3.170   9.850 -1.2000  2.3488 -1.1072
  330TMC3    H2 4960   0.793   2.900   9.562  0.6676 -0.2562  2.6271
  330TMC3    C7 4961   0.861   3.040   9.793  0.4234 -0.2151 -0.1127
  330TMC3    C8 4962   0.534   2.829   9.473 -0.0762 -0.4152  0.7382
  330TMC3    O1 4963   0.876   3.110   9.891 -0.3179  0.1594  0.0971
  330TMC3    O2 4964   0.425   2.845   9.420 -0.3045  0.2128 -0.3968
  331MPD2     C 4965   3.888   1.772  12.581 -0.7445  0.1052 -0.5537
  331MPD2    C1 4966   4.025   1.772  12.586  0.1989  0.1038  0.2901
  331MPD2    C2 4967   4.087   1.688  12.497  0.5456 -0.3877 -0.5296
  331MPD2    C3 4968   4.019   1.602  12.402  0.1566 -0.0006 -0.2189
  331MPD2    C4 4969   3.886   1.611  12.410  0.1310  0.6292  0.1399
  331MPD2    C5 4970   3.821   1.675  12.508 -0.0184 -0.0665  0.1662
  331MPD2     H 4971   4.195   1.694  12.490  0.5937 -0.7025  0.0431
  331MPD2    H1 4972   3.828   1.538  12.354  3.9264 -1.3698 -1.2175
  331MPD2    H2 4973   3.832   1.824  12.658  0.4514 -1.3823  1.3320
  331MPD2    H3 4974   3.713   1.669  12.512  0.0810 -1.6143  0.6356
  331MPD2     N 4975   4.091   1.517  12.312  0.6037 -0.4053 -0.1144
  331MPD2    H5 4976   4.191   1.516  12.333  0.6598 -0.7694 -0.4045
  331MPD2    N1 4977   4.094   1.866  12.668  0.3597  0.5851  0.2223
  331MPD2    H7 4978   4.040   1.937  12.718 -2.5887 -2.1004  0.8095
  332TMC3    C1 4979   4.143   1.394  12.125  0.7675 -0.0270  0.0302
  332TMC3    C2 4980   4.200   1.471  12.027  0.1316  0.4710  1.1535
  332TMC3    C3 4981   4.333   1.442  12.002  0.5334 -0.3153  0.1009
  332TMC3    C4 4982   4.212   1.294  12.196  0.1583 -0.3961  0.3408
  332TMC3    C5 4983   4.347   1.275  12.176  0.3392  0.4015 -0.1442
  332TMC3    C6 4984   4.409   1.348  12.074  0.3774 -0.1895  0.2501
  332TMC3     C 4985   4.044   1.468  12.202 -0.6305  1.1446  0.0402
  332TMC3     O 4986   3.931   1.475  12.152  1.1084 -0.4085 -0.4198
  332TMC3     H 4987   4.146   1.561  12.000 -1.0254 -0.6286 -0.2180
  332TMC3    H1 4988   4.154   1.245  12.274  0.9859 -0.8817  0.6528
  332TMC3    H2 4989   4.515   1.340  12.051  0.0780 -1.2003 -0.7846
  332TMC3    C7 4990   4.421   1.216  12.290 -0.3053 -0.3905 -0.0988
  332TMC3    C8 4991   4.408   1.541  11.928 -0.2894 -0.0318 -0.2368
  332TMC3    O1 4992   4.352   1.165  12.380  0.0278 -0.1241  0.1120
  332TMC3    O2 4993   4.524   1.561  11.967 -0.0238 -0.2425  0.2265
  333MPD2     C 4994   4.202   2.288  10.980  0.1177 -0.6268 -0.6303
  333MPD2    C1 4995   4.306   2.224  10.916 -0.1130  0.0268  0.3699
  333MPD2    C2 4996   4.337   2.094  10.953 -0.3013 -0.5908  0.5188
  333MPD2    C3 4997   4.261   2.022  11.045  0.1754 -0.1477 -0.4742
  333MPD2    C4 4998   4.149   2.085  11.099  0.3618 -0.2102 -0.6153
  333MPD2    C5 4999   4.129   2.218  11.069  0.0160  0.2870  0.3094
  333MPD2     H 5000   4.418   2.046  10.899  0.4454 -0.2817  1.3651
  333MPD2    H1 5001   4.078   2.043  11.169  1.5794 -1.5903 -0.1976
  333MPD2    H2 5002   4.168   2.390  10.966  1.6339  0.1365  1.2692
  333MPD2    H3 5003   4.049   2.278  11.110  0.7527  0.0646  2.0829
  333MPD2     N 5004   4.285   1.886  11.067  0.0463 -0.0925 -0.0992
  333MPD2    H5 5005   4.324   1.832  10.991 -0.2673 -1.1438  0.4848
  333MPD2    N1 5006   4.379   2.300  10.817 -0.0583 -0.1707  0.1030
  333MPD2    H7 5007   4.348   2.396  10.802 -0.5815 -0.1653  1.2211
  334TMC3    C1 5008   4.500   2.342  10.622 -0.3366  0.1937  0.3468
  334TMC3    C2 5009   4.628   2.348  10.580 -0.1584 -0.4948  0.2794
  334TMC3    C3 5010   4.657   2.386  10.457  0.1673  0.4918  0.0182
  334TMC3    C4 5011   4.395   2.373  10.548  0.6163  0.2928 -0.6168
  334TMC3    C5 5012   4.423   2.414  10.421 -0.5271  0.1238  0.2769
  334TMC3    C6 5013   4.558   2.429  10.377 -0.4932 -0.1289 -0.6015
  334TMC3     C 5014   4.482   2.254  10.740  0.1531  0.2746 -0.1028
  334TMC3     O 5015   4.557   2.155  10.752 -0.2310  0.4238  0.6279
  334TMC3     H 5016   4.709   2.324  10.648  1.0199  0.8419 -0.6451
  334TMC3    H1 5017   4.292   2.351  10.572 -0.4227  4.9924 -0.8068
  334TMC3    H2 5018   4.573   2.473  10.279 -0.3818 -1.6108 -1.2526
  334TMC3    C7 5019   4.322   2.485  10.341  0.1242 -1.3582  0.0924
  334TMC3    C8 5020   0.066   2.445  10.425 -0.1941  0.4288 -0.7600
  334TMC3    O1 5021   4.264   2.560  10.415  0.0151  0.4028 -0.5500
  334TMC3    O2 5022   0.068   2.547  10.356 -0.0530 -0.0900  0.8268
  335TMC3    C1 5023   4.282   3.418  17.612  0.2405 -0.3506  0.2957
  335TMC3    C2 5024   4.236   3.364  17.493 -0.8297  0.0068  0.3139
  335TMC3    C3 5025   4.317   3.389  17.385 -0.7864  0.7894 -0.3226
  335TMC3    C4 5026   4.403   3.480  17.620 -1.2734  0.0746  0.1328
  335TMC3    C5 5027   4.478   3.507  17.506 -0.7515 -0.2374  0.5465
  335TMC3    C6 5028   4.430   3.465  17.388 -1.1655  0.2700  0.8090
  335TMC3     C 5029   4.204   3.396   0.036 -0.8661  0.3095 -0.1431
  335TMC3     O 5030   4.119   3.309   0.045 -0.3104 -0.0367  0.2799
  335TMC3     H 5031   4.137   3.320  17.485 -1.3865  0.5907  3.9804
  335TMC3    H1 5032   4.443   3.523   0.015 -0.0899 -0.6513 -0.0390
  335TMC3    H2 5033   4.484   3.496  17.299  0.4638 -0.5981  1.4978
  335TMC3    C7 5034   4.614   3.522  17.523  0.1966  0.3980  0.8296
  335TMC3    C8 5035   4.263   3.353  17.255 -0.4928  0.7852  0.0341
  335TMC3    O1 5036   4.683   3.459  17.443 -0.1052  0.3666 -0.2930
  335TMC3    O2 5037   4.314   3.404  17.160 -0.0287  0.6960 -0.1459
  336MPD2     C 5038   3.940   1.348  16.189 -0.8089  0.9242 -0.3292
  336MPD2    C1 5039   3.893   1.257  16.093 -0.6873  0.0662  0.1004
  336MPD2    C2 5040   3.881   1.128  16.134  0.3554  0.1019  0.1384
  336MPD2    C3 5041   3.934   1.086  16.250 -0.1712  0.4402 -0.8450
  336MPD2    C4 5042   3.979   1.179  16.339  0.4577  0.0880  0.8740
  336MPD2    C5 5043   3.979   1.314  16.310 -0.2009 -0.4123  0.4157
  336MPD2     H 5044   3.844   1.057  16.061  1.1180 -0.4542  0.2996
  336MPD2    H1 5045   4.011   1.153  16.439  1.6605 -3.6228 -0.4832
  336MPD2    H2 5046   3.932   1.455  16.172 -0.8520  0.6920 -1.7806
  336MPD2    H3 5047   4.010   1.390  16.381  0.9986 -0.8359  0.3487
  336MPD2     N 5048   3.937   0.955  16.302 -0.1637  0.1157 -0.3727
  336MPD2    H5 5049   3.994   0.947  16.385  0.1170  0.6773 -0.5070
  336MPD2    N1 5050   3.839   1.297  15.969  0.4533 -0.0611  0.1898
  336MPD2    H7 5051   3.790   1.227  15.914  0.1705 -1.5481  2.3425
  337TMC3    C1 5052   3.758   1.440  15.782  0.7146  1.0341 -0.0223
  337TMC3    C2 5053   3.635   1.388  15.783  0.0408 -0.4329 -0.1213
  337TMC3    C3 5054   3.546   1.445  15.699 -0.5669 -0.0464 -0.2292
  337TMC3    C4 5055   3.788   1.553  15.711 -0.0865  0.0746  0.1199
  337TMC3    C5 5056   3.691   1.599  15.617 -0.0065 -0.0426 -0.2946
  337TMC3    C6 5057   3.568   1.549  15.613 -0.4033  0.1412  0.8159
  337TMC3     C 5058   3.844   1.421  15.908  0.6641 -0.2428 -0.0866
  337TMC3     O 5059   3.907   1.520  15.944 -0.1573 -0.0046  0.1959
  337TMC3     H 5060   3.612   1.296  15.836  1.5342 -0.6421  0.1836
  337TMC3    H1 5061   3.881   1.607  15.719 -0.1585 -0.2516  3.0528
  337TMC3    H2 5062   3.487   1.583  15.549  2.0839  1.3351 -1.6762
  337TMC3    C7 5063   3.725   1.716  15.549  0.1534 -0.0552  0.4572
  337TMC3    C8 5064   3.407   1.426  15.731 -0.0613  0.1078  0.0170
  337TMC3    O1 5065   3.837   1.761  15.559 -0.0913 -0.0071  0.0820
  337TMC3    O2 5066   3.386   1.441  15.848 -0.5783 -0.0724  0.0643
  338MPD2     C 5067   4.101   0.320   0.839  0.0221  0.9122 -0.3905
  338MPD2    C1 5068   4.000   0.386   0.767 -0.4927 -0.0822  0.1016
  338MPD2    C2 5069   3.920   0.473   0.837  0.9215  0.1179  0.0895
  338MPD2    C3 5070   3.945   0.493   0.975  0.1081  0.2970  0.4909
  338MPD2    C4 5071   4.055   0.442   1.039  0.4116  0.3688 -0.4739
  338MPD2    C5 5072   4.131   0.353   0.967 -0.0852 -0.9993 -0.8004
  338MPD2     H 5073   3.829   0.513   0.793  1.4954  4.1577  2.6196
  338MPD2    H1 5074   4.088   0.465   1.140 -0.9821  0.5781 -0.0763
  338MPD2    H2 5075   4.148   0.232   0.794 -0.3457 -0.2445  1.4857
  338MPD2    H3 5076   4.211   0.292   1.007  0.6936  0.2914 -0.3873
  338MPD2     N 5077   3.856   0.569   1.049  0.0316 -0.1691  0.1061
  338MPD2    H5 5078   3.772   0.597   0.999  0.3424  1.8729  0.7264
  338MPD2    N1 5079   3.983   0.367   0.628  0.0563 -0.1975  0.0439
  338MPD2    H7 5080   3.902   0.409   0.583  0.4237  1.2861  0.7609
  339TMC3    C1 5081   3.761   0.678   1.234  0.3365 -0.5924  0.3503
  339TMC3    C2 5082   3.755   0.694   1.371  0.1078  0.4559  0.0595
  339TMC3    C3 5083   3.679   0.800   1.415  0.5449  0.3133 -0.2837
  339TMC3    C4 5084   3.708   0.775   1.149  0.6555  0.1296 -0.5084
  339TMC3    C5 5085   3.640   0.884   1.210  0.1766  0.4104  0.0333
  339TMC3    C6 5086   3.619   0.897   1.341  0.3738  0.2835  0.0901
  339TMC3     C 5087   3.863   0.594   1.184  0.6290 -0.0657  0.0950
  339TMC3     O 5088   3.929   0.541   1.273  0.0114 -0.2912  0.3099
  339TMC3     H 5089   3.785   0.621   1.445 -0.9907  0.9317  0.9828
  339TMC3    H1 5090   3.711   0.769   1.041 -0.6725 -1.5989 -0.4491
  339TMC3    H2 5091   3.593   0.985   1.398  0.1460  1.5687 -2.0094
  339TMC3    C7 5092   3.571   0.963   1.109 -0.4824  0.3450 -0.2807
  339TMC3    C8 5093   3.654   0.793   1.559 -0.4177 -0.3928  0.2790
  339TMC3    O1 5094   3.591   0.941   0.989 -0.1464  0.0157 -0.2098
  339TMC3    O2 5095   3.672   0.894   1.626 -0.0402 -0.7281  0.5879
  340MPD2     C 5096   3.515   3.675   9.431 -0.7644 -0.0906 -0.5415
  340MPD2    C1 5097   3.528   3.543   9.471 -0.2673  0.0820 -0.6866
  340MPD2    C2 5098   3.562   3.520   9.603  0.3515  0.0992 -0.3158
  340MPD2    C3 5099   3.574   3.628   9.690 -0.7966 -0.2490 -0.7339
  340MPD2    C4 5100   3.550   3.751   9.646 -1.0574  0.6112  0.4366
  340MPD2    C5 5101   3.525   3.778   9.516 -0.1894  0.1194 -0.5067
  340MPD2     H 5102   3.562   3.418   9.641  1.9958  1.5591  3.6550
  340MPD2    H1 5103   3.540   3.831   9.719  0.9141  1.6871 -0.4841
  340MPD2    H2 5104   3.489   3.696   9.328 -1.6248 -0.5152 -0.4079
  340MPD2    H3 5105   3.508   3.882   9.490 -1.5085 -0.1710 -0.8159
  340MPD2     N 5106   3.600   3.615   9.831  0.7727 -0.0960 -0.3132
  340MPD2    H5 5107   3.587   3.700   9.884  1.1207 -0.1845 -0.0884
  340MPD2    N1 5108   3.521   3.438   9.376  0.1571  0.5571  0.3732
  340MPD2    H7 5109   3.494   3.466   9.282  1.1718  1.6888  0.4195
  341TMC3    C1 5110   3.533   3.226   9.289 -0.5645 -0.8394  0.3039
  341TMC3    C2 5111   3.469   3.102   9.284 -0.2646 -0.2522 -0.6690
  341TMC3    C3 5112   3.452   3.050   9.158 -0.0433 -0.3954  0.2100
  341TMC3    C4 5113   3.600   3.278   9.182  0.3366 -1.5750 -0.0507
  341TMC3    C5 5114   3.584   3.209   9.066 -0.6189  0.0749 -0.7530
  341TMC3    C6 5115   3.508   3.103   9.041  0.0249  0.1623 -0.0182
  341TMC3     C 5116   3.539   3.305   9.409  0.1678  0.0667  0.4569
  341TMC3     O 5117   3.556   3.240   9.515 -0.6349 -0.2213 -0.3238
  341TMC3     H 5118   3.420   3.074   9.377  1.0290 -0.6734 -0.1022
  341TMC3    H1 5119   3.656   3.370   9.190 -0.4613 -1.0795 -0.1819
  341TMC3    H2 5120   3.513   3.062   8.941  2.9223 -0.7718  0.5169
  341TMC3    C7 5121   3.697   3.227   8.975  0.5937 -0.6838  0.1315
  341TMC3    C8 5122   3.401   2.910   9.153  0.3213 -0.2159  0.7620
  341TMC3    O1 5123   3.801   3.268   9.028  0.1180 -0.4225 -0.3375
  341TMC3    O2 5124   3.396   2.845   9.258  0.3194 -0.2254  0.1994
  342MPD2     C 5125   2.328   1.728   0.324 -0.5999 -0.3184 -0.0552
  342MPD2    C1 5126   2.406   1.757   0.215  0.3118 -0.2356  0.3731
  342MPD2    C2 5127   2.446   1.891   0.194 -0.1451 -0.7731 -0.0302
  342MPD2    C3 5128   2.425   1.994   0.287 -0.7412 -0.1932 -0.2165
  342MPD2    C4 5129   2.351   1.959   0.396  0.4748 -0.2235  0.2880
  342MPD2    C5 5130   2.291   1.836   0.400 -0.1334  0.1872 -0.5160
  342MPD2     H 5131   2.495   1.920   0.102 -0.3494 -1.3739 -0.3247
  342MPD2    H1 5132   2.331   2.025   0.480  1.0363  1.7744 -1.1697
  342MPD2    H2 5133   2.293   1.627   0.342 -0.7719  0.1048  2.0531
  342MPD2    H3 5134   2.228   1.807   0.483  0.5778 -2.5480 -0.9519
  342MPD2     N 5135   2.466   2.129   0.274 -0.2615 -0.3871 -0.0245
  342MPD2    H5 5136   2.444   2.196   0.348  0.7689 -0.7950  0.6596
  342MPD2    N1 5137   2.447   1.649   0.125 -0.2497 -0.0712 -0.1521
  342MPD2    H7 5138   2.507   1.675   0.048  0.7373 -0.7035  0.3994
  343TMC3    C1 5139   2.445   1.455  17.697 -0.7416 -0.0299  0.6420
  343TMC3    C2 5140   2.559   1.474  17.629  0.3516  0.8172 -0.3475
  343TMC3    C3 5141   2.565   1.415  17.504  0.5189 -0.1380  0.2381
  343TMC3    C4 5142   2.340   1.382  17.644  0.0197  0.5507 -0.3815
  343TMC3    C5 5143   2.348   1.326  17.520  0.6490 -0.9264  0.5285
  343TMC3    C6 5144   2.469   1.337  17.445 -0.3820  0.1829 -1.0780
  343TMC3     C 5145   2.420   1.518   0.129  0.2290 -0.1644 -0.5011
  343TMC3     O 5146   2.347   1.453   0.197  0.1998  0.2531  0.0613
  343TMC3     H 5147   2.643   1.527  17.672 -0.7947  1.7643  0.6866
  343TMC3    H1 5148   2.248   1.380   0.004  0.7662  1.9264  0.8391
  343TMC3    H2 5149   2.497   1.288  17.352  0.9090  0.5647 -0.8997
  343TMC3    C7 5150   2.233   1.239  17.485  0.5573  0.2136 -0.9419
  343TMC3    C8 5151   2.697   1.432  17.451  0.0054  0.4075 -0.2759
  343TMC3    O1 5152   2.132   1.228  17.559 -0.4278  0.0762 -0.3966
  343TMC3    O2 5153   2.765   1.533  17.470 -0.1114 -0.7219  0.4239
  344MPD2     C 5154   3.616   0.804  10.783  0.1100 -0.5932 -0.4405
  344MPD2    C1 5155   3.492   0.820  10.732 -0.2350  0.4028 -0.1143
  344MPD2    C2 5156   3.472   0.928  10.647 -0.8325  0.1164  0.2773
  344MPD2    C3 5157   3.573   1.019  10.612  0.2660 -0.4358 -0.3646
  344MPD2    C4 5158   3.700   0.983  10.658  0.7080  0.4531 -0.2216
  344MPD2    C5 5159   3.724   0.876  10.736 -0.0506 -0.6650  0.2538
  344MPD2     H 5160   3.373   0.929  10.604 -0.1014 -0.5741 -1.4360
  344MPD2    H1 5161   3.784   1.047  10.635  0.6283  0.5914 -0.1242
  344MPD2    H2 5162   3.638   0.720  10.848  0.3493  0.6663  1.0903
  344MPD2    H3 5163   3.825   0.847  10.761 -0.5944 -2.6193  0.1992
  344MPD2     N 5164   3.559   1.132  10.535  0.3521  0.3751  0.0397
  344MPD2    H5 5165   3.642   1.184  10.510  0.9332  0.1644  1.5291
  344MPD2    N1 5166   3.381   0.730  10.762 -0.7299  0.2650 -0.5661
  344MPD2    H7 5167   3.296   0.746  10.710 -0.1680 -0.2269 -1.6430
  345TMC3    C1 5168   3.439   1.306  10.425  0.1986 -0.0528 -0.1590
  345TMC3    C2 5169   3.513   1.404  10.472  0.4579 -0.1129 -0.1777
  345TMC3    C3 5170   3.499   1.533  10.432 -0.4797 -0.2791 -0.7734
  345TMC3    C4 5171   3.343   1.330  10.325  0.1286 -0.1980  0.2542
  345TMC3    C5 5172   3.331   1.461  10.287  0.4550 -0.3593  0.4206
  345TMC3    C6 5173   3.413   1.562  10.324 -0.5603 -0.2709  0.2208
  345TMC3     C 5174   3.442   1.166  10.471 -0.1933  0.7046  0.0179
  345TMC3     O 5175   3.354   1.095  10.434  0.2465  0.0538  0.3571
  345TMC3     H 5176   3.578   1.385  10.557  0.6900 -0.1533 -0.3646
  345TMC3    H1 5177   3.282   1.246  10.294  1.6269 -1.6231  1.1416
  345TMC3    H2 5178   3.387   1.664  10.300 -0.2734 -0.2591 -0.0390
  345TMC3    C7 5179   3.218   1.500  10.204  0.5650 -0.5959 -0.2023
  345TMC3    C8 5180   3.499   1.638  10.525 -0.3399  0.6109  0.3688
  345TMC3    O1 5181   3.218   1.606  10.142  0.5936  0.3815 -0.3820
  345TMC3    O2 5182   3.471   1.599  10.638  0.0983 -0.2226 -0.3810
  346MPD2     C 5183   2.718   2.395  14.637 -0.2224  0.3043  0.6589
  346MPD2    C1 5184   2.703   2.494  14.540  0.0391 -0.2511 -0.0802
  346MPD2    C2 5185   2.771   2.610  14.545 -0.3923 -0.8520  0.6463
  346MPD2    C3 5186   2.860   2.636  14.645 -0.0846  0.0037 -0.2497
  346MPD2    C4 5187   2.868   2.548  14.751 -0.0482  0.1275 -0.3497
  346MPD2    C5 5188   2.795   2.435  14.744  0.6288  0.4618  0.1693
  346MPD2     H 5189   2.765   2.681  14.463  1.1733 -0.9244  0.4583
  346MPD2    H1 5190   2.930   2.565  14.838  0.0284 -0.0577 -0.3687
  346MPD2    H2 5191   2.682   2.294  14.625  1.6295 -0.2709 -0.0052
  346MPD2    H3 5192   2.813   2.368  14.827 -0.8496  1.5505  1.3741
  346MPD2     N 5193   2.945   2.741  14.625  0.0887 -0.2526  0.1141
  346MPD2    H5 5194   2.927   2.796  14.541  0.2837 -1.3110 -0.6178
  346MPD2    N1 5195   2.629   2.464  14.424 -0.0474 -0.2139  0.3687
  346MPD2    H7 5196   2.626   2.367  14.393 -1.9862  0.0064 -0.1464
  347TMC3    C1 5197   3.116   2.896  14.636 -0.0846  0.3789 -0.2389
  347TMC3    C2 5198   3.248   2.878  14.625 -0.1419  0.4898  0.1422
  347TMC3    C3 5199   3.318   2.972  14.557  0.7621  0.2672  0.6152
  347TMC3    C4 5200   3.042   2.998  14.579  0.1049  0.4393  1.1027
  347TMC3    C5 5201   3.120   3.098  14.518  0.3540 -0.2984 -0.4012
  347TMC3    C6 5202   3.257   3.083  14.510 -0.2039  0.4654  0.5077
  347TMC3     C 5203   3.046   2.790  14.706 -0.6834  0.4395 -0.6166
  347TMC3     O 5204   3.090   2.757  14.812 -0.3028  0.0179  0.2771
  347TMC3     H 5205   3.291   2.797  14.683 -1.6741 -2.3664 -2.6918
  347TMC3    H1 5206   2.934   3.004  14.586  0.0852  1.2968  0.1433
  347TMC3    H2 5207   3.325   3.161  14.479  1.2849 -1.2645 -0.5428
  347TMC3    C7 5208   3.069   3.237  14.512 -0.2292  0.9637 -0.2375
  347TMC3    C8 5209   3.458   2.951  14.529 -0.0993  0.2109  0.1577
  347TMC3    O1 5210   2.955   3.257  14.473  0.7936  0.2061 -0.6004
  347TMC3    O2 5211   3.522   2.887  14.610  1.0499 -0.0337  0.3262
  348MPD2     C 5212   2.149   2.414  12.223 -0.0782  0.1856  0.0812
  348MPD2    C1 5213   2.100   2.332  12.121 -0.2431  0.1524 -0.0026
  348MPD2    C2 5214   2.106   2.386  11.989  0.0279  0.3564 -0.3616
  348MPD2    C3 5215   2.154   2.513  11.966 -0.0045  0.8369  0.2693
  348MPD2    C4 5216   2.211   2.583  12.073  0.1969  1.1652  0.2147
  348MPD2    C5 5217   2.196   2.537  12.195  1.3054  0.6848  0.4009
  348MPD2     H 5218   2.068   2.326  11.907  2.3919 -0.4944 -0.8272
  348MPD2    H1 5219   2.253   2.683  12.068  1.7392  0.5655  1.2271
  348MPD2    H2 5220   2.139   2.374  12.323 -0.2596 -0.0612 -0.0343
  348MPD2    H3 5221   2.238   2.598  12.275  0.3802  0.0765  1.3486
  348MPD2     N 5222   2.136   2.568  11.838 -0.0324 -0.4033  0.1589
  348MPD2    H5 5223   2.073   2.522  11.773 -0.3933 -0.3506  0.4697
  348MPD2    N1 5224   2.051   2.204  12.135  0.6712 -0.3073  0.1504
  348MPD2    H7 5225   2.012   2.168  12.049 -2.5800  1.0674  1.0653
  349TMC3    C1 5226   1.992   1.993  12.233  0.9731 -0.2585 -0.2000
  349TMC3    C2 5227   2.070   1.886  12.277  0.4538 -0.5712 -0.7838
  349TMC3    C3 5228   2.034   1.762  12.235 -0.1826 -0.1267 -0.4364
  349TMC3    C4 5229   1.892   1.973  12.144 -0.3856 -0.2165 -0.3459
  349TMC3    C5 5230   1.858   1.839  12.104  0.4078  0.0502 -0.4991
  349TMC3    C6 5231   1.924   1.738  12.160  0.0152 -0.1738  0.1107
  349TMC3     C 5232   2.050   2.126  12.254 -0.3923 -0.2705  0.1390
  349TMC3     O 5233   2.098   2.154  12.365 -0.0147  0.0896  0.4521
  349TMC3     H 5234   2.151   1.900  12.347 -0.7860  0.1919  0.4982
  349TMC3    H1 5235   1.837   2.056  12.102 -0.9796 -0.0642  0.7384
  349TMC3    H2 5236   1.895   1.634  12.143  2.8202 -0.4341 -2.8759
  349TMC3    C7 5237   1.758   1.813  12.005  0.2299 -0.1280 -0.4702
  349TMC3    C8 5238   2.122   1.649  12.278 -0.8302  0.2910  0.0099
  349TMC3    O1 5239   1.700   1.702  12.003  0.0338 -0.2198  0.4480
  349TMC3    O2 5240   2.072   1.539  12.287 -0.1045 -0.1422 -0.8012
  350MPD2     C 5241   0.591   0.196  10.328  0.2863  0.1796 -0.0839
  350MPD2    C1 5242   0.689   0.101  10.285  0.7503  0.4944 -0.1555
  350MPD2    C2 5243   0.820   0.153  10.265  0.2339  0.3175  0.0235
  350MPD2    C3 5244   0.856   0.281  10.283 -0.1805  0.2058 -0.3343
  350MPD2    C4 5245   0.761   0.369  10.337 -0.0585 -0.0708 -0.2683
  350MPD2    C5 5246   0.634   0.321  10.358  0.0828  0.2474  0.1108
  350MPD2     H 5247   0.890   0.077  10.230  1.5202  0.8410  1.4428
  350MPD2    H1 5248   0.785   0.471  10.367  0.6080 -0.4926  0.6143
  350MPD2    H2 5249   0.493   0.154  10.346  2.6760 -4.9475  1.1279
  350MPD2    H3 5250   0.560   0.393  10.390 -1.2500 -1.6905  1.3468
  350MPD2     N 5251   0.981   0.323  10.241  0.0367  0.2237  0.1711
  350MPD2    H5 5252   1.037   0.244  10.210  4.0098  3.0890  0.0843
  350MPD2    N1 5253   0.659   4.693  10.250 -0.8527  0.1565 -0.6015
  350MPD2    H7 5254   0.736   4.632  10.223 -0.3965  1.0006 -1.2295
  351TMC3    C1 5255   0.520   4.505  10.200  0.3316 -0.0843 -1.1332
  351TMC3    C2 5256   0.600   4.486  10.093  1.6182 -0.7435 -0.2852
  351TMC3    C3 5257   0.560   4.388  10.010 -0.1923  0.3755  0.3909
  351TMC3    C4 5258   0.405   4.436  10.229 -0.4204  0.2749  0.5634
  351TMC3    C5 5259   0.373   4.340  10.136  0.6628  0.0741  0.4578
  351TMC3    C6 5260   0.450   4.313  10.032  0.1585 -0.1867  0.3968
  351TMC3     C 5261   0.540   4.623  10.279 -0.7477  0.1642  0.0987
  351TMC3     O 5262   0.452   4.656  10.357 -0.1717 -0.1157 -0.1087
  351TMC3     H 5263   0.677   4.555  10.061  0.5680 -0.4066 -2.1067
  351TMC3    H1 5264   0.339   4.466  10.310 -0.0421 -1.5461  1.5452
  351TMC3    H2 5265   0.420   4.230   9.969  0.4642 -0.3475  0.4653
  351TMC3    C7 5266   0.254   4.254  10.150 -0.7135  0.5389  0.1738
  351TMC3    C8 5267   0.655   4.340   9.902  0.2872  0.0531 -0.6965
  351TMC3    O1 5268   0.260   4.138  10.107 -0.2053  0.0748  0.1876
  351TMC3    O2 5269   0.765   4.395   9.904  0.1334 -0.2267 -1.4337
  352MPD2     C 5270   4.087   2.531   0.866 -0.7281  0.3092  0.5851
  352MPD2    C1 5271   3.985   2.494   0.943  0.2678 -0.2750 -0.1483
  352MPD2    C2 5272   4.006   2.402   1.043  0.3919 -1.0594  0.0771
  352MPD2    C3 5273   4.130   2.353   1.071 -0.7727 -0.9698 -0.0989
  352MPD2    C4 5274   4.241   2.397   0.999 -0.5129  0.7082  0.0134
  352MPD2    C5 5275   4.216   2.483   0.890 -0.0864  0.8621  0.1390
  352MPD2     H 5276   3.918   2.373   1.100  0.2871 -0.8044  0.0458
  352MPD2    H1 5277   4.345   2.372   1.018 -0.6285  0.0642 -0.2073
  352MPD2    H2 5278   4.071   2.604   0.786 -0.0982  1.0907  1.1694
  352MPD2    H3 5279   4.293   2.532   0.830 -0.3447  0.4596 -0.5255
  352MPD2     N 5280   4.147   2.253   1.166  0.1555  0.6200 -0.3613
  352MPD2    H5 5281   4.244   2.223   1.170  0.0511  0.4475  0.9161
  352MPD2    N1 5282   3.861   2.553   0.923 -0.3102  0.2310 -0.5293
  352MPD2    H7 5283   3.864   2.625   0.851 -1.8097  0.3656 -0.4545
  353TMC3    C1 5284   4.094   2.083   1.321 -0.5741 -0.0935 -0.4334
  353TMC3    C2 5285   4.225   2.031   1.312  0.4391 -0.6141 -0.2478
  353TMC3    C3 5286   4.242   1.909   1.370 -0.1589 -0.7504  0.2195
  353TMC3    C4 5287   3.992   2.009   1.384 -0.0380  0.6225 -0.0150
  353TMC3    C5 5288   4.017   1.889   1.433 -0.3158 -0.3865  0.3636
  353TMC3    C6 5289   4.143   1.838   1.421 -1.1888 -0.3982  0.3394
  353TMC3     C 5290   4.048   2.179   1.225 -0.5498 -0.3413 -0.0574
  353TMC3     O 5291   3.928   2.185   1.207 -0.2223  0.0577  0.2627
  353TMC3     H 5292   4.309   2.094   1.285 -0.6921  0.0358 -2.2251
  353TMC3    H1 5293   3.895   2.055   1.400 -0.5019  0.0304 -1.1151
  353TMC3    H2 5294   4.161   1.745   1.475  1.8135 -0.0988 -0.1749
  353TMC3    C7 5295   3.912   1.788   1.411 -0.1914  0.2133 -0.2332
  353TMC3    C8 5296   4.378   1.860   1.362 -1.2450 -0.4987  0.1856
  353TMC3    O1 5297   3.946   1.674   1.379  0.0310  0.3766 -0.7876
  353TMC3    O2 5298   4.468   1.931   1.318 -0.2515  0.4543  0.3267
  354TMC3    C1 5299   0.983   3.630  13.636  0.0935 -0.3599 -0.4558
  354TMC3    C2 5300   1.099   3.700  13.657 -0.3518  0.2272  0.9130
  354TMC3    C3 5301   1.171   3.726  13.542 -0.0741 -0.0944 -0.8138
  354TMC3    C4 5302   0.933   3.595  13.514 -0.2935  0.3129 -0.0201
  354TMC3    C5 5303   1.030   3.603  13.411 -0.1481  0.3468  0.1559
  354TMC3    C6 5304   1.151   3.666  13.422  0.1290  0.1335  0.2967
  354TMC3     C 5305   0.895   3.594  13.742 -0.3354 -0.5670  0.0745
  354TMC3     O 5306   0.777   3.574  13.716  0.4078  0.0164  0.6783
  354TMC3     H 5307   1.125   3.750  13.750  0.3625 -1.3037  1.5397
  354TMC3    H1 5308   0.845   3.533  13.499 -1.6077  2.5430 -1.5358
  354TMC3    H2 5309   1.229   3.675  13.347  1.6888  0.4354  1.9696
  354TMC3    C7 5310   1.001   3.573  13.274 -0.1314 -0.1744  0.1807
  354TMC3    C8 5311   1.280   3.822  13.556 -0.2445 -0.1459  0.1979
  354TMC3    O1 5312   0.905   3.623  13.215  0.1100  0.1948 -0.9567
  354TMC3    O2 5313   1.307   3.861  13.668  0.3971 -0.6932  0.5130
  355MPD2     C 5314   1.285   4.478  11.954 -0.7534 -0.2784  0.5183
  355MPD2    C1 5315   1.366   4.524  11.853  0.1699 -0.8304 -0.2785
  355MPD2    C2 5316   1.500   4.509  11.871 -0.1999  0.5800  0.1915
  355MPD2    C3 5317   1.559   4.476  11.996  0.2941  0.2052 -1.2200
  355MPD2    C4 5318   1.476   4.447  12.092  0.3780 -0.1143  0.6224
  355MPD2    C5 5319   1.341   4.440  12.072 -0.2504 -0.3776  0.9142
  355MPD2     H 5320   1.570   4.527  11.790 -1.1859  0.7740 -0.6193
  355MPD2    H1 5321   1.516   4.433  12.192 -1.0491 -1.3903  1.0233
  355MPD2    H2 5322   1.177   4.471  11.952 -0.5568 -2.9581  0.5125
  355MPD2    H3 5323   1.278   4.418  12.157 -1.3181 -0.5016  0.1008
  355MPD2     N 5324   1.699   4.459  12.023 -0.0669  0.2791 -0.5114
  355MPD2    H5 5325   1.722   4.435  12.119 -0.6082 -0.5334 -0.5811
  355MPD2    N1 5326   1.305   4.559  11.730  0.3492  0.6340  0.0299
  355MPD2    H7 5327   1.205   4.543  11.728  0.5885 -0.5757 -2.3438
  356TMC3    C1 5328   1.935   4.480  11.977  0.6344  0.5981 -0.5376
  356TMC3    C2 5329   2.024   4.479  11.870 -0.6533  0.1242  0.8935
  356TMC3    C3 5330   2.114   4.582  11.860 -0.0370  0.1559  0.3654
  356TMC3    C4 5331   1.950   4.572  12.080  0.3352 -0.2060 -0.7469
  356TMC3    C5 5332   2.053   4.656  12.073  0.4687 -0.0900 -0.5574
  356TMC3    C6 5333   2.137   4.671  11.959 -0.8517 -0.4272 -0.7082
  356TMC3     C 5334   1.795   4.452  11.928  0.4746  0.3961  0.3156
  356TMC3     O 5335   1.778   4.448  11.808 -0.1182  0.5802 -0.1139
  356TMC3     H 5336   2.009   4.405  11.792  0.6649  2.7004 -1.7976
  356TMC3    H1 5337   1.888   4.574  12.169  1.0276  1.3115 -0.3122
  356TMC3    H2 5338   2.216   0.021  11.956  1.1223 -2.4403  1.5241
  356TMC3    C7 5339   2.098   4.700  12.205 -0.1592 -0.0602  0.4058
  356TMC3    C8 5340   2.165   4.604  11.729  0.6136 -0.0622  0.5570
  356TMC3    O1 5341   2.050   4.653  12.310  0.2943 -0.0276 -0.2410
  356TMC3    O2 5342   2.130   4.523  11.645  0.8111 -0.1727 -0.2917
  357MPD2     C 5343   1.008   4.626   1.164 -0.0800 -0.4105  0.0063
  357MPD2    C1 5344   0.972   4.495   1.199 -0.3798  0.3463 -0.1953
  357MPD2    C2 5345   0.854   4.455   1.263  0.4404 -0.2670  0.5387
  357MPD2    C3 5346   0.756   4.552   1.269  0.3165 -0.8058 -0.0050
  357MPD2    C4 5347   0.788   4.685   1.230 -0.3389 -0.1754 -0.5816
  357MPD2    C5 5348   0.907   4.722   1.176 -0.2479  0.4853 -0.4586
  357MPD2     H 5349   0.831   4.352   1.289 -1.1059  0.1733  0.9064
  357MPD2    H1 5350   0.713   0.038   1.213 -2.4670 -2.6356 -2.2308
  357MPD2    H2 5351   1.109   4.651   1.137 -0.0633  0.7025  1.0760
  357MPD2    H3 5352   0.919   0.101   1.144  1.9313  0.2867 -0.2857
  357MPD2     N 5353   0.621   4.517   1.286 -0.9479  0.3710  0.1731
  357MPD2    H5 5354   0.552   4.589   1.267 -0.0960  0.9269 -0.8174
  357MPD2    N1 5355   1.089   4.415   1.190 -0.0409 -0.4706 -0.1438
  357MPD2    H7 5356   1.162   4.458   1.135  0.6691  0.7667  1.7664
  358TMC3    C1 5357   1.219   4.218   1.175 -0.3292  0.5258  0.1515
  358TMC3    C2 5358   1.248   4.229   1.039 -0.6160 -0.6549  0.2810
  358TMC3    C3 5359   1.326   4.133   0.978  0.0647 -0.4424  0.0793
  358TMC3    C4 5360   1.248   4.104   1.246  0.0975  0.0056 -0.0153
  358TMC3    C5 5361   1.332   4.013   1.183 -0.0940 -0.1632 -0.3272
  358TMC3    C6 5362   1.377   4.032   1.058 -0.0666 -0.4366  0.0139
  358TMC3     C 5363   1.106   4.289   1.234 -0.0367 -0.6015 -0.3590
  358TMC3     O 5364   1.027   4.221   1.301 -0.7515  0.6272  0.8546
  358TMC3     H 5365   1.191   4.308   0.990 -1.6326 -1.0626  0.7959
  358TMC3    H1 5366   1.216   4.099   1.350 -0.7265 -0.9062 -0.3160
  358TMC3    H2 5367   1.412   3.939   1.015 -0.1522 -0.0136 -0.9566
  358TMC3    C7 5368   1.399   3.923   1.273  0.4577 -0.2850  0.1007
  358TMC3    C8 5369   1.317   4.102   0.835  0.0962  0.2076  0.2903
  358TMC3    O1 5370   1.334   3.886   1.368  0.1978  0.3916  0.0217
  358TMC3    O2 5371   1.365   3.994   0.806  0.0554  0.2341 -0.7607
  359MPD2     C 5372   1.677   3.639  11.961 -0.3549  0.1615  0.6257
  359MPD2    C1 5373   1.681   3.558  12.075  0.2583 -0.3068  0.4057
  359MPD2    C2 5374   1.569   3.552  12.168  0.0461  0.3823  0.2331
  359MPD2    C3 5375   1.465   3.637  12.143 -0.2237  0.5675 -0.0017
  359MPD2    C4 5376   1.468   3.717  12.029 -0.9538 -0.1894  0.2210
  359MPD2    C5 5377   1.570   3.716  11.938  0.3575 -0.3240  0.3981
  359MPD2     H 5378   1.568   3.482  12.250 -1.8007  0.2806  0.1333
  359MPD2    H1 5379   1.388   3.786  12.004 -1.8061 -1.1795  0.2262
  359MPD2    H2 5380   1.754   3.634  11.884 -2.0211 -0.3780 -1.0111
  359MPD2    H3 5381   1.559   3.768  11.844 -0.0345  0.0709  0.6612
  359MPD2     N 5382   1.343   3.637  12.219  0.6536 -1.0810 -0.0132
  359MPD2    H5 5383   1.264   3.690  12.182  0.3735 -1.2471  0.3470
  359MPD2    N1 5384   1.787   3.468  12.090 -0.5410 -0.3782  0.7151
  359MPD2    H7 5385   1.776   3.386  12.149 -1.4052  0.0416  1.1444
  360TMC3    C1 5386   2.024   3.411  12.065 -0.2646 -0.0732 -0.3886
  360TMC3    C2 5387   2.145   3.464  12.070 -0.1632 -0.2480 -0.3308
  360TMC3    C3 5388   2.252   3.398  12.021  0.6357 -0.0242  0.0096
  360TMC3    C4 5389   1.998   3.286  12.019 -0.0513 -0.2934 -1.0389
  360TMC3    C5 5390   2.113   3.212  11.986  0.4593 -0.2693 -0.1128
  360TMC3    C6 5391   2.237   3.265  11.997  0.1784  0.1182  0.2544
  360TMC3     C 5392   1.913   3.511  12.057  0.0388 -0.1243 -0.1389
  360TMC3     O 5393   1.940   3.628  12.018 -0.4976  0.6802 -0.0000
  360TMC3     H 5394   2.150   3.572  12.062 -3.1592 -0.3969 -3.8503
  360TMC3    H1 5395   1.899   3.255  11.990 -0.5649  0.5623 -0.2071
  360TMC3    H2 5396   2.315   3.205  11.951  2.6103  1.1281  3.0606
  360TMC3    C7 5397   2.096   3.125  11.873  0.2366 -0.6036  0.0328
  360TMC3    C8 5398   2.334   3.481  11.941 -0.5525  0.5866 -0.8395
  360TMC3    O1 5399   2.183   3.127  11.783  0.4310 -0.0326  0.3478
  360TMC3    O2 5400   2.287   3.583  11.891  0.1126  0.0760 -0.0290
  361MPD2     C 5401   3.123   2.176  16.483  0.0603  0.3072  0.0719
  361MPD2    C1 5402   3.107   2.143  16.616 -0.6820 -0.1375 -0.3189
  361MPD2    C2 5403   3.199   2.061  16.677 -0.1192 -1.1556 -0.0065
  361MPD2    C3 5404   3.307   2.006  16.612  0.5630  0.0383 -0.0389
  361MPD2    C4 5405   3.319   2.030  16.472  0.1194 -0.1342  0.4368
  361MPD2    C5 5406   3.228   2.120  16.416  0.0340  0.0280 -0.2317
  361MPD2     H 5407   3.188   2.038  16.783  1.3789 -1.0508  0.1860
  361MPD2    H1 5408   3.392   1.979  16.410  1.9453  0.8046  1.8157
  361MPD2    H2 5409   3.058   2.242  16.427 -0.9940 -0.1880  0.7137
  361MPD2    H3 5410   3.235   2.151  16.312 -0.0787  2.5066  0.4875
  361MPD2     N 5411   3.394   1.910  16.674  0.0053  0.1112  0.0371
  361MPD2    H5 5412   3.464   1.864  16.617 -0.5768 -3.5556  2.3040
  361MPD2    N1 5413   2.988   2.177  16.679 -0.5728 -0.0970  0.1521
  361MPD2    H7 5414   2.934   2.243  16.623  1.6018  1.9648  0.5038
  362TMC3    C1 5415   2.806   2.192  16.814  0.6871  0.0994  0.8989
  362TMC3    C2 5416   2.753   2.192  16.934  0.6631 -0.0345  0.4037
  362TMC3    C3 5417   2.652   2.274  16.967  0.6939  0.4770  0.0437
  362TMC3    C4 5418   2.744   2.263  16.711 -0.0521  0.6327 -0.1754
  362TMC3    C5 5419   2.630   2.338  16.739  0.4579 -0.3768  0.3829
  362TMC3    C6 5420   2.592   2.351  16.871 -0.2843  0.2346 -0.2204
  362TMC3     C 5421   2.931   2.129  16.789  0.1558 -0.6652 -0.4825
  362TMC3     O 5422   2.968   2.035  16.859 -0.2554 -0.2944  0.0084
  362TMC3     H 5423   2.803   2.125  17.004 -3.8522  1.0923  4.7204
  362TMC3    H1 5424   2.772   2.236  16.610 -1.8843 -1.0643 -0.2333
  362TMC3    H2 5425   2.503   2.413  16.883  0.3315  0.8570  1.0856
  362TMC3    C7 5426   2.597   2.439  16.645  0.3138  0.6813 -0.4228
  362TMC3    C8 5427   2.596   2.244  17.101  0.0463  1.0663  0.0633
  362TMC3    O1 5428   2.599   2.558  16.677  0.0427 -0.3458  0.0750
  362TMC3    O2 5429   2.613   2.129  17.144  0.5280 -0.0604 -0.2791
  363TMC3    C1 5430   1.798   4.710   9.668 -0.8274 -0.1068  0.0523
  363TMC3    C2 5431   1.741   4.599   9.735  0.3584  0.5517  0.4677
  363TMC3    C3 5432   1.609   4.600   9.763  0.6645  0.1790 -0.6075
  363TMC3    C4 5433   1.718   0.083   9.628 -0.4200  1.0938 -0.3802
  363TMC3    C5 5434   1.585   0.074   9.651 -0.6010 -0.3981  0.3283
  363TMC3    C6 5435   1.524   4.692   9.723 -0.1511 -0.7374 -0.1380
  363TMC3     C 5436   1.922   4.688   9.602 -0.6290 -0.0164 -0.6311
  363TMC3     O 5437   1.946   4.569   9.579  0.4603 -0.1967  0.2774
  363TMC3     H 5438   1.809   4.523   9.771 -2.2500 -1.5117  0.9827
  363TMC3    H1 5439   1.758   0.168   9.574 -1.6262  0.0922 -2.8576
  363TMC3    H2 5440   1.418   4.682   9.744 -0.3712  2.3568  0.1855
  363TMC3    C7 5441   1.508   0.185   9.606  0.3341  0.3695 -0.1898
  363TMC3    C8 5442   1.541   4.470   9.790  0.1048 -0.5624  0.1875
  363TMC3    O1 5443   1.559   0.295   9.586  0.2085  0.3740 -0.4827
  363TMC3    O2 5444   1.429   4.479   9.832  0.4422 -0.2444  0.2542
  364MPD2     C 5445   0.350   3.693  10.752  0.3245  0.1354 -0.9793
  364MPD2    C1 5446   0.452   3.704  10.652 -0.0085  0.3203  0.2482
  364MPD2    C2 5447   0.549   3.608  10.657 -0.2929  0.2466  0.1443
  364MPD2    C3 5448   0.558   3.498  10.739  0.4571 -0.0674  0.2140
  364MPD2    C4 5449   0.446   3.489  10.829  0.4073 -0.3568 -0.0254
  364MPD2    C5 5450   0.347   3.586  10.838  0.6079  0.4333 -0.1446
  364MPD2     H 5451   0.633   3.624  10.590  0.3786  1.0303  1.1763
  364MPD2    H1 5452   0.432   3.408  10.900  1.4418 -0.8913 -0.4262
  364MPD2    H2 5453   0.272   3.769  10.753  1.4441  1.2754  0.5315
  364MPD2    H3 5454   0.260   3.577  10.901 -0.8939 -2.7967 -2.6975
  364MPD2     N 5455   0.653   3.397  10.745 -0.3306 -0.1235  0.5205
  364MPD2    H5 5456   0.629   3.314  10.799 -1.6428 -0.6605 -0.8865
  364MPD2    N1 5457   0.448   3.814  10.566 -0.0479  0.4794  0.1115
  364MPD2    H7 5458   0.381   3.884  10.595  1.9361  2.0610  0.9101
  365TMC3    C1 5459   0.485   3.942  10.375  0.0374 -0.3488 -0.1954
  365TMC3    C2 5460   0.506   3.916  10.241  0.3273 -0.0901 -0.5717
  365TMC3    C3 5461   0.606   3.992  10.183  1.0835 -0.5255  0.4862
  365TMC3    C4 5462   0.529   4.059  10.433 -0.2033 -0.1391 -0.3995
  365TMC3    C5 5463   0.629   4.127  10.367  0.6106 -0.1904  0.5658
  365TMC3    C6 5464   0.679   4.089  10.242 -0.8712  0.5802  0.5627
  365TMC3     C 5465   0.500   3.821  10.440  0.1397 -0.2737  0.5235
  365TMC3     O 5466   0.567   3.735  10.386  0.6200 -0.0446 -0.2076
  365TMC3     H 5467   0.451   3.831  10.203  0.8313  0.6740 -2.9993
  365TMC3    H1 5468   0.510   4.074  10.539 -0.3352 -0.7567 -0.3371
  365TMC3    H2 5469   0.766   4.140  10.203 -0.7679 -1.6665 -2.1360
  365TMC3    C7 5470   0.697   4.241  10.425 -0.0990 -0.3404 -0.5595
  365TMC3    C8 5471   0.683   3.915  10.096 -0.1585  1.3964  0.3104
  365TMC3    O1 5472   0.804   4.278  10.373  0.0385 -0.2063  0.0899
  365TMC3    O2 5473   0.764   3.979  10.037 -0.1229 -0.7196  0.0892
  366MPD2     C 5474   3.728   4.434  15.107  0.0826 -0.3546 -0.4851
  366MPD2    C1 5475   3.757   4.538  15.183  0.2967 -0.3820 -0.7398
  366MPD2    C2 5476   3.882   4.558  15.247  1.0619  0.7533  0.2603
  366MPD2    C3 5477   3.989   4.474  15.212  0.6714  0.6745 -0.6871
  366MPD2    C4 5478   3.963   4.365  15.127  0.1867  0.4624 -0.1125
  366MPD2    C5 5479   3.836   4.351  15.074 -0.0947 -0.3751 -0.2098
  366MPD2     H 5480   3.894   4.645  15.311  0.4434  2.9064 -2.5319
  366MPD2    H1 5481   4.037   4.290  15.101 -0.4897  0.1772 -1.2171
  366MPD2    H2 5482   3.624   4.420  15.078 -0.0771 -0.1810 -0.0035
  366MPD2    H3 5483   3.815   4.262  15.016 -0.1830 -0.9263  0.6613
  366MPD2     N 5484   4.120   4.484  15.256  0.2893 -0.0687  0.0216
  366MPD2    H5 5485   4.167   4.396  15.238  1.0805  0.0242  1.6074
  366MPD2    N1 5486   3.658   4.635  15.213 -0.4525  0.0391 -0.2820
  366MPD2    H7 5487   3.678   4.705  15.284 -2.2319 -2.3234  2.5645
  367TMC3    C1 5488   3.494   0.079  15.166 -0.3653 -0.0928  0.5770
  367TMC3    C2 5489   3.543   0.140  15.275  0.3840 -0.5224 -0.2888
  367TMC3    C3 5490   3.533   0.274  15.288 -0.2946  0.9853 -0.3543
  367TMC3    C4 5491   3.428   0.151  15.067 -0.0860 -0.4528  0.0160
  367TMC3    C5 5492   3.423   0.285  15.079 -0.1928  0.5031  0.2261
  367TMC3    C6 5493   3.467   0.350  15.192 -0.6870 -0.1192  0.3096
  367TMC3     C 5494   3.536   4.665  15.143 -0.7497  0.1738  0.3068
  367TMC3     O 5495   3.496   4.600  15.046  0.3388 -0.4500  0.2165
  367TMC3     H 5496   3.587   0.080  15.354 -0.7031 -0.0887  0.6504
  367TMC3    H1 5497   3.418   0.109  14.968  0.3941  0.4817 -0.4314
  367TMC3    H2 5498   3.448   0.456  15.204  0.6599  0.1270  0.2915
  367TMC3    C7 5499   3.324   0.367  15.008 -0.6032 -0.1072 -0.3837
  367TMC3    C8 5500   3.622   0.334  15.381  0.0117 -0.4946  0.2654
  367TMC3    O1 5501   3.344   0.492  15.007  0.3899  0.1013  0.5851
  367TMC3    O2 5502   3.718   0.265  15.413  0.5362 -0.2247  0.0127
  368MPD2     C 5503   4.608   2.562  13.123 -0.3034  0.0353 -0.1619
  368MPD2    C1 5504   4.587   2.658  13.026 -0.2848 -0.1259  0.0566
  368MPD2    C2 5505   4.685   2.682  12.934  0.8300  0.5446  0.4227
  368MPD2    C3 5506   0.083   2.620  12.939 -0.3776  0.9103  0.1450
  368MPD2    C4 5507   0.106   2.521  13.034  1.1139  0.6973  0.1584
  368MPD2    C5 5508   0.003   2.492  13.122 -0.0375  0.2609  0.1468
  368MPD2     H 5509   4.666   2.745  12.847 -1.5505  1.4375  1.5867
  368MPD2    H1 5510   0.204   2.476  13.048  0.8812  0.2181  0.2551
  368MPD2    H2 5511   4.529   2.542  13.194 -0.3462  0.1727 -0.1696
  368MPD2    H3 5512   0.024   2.418  13.198 -0.4686  2.2191  2.1601
  368MPD2     N 5513   0.196   2.653  12.859  0.6720 -0.2221  0.5271
  368MPD2    H5 5514   0.278   2.595  12.867  1.1872  0.3850 -0.3356
  368MPD2    N1 5515   4.462   2.726  13.023 -0.0097 -0.2028 -0.0731
  368MPD2    H7 5516   4.389   2.681  13.077 -1.9518 -0.4481 -2.8993
  369TMC3    C1 5517   4.293   2.879  12.933 -0.3849 -0.3856 -0.2442
  369TMC3    C2 5518   4.259   2.937  12.814  0.6864 -0.7018  0.1419
  369TMC3    C3 5519   4.126   2.973  12.794 -0.5467  0.1304  0.6352
  369TMC3    C4 5520   4.199   2.843  13.030 -0.3128 -0.2252  0.7147
  369TMC3    C5 5521   4.068   2.854  12.993  0.4594  0.4234 -0.7315
  369TMC3    C6 5522   4.028   2.920  12.880  0.1041 -0.1388 -0.3339
  369TMC3     C 5523   4.431   2.835  12.941 -0.4807 -0.7572  0.1088
  369TMC3     O 5524   4.514   2.908  12.884  0.4623 -0.7386  0.1674
  369TMC3     H 5525   4.332   2.951  12.735  0.8343 -0.2944  0.3528
  369TMC3    H1 5526   4.219   2.802  13.129 -2.0377  1.3456  1.7263
  369TMC3    H2 5527   3.925   2.945  12.858 -0.3514 -1.5012  0.2639
  369TMC3    C7 5528   3.971   2.800  13.086  0.3088 -0.3998 -0.3089
  369TMC3    C8 5529   4.094   3.034  12.663  0.4056 -0.5089 -0.0596
  369TMC3    O1 5530   4.002   2.794  13.203 -0.1003  0.9143 -0.7292
  369TMC3    O2 5531   3.975   3.017  12.631  0.0907 -0.4279 -1.2673
  370TMC3    C1 5532   4.557   2.943  16.364  0.3860  0.6029 -0.5285
  370TMC3    C2 5533   4.457   2.878  16.439  0.4991 -0.6142 -0.3009
  370TMC3    C3 5534   4.383   2.779  16.378 -0.5789 -0.5836 -0.0125
  370TMC3    C4 5535   4.578   2.910  16.236  0.4434  0.4220  0.6719
  370TMC3    C5 5536   4.503   2.811  16.177  0.5911  0.0734 -0.0829
  370TMC3    C6 5537   4.407   2.741  16.247  0.7780  0.8573  0.1359
  370TMC3     C 5538   4.659   3.015  16.436 -0.0230  0.2791 -0.3440
  370TMC3     O 5539   4.673   2.990  16.553 -0.1059  0.2067 -0.3914
  370TMC3     H 5540   4.457   2.902  16.545  3.0138  0.1013 -0.4650
  370TMC3    H1 5541   4.654   2.955  16.174 -0.1212 -1.5070 -1.3935
  370TMC3    H2 5542   4.338   2.668  16.206 -1.4427  1.8156  2.1814
  370TMC3    C7 5543   4.557   2.761  16.053 -0.5702 -0.2242 -0.8434
  370TMC3    C8 5544   4.313   2.680  16.461  0.1652 -0.0656  0.1786
  370TMC3    O1 5545   4.622   2.832  15.980  0.5063  0.6597 -0.0079
  370TMC3    O2 5546   4.288   2.573  16.400 -0.1239  0.3193 -0.4469
  371TMC3    C1 5547   0.846   1.095  15.489  0.5099  0.2477 -0.5623
  371TMC3    C2 5548   0.716   1.114  15.454  0.2708  0.5213  0.4898
  371TMC3    C3 5549   0.676   1.235  15.421 -0.4250 -0.4250  0.8249
  371TMC3    C4 5550   0.944   1.197  15.474  0.5609  0.7404 -0.4788
  371TMC3    C5 5551   0.898   1.319  15.435 -0.1525 -0.6153  0.0101
  371TMC3    C6 5552   0.764   1.336  15.404  0.3454  0.2892 -0.2085
  371TMC3     C 5553   0.888   0.972  15.550 -0.3450  0.5429  0.3977
  371TMC3     O 5554   0.993   0.984  15.613  0.2640  0.0850  0.3983
  371TMC3     H 5555   0.639   1.039  15.467  1.3646 -0.5514  0.8094
  371TMC3    H1 5556   1.042   1.167  15.508  0.0580  1.7959  1.8878
  371TMC3    H2 5557   0.720   1.429  15.368  1.2472  0.3472 -1.1288
  371TMC3    C7 5558   0.990   1.397  15.353 -0.0278 -0.2341 -0.7550
  371TMC3    C8 5559   0.537   1.263  15.431  0.0665 -0.2110 -0.5993
  371TMC3    O1 5560   0.941   1.497  15.315  0.3741 -0.4467 -0.0498
  371TMC3    O2 5561   0.472   1.212  15.342 -0.4694 -0.1003  0.6367
  372MPD2     C 5562   0.946   2.064  13.071  0.1920 -0.1163 -0.4611
  372MPD2    C1 5563   0.903   1.988  13.182 -0.5466  0.3726 -0.2838
  372MPD2    C2 5564   0.778   2.016  13.232 -0.4737  0.7091 -0.0734
  372MPD2    C3 5565   0.700   2.111  13.181 -1.0808  0.9191  0.4980
  372MPD2    C4 5566   0.737   2.188  13.075 -0.5253  0.0389  0.0146
  372MPD2    C5 5567   0.860   2.162  13.019 -0.2378 -0.0826  0.0423
  372MPD2     H 5568   0.741   1.942  13.302 -1.0701 -0.8002 -2.0054
  372MPD2    H1 5569   0.672   2.260  13.027 -3.4114 -1.8700  1.0299
  372MPD2    H2 5570   1.034   2.040  13.012  0.4706 -0.5627  0.1315
  372MPD2    H3 5571   0.882   2.218  12.929  0.8370 -2.2128 -1.0359
  372MPD2     N 5572   0.565   2.113  13.225  0.6715  0.3700  0.0190
  372MPD2    H5 5573   0.537   2.046  13.295 -0.6550  0.2258 -0.6406
  372MPD2    N1 5574   0.969   1.869  13.223 -0.3124  0.0884 -0.3103
  372MPD2    H7 5575   0.948   1.835  13.316 -0.7222  1.8966  0.2631
  373TMC3    C1 5576   0.347   2.166  13.260 -0.3999  0.3860  0.4403
  373TMC3    C2 5577   0.316   2.203  13.385  0.2085 -0.0154 -0.1655
  373TMC3    C3 5578   0.242   2.114  13.457  0.2042  0.7709 -0.5984
  373TMC3    C4 5579   0.306   2.047  13.205 -0.7079 -0.0564 -0.0659
  373TMC3    C5 5580   0.219   1.965  13.277 -0.2523 -0.3290  0.2053
  373TMC3    C6 5581   0.187   1.998  13.404  0.1556  0.0802  0.4395
  373TMC3     C 5582   0.470   2.213  13.205 -0.4877 -0.2656 -0.6697
  373TMC3     O 5583   0.483   2.322  13.158  0.7035  0.0493 -0.1708
  373TMC3     H 5584   0.338   2.303  13.420  1.4952  0.0673 -1.2093
  373TMC3    H1 5585   0.327   2.032  13.099 -3.1102 -0.1204 -0.5186
  373TMC3    H2 5586   0.128   1.927  13.460  0.1053 -1.0037 -0.9868
  373TMC3    C7 5587   0.219   1.831  13.226  0.3628  0.6791  0.2696
  373TMC3    C8 5588   0.228   2.130  13.598 -0.7472 -0.0800  0.3007
  373TMC3    O1 5589   0.297   1.811  13.132  0.1967  0.3313  0.5766
  373TMC3    O2 5590   0.133   2.087  13.655  0.0839  0.2935  0.0213
  374TMC3    C1 5591   0.629   2.143  10.255 -0.2733 -0.5706 -0.2138
  374TMC3    C2 5592   0.716   2.241  10.231  0.1446 -0.3169  0.1219
  374TMC3    C3 5593   0.667   2.353  10.176 -0.8813  0.2501  0.1357
  374TMC3    C4 5594   0.499   2.152  10.230 -0.2315  0.4628  0.5155
  374TMC3    C5 5595   0.448   2.258  10.154 -0.2363  0.2587  0.1727
  374TMC3    C6 5596   0.535   2.362  10.138  0.2005 -0.4353 -0.7161
  374TMC3     C 5597   0.678   2.016  10.309  0.6393  0.8109 -0.1935
  374TMC3     O 5598   0.586   1.961  10.367  0.9984 -0.0788  0.0138
  374TMC3     H 5599   0.823   2.239  10.252  0.3751 -2.0386 -1.2895
  374TMC3    H1 5600   0.437   2.068  10.258  2.3125 -1.8531 -0.9333
  374TMC3    H2 5601   0.503   2.456  10.095  0.2044  0.7677  1.8719
  374TMC3    C7 5602   0.311   2.267  10.123  0.1072  0.5691  0.1123
  374TMC3    C8 5603   0.760   2.458  10.143 -0.3906  0.2839  0.4075
  374TMC3    O1 5604   0.278   2.361  10.046  0.4274 -0.0676  0.2668
  374TMC3    O2 5605   0.723   2.530  10.049 -0.1905 -0.3090 -0.2416
  375MPD2     C 5606   1.111   3.242  17.278 -0.3156 -0.2453 -0.4691
  375MPD2    C1 5607   0.994   3.178  17.243  0.2015  0.4431  0.2926
  375MPD2    C2 5608   0.978   3.127  17.118 -0.3650  0.2163  0.4066
  375MPD2    C3 5609   1.082   3.124  17.024  0.3702 -0.3771 -0.1354
  375MPD2    C4 5610   1.201   3.173  17.062  0.7475  0.4091  0.4425
  375MPD2    C5 5611   1.209   3.232  17.187 -0.0619 -0.3612  0.0782
  375MPD2     H 5612   0.883   3.081  17.095  0.8408 -0.6963 -2.7571
  375MPD2    H1 5613   1.289   3.187  17.001  0.1037  1.5690 -0.2169
  375MPD2    H2 5614   1.124   3.296  17.371 -0.6423  1.2083 -1.2659
  375MPD2    H3 5615   1.301   3.281  17.214 -1.1318  1.1361  1.0075
  375MPD2     N 5616   1.072   3.063  16.900 -0.3027  0.1283  0.1718
  375MPD2    H5 5617   1.154   3.067  16.839  0.2204  1.9556  1.0018
  375MPD2    N1 5618   0.881   3.179  17.326 -0.0920  0.5784  0.2781
  375MPD2    H7 5619   0.799   3.145  17.277  0.3559  0.9485 -0.7181
  376TMC3    C1 5620   0.989   2.947  16.714  0.0078 -0.1416  0.2125
  376TMC3    C2 5621   1.100   2.869  16.713 -0.3818  0.1336 -0.4810
  376TMC3    C3 5622   1.148   2.823  16.597 -0.3217 -0.0536  1.1688
  376TMC3    C4 5623   0.910   2.964  16.604  1.2874  0.4418  0.0899
  376TMC3    C5 5624   0.967   2.925  16.484 -0.7919  0.1995  0.3629
  376TMC3    C6 5625   1.081   2.853  16.483 -0.3412  0.2748 -0.4086
  376TMC3     C 5626   0.958   3.022  16.834 -0.1689 -0.2052  0.4730
  376TMC3     O 5627   0.839   3.028  16.868  0.0976  0.1392  0.0533
  376TMC3     H 5628   1.153   2.866  16.807  1.2005  0.8630 -1.3612
  376TMC3    H1 5629   0.820   3.024  16.608 -0.3421 -2.0230  0.1266
  376TMC3    H2 5630   1.129   2.837  16.387  1.3138  1.5522  0.2174
  376TMC3    C7 5631   0.901   2.965  16.362  0.0787 -0.4870 -0.0408
  376TMC3    C8 5632   1.296   2.813  16.578 -0.1993 -0.2355 -0.5117
  376TMC3    O1 5633   0.828   3.065  16.374 -0.4125  0.1560 -0.1760
  376TMC3    O2 5634   1.336   2.838  16.469 -0.0110 -0.2014  0.0577
  377MPD2     C 5635   3.208   3.043  12.373  0.6009 -0.5952 -0.3450
  377MPD2    C1 5636   3.264   2.945  12.446 -0.4005  0.2857 -1.0244
  377MPD2    C2 5637   3.182   2.868  12.528  0.2679  0.2927 -0.1694
  377MPD2    C3 5638   3.048   2.885  12.537 -0.4017  0.0840  0.2606
  377MPD2    C4 5639   2.993   2.981  12.461  0.9061  0.2921  0.3955
  377MPD2    C5 5640   3.072   3.068  12.382 -0.3983 -0.2756  0.4443
  377MPD2     H 5641   3.225   2.779  12.572  3.6398  1.2682 -1.4810
  377MPD2    H1 5642   2.888   3.005  12.472  0.9491 -0.7243  3.0927
  377MPD2    H2 5643   3.259   3.107  12.302  1.1781 -0.1845  0.4509
  377MPD2    H3 5644   3.026   3.150  12.328 -0.6693 -0.3816  0.5099
  377MPD2     N 5645   2.953   2.812  12.611  0.3034  0.2599 -0.3571
  377MPD2    H5 5646   2.854   2.818  12.594 -0.5115 -2.3134  3.6644
  377MPD2    N1 5647   3.405   2.918  12.417 -0.7594  0.3375  0.3227
  377MPD2    H7 5648   3.456   2.986  12.361  1.0045 -1.6368 -0.4916
  378TMC3    C1 5649   3.779   2.810  12.292 -0.1232 -0.1697 -0.3642
  378TMC3    C2 5650   3.656   2.864  12.320 -0.3161  0.0740 -0.2860
  378TMC3    C3 5651   3.616   2.846  12.450  0.3172  0.2705  0.0358
  378TMC3    C4 5652   3.868   2.761  12.389  0.0250 -0.1496 -0.8582
  378TMC3    C5 5653   3.833   2.769  12.522 -0.1850  0.3790  0.6074
  378TMC3    C6 5654   3.703   2.792  12.547  0.4053 -0.8702  0.0832
  378TMC3     C 5655   3.818   2.817  12.152 -0.9442 -0.1991 -0.3898
  378TMC3     O 5656   3.724   2.817  12.074 -0.1124  0.0706  0.3153
  378TMC3     H 5657   3.588   2.913  12.250 -0.5557 -1.2376 -0.9675
  378TMC3    H1 5658   3.963   2.719  12.358 -0.7013 -1.0549 -1.8785
  378TMC3    H2 5659   3.656   2.772  12.643  1.4154 -2.9079  0.1563
  378TMC3    C7 5660   3.905   2.691  12.617  0.3066  0.3744 -0.7226
  378TMC3    C8 5661   3.479   2.821  12.476  0.3783 -1.1474  0.3663
  378TMC3    O1 5662   3.846   2.670  12.717 -0.3181 -0.1814  0.5678
  378TMC3    O2 5663   3.441   2.728  12.547 -0.1093 -0.1056  0.2362
  379MPD2     C 5664   4.341   0.668  16.146 -0.7689 -0.2782  0.2171
  379MPD2    C1 5665   4.412   0.574  16.074  0.4369  0.0273 -0.4122
  379MPD2    C2 5666   4.493   0.485  16.141 -0.3075 -0.6122 -0.5118
  379MPD2    C3 5667   4.509   0.503  16.278  0.7759  0.1052  0.3003
  379MPD2    C4 5668   4.427   0.587  16.347 -0.2435 -0.1648  0.2380
  379MPD2    C5 5669   4.341   0.671  16.284  0.6612  0.6773 -0.2865
  379MPD2     H 5670   4.545   0.412  16.079 -0.0091 -0.7103 -0.1472
  379MPD2    H1 5671   4.427   0.582  16.456 -0.6528 -0.6056  0.2165
  379MPD2    H2 5672   4.287   0.747  16.095  0.7549  0.1905 -0.6605
  379MPD2    H3 5673   4.288   0.742  16.346  4.1907 -0.2615  3.8745
  379MPD2     N 5674   4.589   0.414  16.356  0.3949 -0.3098  0.1742
  379MPD2    H5 5675   4.571   0.413  16.456 -1.8519 -0.3358 -0.2466
  379MPD2    N1 5676   4.386   0.574  15.938  0.2531 -0.4661  0.7095
  379MPD2    H7 5677   4.324   0.649  15.908  1.4723  0.3853  0.3221
  380TMC3    C1 5678   4.398   0.540  15.712 -0.7692  0.6644 -0.2643
  380TMC3    C2 5679   4.506   0.587  15.641 -0.4698 -0.2566  0.2977
  380TMC3    C3 5680   4.468   0.661  15.531 -0.4222 -0.4220 -0.6761
  380TMC3    C4 5681   4.261   0.559  15.688  0.7510 -0.2991  0.6447
  380TMC3    C5 5682   4.236   0.638  15.577 -0.2060 -0.3280 -0.7107
  380TMC3    C6 5683   4.336   0.694  15.501 -0.2078 -0.1589  0.1091
  380TMC3     C 5684   4.441   0.495  15.838  0.3737  0.7110 -0.0509
  380TMC3     O 5685   4.536   0.418  15.846  0.3352  0.0453  0.3140
  380TMC3     H 5686   4.605   0.548  15.661 -0.8433 -0.4886  1.6668
  380TMC3    H1 5687   4.190   0.512  15.754 -1.0783  1.7766  0.1608
  380TMC3    H2 5688   4.309   0.754  15.416  2.4635  1.6605  0.5378
  380TMC3    C7 5689   4.105   0.704  15.558 -0.1029  0.0402 -0.4467
  380TMC3    C8 5690   4.567   0.748  15.473  0.1368 -0.0159 -0.0174
  380TMC3    O1 5691   4.090   0.803  15.488 -0.4552 -0.1137 -0.5505
  380TMC3    O2 5692   4.534   0.822  15.384  0.2160 -0.1423  0.7922
  381TMC3    C1 5693   4.429   1.833  16.214  0.4381  0.4023  0.4408
  381TMC3    C2 5694   4.506   1.949  16.206  0.0495  0.4228 -0.4582
  381TMC3    C3 5695   4.496   2.052  16.298  0.1452  0.2917 -0.2137
  381TMC3    C4 5696   4.337   1.818  16.324  0.1532 -0.5590 -0.3968
  381TMC3    C5 5697   4.333   1.928  16.407  0.0784  0.0978 -0.2604
  381TMC3    C6 5698   4.400   2.051  16.391 -0.0664 -0.4253  0.0056
  381TMC3     C 5699   4.461   1.718  16.130  0.0096  0.3525 -0.8009
  381TMC3     O 5700   4.535   1.737  16.035  0.8087 -0.0085  0.4986
  381TMC3     H 5701   4.583   1.960  16.131 -0.4619 -0.9473 -1.1828
  381TMC3    H1 5702   4.277   1.730  16.343 -1.4035  0.1559 -1.9737
  381TMC3    H2 5703   4.383   2.135  16.457 -0.4035 -0.8782  0.4948
  381TMC3    C7 5704   4.261   1.903  16.526  0.1885  0.6165  0.5698
  381TMC3    C8 5705   4.589   2.170  16.287  0.8418  0.3288 -0.1213
  381TMC3    O1 5706   4.263   1.787  16.562  0.3607  0.0132  0.5476
  381TMC3    O2 5707   4.668   2.165  16.197 -0.0389 -0.0511 -0.0654
  382MPD2     C 5708   3.638   4.249  17.262 -0.4242  0.0947  0.5684
  382MPD2    C1 5709   3.596   4.255  17.389 -0.1514  0.5461 -0.3485
  382MPD2    C2 5710   3.553   4.134  17.444 -0.3129 -0.3815 -0.0449
  382MPD2    C3 5711   3.558   4.021  17.376 -0.4640  0.1694  0.2010
  382MPD2    C4 5712   3.616   4.017  17.253  1.0080  0.2525  0.3760
  382MPD2    C5 5713   3.650   4.130  17.194  0.3501 -0.2128  0.3464
  382MPD2     H 5714   3.505   4.151  17.540 -1.7965  0.4872 -0.9306
  382MPD2    H1 5715   3.626   3.923  17.201  0.2949  0.2833  0.1765
  382MPD2    H2 5716   3.670   4.339  17.210 -0.8827  0.2461  0.5486
  382MPD2    H3 5717   3.689   4.131  17.092 -1.6898  1.9874 -0.4072
  382MPD2     N 5718   3.519   3.898  17.418 -0.6626  0.8379  0.9506
  382MPD2    H5 5719   3.543   3.820  17.359  0.3398  1.7003  0.2357
  382MPD2    N1 5720   3.584   4.371  17.473 -0.1626  0.7779 -0.3494
  382MPD2    H7 5721   3.545   4.352  17.565  1.2150  1.8536  0.4631
  383TMC3    C1 5722   3.433   3.736  17.566 -0.0589 -0.8170  0.6200
  383TMC3    C2 5723   3.366   3.674  17.461  0.2040  1.1924 -0.1831
  383TMC3    C3 5724   3.303   3.553  17.491  0.1854  0.2460  0.0109
  383TMC3    C4 5725   3.438   3.684  17.688  0.1335 -0.4757  0.7217
  383TMC3    C5 5726   3.389   3.560   0.015  0.1900  0.3802 -0.5031
  383TMC3    C6 5727   3.314   3.499  17.615 -0.1641 -0.4165 -1.0314
  383TMC3     C 5728   3.457   3.879  17.541 -0.1746 -0.2494  0.2242
  383TMC3     O 5729   3.448   3.952  17.643  0.1425  0.3814  0.5260
  383TMC3     H 5730   3.348   3.712  17.361  1.2159  0.4483 -0.6452
  383TMC3    H1 5731   3.474   3.749   0.070 -1.2758  0.1285  0.8618
  383TMC3    H2 5732   3.243   3.424  17.649 -0.2092 -0.0688 -0.3504
  383TMC3    C7 5733   3.360   3.538   0.159 -0.5099 -0.3008  0.5687
  383TMC3    C8 5734   3.183   3.526  17.414 -0.1665  0.2089  0.7319
  383TMC3    O1 5735   3.369   3.630   0.236  0.8970 -0.2211  0.0202
  383TMC3    O2 5736   3.105   3.618  17.400 -0.1955  0.3723  0.6851
  384MPD2     C 5737   0.804   0.755  12.108 -0.0891 -0.5698  0.2718
  384MPD2    C1 5738   0.844   0.677  12.216  0.7703  0.4942 -0.2632
  384MPD2    C2 5739   0.878   0.549  12.188 -0.3197  0.1083 -0.2071
  384MPD2    C3 5740   0.887   0.499  12.059 -0.0269 -0.1797 -0.4575
  384MPD2    C4 5741   0.856   0.584  11.956 -0.4211 -0.0673  0.0963
  384MPD2    C5 5742   0.812   0.709  11.981  0.0114  0.5644 -0.4206
  384MPD2     H 5743   0.896   0.486  12.275  1.5282  0.2614 -0.4849
  384MPD2    H1 5744   0.850   0.535  11.860 -1.4671  0.8258 -0.2896
  384MPD2    H2 5745   0.774   0.859  12.116 -2.4043 -1.2734  0.5746
  384MPD2    H3 5746   0.772   0.769  11.899 -0.5302 -0.7726 -1.1448
  384MPD2     N 5747   0.905   0.364  12.036  0.1229 -0.4998 -0.5547
  384MPD2    H5 5748   0.888   0.331  11.941  2.6275 -2.5509 -0.3195
  384MPD2    N1 5749   0.818   0.719  12.352 -0.2185  0.0141  0.3028
  384MPD2    H7 5750   0.767   0.805  12.370 -1.4611  0.2016 -4.0342
  385TMC3    C1 5751   0.945   0.140  12.098 -0.6961  0.4762  0.1745
  385TMC3    C2 5752   0.896   0.088  11.980 -0.5021  0.0667  0.1098
  385TMC3    C3 5753   0.896   4.680  11.955  0.2516  0.2871 -0.4340
  385TMC3    C4 5754   0.978   0.052  12.199 -0.7806 -0.0766 -0.3961
  385TMC3    C5 5755   0.968   4.641  12.183  0.0538 -0.1710  0.9327
  385TMC3    C6 5756   0.930   4.589  12.056 -0.5611 -0.0630 -0.0896
  385TMC3     C 5757   0.959   0.280  12.130  0.0048  0.8781  0.2514
  385TMC3     O 5758   1.026   0.309  12.225 -0.0152  0.4265 -0.3143
  385TMC3     H 5759   0.877   0.154  11.895  1.2422  0.4867  0.0465
  385TMC3    H1 5760   0.976   0.092  12.300  1.7848 -2.0746  0.4310
  385TMC3    H2 5761   0.929   4.486  12.023 -1.5816 -0.2545  0.5626
  385TMC3    C7 5762   0.924   4.576  12.300 -0.4415  0.2606  0.1806
  385TMC3    C8 5763   0.927   4.643  11.823  0.1257 -0.4273 -0.1008
  385TMC3    O1 5764   0.983   4.616  12.396 -0.0601  0.1600  0.0815
  385TMC3    O2 5765   1.003   4.549  11.795  0.0788 -0.0493 -0.2578
  386TMC3    C1 5766   4.485   3.280  11.105  0.2329 -0.5044  0.0892
  386TMC3    C2 5767   4.433   3.325  10.986 -0.2759 -0.9888  0.7426
  386TMC3    C3 5768   4.298   3.346  10.973 -0.4550 -0.4167  0.0079
  386TMC3    C4 5769   4.409   3.230  11.202  0.4225 -0.4088  0.4821
  386TMC3    C5 5770   4.275   3.257  11.184  0.3956  1.2452  0.4812
  386TMC3    C6 5771   4.214   3.321  11.079  0.1431 -0.4974  0.5263
  386TMC3     C 5772   4.634   3.258  11.105  0.6188 -0.1235 -0.0867
  386TMC3     O 5773   4.686   3.253  10.993  0.2649 -0.7505 -0.0102
  386TMC3     H 5774   4.509   3.366  10.920 -0.3720 -0.8549  0.7164
  386TMC3    H1 5775   4.464   3.204  11.291  0.7275  0.2831  0.4985
  386TMC3    H2 5776   4.109   3.342  11.062 -0.0790 -1.5565  0.6200
  386TMC3    C7 5777   4.183   3.195  11.272  0.1263  0.0421  0.0198
  386TMC3    C8 5778   4.245   3.360  10.839 -0.1526  0.0471 -0.5307
  386TMC3    O1 5779   4.229   3.155  11.382  0.0811 -0.2963  0.0043
  386TMC3    O2 5780   4.124   3.368  10.831 -0.3609  0.3495 -0.2854
  387MPD2     C 5781   2.379   2.506   9.424  0.1567  0.0205 -0.2778
  387MPD2    C1 5782   2.488   2.530   9.504 -0.0426  0.6180 -0.1913
  387MPD2    C2 5783   2.567   2.422   9.550  0.8527  0.4216  0.6412
  387MPD2    C3 5784   2.535   2.285   9.518 -0.3444 -0.3664 -0.0575
  387MPD2    C4 5785   2.430   2.263   9.425  0.1212 -0.7962 -0.0811
  387MPD2    C5 5786   2.351   2.375   9.393  0.9352  0.7012 -0.6717
  387MPD2     H 5787   2.653   2.440   9.613 -0.4585  0.3606  2.4393
  387MPD2    H1 5788   2.389   2.167   9.395 -1.2448  0.4463 -2.1408
  387MPD2    H2 5789   2.306   2.577   9.386 -0.2105 -0.4570 -0.4674
  387MPD2    H3 5790   2.263   2.348   9.336  0.0612  0.0806  0.9647
  387MPD2     N 5791   2.589   2.189   9.602  0.1146 -0.6010  0.6875
  387MPD2    H5 5792   2.654   2.228   9.669 -0.6947  0.9507  0.5542
  387MPD2    N1 5793   2.524   2.658   9.549  0.5324 -0.5863 -0.7601
  387MPD2    H7 5794   2.611   2.666   9.601 -0.3836 -1.2312  0.8903
  388TMC3    C1 5795   2.480   2.872   9.648 -0.3112  0.2419 -0.0240
  388TMC3    C2 5796   2.433   2.996   9.639  0.1522  0.1194  0.1681
  388TMC3    C3 5797   2.443   3.078   9.755 -0.5808 -0.6411  0.0540
  388TMC3    C4 5798   2.543   2.826   9.761 -0.6428 -0.0915  0.6742
  388TMC3    C5 5799   2.552   2.902   9.865 -0.2788 -0.4811  0.1667
  388TMC3    C6 5800   2.498   3.026   9.868 -0.3684  0.1845  0.2808
  388TMC3     C 5801   2.442   2.770   9.541  0.5272  0.7220  0.3767
  388TMC3     O 5802   2.344   2.793   9.472  0.2379  0.2150  0.1781
  388TMC3     H 5803   2.397   3.027   9.542  1.5492  1.5869  0.1242
  388TMC3    H1 5804   2.558   2.718   9.766 -0.0599  0.0154  1.2486
  388TMC3    H2 5805   2.499   3.088   9.957  1.7868  1.3018 -0.5128
  388TMC3    C7 5806   2.610   2.850   9.983 -0.2475 -1.2293  0.1555
  388TMC3    C8 5807   2.424   3.223   9.757 -0.0876 -0.1121 -0.3760
  388TMC3    O1 5808   2.570   2.893  10.090 -0.4654  0.2955 -0.1101
  388TMC3    O2 5809   2.445   3.293   9.856  0.2003  0.2659 -0.1322
  389MPD2     C 5810   2.783   1.011  11.349  0.3207  0.2711  0.0273
  389MPD2    C1 5811   2.698   0.913  11.314 -0.2245 -0.1990 -0.1083
  389MPD2    C2 5812   2.597   0.888  11.403  0.0505 -0.3384 -0.6274
  389MPD2    C3 5813   2.588   0.944  11.524 -0.2335  0.3027 -0.5463
  389MPD2    C4 5814   2.675   1.043  11.560  0.7221 -0.1702  0.0869
  389MPD2    C5 5815   2.775   1.071  11.475  0.1775  0.3594 -0.2728
  389MPD2     H 5816   2.517   0.819  11.381  0.2759 -0.9952  0.5699
  389MPD2    H1 5817   2.672   1.095  11.654  0.0576 -1.5525  0.8253
  389MPD2    H2 5818   2.865   1.044  11.286  0.5711  2.8595  1.7167
  389MPD2    H3 5819   2.848   1.148  11.496  0.7549 -0.6990  1.5586
  389MPD2     N 5820   2.482   0.921  11.616 -0.0746 -0.2843 -0.7454
  389MPD2    H5 5821   2.483   0.976  11.702 -1.0181 -0.3342 -0.6985
  389MPD2    N1 5822   2.695   0.867  11.179 -0.1400  0.1606  0.0322
  389MPD2    H7 5823   2.769   0.902  11.118  2.4256 -1.8895  1.9483
  390TMC3    C1 5824   2.332   0.793  11.744  0.3093 -0.1487 -0.1353
  390TMC3    C2 5825   2.298   0.672  11.779 -0.4540  0.0597  0.5020
  390TMC3    C3 5826   2.224   0.663  11.890  0.6422  0.0372 -0.0516
  390TMC3    C4 5827   2.278   0.902  11.802 -0.3559 -0.0746  0.1097
  390TMC3    C5 5828   2.193   0.889  11.910  0.3102  0.3379 -0.4116
  390TMC3    C6 5829   2.179   0.765  11.965 -0.6265  0.2251 -0.4582
  390TMC3     C 5830   2.399   0.812  11.610  0.2924  0.2351 -0.1434
  390TMC3     O 5831   2.402   0.716  11.532  0.3598 -0.3407  0.1033
  390TMC3     H 5832   2.352   0.587  11.739  0.2006  0.2485  0.9875
  390TMC3    H1 5833   2.308   1.003  11.779  0.0987  0.0627  1.2756
  390TMC3    H2 5834   2.118   0.767  12.055  1.7049 -1.1711  1.1567
  390TMC3    C7 5835   2.084   0.985  11.919  0.0447  0.4242  0.4608
  390TMC3    C8 5836   2.167   0.529  11.908 -0.3724  0.9232  0.6770
  390TMC3    O1 5837   2.108   1.088  11.861  0.4074 -0.0473  0.4838
  390TMC3    O2 5838   2.188   0.447  11.820 -0.4278 -0.2050 -0.3119
  391MPD2     C 5839   1.629   2.520  11.499  0.1286 -0.3379 -0.2297
  391MPD2    C1 5840   1.720   2.556  11.405  0.6779  0.1317 -0.2962
  391MPD2    C2 5841   1.684   2.571  11.269 -0.4050  0.4209 -0.1062
  391MPD2    C3 5842   1.557   2.536  11.233  0.2528 -0.6725  0.2297
  391MPD2    C4 5843   1.465   2.496  11.323  0.5522 -0.2410 -0.2684
  391MPD2    C5 5844   1.508   2.487  11.455 -0.2092  0.1280 -0.2530
  391MPD2     H 5845   1.755   2.604  11.193 -0.0045 -1.2490 -0.4643
  391MPD2    H1 5846   1.363   2.471  11.298  1.1380 -2.8014 -0.1017
  391MPD2    H2 5847   1.643   2.510  11.606 -0.1086 -2.2041 -0.3724
  391MPD2    H3 5848   1.438   2.461  11.532 -0.7210  1.1095 -0.3858
  391MPD2     N 5849   1.540   2.551  11.099  0.3908 -0.6284  0.0094
  391MPD2    H5 5850   1.618   2.582  11.043 -1.1284 -0.2274 -1.8910
  391MPD2    N1 5851   1.851   2.574  11.449 -0.4832 -0.5328  0.6911
  391MPD2    H7 5852   1.867   2.570  11.549  1.6414 -0.2163  0.3539
  392TMC3    C1 5853   1.453   2.565  10.885  0.1402  0.4230 -0.3172
  392TMC3    C2 5854   1.343   2.559  10.811  0.0972  0.0207 -0.3295
  392TMC3    C3 5855   1.345   2.601  10.684  0.2049 -0.3250  0.6247
  392TMC3    C4 5856   1.581   2.598  10.829  0.1196  1.1935  0.2467
  392TMC3    C5 5857   1.578   2.638  10.698  0.1727  0.2917 -0.2825
  392TMC3    C6 5858   1.459   2.661  10.631  0.3183 -0.7315  0.1713
  392TMC3     C 5859   1.426   2.527  11.026  0.2299  0.9395 -0.3725
  392TMC3     O 5860   1.314   2.501  11.064  0.3953 -0.1624  0.4912
  392TMC3     H 5861   1.259   2.506  10.852  1.7101 -1.8281  0.5754
  392TMC3    H1 5862   1.669   2.592  10.891  0.9614 -1.5226 -1.2089
  392TMC3    H2 5863   1.460   2.722  10.541 -1.7516 -1.2718 -0.2066
  392TMC3    C7 5864   1.694   2.713  10.648  0.0398 -0.4875 -0.3823
  392TMC3    C8 5865   1.221   2.595  10.607  0.2898 -0.5381  0.1755
  392TMC3    O1 5866   1.767   2.746  10.738  0.1780 -0.0713  0.4500
  392TMC3    O2 5867   1.112   2.564  10.658 -0.7466 -0.3188  0.4978
  393TMC3    C1 5868   1.043   0.581  10.657 -0.0684  0.3953 -0.3294
  393TMC3    C2 5869   0.951   0.601  10.752  0.0646  0.1946  0.4110
  393TMC3    C3 5870   0.926   0.492  10.836  0.2305 -0.7935 -0.6716
  393TMC3    C4 5871   1.099   0.458  10.632 -0.5652  0.1807 -1.0621
  393TMC3    C5 5872   1.076   0.352  10.717 -0.5139  0.0229 -0.3945
  393TMC3    C6 5873   0.987   0.372  10.817  0.5710 -0.0023  0.5251
  393TMC3     C 5874   1.073   0.691  10.562 -0.3545 -0.3168 -0.3620
  393TMC3     O 5875   1.187   0.709  10.527 -0.0489 -0.4112 -0.4760
  393TMC3     H 5876   0.914   0.701  10.769 -0.6337  0.3347 -2.0064
  393TMC3    H1 5877   1.170   0.461  10.551  0.5957  0.8223 -0.0268
  393TMC3    H2 5878   0.968   0.288  10.883  0.3978 -0.2308  0.1860
  393TMC3    C7 5879   1.082   0.216  10.663  0.1966 -0.5604  0.2610
  393TMC3    C8 5880   0.798   0.517  10.916 -0.9711  0.2643 -0.2941
  393TMC3    O1 5881   0.991   0.138  10.698  0.7637  0.0366  0.4207
  393TMC3    O2 5882   0.757   0.634  10.924  0.4131 -0.4638 -0.1033
  394TMC3    C1 5883   2.638   0.740  10.990 -0.4525  0.8550 -0.3909
  394TMC3    C2 5884   2.529   0.713  10.916  0.4412 -0.1484  0.3069
  394TMC3    C3 5885   2.548   0.702  10.785 -0.3501  0.5280  0.0108
  394TMC3    C4 5886   2.764   0.743  10.946  0.0434 -0.4841 -0.4362
  394TMC3    C5 5887   2.783   0.716  10.819  0.3403  0.0740 -0.8368
  394TMC3    C6 5888   2.677   0.699  10.730 -0.3648 -0.9333 -0.2937
  394TMC3     C 5889   2.613   0.766  11.129 -0.6664  0.3952 -0.6081
  394TMC3     O 5890   2.524   0.706  11.188 -0.2347 -0.5743  0.3694
  394TMC3     H 5891   2.431   0.735  10.955 -0.1820  1.0181 -1.9595
  394TMC3    H1 5892   2.846   0.741  11.017  0.2235 -0.6613 -0.6469
  394TMC3    H2 5893   2.700   0.694  10.624 -0.5994 -0.6577 -0.3568
  394TMC3    C7 5894   2.895   0.793  10.770  0.2042 -0.1559  0.3947
  394TMC3    C8 5895   2.440   0.652  10.709 -0.2968  0.0269  0.3176
  394TMC3    O1 5896   3.008   0.760  10.801  0.6501 -0.0101 -0.3027
  394TMC3    O2 5897   2.347   0.595  10.764 -0.1561  0.3481  0.3736
  395TMC3    C1 5898   2.112   2.718  15.229  0.4627  0.0569 -0.1248
  395TMC3    C2 5899   2.043   2.698  15.113 -0.2974 -0.7581 -0.0282
  395TMC3    C3 5900   2.020   2.813  15.035 -0.5661 -0.1805  0.0081
  395TMC3    C4 5901   2.168   2.838  15.263  0.1079 -0.4014  0.1674
  395TMC3    C5 5902   2.144   2.949  15.185  0.2298 -0.7625 -0.2607
  395TMC3    C6 5903   2.071   2.934  15.066 -0.1831 -0.0905 -0.2326
  395TMC3     C 5904   2.084   2.621  15.331 -0.4454  0.6978 -0.2631
  395TMC3     O 5905   2.094   2.501  15.317 -0.3781 -0.2240  0.2223
  395TMC3     H 5906   1.994   2.606  15.084 -0.6589 -0.3843 -0.5954
  395TMC3    H1 5907   2.231   2.843  15.351  0.5453  1.0812 -0.2209
  395TMC3    H2 5908   2.040   3.023  15.013 -0.2048 -0.1866 -0.3807
  395TMC3    C7 5909   2.242   3.052  15.191  0.0432  0.3919 -0.4002
  395TMC3    C8 5910   1.890   2.821  14.996  0.5704  0.4390  0.3208
  395TMC3    O1 5911   2.291   3.075  15.301  0.4024  0.3448  0.2591
  395TMC3    O2 5912   1.831   2.904  15.062  0.0670 -0.0981 -0.2276
  396MPD2     C 5913   1.833   3.900  17.277 -0.1682 -0.2849  0.0962
  396MPD2    C1 5914   1.954   3.955  17.317 -0.1579  0.0180  0.1536
  396MPD2    C2 5915   1.997   4.073  17.259  0.4514 -0.6807 -0.1099
  396MPD2    C3 5916   1.932   4.132  17.156 -0.7297  0.0591  0.1032
  396MPD2    C4 5917   1.816   4.072  17.105  0.1386 -0.6170  0.2330
  396MPD2    C5 5918   1.764   3.965  17.170  0.2715 -0.2115 -0.4455
  396MPD2     H 5919   2.098   4.111  17.275  0.4347 -1.0965  0.9589
  396MPD2    H1 5920   1.758   4.117  17.025  1.6316 -2.5907 -1.9734
  396MPD2    H2 5921   1.794   3.813  17.328 -2.2629 -0.3739 -1.6695
  396MPD2    H3 5922   1.672   3.925  17.129  0.2083  0.7348 -1.2401
  396MPD2     N 5923   1.989   4.253  17.102  0.6118 -0.1990  0.1423
  396MPD2    H5 5924   2.060   4.304  17.152 -0.9618 -0.3162  2.4740
  396MPD2    N1 5925   2.028   3.888  17.419 -0.9121 -0.1850 -0.5956
  396MPD2    H7 5926   1.989   3.800  17.450  0.0257  0.2988  1.8879
  397TMC3    C1 5927   2.212   3.831  17.544 -0.2204 -0.1884  0.5771
  397TMC3    C2 5928   2.342   3.809  17.504  0.2722 -0.0840  0.4564
  397TMC3    C3 5929   2.383   3.681  17.459 -0.0661 -0.3441  0.5653
  397TMC3    C4 5930   2.140   3.715  17.564 -0.2384  0.7143 -0.1026
  397TMC3    C5 5931   2.187   3.587  17.548 -0.5576  0.0547 -0.4076
  397TMC3    C6 5932   2.305   3.572  17.486  0.2344  0.0597  0.0530
  397TMC3     C 5933   2.142   3.929  17.473  0.0650  0.2928 -0.6504
  397TMC3     O 5934   2.216   4.021  17.440  0.3030  0.4832  0.3490
  397TMC3     H 5935   2.398   3.899  17.480  0.9883 -0.5079  0.5405
  397TMC3    H1 5936   2.037   3.725  17.594 -0.3771 -0.7234 -0.1229
  397TMC3    H2 5937   2.337   3.470  17.470 -2.9197 -0.4422 -3.0093
  397TMC3    C7 5938   2.103   3.472  17.589 -0.3536 -0.0254  0.2858
  397TMC3    C8 5939   2.520   3.652  17.422 -0.4618  0.0089  0.1496
  397TMC3    O1 5940   2.135   3.359  17.552 -0.1758  0.3570  0.4313
  397TMC3    O2 5941   2.566   3.539  17.459  0.1062 -0.0201  0.3281
  398MPD2     C 5942   4.463   0.265   0.066 -0.0657  0.6738 -1.3583
  398MPD2    C1 5943   4.478   0.182   0.174 -0.2906  0.1283 -0.0199
  398MPD2    C2 5944   4.487   0.237   0.300 -0.4988  0.3124  0.3582
  398MPD2    C3 5945   4.488   0.374   0.320 -0.4254  0.4358  1.2412
  398MPD2    C4 5946   4.479   0.458   0.210  0.0326  0.3169 -0.1135
  398MPD2    C5 5947   4.467   0.400   0.083 -0.6337 -0.5700 -0.0456
  398MPD2     H 5948   4.480   0.174   0.387  0.5196  1.0355  0.9582
  398MPD2    H1 5949   4.471   0.566   0.211 -1.8963  0.1870 -0.9141
  398MPD2    H2 5950   4.461   0.228  17.661 -0.3020 -2.0105 -0.3673
  398MPD2    H3 5951   4.445   0.463  17.695  1.7714 -1.9246 -1.6805
  398MPD2     N 5952   4.479   0.421   0.455 -0.1679 -0.2181 -0.1707
  398MPD2    H5 5953   4.477   0.353   0.531  0.3158  1.1285  1.0408
  398MPD2    N1 5954   4.488   0.042   0.170  0.2966 -0.6551 -0.2754
  398MPD2    H7 5955   4.521   0.004   0.258 -3.2905  0.4992  1.5816
  399TMC3    C1 5956   4.467   4.542   0.097  0.4007 -0.2610 -0.0954
  399TMC3    C2 5957   4.567   4.497   0.168  0.4642 -0.0652  0.3718
  399TMC3    C3 5958   4.577   4.363   0.189  0.0724  0.4019  0.3087
  399TMC3    C4 5959   4.374   4.459   0.041  0.0496 -0.1868  0.1582
  399TMC3    C5 5960   4.383   4.321   0.067  0.4560 -0.7681  0.5798
  399TMC3    C6 5961   4.484   4.268   0.139 -0.8975 -0.9131 -0.5088
  399TMC3     C 5962   4.452   4.681   0.070  0.1016 -0.1099  0.9250
  399TMC3     O 5963   4.417   4.710  17.656 -0.6533  0.2616  0.4038
  399TMC3     H 5964   4.647   4.564   0.196 -0.0021  1.3162 -1.6187
  399TMC3    H1 5965   4.293   4.503  17.680 -0.0063 -0.4706  0.0228
  399TMC3    H2 5966   4.480   4.161   0.154 -0.0789 -0.8262  0.3667
  399TMC3    C7 5967   4.278   4.229   0.028 -0.5281  0.0033 -0.7746
  399TMC3    C8 5968   4.668   4.323   0.297  0.2265  0.0979 -0.7560
  399TMC3    O1 5969   4.289   4.115   0.071  0.0671 -0.0098  0.0113
  399TMC3    O2 5970   0.004   4.418   0.353  0.4028 -0.1114 -0.4038
  400TMC3    C1 5971   3.130   3.370  16.913  0.3338 -0.4445 -0.4194
  400TMC3    C2 5972   3.036   3.379  16.816  0.1977 -0.4147  0.1614
  400TMC3    C3 5973   2.983   3.509  16.803 -0.3284 -0.4989  0.4023
  400TMC3    C4 5974   3.160   3.476  16.995  0.3817 -0.2157  0.0761
  400TMC3    C5 5975   3.112   3.603  16.972 -0.0188  0.4722  0.2127
  400TMC3    C6 5976   3.025   3.623  16.870  0.0663 -0.5990 -0.2285
  400TMC3     C 5977   3.183   3.235  16.955  0.1009  0.6620  0.1876
  400TMC3     O 5978   3.119   3.133  16.927 -0.4123 -0.0427 -0.2851
  400TMC3     H 5979   3.000   3.296  16.758 -2.2158  1.7362 -1.4027
  400TMC3    H1 5980   3.207   3.449  17.089  0.0094  2.0463  0.9011
  400TMC3    H2 5981   2.970   3.716  16.868  0.6263 -0.2615 -0.0458
  400TMC3    C7 5982   3.204   3.706  17.002 -0.0852 -0.9088 -0.1228
  400TMC3    C8 5983   2.876   3.528  16.704  0.5969 -0.0267  0.2895
  400TMC3    O1 5984   3.263   3.702  17.106 -0.3225 -0.4233  0.4411
  400TMC3    O2 5985   2.850   3.645  16.686  0.1683  0.2205  0.1716
  401MPD2     C 5986   1.756   2.176   1.223  0.6680  0.0204  0.0501
  401MPD2    C1 5987   1.807   2.190   1.344  0.2251 -0.4998  0.2339
  401MPD2    C2 5988   1.883   2.087   1.393 -0.2001 -0.2736 -0.0700
  401MPD2    C3 5989   1.929   1.982   1.317  0.4723 -0.3150 -0.1380
  401MPD2    C4 5990   1.886   1.977   1.187 -0.0883 -0.2358 -0.5599
  401MPD2    C5 5991   1.784   2.066   1.151  0.4647  0.0469  0.0098
  401MPD2     H 5992   1.920   2.086   1.495 -3.8260 -1.6956  1.2325
  401MPD2    H1 5993   1.910   1.892   1.124 -0.0656 -0.4569 -0.2515
  401MPD2    H2 5994   1.680   2.242   1.180  0.9741 -0.2732 -0.9362
  401MPD2    H3 5995   1.743   2.051   1.052  0.6644 -3.2835  0.4273
  401MPD2     N 5996   2.000   1.873   1.368 -0.3817 -0.6728  0.1109
  401MPD2    H5 5997   2.046   1.811   1.301 -1.3361 -1.9796  0.6714
  401MPD2    N1 5998   1.774   2.295   1.431 -0.2974 -0.2254  0.2401
  401MPD2    H7 5999   1.813   2.280   1.523  1.4708  2.5364 -0.0617
  402TMC3    C1 6000   2.083   1.717   1.515 -0.2269  0.4103 -0.9351
  402TMC3    C2 6001   2.105   1.677   1.646  0.0443 -0.1074  0.2808
  402TMC3    C3 6002   2.153   1.551   1.672  0.1936 -0.4177 -0.6539
  402TMC3    C4 6003   2.096   1.628   1.415  0.5827 -0.2143  0.6450
  402TMC3    C5 6004   2.153   1.500   1.443 -0.7538 -0.2513 -0.7411
  402TMC3    C6 6005   2.179   1.464   1.569  1.1433  0.2775 -0.0418
  402TMC3     C 6006   2.010   1.841   1.501 -0.3334 -0.2022 -0.1754
  402TMC3     O 6007   1.958   1.893   1.597 -0.2662  0.7235 -0.3659
  402TMC3     H 6008   2.111   1.760   1.716 -0.5273 -1.5098  1.9944
  402TMC3    H1 6009   2.080   1.653   1.311  0.7053 -1.7415  0.2677
  402TMC3    H2 6010   2.210   1.364   1.596  0.0719 -0.3041 -0.9376
  402TMC3    C7 6011   2.151   1.414   1.330 -0.4543 -0.0655  0.3672
  402TMC3    C8 6012   2.168   1.499   1.802 -0.1718  0.6955  0.2616
  402TMC3    O1 6013   2.113   1.462   1.226 -0.4312  0.3404  0.1910
  402TMC3    O2 6014   2.227   1.394   1.810 -0.1566  0.1772  0.3447
  403MPD2     C 6015   0.166   0.805  13.147  0.3728  0.2825  0.4072
  403MPD2    C1 6016   0.120   0.714  13.236  0.1899 -0.0138  0.5758
  403MPD2    C2 6017   0.156   0.713  13.367  0.4512  0.4609  0.2920
  403MPD2    C3 6018   0.229   0.813  13.417 -0.5018 -0.3840 -0.2811
  403MPD2    C4 6019   0.264   0.914  13.337 -0.2097 -0.5877  0.2790
  403MPD2    C5 6020   0.235   0.908  13.201 -0.5058 -0.7110 -0.1078
  403MPD2     H 6021   0.127   0.633  13.435 -0.0416 -0.4290 -0.9833
  403MPD2    H1 6022   0.318   1.003  13.367 -0.6303 -0.7754  1.5823
  403MPD2    H2 6023   0.149   0.795  13.040  0.1802  1.7952  0.3050
  403MPD2    H3 6024   0.260   0.982  13.125  0.2871  1.4113  2.2177
  403MPD2     N 6025   0.256   0.809  13.549  0.0556 -0.4018  0.0261
  403MPD2    H5 6026   0.210   0.741  13.608  1.1413 -2.0267 -0.9915
  403MPD2    N1 6027   0.045   0.609  13.183 -0.1095 -0.6172 -0.1209
  403MPD2    H7 6028   0.050   0.610  13.082  0.0729 -0.1614 -0.1067
  404TMC3    C1 6029   4.642   0.412  13.148  0.4498  0.0710  0.2623
  404TMC3    C2 6030   4.570   0.311  13.203  0.5619  0.1865 -0.5736
  404TMC3    C3 6031   4.554   0.192  13.134 -0.3817 -0.0287 -0.6895
  404TMC3    C4 6032   4.681   0.405  13.017  0.6613  0.3906  0.1605
  404TMC3    C5 6033   4.645   0.294  12.945 -0.5977  0.0958  0.1174
  404TMC3    C6 6034   4.589   0.180  13.000 -0.1487 -0.8748 -0.5769
  404TMC3     C 6035   4.703   0.507  13.247  0.1598  0.0447 -0.3466
  404TMC3     O 6036   4.695   0.490  13.370 -0.4787  0.4034 -0.5002
  404TMC3     H 6037   4.558   0.317  13.310 -0.9439  2.6862 -0.8861
  404TMC3    H1 6038   0.016   0.483  12.971  2.0099  0.0918  1.3732
  404TMC3    H2 6039   4.586   0.083  12.952 -1.8453 -0.5004 -1.2330
  404TMC3    C7 6040   4.713   0.282  12.818 -0.4998 -0.0157  0.6596
  404TMC3    C8 6041   4.530   0.068  13.203 -0.0633 -0.2265 -0.7632
  404TMC3    O1 6042   0.096   0.336  12.801 -0.7252 -0.2182 -0.2468
  404TMC3    O2 6043   4.561   4.683  13.148  0.6441 -0.0903 -0.5597
  405MPD2     C 6044   4.496   0.665  14.584 -1.3801 -0.0234  0.2783
  405MPD2    C1 6045   4.535   0.681  14.452 -0.0300 -0.4174 -0.4847
  405MPD2    C2 6046   4.549   0.811  14.415  0.0460 -0.3264 -0.0064
  405MPD2    C3 6047   4.540   0.922  14.506  0.4654  0.2949 -0.6627
  405MPD2    C4 6048   4.516   0.893  14.639  0.1992 -0.0262  0.5906
  405MPD2    C5 6049   4.499   0.767  14.683  0.0356  0.3570 -0.5379
  405MPD2     H 6050   4.583   0.837  14.316 -3.6380 -1.4333 -1.5531
  405MPD2    H1 6051   4.533   0.969  14.715  0.0451 -0.4248  1.0287
  405MPD2    H2 6052   4.485   0.566  14.627  2.0970  0.1241  1.5633
  405MPD2    H3 6053   4.491   0.761  14.791 -2.6951  0.4455 -0.7431
  405MPD2     N 6054   4.551   1.057  14.455  0.4751 -0.0686 -0.5121
  405MPD2    H5 6055   4.567   1.069  14.356  1.1949 -2.3632 -0.6679
  405MPD2    N1 6056   4.540   0.572  14.364 -0.2528  0.3569  0.3386
  405MPD2    H7 6057   4.496   0.487  14.398 -3.4968  1.7422 -0.4444
  406TMC3    C1 6058   4.442   1.492  14.367  0.3232  0.0739 -0.2126
  406TMC3    C2 6059   4.504   1.474  14.244 -0.0003  0.3340 -0.4081
  406TMC3    C3 6060   4.587   1.358  14.228 -0.4729 -0.1670 -0.1534
  406TMC3    C4 6061   4.462   1.402  14.466 -0.3998 -0.1788  0.1407
  406TMC3    C5 6062   4.553   1.296  14.444  0.0191 -0.1824  0.7689
  406TMC3    C6 6063   4.615   1.267  14.324  0.6827  0.5372 -0.4187
  406TMC3     C 6064   4.338   1.586  14.377  0.0913  0.0909 -0.0799
  406TMC3     O 6065   4.337   1.679  14.292 -0.6039  0.2700 -0.3738
  406TMC3     H 6066   4.476   1.532  14.156  0.0720 -1.2236 -1.4614
  406TMC3    H1 6067   4.417   1.417  14.563 -0.4428  1.7569 -0.1734
  406TMC3    H2 6068   4.684   1.187  14.301  1.3678  0.2766  2.5798
  406TMC3    C7 6069   4.547   1.179  14.531  0.0641  0.5073 -0.7113
  406TMC3    C8 6070   4.631   1.317  14.097 -0.4457  0.1499  0.0414
  406TMC3    O1 6071   4.521   1.198  14.650  0.2592 -0.3962  0.4370
  406TMC3    O2 6072   4.704   1.399  14.041 -0.1364 -0.4443 -0.0365
  407MPD2     C 6073   1.970   2.098   9.539 -0.3439 -0.0284 -0.1050
  407MPD2    C1 6074   2.109   2.100   9.552  0.3990 -0.0178  0.1489
  407MPD2    C2 6075   2.181   2.195   9.627 -0.1901 -0.5090 -0.2435
  407MPD2    C3 6076   2.108   2.297   9.684 -0.0367  0.5644 -0.4297
  407MPD2    C4 6077   1.967   2.302   9.672  0.3207 -0.6630 -0.2675
  407MPD2    C5 6078   1.904   2.195   9.609 -0.1764 -0.3727  0.6182
  407MPD2     H 6079   2.289   2.196   9.632 -0.1791  1.4548 -1.2392
  407MPD2    H1 6080   1.905   2.368   9.731 -0.8392  0.0492 -2.2853
  407MPD2    H2 6081   1.911   2.019   9.497  1.1697  0.0536 -2.3996
  407MPD2    H3 6082   1.796   2.184   9.614 -0.5572  1.7860 -2.7043
  407MPD2     N 6083   2.175   2.398   9.770 -0.3256  0.3390 -0.4404
  407MPD2    H5 6084   2.118   2.476   9.799 -0.6544  0.2861 -0.9456
  407MPD2    N1 6085   2.188   2.006   9.479 -0.6170  0.0873  0.3174
  407MPD2    H7 6086   2.284   1.995   9.511 -0.7975 -1.0248  0.4863
  408TMC3    C1 6087   2.250   1.883   9.288  0.8436  0.4867 -0.0215
  408TMC3    C2 6088   2.357   1.842   9.353 -0.6378 -0.3373 -0.0507
  408TMC3    C3 6089   2.470   1.825   9.278 -0.2267  0.2364 -0.7064
  408TMC3    C4 6090   2.244   1.910   9.155  0.4188 -0.6171 -0.2425
  408TMC3    C5 6091   2.365   1.909   9.081 -0.2223 -0.3104 -0.5348
  408TMC3    C6 6092   2.475   1.847   9.139 -0.4808  0.4168  0.4030
  408TMC3     C 6093   2.140   1.934   9.371 -0.1960  0.8629 -0.6496
  408TMC3     O 6094   2.028   1.939   9.315 -0.3271 -0.4031  0.2331
  408TMC3     H 6095   2.354   1.810   9.456 -0.2206 -2.4901 -0.6950
  408TMC3    H1 6096   2.153   1.963   9.127  0.7600 -0.6785 -1.4607
  408TMC3    H2 6097   2.571   1.844   9.089 -0.3433  1.7474  0.6016
  408TMC3    C7 6098   2.398   2.044   9.047  0.5628  0.1837  0.2136
  408TMC3    C8 6099   2.595   1.850   9.349  0.3544 -0.1258 -0.0930
  408TMC3    O1 6100   2.512   2.085   9.066  0.2384 -0.0930  0.5366
  408TMC3    O2 6101   2.630   1.776   9.441 -0.6919  0.1779  0.4533
  409MPD2     C 6102   1.808   3.282  17.240 -0.2378 -0.1673 -0.4295
  409MPD2    C1 6103   1.928   3.214  17.259  0.0718  0.4255 -0.1552
  409MPD2    C2 6104   2.046   3.272  17.211 -0.1807 -0.0412 -0.8841
  409MPD2    C3 6105   2.048   3.399  17.159  0.7742  0.2095  0.2019
  409MPD2    C4 6106   1.925   3.462  17.141 -0.0962 -0.1582 -0.1164
  409MPD2    C5 6107   1.810   3.405  17.184 -0.2822  0.2635  0.2669
  409MPD2     H 6108   2.135   3.214  17.230 -0.3722  0.3053  1.0317
  409MPD2    H1 6109   1.922   3.562  17.100  2.0805  0.8382  2.1691
  409MPD2    H2 6110   1.717   3.239  17.279  0.3630  0.6032  1.8045
  409MPD2    H3 6111   1.719   3.455  17.154 -1.8374 -1.4535  2.1547
  409MPD2     N 6112   2.166   3.464  17.119  0.0918  0.1744 -0.7271
  409MPD2    H5 6113   2.163   3.557  17.078  2.0572 -0.8119 -3.0996
  409MPD2    N1 6114   1.931   3.090  17.317  0.4068 -0.0792 -0.0249
  409MPD2    H7 6115   2.027   3.055  17.325  0.2915 -0.4592 -0.3162
  410TMC3    C1 6116   2.384   3.517  17.066 -0.2438  0.3810 -0.3137
  410TMC3    C2 6117   2.512   3.518  17.110 -0.2074  1.0018  0.4943
  410TMC3    C3 6118   2.604   3.593  17.045 -0.7361  0.2932 -0.4877
  410TMC3    C4 6119   2.347   3.572  16.950  0.0283 -0.2305 -0.5193
  410TMC3    C5 6120   2.448   3.646  16.888 -0.1456  0.4563  0.2825
  410TMC3    C6 6121   2.571   3.668  16.936 -0.1620  0.4002  0.2991
  410TMC3     C 6122   2.293   3.422  17.130  0.0952 -0.0057 -0.6305
  410TMC3     O 6123   2.337   3.332  17.199 -0.1717  0.6151  0.2643
  410TMC3     H 6124   2.543   3.474  17.204  0.9330  0.8269  0.0410
  410TMC3    H1 6125   2.243   3.568  16.919  0.2537  0.9815 -1.4021
  410TMC3    H2 6126   2.643   3.705  16.864  0.9477  0.9332  1.6768
  410TMC3    C7 6127   2.412   3.701  16.762 -0.2012  0.3172  0.1426
  410TMC3    C8 6128   2.736   3.564  17.093  0.2512 -0.4141 -0.8539
  410TMC3    O1 6129   2.310   3.653  16.718  0.0797  0.7923  0.0232
  410TMC3    O2 6130   2.807   3.656  17.135  0.2826 -0.4191 -0.3293
  411MPD2     C 6131   2.182   3.554  15.001 -0.9326  0.5230 -0.4079
  411MPD2    C1 6132   2.115   3.658  14.954 -0.2600 -0.3464 -0.0707
  411MPD2    C2 6133   1.976   3.645  14.937 -0.3092  0.6255  0.1106
  411MPD2    C3 6134   1.906   3.542  14.997 -0.4668  0.3600 -0.1267
  411MPD2    C4 6135   1.978   3.444  15.064  0.1407 -0.5227  0.3115
  411MPD2    C5 6136   2.116   3.447  15.066  0.3463  0.1676  0.0548
  411MPD2     H 6137   1.926   3.732  14.895  1.5851  1.6315 -0.0608
  411MPD2    H1 6138   1.921   3.364  15.109 -0.3522 -0.1599  0.3352
  411MPD2    H2 6139   2.291   3.556  15.010 -0.8341 -1.0736 -1.3180
  411MPD2    H3 6140   2.178   3.367  15.106  0.1846  0.7388  1.4684
  411MPD2     N 6141   1.763   3.549  14.997 -0.0926  0.4636 -0.2672
  411MPD2    H5 6142   1.720   3.491  15.069 -1.2798  0.3809 -1.0444
  411MPD2    N1 6143   2.178   3.779  14.913 -0.7769 -0.4958 -0.3157
  411MPD2    H7 6144   2.127   3.829  14.841  1.8244  2.9456  0.2261
  412TMC3    C1 6145   1.545   3.611  14.963  0.5107 -0.1621  0.1711
  412TMC3    C2 6146   1.467   3.723  14.927  0.4050  0.0647  0.5418
  412TMC3    C3 6147   1.360   3.705  14.846 -0.1755 -0.4802 -0.0610
  412TMC3    C4 6148   1.492   3.482  14.940 -0.2786  0.0468 -0.6027
  412TMC3    C5 6149   1.371   3.468  14.871  0.2403  0.0584 -0.4301
  412TMC3    C6 6150   1.301   3.580  14.824  0.2570 -0.4043 -0.6397
  412TMC3     C 6151   1.683   3.628  14.924  0.6307 -0.0754  0.3457
  412TMC3     O 6152   1.706   3.706  14.833  0.3153 -0.0725  0.8338
  412TMC3     H 6153   1.518   3.818  14.937  0.4677 -0.0911  1.6742
  412TMC3    H1 6154   1.560   3.399  14.951 -0.1815 -0.0197 -1.6935
  412TMC3    H2 6155   1.217   3.559  14.757  0.4244  2.6663 -1.7926
  412TMC3    C7 6156   1.388   3.368  14.772 -0.3464 -0.1637 -0.1585
  412TMC3    C8 6157   1.346   3.782  14.727 -0.2595 -0.1192 -0.5612
  412TMC3    O1 6158   1.368   3.251  14.804 -0.1110  0.3079 -0.3446
  412TMC3    O2 6159   1.231   3.779  14.685  0.2080 -0.2127  0.2861
  413MPD2     C 6160   3.748   2.264  15.781  0.4329  0.2795  0.4860
  413MPD2    C1 6161   3.717   2.296  15.653  0.3209 -0.1004  0.6037
  413MPD2    C2 6162   3.812   2.284  15.551 -0.3095  0.4608  0.3111
  413MPD2    C3 6163   3.943   2.256  15.583  0.7594 -0.1008  0.2122
  413MPD2    C4 6164   3.970   2.227  15.719 -0.0872 -0.7923 -0.0482
  413MPD2    C5 6165   3.872   2.221  15.817  0.1923 -0.7572 -0.4845
  413MPD2     H 6166   3.778   2.290  15.449  0.6477  0.4552 -0.0108
  413MPD2    H1 6167   4.069   2.198  15.753 -0.3231 -1.4405  0.0823
  413MPD2    H2 6168   3.678   2.250  15.862 -0.7973  0.4019 -0.5630
  413MPD2    H3 6169   3.898   2.185  15.916  2.1117  3.7249  0.6475
  413MPD2     N 6170   4.033   2.239  15.476 -0.1884  0.1615 -0.3290
  413MPD2    H5 6171   4.001   2.264  15.383 -2.3907 -1.5859 -0.0588
  413MPD2    N1 6172   3.581   2.305  15.608 -0.7791  0.4920  0.5426
  413MPD2    H7 6173   3.566   2.295  15.508 -1.1506  0.7366  0.5733
  414TMC3    C1 6174   4.211   2.133  15.368 -0.2251 -0.5589  0.3836
  414TMC3    C2 6175   4.278   2.016  15.384 -0.2888 -0.2874 -0.1939
  414TMC3    C3 6176   4.297   1.941  15.269 -0.1778 -0.4993  0.2213
  414TMC3    C4 6177   4.158   2.169  15.249 -0.1703  0.0089  0.5815
  414TMC3    C5 6178   4.175   2.094  15.143 -0.2671  0.1561 -0.3682
  414TMC3    C6 6179   4.239   1.977  15.150  0.1901 -0.3700  0.2875
  414TMC3     C 6180   4.157   2.182  15.492  0.6876  0.3270  0.0720
  414TMC3     O 6181   4.199   2.127  15.594  0.3511 -0.9141 -0.0261
  414TMC3     H 6182   4.328   1.989  15.476  0.5984  1.5917 -0.1223
  414TMC3    H1 6183   4.131   2.273  15.235  1.5760  0.6586  1.9849
  414TMC3    H2 6184   4.265   1.924  15.058  0.3331  0.7418 -0.3120
  414TMC3    C7 6185   4.231   2.175  15.033  0.3156  0.2638  0.1587
  414TMC3    C8 6186   4.410   1.844  15.256 -0.7730 -0.1277 -0.1430
  414TMC3    O1 6187   4.280   2.279  15.073 -0.0884 -0.1980  0.2299
  414TMC3    O2 6188   4.419   1.771  15.160  0.0546  0.5778  0.2486
  415TMC3    C1 6189   0.171   0.023  10.080 -0.1606  0.3665 -0.1492
  415TMC3    C2 6190   0.298   0.064  10.038 -0.0409 -0.0847  0.2926
  415TMC3    C3 6191   0.353   0.002   9.928  0.4652 -0.4293  0.2945
  415TMC3    C4 6192   0.099   4.653  10.012 -0.3086  0.2775 -0.0611
  415TMC3    C5 6193   0.147   4.602   9.892 -0.1521  0.0284  0.3147
  415TMC3    C6 6194   0.280   4.634   9.854 -0.3725 -0.2536  0.0468
  415TMC3     C 6195   0.164   0.001  10.220  0.4235  0.6416  0.0120
  415TMC3     O 6196   0.149   4.611  10.250 -0.0313  0.4442  0.5766
  415TMC3     H 6197   0.368   0.110  10.107 -0.6753 -1.1369  1.6410
  415TMC3    H1 6198   0.004   4.620  10.052 -0.9769  1.2359 -0.8358
  415TMC3    H2 6199   0.315   4.599   9.757 -1.0721 -0.4985 -0.1137
  415TMC3    C7 6200   0.089   4.484   9.837  0.4285  1.0935  0.1472
  415TMC3    C8 6201   0.487   0.025   9.893 -0.3018 -0.4500 -0.5752
  415TMC3    O1 6202   0.142   4.445   9.733  0.4928  0.2604  0.4751
  415TMC3    O2 6203   0.540   4.654   9.838  0.7002  0.3214 -0.0327
  416MPD2     C 6204   2.106   4.013  11.373  0.9954 -0.6284  0.0625
  416MPD2    C1 6205   2.039   3.918  11.442 -0.7670  0.3049  0.2223
  416MPD2    C2 6206   2.042   3.777  11.409  0.6343 -0.6882  0.1864
  416MPD2    C3 6207   2.100   3.741  11.293 -0.0791 -0.4714  0.6830
  416MPD2    C4 6208   2.172   3.835  11.215  0.4854  0.5672 -0.1399
  416MPD2    C5 6209   2.176   3.965  11.260  0.0847  0.5111 -0.7336
  416MPD2     H 6210   1.989   3.705  11.470  1.8419 -1.6988  0.0412
  416MPD2    H1 6211   2.229   3.806  11.127  0.5032 -1.7503  0.6387
  416MPD2    H2 6212   2.112   4.118  11.399  1.6498 -0.6281 -0.1019
  416MPD2    H3 6213   2.219   4.043  11.198 -0.6285  1.7684  0.3620
  416MPD2     N 6214   2.089   3.610  11.252  0.5320 -0.9783 -0.1064
  416MPD2    H5 6215   2.036   3.553  11.318  0.0895  1.0800  1.2958
  416MPD2    N1 6216   1.969   3.968  11.553 -0.4212  0.8441 -0.5767
  416MPD2    H7 6217   1.978   4.068  11.574  1.9001  0.9013 -1.7991
  417TMC3    C1 6218   1.829   3.996  11.730 -0.4869 -0.5952 -0.6210
  417TMC3    C2 6219   1.789   3.957  11.854 -0.0887 -0.4376  0.0022
  417TMC3    C3 6220   1.685   4.031  11.916  0.4533  0.4094 -0.1232
  417TMC3    C4 6221   1.768   4.091  11.663 -0.0328  0.9020  0.3568
  417TMC3    C5 6222   1.668   4.155  11.721 -0.7283 -0.3203 -0.4454
  417TMC3    C6 6223   1.625   4.140  11.851 -0.2692  0.0457  0.2285
  417TMC3     C 6224   1.908   3.901  11.651  0.7029 -0.2415 -0.1828
  417TMC3     O 6225   1.907   3.784  11.684 -0.2237 -0.1643 -0.3401
  417TMC3     H 6226   1.834   3.870  11.900  0.6220 -0.4891 -0.7889
  417TMC3    H1 6227   1.781   4.107  11.556  0.2164 -1.2564  0.0571
  417TMC3    H2 6228   1.545   4.197  11.896  1.7761  2.4950  0.7601
  417TMC3    C7 6229   1.577   4.214  11.638 -0.3116  0.6473  0.3017
  417TMC3    C8 6230   1.655   4.034  12.061 -0.2058  0.2236  0.0208
  417TMC3    O1 6231   1.625   4.278  11.545 -0.0922 -0.1778  0.2818
  417TMC3    O2 6232   1.561   4.097  12.104 -0.3987  0.4344 -0.0394
  418TMC3    C1 6233   4.702   0.580   0.765  0.4356 -0.4061 -0.5078
  418TMC3    C2 6234   4.626   0.631   0.661 -1.0048  0.5004 -0.0440
  418TMC3    C3 6235   4.519   0.561   0.626 -0.6382  0.1539 -0.1042
  418TMC3    C4 6236   4.659   0.470   0.833  0.0208  0.2315 -0.2498
  418TMC3    C5 6237   4.544   0.418   0.806 -0.0994 -0.5066  0.3055
  418TMC3    C6 6238   4.483   0.440   0.685 -0.0651 -0.8327 -0.0191
  418TMC3     C 6239   0.120   0.610   0.760  0.1731  0.0533 -0.1777
  418TMC3     O 6240   0.156   0.722   0.722  0.2775 -0.3928  0.7694
  418TMC3     H 6241   4.643   0.719   0.600  0.7921  1.0783  1.2918
  418TMC3    H1 6242   4.699   0.451   0.932 -1.5161  0.1374  0.3563
  418TMC3    H2 6243   4.387   0.393   0.667  0.4991 -1.5615 -1.1082
  418TMC3    C7 6244   4.513   0.303   0.869  0.3744 -0.0362 -0.3979
  418TMC3    C8 6245   4.507   0.549   0.484  0.0832 -0.0991  0.4719
  418TMC3    O1 6246   4.501   0.202   0.801 -0.2238 -0.0024  0.3715
  418TMC3    O2 6247   4.548   0.640   0.407 -0.3608  0.0874 -0.4954
  419MPD2     C 6248   3.739   3.520  12.299 -1.0316  0.3207  0.3728
  419MPD2    C1 6249   3.677   3.644  12.313  0.8428  0.1017 -0.1731
  419MPD2    C2 6250   3.675   3.706  12.439  0.2852 -0.1492 -0.7354
  419MPD2    C3 6251   3.727   3.640  12.552 -0.3703 -0.2775  0.3877
  419MPD2    C4 6252   3.768   3.512  12.540  0.4560  0.2401 -0.0852
  419MPD2    C5 6253   3.787   3.462  12.411  0.4387  0.1852 -0.4011
  419MPD2     H 6254   3.619   3.798  12.447  0.8567  0.0748  0.6146
  419MPD2    H1 6255   3.813   3.455  12.620  2.6222  0.0561 -1.4245
  419MPD2    H2 6256   3.766   3.481  12.201 -1.5016  0.0525  0.3469
  419MPD2    H3 6257   3.851   3.374  12.404 -1.5467 -1.5285  2.9589
  419MPD2     N 6258   3.707   3.687  12.679 -0.2121  0.1956  0.0795
  419MPD2    H5 6259   3.723   3.617  12.751  0.9173 -1.6648 -1.9726
  419MPD2    N1 6260   3.620   3.712  12.210  0.4692  0.1799  0.1505
  419MPD2    H7 6261   3.579   3.803  12.229  1.4671  0.7988 -0.7140
  420TMC3    C1 6262   3.676   3.844  12.843  0.0079  0.6561  0.3393
  420TMC3    C2 6263   3.695   3.973  12.887  0.0148 -0.3229  0.0853
  420TMC3    C3 6264   3.660   4.005  13.010 -0.2530  0.0499 -0.5831
  420TMC3    C4 6265   3.625   3.750  12.927 -0.1000  0.1162 -0.9038
  420TMC3    C5 6266   3.604   3.785  13.058 -0.4073 -0.1082  0.4666
  420TMC3    C6 6267   3.616   3.910  13.101  1.1553  0.1303  0.7474
  420TMC3     C 6268   3.713   3.816  12.710  0.0486 -0.0253  1.1457
  420TMC3     O 6269   3.704   3.912  12.632 -0.2848 -0.0076  0.4695
  420TMC3     H 6270   3.733   4.046  12.816 -1.2668 -1.6913 -1.9994
  420TMC3    H1 6271   3.602   3.647  12.901 -1.7183 -0.0623  1.2089
  420TMC3    H2 6272   3.576   3.934  13.199 -2.3488  0.5427 -0.7914
  420TMC3    C7 6273   3.522   3.702  13.144 -0.4457  0.3240 -0.0076
  420TMC3    C8 6274   3.611   4.138  13.050 -0.2565  0.3148 -0.4238
  420TMC3    O1 6275   3.574   3.606  13.200 -0.3441 -0.3112  0.4098
  420TMC3    O2 6276   3.586   4.164  13.165 -0.0175  0.3495 -0.5519
  421TMC3    C1 6277   0.337   0.872  13.756 -0.8368 -0.2354  0.2166
  421TMC3    C2 6278   0.335   0.964  13.855 -1.0285 -0.1667  0.1421
  421TMC3    C3 6279   0.390   0.940  13.982  0.4810 -0.2626  0.4182
  421TMC3    C4 6280   0.393   0.745  13.780 -0.0892 -1.1307 -0.5354
  421TMC3    C5 6281   0.438   0.718  13.907  0.6250  0.2802  0.3067
  421TMC3    C6 6282   0.439   0.813  14.009  0.3784 -0.3086  0.1058
  421TMC3     C 6283   0.304   0.913  13.622  0.6557 -0.7369 -0.6485
  421TMC3     O 6284   0.316   1.030  13.598  0.0753  0.0030 -0.2649
  421TMC3     H 6285   0.308   1.065  13.828  1.7726  0.9033  1.2995
  421TMC3    H1 6286   0.412   0.680  13.696 -1.8080 -0.5690 -1.3609
  421TMC3    H2 6287   0.498   0.794  14.098  1.2465 -2.3996 -0.9067
  421TMC3    C7 6288   0.543   0.617  13.907  0.6110 -0.6670 -0.7026
  421TMC3    C8 6289   0.448   1.056  14.051  0.3101 -0.2834 -0.3602
  421TMC3    O1 6290   0.600   0.592  13.800 -0.7414  0.2521 -0.0910
  421TMC3    O2 6291   0.537   1.044  14.132 -0.3662  0.9326 -0.1363
  422TMC3    C1 6292   2.475   2.090  12.855  0.2397  0.4498 -0.0788
  422TMC3    C2 6293   2.369   2.162  12.909  0.0892 -0.1292 -0.7269
  422TMC3    C3 6294   2.268   2.100  12.971 -0.3869  0.3721  0.4603
  422TMC3    C4 6295   2.479   1.951  12.857 -0.3430 -0.3610  0.3461
  422TMC3    C5 6296   2.376   1.886  12.921  0.4759 -0.2293 -0.4558
  422TMC3    C6 6297   2.262   1.961  12.964  1.3510 -0.1694 -0.2258
  422TMC3     C 6298   2.544   2.141  12.745  0.4436 -0.0423 -0.0144
  422TMC3     O 6299   2.666   2.115  12.745 -0.1366 -0.1308 -0.0102
  422TMC3     H 6300   2.354   2.265  12.879 -0.0273 -0.2245 -0.9896
  422TMC3    H1 6301   2.553   1.892  12.805  0.0125  0.9822 -0.6618
  422TMC3    H2 6302   2.190   1.901  13.019  1.3916  0.9672  1.0548
  422TMC3    C7 6303   2.348   1.742  12.882 -0.9974  0.2998  0.4817
  422TMC3    C8 6304   2.164   2.192  13.019  0.1840  0.1995  0.6307
  422TMC3    O1 6305   2.439   1.668  12.849 -0.0926  0.3688 -0.2750
  422TMC3    O2 6306   2.047   2.174  12.980  0.1594 -0.2172 -0.1875
  423MPD2     C 6307   3.526   2.845   0.377  0.2901  0.0469 -0.6413
  423MPD2    C1 6308   3.597   2.737   0.425 -0.1306  0.3802  0.3903
  423MPD2    C2 6309   3.696   2.680   0.343 -0.9029 -0.2966  0.6983
  423MPD2    C3 6310   3.728   2.736   0.216  0.1025 -0.4985  0.4187
  423MPD2    C4 6311   3.662   2.842   0.175 -0.9863  0.2501  0.0447
  423MPD2    C5 6312   3.563   2.892   0.253  0.2211 -0.3773  0.3340
  423MPD2     H 6313   3.747   2.592   0.382  0.1051 -0.4335 -0.9537
  423MPD2    H1 6314   3.688   2.903   0.089  1.8874 -0.8122  0.1482
  423MPD2    H2 6315   3.450   2.894   0.436 -2.7016 -2.0038 -2.7583
  423MPD2    H3 6316   3.521   2.981   0.207  2.3396 -0.5564 -1.9621
  423MPD2     N 6317   3.831   2.684   0.128 -0.3448 -0.1566  0.1718
  423MPD2    H5 6318   3.842   2.732   0.039  0.2788 -0.0516  0.3093
  423MPD2    N1 6319   3.573   2.664   0.544  0.3227  0.5187 -0.3105
  423MPD2    H7 6320   3.647   2.600   0.570 -0.6672  0.4275  2.2757
  424TMC3    C1 6321   3.495   2.648   0.761 -0.0919  0.3946  0.0747
  424TMC3    C2 6322   3.623   2.630   0.810  0.0888 -0.4280  0.3419
  424TMC3    C3 6323   3.629   2.611   0.949  0.1934 -0.1759  0.3757
  424TMC3    C4 6324   3.388   2.670   0.839  0.0688 -0.2716 -0.4036
  424TMC3    C5 6325   3.402   2.635   0.969 -0.3303  0.0980 -0.3323
  424TMC3    C6 6326   3.519   2.603   1.025  0.1399  0.1818 -0.2595
  424TMC3     C 6327   3.472   2.697   0.630  0.1425 -0.8508 -0.3637
  424TMC3     O 6328   3.368   2.763   0.610  0.2254  0.2215 -0.1141
  424TMC3     H 6329   3.699   2.588   0.745 -1.0992 -2.3171  0.2001
  424TMC3    H1 6330   3.287   2.685   0.803  1.1266 -0.4297 -3.4544
  424TMC3    H2 6331   3.531   2.599   1.133  1.5885  3.5739 -0.2808
  424TMC3    C7 6332   3.274   2.607   1.039  0.2531 -0.6208  0.2245
  424TMC3    C8 6333   3.746   2.537   1.002  0.0921 -0.0261 -0.3203
  424TMC3    O1 6334   3.169   2.613   0.975  0.4628  0.0611 -0.2288
  424TMC3    O2 6335   3.725   2.474   1.101 -0.5349  0.0036 -0.0940
  425MPD2     C 6336   2.943   2.380  17.153  0.2793  0.3352 -0.5116
  425MPD2    C1 6337   2.926   2.269  17.235 -0.5051  0.7018 -0.4034
  425MPD2    C2 6338   2.843   2.281  17.336  0.0777 -0.6130  0.0645
  425MPD2    C3 6339   2.778   2.402  17.373 -0.1826 -0.1592 -0.5499
  425MPD2    C4 6340   2.816   2.514  17.307 -0.7072 -0.2615  0.3062
  425MPD2    C5 6341   2.886   2.495  17.189  0.4792  0.0064  0.5240
  425MPD2     H 6342   2.818   2.195  17.397 -0.1384  1.6008  3.1560
  425MPD2    H1 6343   2.769   2.608  17.334  1.3143  0.4193  1.4734
  425MPD2    H2 6344   2.992   2.367  17.056  0.7011  0.1829 -0.2807
  425MPD2    H3 6345   2.910   2.585  17.134 -2.5481 -0.4049 -1.4802
  425MPD2     N 6346   2.689   2.396  17.484 -0.3726  0.2331 -0.5531
  425MPD2    H5 6347   2.679   2.306  17.529  1.3928  0.6141  0.5980
  425MPD2    N1 6348   2.992   2.144  17.210  1.0208 -0.8192  0.2695
  425MPD2    H7 6349   3.050   2.136  17.127  4.2165  1.5524  2.2584
  426TMC3    C1 6350   3.092   1.927  17.253  0.5196  0.0357 -0.5768
  426TMC3    C2 6351   3.095   1.889  17.122 -0.3733 -0.0566 -0.0221
  426TMC3    C3 6352   3.171   1.775  17.090  0.1709  0.1944  0.3084
  426TMC3    C4 6353   3.147   1.851  17.356  0.9976  0.4600 -0.2320
  426TMC3    C5 6354   3.220   1.743  17.321 -0.3870 -0.1649 -0.9210
  426TMC3    C6 6355   3.227   1.702  17.189 -0.4717 -0.9446 -0.8053
  426TMC3     C 6356   3.019   2.046  17.302 -0.8111  0.2826 -0.4490
  426TMC3     O 6357   3.001   2.051  17.428 -0.1450 -0.2191  0.9045
  426TMC3     H 6358   3.045   1.950  17.048 -1.4839 -0.1546  0.6593
  426TMC3    H1 6359   3.161   1.881  17.459  1.3771  0.3435 -0.2505
  426TMC3    H2 6360   3.271   1.604  17.171 -0.6547 -1.5593  2.0316
  426TMC3    C7 6361   3.219   1.638  17.412 -0.4090 -0.3248  0.1791
  426TMC3    C8 6362   3.147   1.711  16.961  0.6883 -0.6058 -0.5690
  426TMC3    O1 6363   3.296   1.544  17.392  0.3125  0.0521 -0.2323
  426TMC3    O2 6364   3.206   1.603  16.957 -0.1587 -0.1189  0.3657
  427MPD2     C 6365   1.747   4.053  14.786  0.2071 -0.4806  0.6112
  427MPD2    C1 6366   1.690   4.078  14.912  0.4747  0.4465  0.8477
  427MPD2    C2 6367   1.563   4.126  14.922  0.6114  0.0792  0.0449
  427MPD2    C3 6368   1.485   4.143  14.809  0.2636  0.1550 -0.4918
  427MPD2    C4 6369   1.534   4.111  14.686 -1.0786 -0.6356  1.0426
  427MPD2    C5 6370   1.667   4.066  14.678 -0.7205  0.0181 -0.2584
  427MPD2     H 6371   1.526   4.140  15.023  2.0008 -1.7638  0.8149
  427MPD2    H1 6372   1.482   4.105  14.591 -1.2143  0.6252  1.0444
  427MPD2    H2 6373   1.841   4.001  14.772 -0.0399 -0.4874 -0.9721
  427MPD2    H3 6374   1.707   4.028  14.584  3.0974 -0.3808  1.5321
  427MPD2     N 6375   1.349   4.166  14.824 -0.2070  0.0083 -0.1703
  427MPD2    H5 6376   1.311   4.162  14.918  0.9302 -3.4884  0.1099
  427MPD2    N1 6377   1.750   4.029  15.031  0.6800  0.5202  0.5101
  427MPD2    H7 6378   1.700   4.021  15.120 -1.0715 -0.9305 -0.5988
  428TMC3    C1 6379   1.900   3.917  15.167 -0.2634 -0.4213 -0.9063
  428TMC3    C2 6380   1.801   3.832  15.215 -0.4245 -0.6655 -0.8370
  428TMC3    C3 6381   1.821   3.772  15.340 -0.5484  0.7949  0.9590
  428TMC3    C4 6382   2.019   3.924  15.237 -0.3366  0.0086  0.2393
  428TMC3    C5 6383   2.038   3.853  15.349  0.3347  0.1219  0.5988
  428TMC3    C6 6384   1.940   3.783  15.404 -0.7006 -0.3020 -0.0164
  428TMC3     C 6385   1.877   3.981  15.043 -0.0264  0.0165  0.0383
  428TMC3     O 6386   1.970   4.011  14.973 -0.1058  0.4207 -0.1818
  428TMC3     H 6387   1.708   3.815  15.160 -1.3412 -1.6944  1.0182
  428TMC3    H1 6388   2.089   4.005  15.219 -0.4492  0.4460  1.8150
  428TMC3    H2 6389   1.948   3.736  15.501 -1.0449 -2.0557 -0.8405
  428TMC3    C7 6390   2.139   3.905  15.446  0.1635 -0.4705 -0.4481
  428TMC3    C8 6391   1.700   3.725  15.415  0.0617  0.3209 -0.1832
  428TMC3    O1 6392   2.086   3.928  15.555 -0.0831 -0.4864  0.6760
  428TMC3    O2 6393   1.592   3.770  15.381  0.0782 -0.1310 -0.0833
  429MPD2     C 6394   2.583   3.998   0.038 -0.3216  0.2662  0.2719
  429MPD2    C1 6395   2.698   3.928   0.002 -0.6631 -0.4905  0.5771
  429MPD2    C2 6396   2.797   3.998  17.643 -0.6207  0.5801 -0.6881
  429MPD2    C3 6397   2.788   4.132  17.623 -0.2869 -0.4759 -0.7626
  429MPD2    C4 6398   2.678   4.206  17.656 -0.3581  0.1358  0.3137
  429MPD2    C5 6399   2.576   4.136   0.012  0.1852  0.1684 -0.1141
  429MPD2     H 6400   2.882   3.942  17.605  0.2284  0.3682  1.5173
  429MPD2    H1 6401   2.663   4.313  17.650  0.2392  0.3202  2.3332
  429MPD2    H2 6402   2.495   3.943   0.069  0.4984 -0.8270  0.6505
  429MPD2    H3 6403   2.488   4.188   0.047  0.5685  2.1493 -2.1149
  429MPD2     N 6404   2.913   4.190  17.575  0.2898 -0.0385  0.0334
  429MPD2    H5 6405   2.995   4.133  17.558  0.7077  0.8447 -0.8820
  429MPD2    N1 6406   2.715   3.792   0.019  0.2721 -0.1125  0.3967
  429MPD2    H7 6407   2.795   3.756  17.665  0.0753 -0.5194  0.3754
  430TMC3    C1 6408   3.073   4.351  17.485  0.0206  0.7282 -0.2068
  430TMC3    C2 6409   3.098   4.485  17.450 -0.2145  0.7506  0.9805
  430TMC3    C3 6410   3.180   4.505  17.340  0.2016  0.3883  0.2489
  430TMC3    C4 6411   3.147   4.248  17.429 -1.3464  0.0373 -0.2818
  430TMC3    C5 6412   3.229   4.283  17.330  0.2584  0.4289 -0.4799
  430TMC3    C6 6413   3.248   4.408  17.282 -0.0099  0.3262 -0.1154
  430TMC3     C 6414   2.943   4.321  17.548  0.4300 -0.6861  0.1869
  430TMC3     O 6415   2.874   4.421  17.566  0.2851  0.0677  0.6013
  430TMC3     H 6416   3.041   4.565  17.498 -0.1665  1.1756  0.3304
  430TMC3    H1 6417   3.116   4.145  17.446 -0.9576 -0.0373 -0.0031
  430TMC3    H2 6418   3.311   4.439  17.199 -0.3785 -0.2788 -0.6184
  430TMC3    C7 6419   3.261   4.166  17.242 -0.1608  0.2017 -0.0567
  430TMC3    C8 6420   3.128   4.598  17.241 -0.3153 -0.7900  1.2696
  430TMC3    O1 6421   3.225   4.060  17.278  0.3955  0.3303  0.1628
  430TMC3    O2 6422   3.133   4.552  17.127  0.1429  0.1929 -0.8818
  431MPD2     C 6423   3.862   4.418  12.349 -0.1425 -1.1283  0.1767
  431MPD2    C1 6424   3.898   4.415  12.213 -0.3672 -0.1771  0.8219
  431MPD2    C2 6425   3.827   4.345  12.121  0.1274 -0.0032 -0.2847
  431MPD2    C3 6426   3.721   4.268  12.168  0.4112  0.1851 -0.1757
  431MPD2    C4 6427   3.686   4.273  12.300 -0.4809 -0.4994 -0.8528
  431MPD2    C5 6428   3.751   4.347  12.389 -0.2462 -0.5483 -0.3465
  431MPD2     H 6429   3.855   4.340  12.017 -1.5027 -3.1494 -0.5717
  431MPD2    H1 6430   3.599   4.216  12.330 -2.2575  1.5202 -2.1288
  431MPD2    H2 6431   3.913   4.468  12.430  1.2560 -1.5461 -0.4417
  431MPD2    H3 6432   3.717   4.351  12.492 -0.8304  0.3296 -0.5779
  431MPD2     N 6433   3.644   4.180  12.095 -0.2817 -0.1392  0.6092
  431MPD2    H5 6434   3.575   4.123  12.144  0.5706 -1.6990  0.0065
  431MPD2    N1 6435   4.013   4.485  12.177 -0.3565  0.0692 -0.1442
  431MPD2    H7 6436   4.056   4.537  12.252  0.7454 -1.9357  0.6353
  432TMC3    C1 6437   3.614   4.021  11.928 -0.1231 -0.2542 -0.2984
  432TMC3    C2 6438   3.607   3.981  11.797  0.1562  0.0747 -0.4183
  432TMC3    C3 6439   3.607   3.855  11.761  0.0362 -0.3422  0.5473
  432TMC3    C4 6440   3.618   3.923  12.024  0.8989  0.0079 -0.5503
  432TMC3    C5 6441   3.612   3.784  11.987 -0.2492  0.0108 -0.0226
  432TMC3    C6 6442   3.613   3.751  11.852 -0.3356  0.8233  0.6193
  432TMC3     C 6443   3.666   4.149  11.965  0.2626 -0.0895  0.0156
  432TMC3     O 6444   3.723   4.214  11.876 -1.3584  0.3450 -0.0548
  432TMC3     H 6445   3.603   4.059  11.722 -0.5945 -0.0281 -0.4900
  432TMC3    H1 6446   3.642   3.943  12.128 -0.1183 -0.5241 -0.2115
  432TMC3    H2 6447   3.617   3.648  11.819  0.0473  0.7039  1.0491
  432TMC3    C7 6448   3.624   3.676  12.080 -0.0443 -0.2940 -0.6696
  432TMC3    C8 6449   3.673   3.813  11.641 -0.4831 -0.0934  0.4745
  432TMC3    O1 6450   3.659   3.569  12.029 -0.2495  0.3595 -1.0421
  432TMC3    O2 6451   3.733   3.709  11.645  0.4891 -0.3695 -0.0516
  433MPD2     C 6452   2.492   2.953  10.736  0.1601  1.1488  0.5447
  433MPD2    C1 6453   2.429   2.888  10.842  0.2128  0.6502 -1.2238
  433MPD2    C2 6454   2.489   2.879  10.965 -0.6168 -0.5191 -0.5662
  433MPD2    C3 6455   2.603   2.951  10.990 -0.3251 -0.5014  0.0561
  433MPD2    C4 6456   2.665   3.014  10.884 -0.3855  0.0178 -0.0812
  433MPD2    C5 6457   2.607   3.020  10.762 -0.0900  0.4037 -0.4578
  433MPD2     H 6458   2.437   2.825  11.043 -1.6229  1.2905  0.0216
  433MPD2    H1 6459   2.767   3.046  10.899 -0.1129  0.2692 -2.4423
  433MPD2    H2 6460   2.455   2.944  10.634 -0.7758  0.7444  0.9165
  433MPD2    H3 6461   2.665   3.060  10.680 -1.5572 -0.0704 -1.7212
  433MPD2     N 6462   2.658   2.939  11.122 -0.6462 -0.4675 -0.0547
  433MPD2    H5 6463   2.616   2.875  11.188 -1.0827  0.7931  0.8921
  433MPD2    N1 6464   2.308   2.826  10.817  0.7236 -0.8757 -0.3672
  433MPD2    H7 6465   2.283   2.809  10.720  1.8085 -0.2425 -0.7611
  434TMC3    C1 6466   2.146   2.696  10.901 -0.6699  0.3553  0.8555
  434TMC3    C2 6467   2.173   2.605  10.990 -0.7514  0.1398  0.5644
  434TMC3    C3 6468   2.123   2.481  10.960  0.6222 -0.4382  0.0878
  434TMC3    C4 6469   2.082   2.690  10.782  0.0173  0.1668 -0.2795
  434TMC3    C5 6470   2.032   2.567  10.754 -0.1105  0.4456 -0.6418
  434TMC3    C6 6471   2.050   2.463  10.846  0.0050 -0.5436  0.5961
  434TMC3     C 6472   2.216   2.816  10.923  0.0607  0.0003  0.5503
  434TMC3     O 6473   2.222   2.860  11.034 -0.4399 -0.0108 -0.2852
  434TMC3     H 6474   2.227   2.625  11.082 -0.3887 -0.7599  0.5489
  434TMC3    H1 6475   2.081   2.767  10.706 -0.6727 -0.7498 -1.1931
  434TMC3    H2 6476   2.010   2.365  10.822  2.7245 -2.0801  2.3705
  434TMC3    C7 6477   1.997   2.538  10.618 -0.1778 -0.5928 -0.1841
  434TMC3    C8 6478   2.196   2.377  11.023 -0.1030 -0.0314 -1.0038
  434TMC3    O1 6479   2.011   2.620  10.530 -0.1043  0.3330  0.4400
  434TMC3    O2 6480   2.309   2.406  11.060  0.3499 -0.0720  0.0359
  435MPD2     C 6481   4.510   3.241  15.599  0.2731  0.1571 -0.6753
  435MPD2    C1 6482   4.465   3.163  15.698 -0.1057 -0.0589 -0.4441
  435MPD2    C2 6483   4.551   3.068  15.753 -0.4062  0.7229  0.0349
  435MPD2    C3 6484   4.685   3.066  15.720 -0.5122 -0.3431 -0.3942
  435MPD2    C4 6485   0.006   3.139  15.614  0.0179  0.0239  0.5955
  435MPD2    C5 6486   4.643   3.237  15.560 -0.5079  0.0991 -0.2293
  435MPD2     H 6487   4.525   3.001  15.834  1.7331  2.1506  1.8801
  435MPD2    H1 6488   0.112   3.147  15.592 -0.0047 -0.7807  0.1911
  435MPD2    H2 6489   4.450   3.317  15.551  1.5254  1.3901 -0.2731
  435MPD2    H3 6490   4.686   3.315  15.498  2.4511 -1.3914 -0.0605
  435MPD2     N 6491   0.045   2.966  15.779 -0.7814  0.6358  0.4152
  435MPD2    H5 6492   0.009   2.914  15.858  1.5931  1.3701  1.9854
  435MPD2    N1 6493   4.331   3.173  15.737 -0.1951 -0.1068  0.0597
  435MPD2    H7 6494   4.305   3.117  15.817  0.3945 -1.9842 -1.0618
  436TMC3    C1 6495   3.995   3.131  15.942 -0.0462  0.5958  0.5729
  436TMC3    C2 6496   4.117   3.170  15.892  0.3738 -0.5241 -0.1373
  436TMC3    C3 6497   4.116   3.248  15.771 -0.3811  0.0574  0.2907
  436TMC3    C4 6498   3.875   3.164  15.888  0.2398  0.1045 -0.7212
  436TMC3    C5 6499   3.882   3.233  15.769 -0.1263 -0.0830  0.3754
  436TMC3    C6 6500   3.995   3.282  15.711  0.4390  0.5498  0.5858
  436TMC3     C 6501   3.994   3.081  16.072 -0.0485  0.3035  0.3340
  436TMC3     O 6502   4.104   3.041  16.105 -0.1356 -0.8504  0.0305
  436TMC3     H 6503   4.209   3.149  15.947  0.3269 -0.3367  0.0099
  436TMC3    H1 6504   3.776   3.137  15.923  0.0662  2.9888  0.9847
  436TMC3    H2 6505   3.998   3.323  15.611 -0.5255 -1.5178 -0.2821
  436TMC3    C7 6506   3.759   3.247  15.690  0.3229  0.2269  0.5471
  436TMC3    C8 6507   4.232   3.257  15.687  0.1222 -0.8633  0.2012
  436TMC3    O1 6508   3.668   3.170  15.716 -0.4967  0.6760 -0.4272
  436TMC3    O2 6509   4.241   3.345  15.603  0.1129  0.4270 -0.6402
  437TMC3    C1 6510   3.659   0.089  12.284 -0.2252 -0.7173  0.1319
  437TMC3    C2 6511   3.556   0.144  12.220  0.5936 -0.1697  0.0646
  437TMC3    C3 6512   3.565   0.146  12.084 -0.1200 -1.0365  0.1190
  437TMC3    C4 6513   3.772   0.038  12.218  0.5382  0.4815 -0.0107
  437TMC3    C5 6514   3.766   0.039  12.080 -0.2166 -0.3284 -0.3641
  437TMC3    C6 6515   3.662   0.098  12.007  0.5741  0.3181 -0.4510
  437TMC3     C 6516   3.673   0.095  12.429  0.2360 -0.2392  0.0792
  437TMC3     O 6517   3.754   0.024  12.492  0.0932 -0.3688  0.5400
  437TMC3     H 6518   3.468   0.181  12.272 -0.9789 -0.5013 -2.3206
  437TMC3    H1 6519   3.835   4.700  12.281 -1.9247 -2.2124 -0.1474
  437TMC3    H2 6520   3.653   0.079  11.901 -0.5934 -0.4832 -0.2013
  437TMC3    C7 6521   3.892   0.070  12.021 -0.0289  0.1191  0.2145
  437TMC3    C8 6522   3.462   0.225  12.018  0.1550  0.2949 -0.0531
  437TMC3    O1 6523   3.898   0.099  11.901  0.2285  0.6342  0.6494
  437TMC3    O2 6524   3.348   0.181  12.029 -0.0316  0.2680  0.0315
  438MPD2     C 6525   0.853   0.336  16.933  0.3863 -0.5931  0.7580
  438MPD2    C1 6526   0.768   0.413  17.005  0.2809 -0.2216  0.0281
  438MPD2    C2 6527   0.754   0.389  17.139 -0.3586  0.1804  0.0661
  438MPD2    C3 6528   0.825   0.286  17.204 -0.6289 -0.4634  0.2674
  438MPD2    C4 6529   0.904   0.210  17.126 -0.3097  0.5096  0.1766
  438MPD2    C5 6530   0.907   0.227  16.994 -0.0259  0.0278  0.1052
  438MPD2     H 6531   0.685   0.455  17.190 -0.1476  0.6139 -0.2187
  438MPD2    H1 6532   0.957   0.131  17.178 -1.0693 -0.8102 -1.0617
  438MPD2    H2 6533   0.874   0.353  16.828  2.7264 -0.0682  1.3314
  438MPD2    H3 6534   0.970   0.153  16.945  1.2464  0.4988  1.0075
  438MPD2     N 6535   0.816   0.256  17.337 -0.5327  0.7725 -0.1147
  438MPD2    H5 6536   0.871   0.173  17.361  0.5647  1.6062  0.2634
  438MPD2    N1 6537   0.696   0.517  16.946 -0.4292  0.0374  0.0054
  438MPD2    H7 6538   0.637   0.581  16.998  0.7613  0.4184  0.8735
  439TMC3    C1 6539   0.669   0.703  16.794  0.3583  0.8953 -0.2556
  439TMC3    C2 6540   0.671   0.746  16.668 -0.0711  1.1156 -0.1603
  439TMC3    C3 6541   0.728   0.866  16.629  0.1884 -0.4755  0.5269
  439TMC3    C4 6542   0.710   0.785  16.893 -0.1381 -0.0082  0.0445
  439TMC3    C5 6543   0.770   0.901  16.860  0.4097  0.4880  0.0584
  439TMC3    C6 6544   0.768   0.952  16.730  0.6345  0.4505 -1.1086
  439TMC3     C 6545   0.708   0.567  16.818  0.3643  0.7718 -0.0115
  439TMC3     O 6546   0.753   0.506  16.720  0.0658  0.5491 -0.0301
  439TMC3     H 6547   0.662   0.679  16.583 -3.1540  0.7335  0.4612
  439TMC3    H1 6548   0.716   0.755  16.997  0.1943  1.7280  0.5212
  439TMC3    H2 6549   0.822   1.041  16.699  0.3650  1.1575  0.4707
  439TMC3    C7 6550   0.890   0.940  16.935  0.1062  0.0724  0.6941
  439TMC3    C8 6551   0.842   0.841  16.543 -0.6935  0.2127  0.0674
  439TMC3    O1 6552   0.890   0.935  17.057  0.2388  0.1310  0.1539
  439TMC3    O2 6553   0.946   0.813  16.604  0.2267  0.6037 -0.3851
  440MPD2     C 6554   4.317   1.787  14.756 -0.2184  0.1137 -0.1569
  440MPD2    C1 6555   4.303   1.682  14.847  0.7810  0.4514  0.0001
  440MPD2    C2 6556   4.405   1.590  14.861  0.1841 -0.2384  0.5078
  440MPD2    C3 6557   4.524   1.596  14.785  0.2852 -0.2073  0.5922
  440MPD2    C4 6558   4.533   1.694  14.690  0.2908  0.5523  0.0595
  440MPD2    C5 6559   4.440   1.802  14.682 -0.1041  0.1946 -0.3887
  440MPD2     H 6560   4.375   1.513  14.931 -2.2331  0.8892  0.7262
  440MPD2    H1 6561   4.621   1.698  14.627 -0.0862  1.2251 -0.4218
  440MPD2    H2 6562   4.252   1.873  14.749 -1.9502 -1.1010  1.1649
  440MPD2    H3 6563   4.457   1.893  14.626  0.1802  1.0293  1.0586
  440MPD2     N 6564   4.631   1.507  14.805  0.0094  0.2382  0.3938
  440MPD2    H5 6565   4.710   1.524  14.744  0.8538 -1.7735  0.9325
  440MPD2    N1 6566   4.198   1.671  14.936 -1.2644  0.6637  0.2423
  440MPD2    H7 6567   4.209   1.602  15.010  1.2529  2.1542  1.2532
  441TMC3    C1 6568   0.054   1.357  14.908  0.5717  0.2778 -0.4912
  441TMC3    C2 6569   0.144   1.448  14.954 -0.1114  0.0718 -0.0255
  441TMC3    C3 6570   0.239   1.409  15.050 -0.4426  0.6701 -0.1439
  441TMC3    C4 6571   0.052   1.230  14.955 -0.3339  0.3815  0.2003
  441TMC3    C5 6572   0.142   1.199  15.058  0.3531 -0.3465  0.2335
  441TMC3    C6 6573   0.248   1.279  15.093 -0.1771 -0.1948 -0.5016
  441TMC3     C 6574   4.644   1.410  14.898  0.2943 -0.7137 -0.6956
  441TMC3     O 6575   4.559   1.371  14.980 -0.0754 -0.0489 -0.2514
  441TMC3     H 6576   0.120   1.553  14.945 -0.1104  0.2975  2.4601
  441TMC3    H1 6577   4.687   1.169  14.937 -0.9807  1.0236  1.2051
  441TMC3    H2 6578   0.320   1.257  15.171 -2.9003 -1.8507  1.5785
  441TMC3    C7 6579   0.112   1.082  15.144  1.0527 -0.3946 -0.3121
  441TMC3    C8 6580   0.241   1.495  15.165 -0.6523  0.6613 -0.0950
  441TMC3    O1 6581   0.001   1.035  15.141  0.5691  0.0277 -0.0545
  441TMC3    O2 6582   0.343   1.499  15.234 -0.1808 -0.3916  0.3961
  442MPD2     C 6583   2.810   1.413  16.800 -0.2793  0.2013 -0.6023
  442MPD2    C1 6584   2.736   1.486  16.713 -0.5920  0.5500 -0.4699
  442MPD2    C2 6585   2.699   1.429  16.593 -0.1427  0.0909 -0.7143
  442MPD2    C3 6586   2.735   1.296  16.564  0.9786  0.6407  0.2763
  442MPD2    C4 6587   2.810   1.221  16.654 -0.4501  0.0466  0.5642
  442MPD2    C5 6588   2.854   1.284  16.768 -0.6578  0.2691 -0.4667
  442MPD2     H 6589   2.651   1.482  16.512  0.8814 -0.5799 -1.7720
  442MPD2    H1 6590   2.839   1.120  16.630  2.2649  0.0874  3.7435
  442MPD2    H2 6591   2.848   1.450  16.894 -1.3461 -0.9594  0.2861
  442MPD2    H3 6592   2.920   1.238  16.841  1.3684  0.1453 -2.4032
  442MPD2     N 6593   2.703   1.229  16.439  0.1232  0.3456 -0.0641
  442MPD2    H5 6594   2.762   1.148  16.420 -0.8048  0.2325 -2.4877
  442MPD2    N1 6595   2.699   1.619  16.738 -0.5333 -0.5575 -0.3277
  442MPD2    H7 6596   2.637   1.660  16.669 -1.2290  1.3186  1.4314
  443TMC3    C1 6597   2.632   1.808  16.850  0.1037  0.3122 -0.5466
  443TMC3    C2 6598   2.615   1.884  16.742  0.1711 -0.1300  0.6474
  443TMC3    C3 6599   2.501   1.961  16.741 -0.1052 -0.0982  0.8072
  443TMC3    C4 6600   2.555   1.807  16.961  0.3212 -0.4136  0.0082
  443TMC3    C5 6601   2.446   1.884  16.960 -0.0162  0.4212  0.6350
  443TMC3    C6 6602   2.418   1.961  16.850 -0.7813 -0.4064  0.8003
  443TMC3     C 6603   2.723   1.694  16.848  0.7304  0.3959 -0.2206
  443TMC3     O 6604   2.762   1.659  16.954 -0.2133 -0.0443  0.0396
  443TMC3     H 6605   2.669   1.877  16.648 -1.4254  0.6885 -0.3394
  443TMC3    H1 6606   2.567   1.730  17.037 -2.9215  1.6195  2.5565
  443TMC3    H2 6607   2.328   2.021  16.842  0.3593  1.5659  2.6636
  443TMC3    C7 6608   2.338   1.861  17.052 -0.1362 -0.1177  0.8873
  443TMC3    C8 6609   2.461   2.037  16.626  0.0431 -0.0262 -0.1276
  443TMC3    O1 6610   2.225   1.861  17.002 -0.1512  0.2342  0.2233
  443TMC3    O2 6611   2.546   2.067  16.543 -0.1252 -0.0976  0.9240
  444MPD2     C 6612   2.949   1.423  17.279  0.0286  0.4762  0.6768
  444MPD2    C1 6613   2.844   1.331  17.282 -0.3107  0.3828  0.4763
  444MPD2    C2 6614   2.852   1.219  17.199  0.1038  0.3971 -0.9221
  444MPD2    C3 6615   2.963   1.208  17.118 -0.4941  0.5227  0.2187
  444MPD2    C4 6616   3.070   1.286  17.131  0.2955 -0.8393 -0.1154
  444MPD2    C5 6617   3.063   1.391  17.217 -0.3184 -0.4297 -0.5240
  444MPD2     H 6618   2.780   1.138  17.203 -1.0795  1.4178 -1.7507
  444MPD2    H1 6619   3.164   1.259  17.084  0.1873  0.6613 -1.2108
  444MPD2    H2 6620   2.946   1.518  17.332  0.9202 -0.3109  2.1318
  444MPD2    H3 6621   3.154   1.448  17.236 -1.0481  0.4924  0.2153
  444MPD2     N 6622   2.977   1.098  17.031  0.4538 -0.0522  0.1602
  444MPD2    H5 6623   3.067   1.089  16.986  0.9413 -0.4911  1.2116
  444MPD2    N1 6624   2.732   1.334  17.368 -0.3426 -0.7887  0.0047
  444MPD2    H7 6625   2.664   1.260  17.356  0.0496 -1.2614  0.7119
  445TMC3    C1 6626   2.933   0.913  16.901  0.6432 -0.0559 -0.4716
  445TMC3    C2 6627   2.844   0.846  16.822  0.0282 -0.5284 -0.2764
  445TMC3    C3 6628   2.893   0.773  16.716  0.0992  0.3354  0.4719
  445TMC3    C4 6629   3.070   0.883  16.897  0.3688  0.0984 -0.5940
  445TMC3    C5 6630   3.112   0.816  16.790 -0.2931 -0.0567 -0.5769
  445TMC3    C6 6631   3.024   0.754  16.703  0.4591  0.0046 -0.1397
  445TMC3     C 6632   2.885   1.000  17.003  0.0623  0.4948 -0.4979
  445TMC3     O 6633   2.768   0.987  17.031  0.6587  0.3244  0.0956
  445TMC3     H 6634   2.736   0.855  16.831  0.1269 -0.7281  1.1654
  445TMC3    H1 6635   3.142   0.916  16.971 -1.2354  1.5663  0.3019
  445TMC3    H2 6636   3.062   0.704  16.615 -1.1385 -2.6621  0.7019
  445TMC3    C7 6637   3.254   0.786  16.763 -0.1928 -0.4940 -0.3879
  445TMC3    C8 6638   2.797   0.700  16.642  0.7236 -0.3045  0.0929
  445TMC3    O1 6639   3.286   0.770  16.641 -0.4288 -0.3287 -0.4046
  445TMC3    O2 6640   2.830   0.589  16.603 -0.1840 -0.6093 -0.4681
  446MPD2     C 6641   2.213   2.232  11.592 -0.0021 -0.4343  0.1681
  446MPD2    C1 6642   2.163   2.279  11.467  0.7136  1.0267  0.1090
  446MPD2    C2 6643   2.246   2.358  11.389  0.5307 -0.2299 -0.5686
  446MPD2    C3 6644   2.380   2.363  11.414 -0.3540 -0.2823 -0.2268
  446MPD2    C4 6645   2.426   2.312  11.531  0.3235 -0.2038  0.6117
  446MPD2    C5 6646   2.343   2.246  11.616  0.2893 -0.1807  0.0791
  446MPD2     H 6647   2.204   2.398  11.298  0.3658 -0.8587 -0.7739
  446MPD2    H1 6648   2.530   2.332  11.556  0.2336  1.7682 -0.5806
  446MPD2    H2 6649   2.154   2.174  11.661  0.9866  1.1087  2.3059
  446MPD2    H3 6650   2.384   2.205  11.707  0.8106  1.9022  0.7779
  446MPD2     N 6651   2.463   2.425  11.315  0.3674 -0.3783  0.0839
  446MPD2    H5 6652   2.419   2.474  11.239  0.1251 -1.3745 -0.4095
  446MPD2    N1 6653   2.037   2.260  11.422  0.1587 -0.2854 -0.3526
  446MPD2    H7 6654   2.033   2.278  11.322  2.3008 -2.8631 -0.9091
  447TMC3    C1 6655   2.660   2.461  11.192  0.3846  0.1001 -0.6753
  447TMC3    C2 6656   2.587   2.512  11.087 -0.0099  0.6759 -0.8573
  447TMC3    C3 6657   2.670   2.534  10.977 -0.0690  0.4713  0.3252
  447TMC3    C4 6658   2.800   2.450  11.199  0.2095  0.1322  0.1799
  447TMC3    C5 6659   2.876   2.486  11.092  0.8531 -0.2794 -0.2553
  447TMC3    C6 6660   2.808   2.510  10.973 -0.1500 -0.4300 -0.9342
  447TMC3     C 6661   2.596   2.394  11.302 -0.2652 -0.2293 -0.2537
  447TMC3     O 6662   2.657   2.307  11.359  0.1388 -0.5910 -0.4305
  447TMC3     H 6663   2.480   2.529  11.090 -0.2146 -0.4293 -1.5447
  447TMC3    H1 6664   2.840   2.403  11.288 -1.5719 -1.8802 -0.0774
  447TMC3    H2 6665   2.872   2.519  10.887  2.9303  1.1941  1.5412
  447TMC3    C7 6666   3.026   2.457  11.099  0.6122  0.1307  0.6016
  447TMC3    C8 6667   2.614   2.542  10.846 -0.0326 -0.6546 -0.2652
  447TMC3    O1 6668   3.087   2.434  10.994 -0.4704 -0.0003 -0.1901
  447TMC3    O2 6669   2.682   2.581  10.753 -0.2351  0.8371  0.1743
  448TMC3    C1 6670   1.803   2.334  16.603 -0.0343 -0.1849 -0.2210
  448TMC3    C2 6671   1.664   2.342  16.590 -0.6841  0.4877  0.4357
  448TMC3    C3 6672   1.580   2.303  16.697  0.2570  0.6254  0.1797
  448TMC3    C4 6673   1.863   2.270  16.712 -0.9780 -0.2617  0.3092
  448TMC3    C5 6674   1.778   2.240  16.810  0.1267 -0.7147  0.1676
  448TMC3    C6 6675   1.643   2.252  16.806 -0.2837 -0.1824 -0.3290
  448TMC3     C 6676   1.880   2.394  16.498  0.8437  0.9829  0.2875
  448TMC3     O 6677   1.824   2.417  16.397 -0.3480 -0.9525  0.8093
  448TMC3     H 6678   1.624   2.378  16.497  3.5703 -4.2172 -3.2360
  448TMC3    H1 6679   1.970   2.250  16.715 -0.6835  0.9592 -2.0956
  448TMC3    H2 6680   1.574   2.218  16.883  0.5511 -1.4295 -0.1418
  448TMC3    C7 6681   1.848   2.184  16.931 -0.6198 -0.0088 -0.0980
  448TMC3    C8 6682   1.441   2.276  16.680 -0.3007  0.6158 -0.6859
  448TMC3    O1 6683   1.963   2.143  16.912 -0.2698 -0.2742 -0.3115
  448TMC3    O2 6684   1.366   2.282  16.776  0.0530  0.8433  0.2319
  449MPD2     C 6685   2.666   1.309  13.997  0.3818 -0.3725  1.0579
  449MPD2    C1 6686   2.606   1.228  13.900 -0.2211  0.7753  0.2628
  449MPD2    C2 6687   2.542   1.112  13.940  0.7108 -0.3146 -0.1970
  449MPD2    C3 6688   2.543   1.066  14.068 -0.7966 -0.0632  0.2813
  449MPD2    C4 6689   2.612   1.142  14.164  0.6746  0.1931  0.3141
  449MPD2    C5 6690   2.668   1.262  14.127 -0.5856  0.4425  0.2590
  449MPD2     H 6691   2.491   1.054  13.864  0.6696  1.6116 -1.6226
  449MPD2    H1 6692   2.602   1.118  14.269  2.5660 -0.4058  0.3469
  449MPD2    H2 6693   2.715   1.401  13.968 -0.2921 -0.5305 -0.5843
  449MPD2    H3 6694   2.700   1.334  14.201  0.4897 -0.1857  0.4074
  449MPD2     N 6695   2.478   0.938  14.086  0.3073 -0.4701 -0.4271
  449MPD2    H5 6696   2.423   0.897  14.012 -2.2358  2.1805  0.0009
  449MPD2    N1 6697   2.590   1.253  13.759 -0.1348 -0.6269  0.0953
  449MPD2    H7 6698   2.566   1.174  13.699  0.6244  0.4482 -1.6079
  450TMC3    C1 6699   2.620   1.318  13.547 -0.5454 -0.3622  0.3103
  450TMC3    C2 6700   2.732   1.336  13.474 -0.1104 -0.2907 -0.6401
  450TMC3    C3 6701   2.751   1.246  13.377  0.1840  0.2832  0.0567
  450TMC3    C4 6702   2.526   1.217  13.517  1.3684  0.2068  0.5351
  450TMC3    C5 6703   2.544   1.143  13.402 -0.4925 -0.2063 -0.0996
  450TMC3    C6 6704   2.659   1.153  13.336 -0.1429  0.1112 -0.8221
  450TMC3     C 6705   2.631   1.357  13.687  0.4604 -0.0286  0.2727
  450TMC3     O 6706   2.677   1.465  13.728 -0.0941  0.0103  0.3608
  450TMC3     H 6707   2.793   1.424  13.491 -0.0493 -0.4807  0.1607
  450TMC3    H1 6708   2.435   1.203  13.574  0.1706 -1.0757 -1.7038
  450TMC3    H2 6709   2.702   1.084  13.264  1.0842 -1.1108  1.0490
  450TMC3    C7 6710   2.496   1.009  13.419  0.9331 -0.2800 -0.2868
  450TMC3    C8 6711   2.863   1.272  13.290  0.1763 -0.1493 -0.0774
  450TMC3    O1 6712   2.564   0.935  13.489 -0.1765 -0.3152 -0.0438
  450TMC3    O2 6713   2.895   1.393  13.282 -0.3179  0.2307 -0.0059
  451MPD2     C 6714   3.921   4.225   1.621  0.5038 -0.6690  0.5413
  451MPD2    C1 6715   3.798   4.161   1.606  0.7505  0.3490  0.2650
  451MPD2    C2 6716   3.790   4.045   1.529 -0.3772 -0.1680  0.8156
  451MPD2    C3 6717   3.902   3.983   1.475  0.0615 -0.3693 -0.3693
  451MPD2    C4 6718   4.023   4.030   1.525 -0.0034 -0.2965 -0.2529
  451MPD2    C5 6719   4.031   4.152   1.582 -0.4716 -0.3320  0.3474
  451MPD2     H 6720   3.694   4.002   1.502  0.0970 -1.3219  0.9763
  451MPD2    H1 6721   4.111   3.977   1.491  0.0261 -0.1504 -0.4083
  451MPD2    H2 6722   3.932   4.323   1.668 -0.1527 -0.3937  0.1268
  451MPD2    H3 6723   4.124   4.199   1.613 -0.2067 -0.2811 -0.5318
  451MPD2     N 6724   3.888   3.868   1.394 -0.3174 -0.4803  0.5984
  451MPD2    H5 6725   3.975   3.817   1.381 -0.2751 -0.9292  2.6122
  451MPD2    N1 6726   3.687   4.233   1.660  0.5646  0.6265 -0.2443
  451MPD2    H7 6727   3.690   4.325   1.703  0.5861  1.4224 -1.9746
  452TMC3    C1 6728   3.798   3.708   1.259 -0.2264  1.1027  0.0752
  452TMC3    C2 6729   3.858   3.603   1.326 -0.6442 -0.3251 -0.4107
  452TMC3    C3 6730   3.853   3.482   1.266 -0.4505 -0.7141  0.7074
  452TMC3    C4 6731   3.750   3.686   1.133  0.2558  0.2431 -0.1919
  452TMC3    C5 6732   3.748   3.563   1.078 -0.3378  0.8476 -0.3787
  452TMC3    C6 6733   3.792   3.452   1.143  0.3728  0.0243  0.3090
  452TMC3     C 6734   3.775   3.830   1.328  0.1805  0.2214  0.1495
  452TMC3     O 6735   3.672   3.884   1.304  0.2262  0.1537 -0.2705
  452TMC3     H 6736   3.886   3.615   1.430 -2.5554  0.6616 -0.0212
  452TMC3    H1 6737   3.713   3.774   1.082  2.1858  0.8383 -0.5595
  452TMC3    H2 6738   3.788   3.350   1.105 -1.0131  0.5450 -0.9630
  452TMC3    C7 6739   3.711   3.546   0.940 -0.0822 -0.3371  0.2923
  452TMC3    C8 6740   3.885   3.374   1.356  0.3111 -0.2935 -0.0520
  452TMC3    O1 6741   3.727   3.639   0.862  0.0847  0.3400 -0.1864
  452TMC3    O2 6742   3.972   3.390   1.440  0.2554  0.2576  0.5252
  453TMC3    C1 6743   0.245   1.350  11.859  0.6162  0.1110 -0.3701
  453TMC3    C2 6744   0.172   1.244  11.904  0.1735 -0.4642  0.3415
  453TMC3    C3 6745   0.040   1.241  11.866 -0.1577  0.2295  0.1582
  453TMC3    C4 6746   0.186   1.446  11.779 -0.5694  0.5272  0.5770
  453TMC3    C5 6747   0.060   1.440  11.729  0.2185  0.3984  0.9312
  453TMC3    C6 6748   4.705   1.336  11.779  0.3606 -0.2431 -1.1935
  453TMC3     C 6749   0.387   1.370  11.890  0.2320  0.3668 -0.0481
  453TMC3     O 6750   0.437   1.481  11.871  0.1785 -0.0700 -0.5173
  453TMC3     H 6751   0.224   1.162  11.953  0.4122 -0.2889  0.3847
  453TMC3    H1 6752   0.257   1.515  11.735 -1.1139  1.2409  0.8343
  453TMC3    H2 6753   4.615   1.306  11.726 -0.3009  0.9225 -0.7203
  453TMC3    C7 6754   0.026   1.524  11.613 -0.2717 -0.2800  0.3399
  453TMC3    C8 6755   4.679   1.118  11.889  0.0659  0.1879  0.5004
  453TMC3    O1 6756   0.088   1.635  11.610 -0.1515 -0.1494 -0.3923
  453TMC3    O2 6757   4.560   1.126  11.873  0.3704  0.7391  0.2361
  454MPD2     C 6758   3.620   0.509  16.220 -0.3855  0.1863  0.4257
  454MPD2    C1 6759   3.608   0.637  16.158 -0.3368  0.1103  0.7335
  454MPD2    C2 6760   3.569   0.745  16.234 -0.1651  0.2220 -0.0615
  454MPD2    C3 6761   3.517   0.731  16.360 -0.4006 -0.1935  0.5454
  454MPD2    C4 6762   3.523   0.604  16.418  0.9868 -0.3663  0.0508
  454MPD2    C5 6763   3.575   0.497  16.348  0.1270 -0.6198 -0.3345
  454MPD2     H 6764   3.561   0.843  16.188  0.2472  0.7929  1.0741
  454MPD2    H1 6765   3.486   0.582  16.518 -0.9018  0.8283 -0.3970
  454MPD2    H2 6766   3.662   0.419  16.176  0.9681  0.4051  1.2945
  454MPD2    H3 6767   3.564   0.400  16.395  0.4160  0.0815  1.1482
  454MPD2     N 6768   3.445   0.833  16.424 -0.1921 -0.1423  0.1772
  454MPD2    H5 6769   3.381   0.803  16.497  2.3559 -0.5819  2.2695
  454MPD2    N1 6770   3.650   0.656  16.025  0.0028  0.4117 -0.0497
  454MPD2    H7 6771   3.625   0.745  15.984 -1.9348  0.3285  0.9608
  455TMC3    C1 6772   3.318   1.025  16.429  0.1072 -0.5415  0.3622
  455TMC3    C2 6773   3.311   1.153  16.467 -1.2453  0.2670 -0.2490
  455TMC3    C3 6774   3.190   1.220  16.470  0.2109  0.1300  0.1011
  455TMC3    C4 6775   3.206   0.954  16.403  0.1104 -0.3465 -0.7485
  455TMC3    C5 6776   3.087   1.018  16.411  0.4292  0.2408 -0.5886
  455TMC3    C6 6777   3.074   1.149  16.443 -0.7780 -0.0053  0.4008
  455TMC3     C 6778   3.444   0.971  16.400 -0.3486  0.3448 -0.0678
  455TMC3     O 6779   3.527   1.044  16.345 -0.1647  0.4481 -0.3018
  455TMC3     H 6780   3.400   1.214  16.479 -1.7552  1.3035 -1.6879
  455TMC3    H1 6781   3.198   0.846  16.405 -2.3084 -0.1364  0.8443
  455TMC3    H2 6782   2.980   1.200  16.462 -0.1476  0.7875  1.4292
  455TMC3    C7 6783   2.974   0.959  16.353  0.3050  0.5845 -0.3465
  455TMC3    C8 6784   3.182   1.348  16.542 -0.3511 -0.6901 -0.6030
  455TMC3    O1 6785   2.863   0.995  16.397 -0.6272 -0.2515  0.2115
  455TMC3    O2 6786   3.273   1.383  16.613  0.2792  0.5664 -0.1236
  456MPD2     C 6787   0.935   1.178  16.411 -0.4138 -1.2428 -0.8090
  456MPD2    C1 6788   1.064   1.204  16.442  0.2994 -0.6433  0.5712
  456MPD2    C2 6789   1.098   1.279  16.547  0.0741  0.7185  0.0592
  456MPD2    C3 6790   0.995   1.323  16.632 -0.2432 -0.5966 -0.2830
  456MPD2    C4 6791   0.862   1.300  16.596 -0.0840 -0.9683  0.0565
  456MPD2    C5 6792   0.833   1.219  16.491 -0.3661 -0.6511  0.2180
  456MPD2     H 6793   1.199   1.306  16.575  1.1309 -3.1731 -0.0611
  456MPD2    H1 6794   0.782   1.339  16.659 -1.2652 -2.3730 -0.5869
  456MPD2    H2 6795   0.911   1.112  16.328 -0.8699 -0.0660 -1.6185
  456MPD2    H3 6796   0.730   1.196  16.467 -1.0112  2.1364  0.2300
  456MPD2     N 6797   1.041   1.417  16.728  0.0399 -0.8676 -0.4132
  456MPD2    H5 6798   1.116   1.482  16.707 -0.4993 -0.4444 -1.0234
  456MPD2    N1 6799   1.161   1.152  16.357  0.4442 -0.1087 -0.5321
  456MPD2    H7 6800   1.129   1.080  16.293  1.6443 -0.4731 -0.7216
  457TMC3    C1 6801   1.016   1.555  16.916 -0.0128  0.1503 -0.0226
  457TMC3    C2 6802   1.048   1.664  16.842 -0.5427  0.7196 -0.5547
  457TMC3    C3 6803   1.100   1.774  16.903  0.2710  0.1747  0.2036
  457TMC3    C4 6804   1.046   1.544  17.053 -0.3143 -0.3979  0.2403
  457TMC3    C5 6805   1.126   1.637  17.106 -0.1988 -0.1203 -0.3825
  457TMC3    C6 6806   1.140   1.757  17.032 -0.2121  0.3276  0.9103
  457TMC3     C 6807   0.985   1.432  16.856  0.0724  0.0978 -0.6895
  457TMC3     O 6808   0.897   1.371  16.911 -0.5567 -0.2090  0.0384
  457TMC3     H 6809   1.009   1.673  16.741 -1.2785  0.8309 -0.2577
  457TMC3    H1 6810   1.017   1.458  17.112  0.5981  0.5676  2.0969
  457TMC3    H2 6811   1.199   1.840  17.071  2.2103 -0.5966 -0.7958
  457TMC3    C7 6812   1.192   1.605  17.230 -0.2667  0.6449  0.5749
  457TMC3    C8 6813   1.121   1.900  16.835 -0.0850  0.5329  0.3562
  457TMC3    O1 6814   1.153   1.508  17.290 -0.0073  0.1440 -0.5085
  457TMC3    O2 6815   1.178   1.991  16.893  0.3604 -0.0511  0.1819
  458MPD2     C 6816   4.283   0.386  12.105 -0.6223 -0.0826  0.1398
  458MPD2    C1 6817   4.232   0.335  12.225  0.0841  0.1687  0.1229
  458MPD2    C2 6818   4.136   0.241  12.225  0.3942  0.5334  0.5539
  458MPD2    C3 6819   4.075   0.200  12.114  0.5502  0.3964 -0.3711
  458MPD2    C4 6820   4.130   0.245  11.994 -0.4909  0.2114  0.4496
  458MPD2    C5 6821   4.227   0.337  11.991 -0.4840 -0.3738 -0.5514
  458MPD2     H 6822   4.094   0.204  12.318  1.1758  2.7834  1.8198
  458MPD2    H1 6823   4.082   0.208  11.905  1.4999 -0.5622 -0.2948
  458MPD2    H2 6824   4.354   0.466  12.090 -0.7717  0.0337  0.0541
  458MPD2    H3 6825   4.271   0.373  11.899 -2.2251 -0.3196 -1.3696
  458MPD2     N 6826   3.980   0.100  12.123 -0.7208 -0.4879  0.6650
  458MPD2    H5 6827   3.964   0.068  12.218  0.6213  0.3377  1.1633
  458MPD2    N1 6828   4.277   0.391  12.350  0.3058  0.4251  0.6480
  458MPD2    H7 6829   4.314   0.485  12.343  1.3238  0.0369  0.8280
  459TMC3    C1 6830   4.306   0.423  12.580  0.4187  0.2690  0.9490
  459TMC3    C2 6831   4.409   0.516  12.556  0.0656  0.1055  0.1881
  459TMC3    C3 6832   4.451   0.580  12.671  0.3674 -0.1399  0.0145
  459TMC3    C4 6833   4.271   0.372  12.706 -0.3066  0.2045 -0.5162
  459TMC3    C5 6834   4.327   0.430  12.813  0.1025 -0.2955  0.4027
  459TMC3    C6 6835   4.409   0.540  12.795  0.1519 -0.4415 -0.7239
  459TMC3     C 6836   4.269   0.331  12.473  0.2036 -0.0724  0.4813
  459TMC3     O 6837   4.235   0.216  12.508 -0.0047 -0.3923  0.4061
  459TMC3     H 6838   4.441   0.541  12.456  2.2165  1.2567  1.1531
  459TMC3    H1 6839   4.190   0.301  12.716 -1.1588  1.2690  0.0758
  459TMC3    H2 6840   4.450   0.591  12.881  1.8855 -0.6109 -1.4497
  459TMC3    C7 6841   4.276   0.425  12.951 -0.3008  0.0652 -0.0233
  459TMC3    C8 6842   4.589   0.632  12.664  0.0685 -0.4375  0.1874
  459TMC3    O1 6843   4.296   0.524  13.018  0.4611 -0.6081 -0.0068
  459TMC3    O2 6844   4.661   0.632  12.763  0.3927  0.1783  0.5828
  460MPD2     C 6845   2.342   2.332  10.714 -0.2871 -0.0328 -0.1126
  460MPD2    C1 6846   2.423   2.449  10.719 -0.0731  0.5422  0.5250
  460MPD2    C2 6847   2.432   2.529  10.609 -0.3646 -1.0625  0.2111
  460MPD2    C3 6848   2.374   2.484  10.488 -0.5519  0.3122 -0.4403
  460MPD2    C4 6849   2.288   2.375  10.492 -0.9513 -0.6734 -0.4573
  460MPD2    C5 6850   2.272   2.299  10.603  0.2039  0.1128 -0.5578
  460MPD2     H 6851   2.485   2.623  10.606 -0.0742 -1.1881  1.6185
  460MPD2    H1 6852   2.232   2.336  10.408  0.9143 -0.0059 -2.0163
  460MPD2    H2 6853   2.338   2.272  10.805  0.8259 -2.4039 -1.6363
  460MPD2    H3 6854   2.212   2.209  10.604  1.6718 -0.8520  1.5448
  460MPD2     N 6855   2.398   2.548  10.360  0.1186 -0.2369 -0.1379
  460MPD2    H5 6856   2.441   2.639  10.354  0.4827 -0.4458 -0.7901
  460MPD2    N1 6857   2.494   2.475  10.838  0.0737 -1.2177  0.2189
  460MPD2    H7 6858   2.457   2.427  10.920 -1.9031  3.8933  2.3467
  461TMC3    C1 6859   2.401   2.547  10.119 -0.2850 -0.4180  0.4261
  461TMC3    C2 6860   2.414   2.460  10.008  0.0265  1.0825  0.7068
  461TMC3    C3 6861   2.351   2.505   9.893 -0.5970  0.4109 -0.7038
  461TMC3    C4 6862   2.333   2.671  10.114 -0.6037  0.4304 -0.2728
  461TMC3    C5 6863   2.269   2.703  10.000 -0.1742  0.6947  0.3688
  461TMC3    C6 6864   2.274   2.621   9.894  0.5570 -0.3125 -0.0515
  461TMC3     C 6865   2.398   2.470  10.241  0.3334 -0.1555  0.3743
  461TMC3     O 6866   2.392   2.348  10.227 -0.0737 -0.0520  0.5135
  461TMC3     H 6867   2.465   2.365  10.010  1.1695  1.6844  0.0604
  461TMC3    H1 6868   2.312   2.723  10.207  2.1360  0.8124  0.1312
  461TMC3    H2 6869   2.234   2.644   9.796  2.2686 -0.0566 -0.6921
  461TMC3    C7 6870   2.206   2.834   9.976 -0.6060 -0.6019 -0.0901
  461TMC3    C8 6871   2.308   2.400   9.804 -0.1771 -0.1279 -0.1590
  461TMC3    O1 6872   2.156   2.857   9.868 -0.1801 -0.2775 -0.2559
  461TMC3    O2 6873   2.387   2.310   9.802  0.1901 -0.2376 -0.2770
  462TMC3    C1 6874   2.942   3.409   0.275  0.0903  0.2590  0.1955
  462TMC3    C2 6875   2.977   3.281   0.260 -0.1738  0.1618  0.1126
  462TMC3    C3 6876   2.927   3.187   0.346 -0.0622  0.3393  0.0549
  462TMC3    C4 6877   2.868   3.453   0.382 -0.8218 -0.1519  0.3659
  462TMC3    C5 6878   2.825   3.357   0.474 -0.3210  0.4999  0.2643
  462TMC3    C6 6879   2.861   3.226   0.462 -0.1950 -0.1715 -0.2587
  462TMC3     C 6880   3.005   3.502   0.185  0.0962 -0.8820 -0.1955
  462TMC3     O 6881   3.006   3.470   0.067  0.0398  0.0540  0.1736
  462TMC3     H 6882   3.033   3.250   0.172  1.0291 -0.0012  0.9505
  462TMC3    H1 6883   2.829   3.554   0.380  1.1641  0.6636  2.5048
  462TMC3    H2 6884   2.824   3.164   0.543 -0.6003  0.7941  0.2964
  462TMC3    C7 6885   2.716   3.392   0.564 -0.4302 -0.4368  0.3378
  462TMC3    C8 6886   2.925   3.036   0.315  0.3811  0.0280  0.0729
  462TMC3    O1 6887   2.664   3.296   0.625  0.1177  0.2744  0.0987
  462TMC3    O2 6888   2.887   2.968   0.406  0.7412  0.9555  0.0979
  463MPD2     C 6889   4.316   1.937   1.716 -0.5034  0.1118  0.2546
  463MPD2    C1 6890   4.188   1.993   1.715 -0.7219 -0.1288 -0.0859
  463MPD2    C2 6891   4.183   2.129   1.686  0.6260  0.1398  0.6414
  463MPD2    C3 6892   4.299   2.197   1.649  0.3228  0.5973 -0.6368
  463MPD2    C4 6893   4.428   2.134   1.650  0.1483  1.3522  0.1744
  463MPD2    C5 6894   4.432   2.004   1.691 -0.4214 -0.1854 -0.3402
  463MPD2     H 6895   4.089   2.183   1.685  0.0646 -0.8408  0.3139
  463MPD2    H1 6896   4.523   2.178   1.621 -0.6261  2.5727 -0.5192
  463MPD2    H2 6897   4.330   1.832   1.738  0.4295  0.4292  1.1903
  463MPD2    H3 6898   4.519   1.940   1.681  0.3142  0.3276  2.7679
  463MPD2     N 6899   4.296   2.327   1.599 -0.3061 -0.4121  0.1884
  463MPD2    H5 6900   4.379   2.372   1.561  0.8137 -1.8115  0.9847
  463MPD2    N1 6901   4.067   1.935   1.754  0.0637  0.0028  0.1590
  463MPD2    H7 6902   3.985   1.996   1.758  0.3926  0.3773  1.2874
  464TMC3    C1 6903   3.961   1.776   1.902  0.1580 -0.0436 -0.0400
  464TMC3    C2 6904   3.835   1.801   1.840  0.5766  0.6183  0.8995
  464TMC3    C3 6905   3.723   1.751   1.903 -0.6007  0.0625 -0.6692
  464TMC3    C4 6906   3.967   1.708   2.016 -0.7573 -0.2075 -0.2963
  464TMC3    C5 6907   3.852   1.665   2.072 -0.4515 -0.8981  0.0025
  464TMC3    C6 6908   3.732   1.685   2.023 -0.1844 -0.0574  0.1829
  464TMC3     C 6909   4.072   1.818   1.833  0.0882 -0.2654 -0.7964
  464TMC3     O 6910   4.165   1.745   1.858 -0.5172 -0.4817  0.1848
  464TMC3     H 6911   3.831   1.833   1.736  0.9332  1.2264  1.0776
  464TMC3    H1 6912   4.058   1.666   2.057 -1.3101 -0.3206  0.8241
  464TMC3    H2 6913   3.645   1.678   2.087  0.6479 -1.2747  1.1808
  464TMC3    C7 6914   3.873   1.571   2.171  0.0561 -0.0044  0.7661
  464TMC3    C8 6915   3.600   1.752   1.820  0.0496  0.7028  0.1204
  464TMC3    O1 6916   3.965   1.581   2.252  0.1096 -0.1841  0.9951
  464TMC3    O2 6917   3.590   1.841   1.734  0.1910 -1.0570 -0.1707
  465MPD2     C 6918   0.363   0.610  16.851  0.1512  0.5845  0.2522
  465MPD2    C1 6919   0.293   0.708  16.918 -0.2821 -0.4513 -0.2373
  465MPD2    C2 6920   0.180   0.758  16.854  1.0713  0.1965  0.5486
  465MPD2    C3 6921   0.150   0.716  16.726 -0.4163  0.4470 -0.2896
  465MPD2    C4 6922   0.232   0.623  16.663  0.3849  0.0739  0.3474
  465MPD2    C5 6923   0.344   0.576  16.722 -0.2518  0.2951  0.5555
  465MPD2     H 6924   0.117   0.824  16.912  1.2147  0.3262  0.5579
  465MPD2    H1 6925   0.193   0.588  16.567 -1.3413  1.1198  0.6589
  465MPD2    H2 6926   0.446   0.562  16.902  0.6289  1.8058  0.6308
  465MPD2    H3 6927   0.405   0.492  16.692 -0.2040  1.0640 -1.4839
  465MPD2     N 6928   0.036   0.774  16.664  0.4799 -0.8519  0.4858
  465MPD2    H5 6929   4.716   0.841  16.726 -1.1659 -1.4217 -0.0546
  465MPD2    N1 6930   0.311   0.738  17.056  0.6616  1.0279 -0.2329
  465MPD2    H7 6931   0.235   0.792  17.097 -0.8183 -0.8738 -0.4223
  466TMC3    C1 6932   4.452   0.961  16.642 -0.2064 -0.0719  0.0860
  466TMC3    C2 6933   4.466   1.074  16.573  0.1732  0.0079  0.2554
  466TMC3    C3 6934   4.550   1.071  16.468 -0.3034 -0.4008 -0.4323
  466TMC3    C4 6935   4.510   0.845  16.608 -0.1543  0.3827  0.4331
  466TMC3    C5 6936   4.598   0.839  16.507 -1.0089  0.3969 -1.0732
  466TMC3    C6 6937   4.622   0.957  16.439 -0.6780 -0.1953 -0.2346
  466TMC3     C 6938   4.403   0.963  16.777 -0.4041  0.7057 -0.0818
  466TMC3     O 6939   4.477   0.902  16.856 -0.5031  0.5120  0.6558
  466TMC3     H 6940   4.427   1.171  16.606  0.0586  0.0944 -0.1374
  466TMC3    H1 6941   4.485   0.755  16.663 -0.1942 -0.8061 -1.5457
  466TMC3    H2 6942   4.700   0.961  16.364 -1.8452  0.7419 -1.4128
  466TMC3    C7 6943   4.710   0.756  16.535 -0.4547  0.0074 -0.1871
  466TMC3    C8 6944   4.612   1.198  16.414 -0.9428  0.2577  0.1754
  466TMC3    O1 6945   0.040   0.705  16.435 -0.5350  0.0212 -0.1563
  466TMC3    O2 6946   4.680   1.181  16.315  0.2923  0.0410 -0.6451
  467TMC3    C1 6947   1.152   4.423  13.937 -0.3606  0.3661  0.2101
  467TMC3    C2 6948   1.117   4.387  13.809 -0.7639  0.1913 -0.1938
  467TMC3    C3 6949   0.986   4.346  13.792  0.8458 -0.0099 -0.1132
  467TMC3    C4 6950   1.061   4.417  14.042 -0.4783  0.4876 -0.7045
  467TMC3    C5 6951   0.939   4.373  14.010  0.0751 -0.1298  0.3877
  467TMC3    C6 6952   0.893   4.344  13.889 -0.2738 -0.0480 -0.6876
  467TMC3     C 6953   1.290   4.448  13.965 -0.2055  0.6021  0.4587
  467TMC3     O 6954   1.332   4.545  14.030  0.3401 -0.8141 -0.1069
  467TMC3     H 6955   1.185   4.404  13.727  1.6722 -2.0802  1.3505
  467TMC3    H1 6956   1.078   4.449  14.145  2.3010 -0.9515 -0.7124
  467TMC3    H2 6957   0.798   4.297  13.865 -1.3169  0.1566  3.0598
  467TMC3    C7 6958   0.878   4.298  14.123 -0.5853 -0.1261 -0.3076
  467TMC3    C8 6959   0.943   4.338  13.648  0.8575 -0.2475  0.4095
  467TMC3    O1 6960   0.954   4.258  14.215 -0.0747 -0.4571 -0.1314
  467TMC3    O2 6961   0.852   4.416  13.610  0.1590  0.3856 -0.2026
  468MPD2     C 6962   4.131   2.749   9.951 -0.1755 -0.4275  0.4490
  468MPD2    C1 6963   4.083   2.735  10.077 -0.1862  0.5636  1.0863
  468MPD2    C2 6964   4.154   2.653  10.165  0.1444 -0.1330 -0.1549
  468MPD2    C3 6965   4.266   2.584  10.119  0.5319  0.2166 -0.3666
  468MPD2    C4 6966   4.293   2.583   9.981  0.8077 -0.3794  1.1169
  468MPD2    C5 6967   4.238   2.682   9.907 -0.8354 -0.7537  0.2198
  468MPD2     H 6968   4.118   2.643  10.267  0.2205 -2.3363 -0.3551
  468MPD2    H1 6969   4.366   2.524   9.926  1.2136  0.9382  0.2536
  468MPD2    H2 6970   4.093   2.821   9.879 -0.5365 -1.3605 -0.2910
  468MPD2    H3 6971   4.275   2.695   9.806  0.3372 -0.0758  0.7384
  468MPD2     N 6972   4.339   2.496  10.200  0.3210 -0.0687 -0.3846
  468MPD2    H5 6973   4.407   2.441  10.148  2.0227 -0.3398  2.1119
  468MPD2    N1 6974   3.967   2.808  10.119  0.2579  0.6759  0.2153
  468MPD2    H7 6975   3.924   2.875  10.056  0.4314  1.7053  1.1913
  469TMC3    C1 6976   3.827   2.907  10.279  0.0368 -0.1957  0.0995
  469TMC3    C2 6977   3.886   3.034  10.266 -0.6030  0.3803 -0.6892
  469TMC3    C3 6978   3.831   3.131  10.347 -0.2016 -0.3937 -0.0365
  469TMC3    C4 6979   3.717   2.879  10.363  0.7080  0.2270  0.5614
  469TMC3    C5 6980   3.680   2.982  10.444 -0.0018 -0.0324 -0.0831
  469TMC3    C6 6981   3.727   3.111  10.434 -0.3583 -0.2379  0.8046
  469TMC3     C 6982   3.906   2.795  10.244 -0.1967  0.1210 -0.4643
  469TMC3     O 6983   3.919   2.706  10.329 -0.2659  0.5111  0.0561
  469TMC3     H 6984   3.962   3.054  10.191  2.2762 -0.5915  1.9614
  469TMC3    H1 6985   3.682   2.777  10.377 -2.1249  1.0209 -0.7204
  469TMC3    H2 6986   3.680   3.196  10.481  0.8738 -0.5823  2.6468
  469TMC3    C7 6987   3.624   2.947  10.577 -0.0378 -0.0524 -0.1731
  469TMC3    C8 6988   3.925   3.218  10.415 -0.1858  0.2550  0.1513
  469TMC3    O1 6989   3.557   2.843  10.589  0.6679 -0.1314 -0.0947
  469TMC3    O2 6990   3.879   3.272  10.516 -0.7878  0.4315 -0.8184
  470TMC3    C1 6991   1.707   3.598   1.011 -0.0070 -0.5137  0.0190
  470TMC3    C2 6992   1.808   3.688   0.969 -0.5123  0.2581 -0.4124
  470TMC3    C3 6993   1.931   3.656   1.003 -0.0556  0.2445 -0.1114
  470TMC3    C4 6994   1.734   3.474   1.068 -0.5126  0.4517  0.8499
  470TMC3    C5 6995   1.868   3.447   1.089  0.1495  0.0757 -0.1512
  470TMC3    C6 6996   1.970   3.541   1.073 -0.2970 -0.3673 -0.2864
  470TMC3     C 6997   1.568   3.636   1.000 -0.4809  0.1965 -0.2528
  470TMC3     O 6998   1.554   3.744   0.945  0.0065  0.0883 -0.3095
  470TMC3     H 6999   1.780   3.785   0.930 -0.6593 -0.1026 -1.2015
  470TMC3    H1 7000   1.670   3.387   1.080 -0.3404  0.5546  2.5526
  470TMC3    H2 7001   2.073   3.529   1.105 -0.0549  2.0061 -0.1832
  470TMC3    C7 7002   1.909   3.337   1.176 -0.0264 -0.2594 -0.5976
  470TMC3    C8 7003   2.023   3.763   0.998  0.4355  0.0720 -0.3274
  470TMC3    O1 7004   2.029   3.318   1.177 -0.0588  0.2252  0.0725
  470TMC3    O2 7005   2.110   3.764   1.078  0.3817 -0.3717 -0.0906
  471MPD2     C 7006   2.727   0.162  17.098  0.2864 -0.3624 -0.1983
  471MPD2    C1 7007   2.787   0.051  17.045  0.4735  0.0269 -0.5635
  471MPD2    C2 7008   2.907   0.001  17.093 -0.2723 -0.0808  0.3208
  471MPD2    C3 7009   2.957   0.046  17.212  0.0902  0.1897  0.3114
  471MPD2    C4 7010   2.887   0.151  17.278  0.7819  0.5853  0.5071
  471MPD2    C5 7011   2.785   0.217  17.211 -0.2464 -0.0349  0.3217
  471MPD2     H 7012   2.942   4.631  17.051 -1.7501 -0.4300 -0.1374
  471MPD2    H1 7013   2.915   0.186  17.376  1.7915 -3.2218  1.5759
  471MPD2    H2 7014   2.645   0.219  17.056  0.7272  1.7844  1.8652
  471MPD2    H3 7015   2.738   0.305  17.253 -1.7352 -0.0786 -1.2365
  471MPD2     N 7016   3.057   4.704  17.294 -0.0969 -0.2775  0.2883
  471MPD2    H5 7017   3.065   0.007  17.392  1.7072 -1.5732  0.5084
  471MPD2    N1 7018   2.734   4.707  16.934  0.3397 -0.8047  0.1329
  471MPD2    H7 7019   2.788   4.626  16.905  0.5086 -0.4010 -0.6832
  472TMC3    C1 7020   2.575   4.640  16.774 -0.6050 -0.7793 -0.3072
  472TMC3    C2 7021   2.482   4.685  16.687  0.3236  0.4217 -0.4345
  472TMC3    C3 7022   2.468   4.625  16.566 -0.5186 -0.0127  0.3842
  472TMC3    C4 7023   2.642   4.520  16.750 -0.3435 -0.8908 -0.1766
  472TMC3    C5 7024   2.633   4.464  16.629  0.4102 -0.3539 -0.2736
  472TMC3    C6 7025   2.557   4.521  16.534  0.1942  1.0930 -0.8718
  472TMC3     C 7026   2.608   0.008  16.876 -0.2338 -0.2275  0.3765
  472TMC3     O 7027   2.530   0.106  16.880  0.2076  0.0189 -0.1160
  472TMC3     H 7028   2.406   0.032  16.716  1.5406  1.7861 -0.5519
  472TMC3    H1 7029   2.704   4.472  16.826 -2.0069  0.6229  2.1580
  472TMC3    H2 7030   2.548   4.478  16.435  0.9309 -1.4137  0.1471
  472TMC3    C7 7031   2.607   4.327  16.647 -0.1870  0.2897 -0.0798
  472TMC3    C8 7032   2.329   4.585  16.549  0.0670 -0.3324  0.2319
  472TMC3    O1 7033   2.623   4.277  16.758  0.3721 -0.3143  0.3567
  472TMC3    O2 7034   2.245   4.586  16.635 -0.1714 -0.6668 -0.0949
  473MPD2     C 7035   2.237   2.242  14.029  0.1711 -0.2338 -0.3982
  473MPD2    C1 7036   2.188   2.370  14.005  0.4497  0.0433 -0.6266
  473MPD2    C2 7037   2.182   2.460  14.115  0.5093 -0.2181  0.0573
  473MPD2    C3 7038   2.223   2.421  14.244 -0.0370 -0.9817  0.0778
  473MPD2    C4 7039   2.272   2.290  14.268 -0.7040 -0.0673 -0.4860
  473MPD2    C5 7040   2.270   2.204  14.162 -0.5405  0.9479  0.2045
  473MPD2     H 7041   2.154   2.562  14.091  0.2898 -0.6570 -1.5132
  473MPD2    H1 7042   2.311   2.255  14.363 -0.1322 -0.1446 -0.7507
  473MPD2    H2 7043   2.255   2.160  13.960 -1.7411  0.5668 -1.8337
  473MPD2    H3 7044   2.310   2.104  14.171 -0.8367  0.9664  1.6549
  473MPD2     N 7045   2.213   2.507  14.359  0.2670 -0.1019 -0.6337
  473MPD2    H5 7046   2.262   2.469  14.439 -0.7972 -2.8338 -1.2618
  473MPD2    N1 7047   2.149   2.415  13.878 -0.2949  0.1155 -0.1571
  473MPD2    H7 7048   2.076   2.486  13.872  0.6180  0.8756 -2.2091
  474TMC3    C1 7049   2.205   2.695  14.502  0.2781  0.0915  0.5888
  474TMC3    C2 7050   2.119   2.793  14.548  0.6784 -1.2592 -0.0293
  474TMC3    C3 7051   2.130   2.840  14.676 -0.0671  0.5115 -0.5172
  474TMC3    C4 7052   2.296   2.631  14.589 -0.2563 -0.1346  0.0182
  474TMC3    C5 7053   2.307   2.688  14.716  0.2384  0.3375  0.3829
  474TMC3    C6 7054   2.230   2.793  14.760  0.3787 -0.0253  0.0237
  474TMC3     C 7055   2.158   2.630  14.376  0.5151  0.2780  0.0536
  474TMC3     O 7056   2.080   2.689  14.300  0.2035 -0.1435  0.2425
  474TMC3     H 7057   2.046   2.834  14.479 -0.7545 -2.2819  0.8578
  474TMC3    H1 7058   2.339   2.537  14.559  1.3707  0.7968 -0.5589
  474TMC3    H2 7059   2.252   2.843  14.853  1.7069  0.0790 -0.3530
  474TMC3    C7 7060   2.441   2.694  14.769 -0.6006  0.4022 -0.1990
  474TMC3    C8 7061   2.119   2.981  14.681  0.2119  0.2819 -0.9080
  474TMC3    O1 7062   2.478   2.612  14.854  0.4815 -0.0718 -0.5369
  474TMC3    O2 7063   2.101   3.027  14.794  0.5764  0.4149  0.0493
  475MPD2     C 7064   1.173   4.644  10.256 -0.4677 -0.3142 -0.7636
  475MPD2    C1 7065   1.242   0.035  10.233 -0.0150 -0.4443 -0.0942
  475MPD2    C2 7066   1.239   0.123  10.342 -0.0665 -0.5666 -0.2512
  475MPD2    C3 7067   1.164   0.103  10.454 -0.7346  0.1693  0.4069
  475MPD2    C4 7068   1.098   4.704  10.479 -0.6867  0.5843 -0.2038
  475MPD2    C5 7069   1.103   4.612  10.377  0.1259  0.1153 -0.0042
  475MPD2     H 7070   1.289   0.219  10.335 -0.9852 -0.0846 -0.1405
  475MPD2    H1 7071   1.041   4.682  10.567 -3.0323  0.8014 -1.6780
  475MPD2    H2 7072   1.182   4.568  10.179 -0.9101  1.3908 -2.5067
  475MPD2    H3 7073   1.058   4.514  10.386  0.2404  0.1242  0.6297
  475MPD2     N 7074   1.154   0.212  10.549 -0.3639  0.4613 -0.1588
  475MPD2    H5 7075   1.226   0.282  10.544 -0.5454  0.6866  0.4125
  475MPD2    N1 7076   1.312   0.053  10.114  0.2195  0.2753  0.2939
  475MPD2    H7 7077   1.330   4.698  10.053  1.8349 -0.4494  1.7101
  476TMC3    C1 7078   1.346   0.304  10.126  0.4021 -0.0316 -0.6325
  476TMC3    C2 7079   1.214   0.335  10.119  0.0818  0.2855  0.9107
  476TMC3    C3 7080   1.171   0.443  10.186  0.3556 -0.2357 -0.5734
  476TMC3    C4 7081   1.442   0.382  10.181  0.1953  0.3374 -0.1834
  476TMC3    C5 7082   1.391   0.490  10.246 -0.4894  0.2653  0.0630
  476TMC3    C6 7083   1.257   0.521  10.253 -0.0085  0.4851  0.6805
  476TMC3     C 7084   1.386   0.172  10.085  0.1664  0.0060  0.1812
  476TMC3     O 7085   1.472   0.186  10.000  0.4008 -0.9152 -0.2314
  476TMC3     H 7086   1.155   0.263  10.064  3.9337 -1.2956 -1.1815
  476TMC3    H1 7087   1.542   0.342  10.167 -0.2892 -0.2546 -1.9785
  476TMC3    H2 7088   1.229   0.617  10.295  0.6405  0.6490  0.7384
  476TMC3    C7 7089   1.498   0.578  10.293  0.0316  0.5400 -0.0423
  476TMC3    C8 7090   1.032   0.448  10.229  0.0729 -0.0721  0.1689
  476TMC3    O1 7091   1.615   0.557  10.259  0.2962  0.2232  0.4244
  476TMC3    O2 7092   0.975   0.549  10.266  0.1877  0.4834 -0.3311
  477MPD2     C 7093   2.939   1.421  11.671 -0.6840  0.3770  0.0776
  477MPD2    C1 7094   3.026   1.516  11.631 -0.2070  0.6431 -0.3692
  477MPD2    C2 7095   3.155   1.507  11.689 -0.1757  0.0371 -0.5012
  477MPD2    C3 7096   3.183   1.423  11.792  0.1260  0.7860 -0.4319
  477MPD2    C4 7097   3.089   1.333  11.832  0.6405  0.2984  0.4652
  477MPD2    C5 7098   2.970   1.330  11.767  0.3125  0.0632  0.1289
  477MPD2     H 7099   3.217   1.590  11.655  0.2702 -0.3811 -0.7053
  477MPD2    H1 7100   3.115   1.254  11.902  0.9812 -0.0358 -0.0350
  477MPD2    H2 7101   2.839   1.403  11.632 -0.1397  1.8252 -2.0168
  477MPD2    H3 7102   2.901   1.254  11.801 -1.1369  1.4998  0.4093
  477MPD2     N 7103   3.310   1.429  11.853 -0.7208  0.5044  0.5625
  477MPD2    H5 7104   3.382   1.482  11.805 -2.7527  1.3077 -1.5969
  477MPD2    N1 7105   3.007   1.621  11.537 -0.5073 -0.1854 -0.8199
  477MPD2    H7 7106   3.077   1.695  11.532 -1.3136  0.6360  0.1657
  478TMC3    C1 7107   2.869   1.770  11.418 -0.8339 -0.2318  0.6314
  478TMC3    C2 7108   2.886   1.866  11.519  0.4137  0.5879  0.1317
  478TMC3    C3 7109   2.798   1.972  11.521 -0.3874 -0.0617  0.4252
  478TMC3    C4 7110   2.758   1.786  11.339 -0.4068  0.1402  0.2133
  478TMC3    C5 7111   2.679   1.902  11.344  0.4275  0.9293  0.3159
  478TMC3    C6 7112   2.702   2.001  11.427  0.7796 -0.5643  0.2128
  478TMC3     C 7113   2.896   1.634  11.457 -0.0269 -0.0937 -0.8295
  478TMC3     O 7114   2.821   1.547  11.415 -0.1318 -0.3227 -0.0477
  478TMC3     H 7115   2.966   1.862  11.591 -0.3312 -0.8407  0.8855
  478TMC3    H1 7116   2.729   1.713  11.265 -3.3139  0.1915  1.2984
  478TMC3    H2 7117   2.622   2.072  11.444  0.0819 -1.1327 -0.6874
  478TMC3    C7 7118   2.545   1.884  11.287  0.1160  0.0956 -0.7166
  478TMC3    C8 7119   2.816   2.072  11.621  0.2744  0.7222  0.1291
  478TMC3    O1 7120   2.503   1.773  11.273  0.1535 -0.8378  0.1356
  478TMC3    O2 7121   2.868   2.030  11.726 -0.0667 -0.4600 -0.0879
  479MPD2     C 7122   2.460   4.071  15.376 -0.1555  0.2925  0.5711
  479MPD2    C1 7123   2.365   4.015  15.459  0.4621 -0.6271  0.2339
  479MPD2    C2 7124   2.371   4.030  15.592  0.5561 -0.2694 -0.7492
  479MPD2    C3 7125   2.468   4.116  15.638 -0.7029 -0.5431 -1.1060
  479MPD2    C4 7126   2.557   4.176  15.559 -0.0865 -0.2625  0.0178
  479MPD2    C5 7127   2.560   4.151  15.425  0.3930  0.0788 -0.4321
  479MPD2     H 7128   2.302   3.979  15.659  0.0351 -0.9061 -1.7731
  479MPD2    H1 7129   2.641   4.241  15.584 -0.1857 -0.6720  1.4481
  479MPD2    H2 7130   2.456   4.048  15.270  1.7376  0.5295  0.4337
  479MPD2    H3 7131   2.630   4.193  15.354 -0.7798 -0.7833 -2.1022
  479MPD2     N 7132   2.487   4.144  15.770 -0.0144  0.1570 -0.0830
  479MPD2    H5 7133   2.575   4.190  15.793  0.2681 -1.0451  1.2759
  479MPD2    N1 7134   2.266   3.938  15.391 -0.8017 -0.5297 -0.0370
  479MPD2    H7 7135   2.281   3.927  15.292  0.4886  0.2715  0.0660
  480TMC3    C1 7136   2.071   4.010  15.981 -0.0536  0.9303 -0.2003
  480TMC3    C2 7137   1.987   4.090  15.902 -0.3957  0.6502  0.7733
  480TMC3    C3 7138   2.055   4.157  15.805 -0.8463 -0.9016 -0.3742
  480TMC3    C4 7139   2.205   4.022  15.966  0.5378  0.1109 -0.1748
  480TMC3    C5 7140   2.270   4.092  15.868  0.7363  0.0791  0.3329
  480TMC3    C6 7141   2.189   4.158  15.780  0.1970 -0.4010  0.1823
  480TMC3     C 7142   2.013   3.903  16.060 -0.0762 -0.2273  0.5039
  480TMC3     O 7143   2.095   3.836  16.126  0.0274 -0.5751 -0.3511
  480TMC3     H 7144   1.880   4.084  15.911 -0.3054  0.3387  1.6417
  480TMC3    H1 7145   2.273   3.961  16.024 -0.1646  0.6012  1.1662
  480TMC3    H2 7146   2.231   4.217  15.700  1.7406 -1.5762  0.1498
  480TMC3    C7 7147   2.414   4.117  15.881  0.2790 -0.6327  0.0379
  480TMC3    C8 7148   1.968   4.200  15.696 -0.5471  0.0853  0.3354
  480TMC3    O1 7149   2.453   4.130  15.997  0.2382  0.0430 -0.7653
  480TMC3    O2 7150   1.855   4.221  15.730 -0.3244 -0.0465 -0.1220
  481MPD2     C 7151   3.639   3.430  13.823 -0.1773 -0.6263  0.3408
  481MPD2    C1 7152   3.527   3.383  13.890 -0.5586 -0.8451 -0.7343
  481MPD2    C2 7153   3.521   3.399  14.025 -0.1416  0.6456 -0.7824
  481MPD2    C3 7154   3.623   3.461  14.090  0.6787 -0.1700  0.1982
  481MPD2    C4 7155   3.728   3.510  14.023 -0.2198 -0.4167 -0.2650
  481MPD2    C5 7156   3.741   3.497  13.886  0.5201 -0.7665  0.5906
  481MPD2     H 7157   3.431   3.360  14.072  0.4261 -1.6680 -1.6146
  481MPD2    H1 7158   3.804   3.557  14.085 -0.5133  0.5206 -0.6202
  481MPD2    H2 7159   3.666   3.404  13.721 -1.0711  0.0404 -0.0623
  481MPD2    H3 7160   3.832   3.516  13.829 -0.3470  0.4578 -0.4071
  481MPD2     N 7161   3.626   3.479  14.229  0.3381  0.2691  0.4368
  481MPD2    H5 7162   3.703   3.528  14.273 -0.5633  0.0157  2.2596
  481MPD2    N1 7163   3.437   3.303  13.808  0.0053  0.0535 -0.0133
  481MPD2    H7 7164   3.451   3.310  13.708  0.0602 -0.9944 -0.0802
  482TMC3    C1 7165   3.226   3.194  13.763 -0.1908  0.5368  0.1899
  482TMC3    C2 7166   3.106   3.140  13.814  0.6029  0.4132 -0.0567
  482TMC3    C3 7167   2.990   3.178  13.751  0.5611 -0.1553 -0.5097
  482TMC3    C4 7168   3.230   3.260  13.640 -1.0057  0.0913  0.8296
  482TMC3    C5 7169   3.108   3.294  13.583 -0.6866 -0.1403 -0.2184
  482TMC3    C6 7170   2.990   3.263  13.645 -0.2330 -0.0088  0.2337
  482TMC3     C 7171   3.332   3.216  13.854  1.0434 -0.8626  0.4419
  482TMC3     O 7172   3.325   3.165  13.966  0.5176 -0.3130 -0.6606
  482TMC3     H 7173   3.105   3.096  13.913  0.4308  1.0980  0.2447
  482TMC3    H1 7174   3.322   3.291  13.592  0.2749 -0.9930  2.6100
  482TMC3    H2 7175   2.895   3.291  13.600  0.6515 -0.4501 -1.8539
  482TMC3    C7 7176   3.094   3.352  13.448  0.4198 -0.4112 -0.1828
  482TMC3    C8 7177   2.869   3.105  13.795 -0.3534 -0.1229  0.2926
  482TMC3    O1 7178   2.982   3.345  13.397 -0.4337  0.5111 -0.8316
  482TMC3    O2 7179   2.884   3.033  13.893 -1.0636  0.1976  0.2325
  483TMC3    C1 7180   1.711   2.511   1.505 -0.0664  0.2622 -0.2942
  483TMC3    C2 7181   1.693   2.628   1.442  0.6621  0.6552 -1.0006
  483TMC3    C3 7182   1.789   2.716   1.443  0.0256  0.3319  0.7349
  483TMC3    C4 7183   1.817   2.499   1.590  0.3084  0.1996 -0.5961
  483TMC3    C5 7184   1.927   2.583   1.568  0.6392 -0.8024 -0.5875
  483TMC3    C6 7185   1.912   2.694   1.490  0.4133 -0.3390 -0.3241
  483TMC3     C 7186   1.704   2.408   1.408 -0.4050  0.4289  0.3414
  483TMC3     O 7187   1.645   2.436   1.305 -0.2538  0.3396 -0.1856
  483TMC3     H 7188   1.610   2.636   1.373 -0.0725  3.1589  0.1613
  483TMC3    H1 7189   1.832   2.413   1.655 -0.2999  0.0006 -0.7195
  483TMC3    H2 7190   1.991   2.768   1.484 -0.8510  1.0554  0.1109
  483TMC3    C7 7191   2.055   2.522   1.582 -0.0652 -0.3212 -0.3159
  483TMC3    C8 7192   1.782   2.809   1.333 -0.0144  0.6270 -0.4867
  483TMC3    O1 7193   2.058   2.436   1.667 -0.3085 -0.5042  0.1553
  483TMC3    O2 7194   1.889   2.836   1.279  0.1205 -0.0893 -0.4083
  484MPD2     C 7195   4.723   0.823  12.376  0.7266  0.4066  0.5071
  484MPD2    C1 7196   0.007   0.743  12.495  0.1955 -0.2015  0.8304
  484MPD2    C2 7197   0.134   0.701  12.543  0.2786 -0.0670 -0.0153
  484MPD2    C3 7198   0.249   0.744  12.477 -0.8093  0.4325 -0.3961
  484MPD2    C4 7199   0.235   0.825  12.366  0.4569 -0.3064  0.4340
  484MPD2    C5 7200   0.115   0.857  12.311 -0.4000 -0.0294 -0.3819
  484MPD2     H 7201   0.140   0.640  12.632 -3.9801  2.2885  1.8812
  484MPD2    H1 7202   0.332   0.856  12.328 -0.6792  3.0603  0.3571
  484MPD2    H2 7203   4.624   0.837  12.334  0.8169  1.4854  0.6677
  484MPD2    H3 7204   0.107   0.920  12.223 -0.8465 -1.3390 -1.2808
  484MPD2     N 7205   0.376   0.699  12.502 -0.0058 -0.4640 -0.0942
  484MPD2    H5 7206   0.453   0.727  12.442 -0.2939  2.1089  0.7550
  484MPD2    N1 7207   4.604   0.696  12.546  0.1301 -0.1388 -0.0719
  484MPD2    H7 7208   4.522   0.706  12.486  0.1478 -3.4232 -0.6404
  485TMC3    C1 7209   0.546   0.552  12.587  0.2181 -0.3370  0.1379
  485TMC3    C2 7210   0.574   0.422  12.628  0.3049  1.0343 -0.0161
  485TMC3    C3 7211   0.703   0.375  12.615  1.0911  0.3585  0.4117
  485TMC3    C4 7212   0.647   0.643  12.542 -0.1204 -0.1446 -0.2505
  485TMC3    C5 7213   0.779   0.595  12.543  0.2480 -0.1299  0.4343
  485TMC3    C6 7214   0.802   0.463  12.579  0.9760  0.9489 -0.0772
  485TMC3     C 7215   0.404   0.596  12.596 -0.1322  0.6191  0.4756
  485TMC3     O 7216   0.335   0.543  12.686 -0.2314  0.8235 -0.8581
  485TMC3     H 7217   0.494   0.361  12.668 -0.3353  0.2694 -2.4212
  485TMC3    H1 7218   0.629   0.746  12.515 -1.9726  0.2556  2.4349
  485TMC3    H2 7219   0.901   0.424  12.561  0.8460  0.8504 -0.5838
  485TMC3    C7 7220   0.877   0.658  12.462 -0.3307 -0.1365  0.2297
  485TMC3    C8 7221   0.724   0.241  12.557  0.1706  0.1887 -0.5493
  485TMC3    O1 7222   0.983   0.599  12.454  0.0988  0.2596 -0.0789
  485TMC3    O2 7223   0.843   0.210  12.519  0.9735 -0.1123  0.2887
  486MPD2     C 7224   2.222   4.106  12.933 -0.3669 -0.1422  0.3316
  486MPD2    C1 7225   2.084   4.113  12.935 -0.1212  0.5551 -0.2876
  486MPD2    C2 7226   2.030   4.236  12.895  0.5704 -0.2297  0.5376
  486MPD2    C3 7227   2.111   4.348  12.871 -0.4497  0.6518  0.1603
  486MPD2    C4 7228   2.252   4.329  12.866  0.9582 -0.2492  0.6570
  486MPD2    C5 7229   2.304   4.208  12.902 -0.7995  0.2059 -0.4309
  486MPD2     H 7230   1.922   4.251  12.898  0.7003  0.6897  0.5089
  486MPD2    H1 7231   2.325   4.403  12.834 -1.2995  0.6251 -2.5538
  486MPD2    H2 7232   2.277   4.018  12.966 -1.8032 -1.2370 -0.2003
  486MPD2    H3 7233   2.411   4.192  12.906 -0.7480  1.1661  1.8503
  486MPD2     N 7234   2.055   4.473  12.830 -0.3746  0.0336 -0.5081
  486MPD2    H5 7235   1.954   4.480  12.830 -0.1994  2.7501 -2.9554
  486MPD2    N1 7236   2.011   3.997  12.973 -0.6176  0.5605 -0.1069
  486MPD2    H7 7237   2.064   3.922  13.017  0.3220 -0.2431 -2.6367
  487TMC3    C1 7238   1.827   3.855  13.020 -0.5552 -0.0245 -0.2109
  487TMC3    C2 7239   1.735   3.784  12.950  0.0778  0.8636  0.1235
  487TMC3    C3 7240   1.700   3.661  12.994  0.0422 -0.4249  1.3167
  487TMC3    C4 7241   1.894   3.818  13.132 -0.2199 -0.2233 -0.6441
  487TMC3    C5 7242   1.855   3.697  13.168  0.2670  0.2287 -0.2024
  487TMC3    C6 7243   1.767   3.615  13.104 -0.7213 -0.0515 -0.1736
  487TMC3     C 7244   1.879   3.975  12.948  0.4068 -0.5057  1.0841
  487TMC3     O 7245   1.797   4.025  12.874  0.1345  0.0302  0.0807
  487TMC3     H 7246   1.677   3.837  12.876 -0.2922  1.9170  1.1690
  487TMC3    H1 7247   1.951   3.884  13.196 -1.1764 -0.5999  0.5787
  487TMC3    H2 7248   1.739   3.520  13.147 -0.0138  0.3339  1.1460
  487TMC3    C7 7249   1.848   3.686  13.316 -0.5802  0.6077  0.7389
  487TMC3    C8 7250   1.561   3.659  13.031  0.3504 -0.8040 -0.3643
  487TMC3    O1 7251   1.941   3.732  13.375  0.4291 -0.2882  0.3480
  487TMC3    O2 7252   1.553   3.624  13.149  0.1589  0.8072 -1.2244
  488MPD2     C 7253   1.479   1.412  16.656 -0.5474  0.8367  0.5821
  488MPD2    C1 7254   1.601   1.458  16.678 -0.0622 -0.1293  0.2948
  488MPD2    C2 7255   1.654   1.459  16.806 -0.0047 -0.2244 -0.6063
  488MPD2    C3 7256   1.584   1.407  16.918  1.0731 -0.0485  0.0667
  488MPD2    C4 7257   1.455   1.361  16.892 -1.0026  0.0007 -0.9513
  488MPD2    C5 7258   1.405   1.368  16.761  0.3985  0.0201  0.5744
  488MPD2     H 7259   1.753   1.500  16.823 -0.1101 -0.3022  0.2177
  488MPD2    H1 7260   1.385   1.324  16.965 -0.0482  1.5375  0.7388
  488MPD2    H2 7261   1.430   1.413  16.559 -0.3905  0.9485  0.5054
  488MPD2    H3 7262   1.304   1.334  16.742  0.3243  1.8974 -2.3600
  488MPD2     N 7263   1.639   1.418  17.049 -0.2211  0.3553  0.3934
  488MPD2    H5 7264   1.735   1.449  17.056  0.0184 -0.2574 -0.1808
  488MPD2    N1 7265   1.682   1.519  16.578 -0.1869 -0.5246 -0.3127
  488MPD2    H7 7266   1.762   1.574  16.608 -0.3662  0.6372 -2.0240
  489TMC3    C1 7267   1.643   1.380  17.285  0.5978 -0.2626 -0.7395
  489TMC3    C2 7268   1.774   1.428  17.302  0.0389  0.9778 -0.1702
  489TMC3    C3 7269   1.841   1.397  17.421  0.1051 -0.1019  0.1164
  489TMC3    C4 7270   1.578   1.319  17.392 -0.3078  0.0809 -0.0642
  489TMC3    C5 7271   1.644   1.302  17.512  0.7787 -0.5825  0.3076
  489TMC3    C6 7272   1.771   1.342  17.527  0.3416 -0.1358 -0.0829
  489TMC3     C 7273   1.566   1.379  17.158 -0.6590  0.2657 -0.6423
  489TMC3     O 7274   1.460   1.324  17.162 -0.0782 -0.1518  0.7639
  489TMC3     H 7275   1.825   1.478  17.221  0.2841 -1.0958 -1.2914
  489TMC3    H1 7276   1.482   1.273  17.370  1.4459 -2.8734 -1.6221
  489TMC3    H2 7277   1.828   1.327  17.618 -0.6987 -2.5389  0.1882
  489TMC3    C7 7278   1.586   1.217  17.612 -0.3116 -0.3734 -0.2426
  489TMC3    C8 7279   1.922   1.516  17.461 -0.5130  0.3307  0.9057
  489TMC3    O1 7280   1.663   1.163  17.689 -0.1546 -0.1599  0.1616
  489TMC3    O2 7281   1.905   1.542  17.583  0.0105  0.0328  0.0996
  490MPD2     C 7282   3.290   0.320  17.605 -0.1044 -0.3976  0.2659
  490MPD2    C1 7283   3.218   0.325   0.025 -0.9983  0.5743  0.4124
  490MPD2    C2 7284   3.254   0.420   0.128  0.6708 -0.2416 -0.3395
  490MPD2    C3 7285   3.372   0.492   0.119 -0.5326 -0.2082 -0.2174
  490MPD2    C4 7286   3.447   0.481   0.005  0.2175 -0.2938  0.4818
  490MPD2    C5 7287   3.403   0.400  17.600 -0.3217 -1.4548 -0.1796
  490MPD2     H 7288   3.195   0.420   0.219  0.6399 -0.8760 -0.3595
  490MPD2    H1 7289   3.529   0.552  17.694  0.0441 -0.0329  1.0616
  490MPD2    H2 7290   3.262   0.257  17.521  0.2390 -0.7223  0.3982
  490MPD2    H3 7291   3.452   0.388  17.504 -2.4724  0.4671 -1.5366
  490MPD2     N 7292   3.412   0.586   0.222 -0.3118 -0.0368  0.5740
  490MPD2    H5 7293   3.491   0.646   0.198  1.0643 -1.2965  1.9126
  490MPD2    N1 7294   3.108   0.246   0.049 -0.2895  0.1240  0.8190
  490MPD2    H7 7295   3.054   0.281   0.128  0.2266  0.3008  1.0923
  491TMC3    C1 7296   2.927   0.098   0.013  0.2175 -0.2463 -0.5121
  491TMC3    C2 7297   2.872   0.140   0.133  0.6257 -0.2800  0.5054
  491TMC3    C3 7298   2.739   0.110   0.151  0.1453  0.1527  0.6537
  491TMC3    C4 7299   2.849   0.026  17.618  0.2551 -0.1212  1.0992
  491TMC3    C5 7300   2.721   4.715  17.643  0.7473 -0.3556 -0.2592
  491TMC3    C6 7301   2.667   0.035   0.058  0.2994  0.0675 -0.4537
  491TMC3     C 7302   3.054   0.154  17.658  0.4846 -0.1055 -0.2242
  491TMC3     O 7303   3.097   0.106  17.556 -0.6244 -0.2666 -0.2740
  491TMC3     H 7304   2.941   0.176   0.209  1.0084  1.5115 -0.6764
  491TMC3    H1 7305   2.882   0.021  17.515 -1.9137 -1.4545  0.4764
  491TMC3    H2 7306   2.567   4.723   0.078 -0.9642  4.0846  0.3421
  491TMC3    C7 7307   2.642   4.648  17.543 -0.8134  0.3949  0.2301
  491TMC3    C8 7308   2.659   0.161   0.267 -0.7970  0.3877 -0.4254
  491TMC3    O1 7309   2.524   4.673  17.534  0.2719 -0.2096 -0.5458
  491TMC3    O2 7310   2.545   0.115   0.268  0.8421  0.1026 -0.1339
  492MPD2     C 7311   3.307   0.320  11.383  0.1932 -0.0973 -0.4537
  492MPD2    C1 7312   3.187   0.319  11.326 -0.2035 -0.4379  0.1294
  492MPD2    C2 7313   3.075   0.268  11.390  0.1275  0.4496  0.6294
  492MPD2    C3 7314   3.085   0.229  11.525 -1.8095 -0.1921  0.5218
  492MPD2    C4 7315   3.211   0.251  11.585  0.3502  0.4992  0.4650
  492MPD2    C5 7316   3.314   0.292  11.513  0.0036  0.0563  0.3250
  492MPD2     H 7317   2.981   0.267  11.336 -0.4739  1.3178  1.6645
  492MPD2    H1 7318   3.239   0.243  11.689  1.1183  3.2040  0.4886
  492MPD2    H2 7319   3.394   0.363  11.335 -2.5833  2.4286 -3.1791
  492MPD2    H3 7320   3.409   0.318  11.558  0.1958 -0.6719  0.3351
  492MPD2     N 7321   2.983   0.162  11.599 -0.3211  0.8846  0.0098
  492MPD2    H5 7322   3.000   0.143  11.697  2.0781  2.5670 -0.0804
  492MPD2    N1 7323   3.172   0.375  11.193  0.0740 -0.0055  0.1278
  492MPD2    H7 7324   3.252   0.432  11.167  0.3980 -0.9425 -0.8959
  493TMC3    C1 7325   3.118   0.429  10.980  0.6381 -0.7993  0.5188
  493TMC3    C2 7326   3.220   0.521  10.982 -0.4307  0.4231  0.7208
  493TMC3    C3 7327   3.261   0.557  10.857  0.2728 -0.0750 -0.6418
  493TMC3    C4 7328   3.031   0.401  10.873  0.7017  1.0323 -0.3354
  493TMC3    C5 7329   3.079   0.449  10.752  0.0505 -0.4060  0.5955
  493TMC3    C6 7330   3.202   0.515  10.737  0.1396 -0.4016 -0.7357
  493TMC3     C 7331   3.076   0.361  11.103  0.0637  0.2518 -0.7615
  493TMC3     O 7332   2.975   0.304  11.116 -0.3338  0.1565 -0.2523
  493TMC3     H 7333   3.268   0.564  11.069  1.0212 -0.7036  0.4683
  493TMC3    H1 7334   2.956   0.323  10.874  1.3744  0.3788 -0.2244
  493TMC3    H2 7335   3.236   0.553  10.641  1.0545  0.5630 -0.0270
  493TMC3    C7 7336   3.003   0.425  10.628 -0.1702 -0.4499 -0.9867
  493TMC3    C8 7337   3.380   0.637  10.865  0.0913 -0.1231 -0.3398
  493TMC3    O1 7338   3.069   0.452  10.526  0.0326 -0.5552 -0.3685
  493TMC3    O2 7339   3.467   0.623  10.952 -0.5171 -0.1810 -0.2288
  494TMC3    C1 7340   3.266   2.338   0.429 -0.7629 -0.1419  0.3350
  494TMC3    C2 7341   3.192   2.221   0.426  0.2548 -0.0624 -0.2297
  494TMC3    C3 7342   3.185   2.146   0.316  0.1954 -0.0441 -0.3707
  494TMC3    C4 7343   3.338   2.377   0.322 -0.6524  0.2902 -0.1592
  494TMC3    C5 7344   3.323   2.302   0.208 -0.4018  0.7130 -0.1250
  494TMC3    C6 7345   3.243   2.188   0.200 -0.0726 -0.6295  0.6207
  494TMC3     C 7346   3.344   2.359   0.555 -0.8021  0.2597 -0.0806
  494TMC3     O 7347   3.463   2.358   0.541 -0.8298 -0.0899  0.1094
  494TMC3     H 7348   3.136   2.188   0.513 -1.5987 -2.5084 -2.3441
  494TMC3    H1 7349   3.407   2.460   0.333  1.6437 -1.7671  1.0112
  494TMC3    H2 7350   3.243   2.132   0.107 -0.3217 -0.9595  0.8198
  494TMC3    C7 7351   3.370   2.359   0.085 -0.4944  0.2658  0.5198
  494TMC3    C8 7352   3.206   2.007   0.352  0.0608 -0.2984 -0.2932
  494TMC3    O1 7353   3.384   2.289  17.684 -0.0296 -0.5437 -0.1385
  494TMC3    O2 7354   3.233   1.986   0.470  0.3570 -0.1947  0.0142
  495TMC3    C1 7355   2.312   3.964  14.887  0.0907  0.1195 -0.7492
  495TMC3    C2 7356   2.244   3.974  14.767 -0.3063 -0.2665 -0.5681
  495TMC3    C3 7357   2.187   4.097  14.751 -0.2967  0.2936 -0.5291
  495TMC3    C4 7358   2.331   4.067  14.980  0.3883  0.4656  0.1308
  495TMC3    C5 7359   2.264   4.179  14.957  0.6069  0.1211  0.9854
  495TMC3    C6 7360   2.191   4.195  14.844  0.6423  0.5785  0.0155
  495TMC3     C 7361   2.294   3.838  14.958 -0.5368 -0.3205  0.2981
  495TMC3     O 7362   2.372   3.809  15.049  0.6351 -0.2563  0.2898
  495TMC3     H 7363   2.227   3.889  14.702 -1.5414 -0.8724  0.5350
  495TMC3    H1 7364   2.369   4.034  15.076  0.5864 -0.2440 -0.1980
  495TMC3    H2 7365   2.124   4.278  14.830 -0.3352 -0.6947 -2.9051
  495TMC3    C7 7366   2.229   4.244  15.081 -0.0301  0.5845  0.1597
  495TMC3    C8 7367   2.108   4.128  14.627 -0.1059 -0.2202  0.2727
  495TMC3    O1 7368   2.308   4.227  15.173  0.2186 -0.4518  0.0133
  495TMC3    O2 7369   2.043   4.234  14.630  0.4581 -0.1437  0.0834
  496MPD2     C 7370   0.443   4.446  15.961 -0.7417 -0.0203 -0.0509
  496MPD2    C1 7371   0.335   4.424  15.884  0.7673 -1.2556  0.7165
  496MPD2    C2 7372   0.206   4.414  15.942 -0.2142 -0.4602 -0.1392
  496MPD2    C3 7373   0.196   4.412  16.084  0.8163 -0.6751  0.1333
  496MPD2    C4 7374   0.310   4.422  16.160 -0.8159  0.6764 -0.1711
  496MPD2    C5 7375   0.429   4.441  16.100 -0.3920 -0.0939  0.1335
  496MPD2     H 7376   0.121   4.415  15.875 -0.6333  2.2133  0.4300
  496MPD2    H1 7377   0.307   4.420  16.269  2.1779 -0.6458 -0.1112
  496MPD2    H2 7378   0.537   4.472  15.914  0.4283 -0.7392  1.8830
  496MPD2    H3 7379   0.510   4.450  16.172 -1.3373  2.0120  0.9389
  496MPD2     N 7380   0.073   4.402  16.155  0.1481 -0.0390 -0.7894
  496MPD2    H5 7381   0.085   4.373  16.252 -0.0824  0.1562 -0.7000
  496MPD2    N1 7382   0.364   4.407  15.745  0.3630  0.0063  0.0398
  496MPD2    H7 7383   0.463   4.409  15.723  0.1000  1.5398 -1.0099
  497TMC3    C1 7384   4.565   4.373  16.175 -0.0676  0.2286 -0.0241
  497TMC3    C2 7385   4.453   4.323  16.102 -1.0278  0.0956 -0.3136
  497TMC3    C3 7386   4.356   4.266  16.172  0.0030 -0.1237 -0.1818
  497TMC3    C4 7387   4.575   4.374  16.311 -0.5644 -0.2542  0.4551
  497TMC3    C5 7388   4.477   4.305  16.374 -0.0844  0.8074  0.6898
  497TMC3    C6 7389   4.363   4.255  16.307  0.2915 -0.0091  0.3670
  497TMC3     C 7390   4.674   4.417  16.094 -0.0658  0.0885  0.0268
  497TMC3     O 7391   4.646   4.459  15.979  0.3265  0.4876  0.5834
  497TMC3     H 7392   4.453   4.313  15.994  1.2869  0.6085 -0.3475
  497TMC3    H1 7393   4.659   4.418  16.363  0.5511 -0.9107 -0.7724
  497TMC3    H2 7394   4.283   4.208  16.364  2.2159  0.4931  3.4749
  497TMC3    C7 7395   4.470   4.295  16.516  0.0647 -0.4913  0.0362
  497TMC3    C8 7396   4.227   4.220  16.110  0.1680 -0.2559 -0.0780
  497TMC3    O1 7397   4.360   4.278  16.571  0.3740  0.0097  0.5873
  497TMC3    O2 7398   4.163   4.140  16.172  0.6482  0.0121  0.0549
  498MPD2     C 7399   0.936   0.267   9.873  0.5378 -0.0689 -0.9643
  498MPD2    C1 7400   0.841   0.360   9.898 -0.4716 -0.0040 -0.3062
  498MPD2    C2 7401   0.707   0.320   9.916  0.7429  0.4266 -0.5227
  498MPD2    C3 7402   0.673   0.181   9.915  0.6443  0.0486  0.1539
  498MPD2    C4 7403   0.772   0.090   9.886 -0.0651 -0.1345  0.6970
  498MPD2    C5 7404   0.898   0.131   9.857 -0.1662 -0.1910  0.4662
  498MPD2     H 7405   0.627   0.391   9.932 -0.7712 -1.1234 -1.1740
  498MPD2    H1 7406   0.763   4.706   9.877 -0.4676 -0.0685  0.3184
  498MPD2    H2 7407   1.042   0.286   9.859  0.9630 -0.1328  2.1956
  498MPD2    H3 7408   0.979   0.061   9.839  1.5303  1.8920 -0.0691
  498MPD2     N 7409   0.536   0.145   9.930 -0.0177  0.1103  0.2446
  498MPD2    H5 7410   0.465   0.217   9.941 -1.0415 -0.3658 -3.1707
  498MPD2    N1 7411   0.867   0.501   9.897 -0.6248 -0.0440 -0.1696
  498MPD2    H7 7412   0.784   0.560   9.893 -0.5351  0.1292  0.4087
  499TMC3    C1 7413   0.984   0.703   9.884  0.1736  0.1800  0.0212
  499TMC3    C2 7414   1.080   0.768   9.951 -0.6884 -0.1170  0.3960
  499TMC3    C3 7415   1.087   0.906   9.935  0.2624 -0.7466  1.3640
  499TMC3    C4 7416   0.889   0.769   9.806  0.2702  0.2550  0.0213
  499TMC3    C5 7417   0.902   0.901   9.798 -0.3265  0.4368 -0.0876
  499TMC3    C6 7418   0.994   0.975   9.868  0.7126  0.3000  0.4887
  499TMC3     C 7419   0.987   0.561   9.899  0.3935  0.0845 -0.4678
  499TMC3     O 7420   1.101   0.513   9.902 -0.3874  0.3126  0.3290
  499TMC3     H 7421   1.138   0.710  10.023  0.2362 -0.7063 -0.8219
  499TMC3    H1 7422   0.826   0.716   9.736 -0.5093  0.6689  0.3989
  499TMC3    H2 7423   1.006   1.083   9.861 -1.2770  0.4804 -0.1454
  499TMC3    C7 7424   0.798   0.979   9.731  0.4205 -0.4075  0.0679
  499TMC3    C8 7425   1.204   0.976   9.977  0.3042  0.0558  0.1487
  499TMC3    O1 7426   0.803   1.098   9.726 -0.2706  0.4859  0.4146
  499TMC3    O2 7427   1.197   1.098   9.986 -0.4938 -0.0114  0.2079
  500MPD2     C 7428   2.002   1.454   9.888 -0.1317 -0.4021  0.5310
  500MPD2    C1 7429   1.919   1.520   9.972  0.5669 -0.2741 -0.2633
  500MPD2    C2 7430   1.784   1.516   9.949 -0.7834  0.5336 -0.3054
  500MPD2    C3 7431   1.736   1.454   9.836 -0.6020 -0.4722  0.2915
  500MPD2    C4 7432   1.819   1.414   9.742  1.1188  0.1741  0.0074
  500MPD2    C5 7433   1.949   1.393   9.781 -0.2891 -0.1071  0.6517
  500MPD2     H 7434   1.720   1.558  10.026  1.7723  0.9212  1.6167
  500MPD2    H1 7435   1.786   1.357   9.656  1.0637  2.2782 -1.3572
  500MPD2    H2 7436   2.110   1.448   9.898  0.0719 -0.2911 -1.5941
  500MPD2    H3 7437   2.007   1.339   9.706 -1.1432 -2.1972  1.4840
  500MPD2     N 7438   1.598   1.448   9.808  0.0386  0.1683  0.6688
  500MPD2    H5 7439   1.570   1.430   9.712 -0.9004  3.0109  0.4065
  500MPD2    N1 7440   1.960   1.579  10.097 -0.1474 -0.0474  0.1704
  500MPD2    H7 7441   1.887   1.630  10.145 -0.5529 -0.4972  0.0251
  501TMC3    C1 7442   2.127   1.622  10.265 -0.0671 -0.3392 -0.9795
  501TMC3    C2 7443   2.051   1.747  10.291 -0.5343  0.1408 -0.0314
  501TMC3    C3 7444   2.059   1.796  10.420 -0.0168 -1.0211  0.3294
  501TMC3    C4 7445   2.203   1.563  10.362 -0.1248 -0.6113 -0.0060
  501TMC3    C5 7446   2.204   1.620  10.485 -0.2222 -1.3457 -0.2181
  501TMC3    C6 7447   2.127   1.729  10.515  0.0642  0.1747  0.1460
  501TMC3     C 7448   2.087   1.547  10.148  0.1069  0.1482 -0.0793
  501TMC3     O 7449   2.170   1.473  10.102 -1.0482  0.0069  0.2949
  501TMC3     H 7450   2.004   1.800  10.209 -0.1100 -1.3620 -1.2674
  501TMC3    H1 7451   2.259   1.473  10.342  1.7196  0.3403  0.8394
  501TMC3    H2 7452   2.131   1.772  10.614 -2.8471  0.6757  0.0244
  501TMC3    C7 7453   2.319   1.581  10.569 -1.0753 -0.0645 -0.2506
  501TMC3    C8 7454   2.004   1.928  10.450  0.0743 -0.0945 -0.8758
  501TMC3    O1 7455   2.394   1.498  10.522 -0.4590  0.1221  0.0893
  501TMC3    O2 7456   1.991   1.952  10.570 -0.3987  0.2036 -0.5937
  502TMC3    C1 7457   1.712   0.266  15.415 -0.3114 -0.1578  0.2327
  502TMC3    C2 7458   1.714   0.303  15.289  0.7443  0.0796 -0.1693
  502TMC3    C3 7459   1.606   0.277  15.207 -0.2426  0.1684  0.5181
  502TMC3    C4 7460   1.611   0.205  15.477  0.1871 -0.5545 -0.0055
  502TMC3    C5 7461   1.502   0.185  15.398  0.1864  0.4616 -0.0249
  502TMC3    C6 7462   1.499   0.212  15.259  0.1550 -0.9115  0.0912
  502TMC3     C 7463   1.819   0.306  15.493  0.7896 -0.5119  0.3927
  502TMC3     O 7464   1.928   0.325  15.436  0.5052 -0.2182 -0.5579
  502TMC3     H 7465   1.790   0.365  15.244  0.4196  0.1120 -0.6803
  502TMC3    H1 7466   1.604   0.164  15.577 -0.6324 -2.0597 -0.6813
  502TMC3    H2 7467   1.408   0.192  15.204 -0.0724  3.4822 -1.1598
  502TMC3    C7 7468   1.378   0.163  15.468  0.0941 -0.8100 -0.7739
  502TMC3    C8 7469   1.605   0.354  15.084 -0.3313 -0.4394  0.4969
  502TMC3    O1 7470   1.373   0.067  15.543  0.0333 -0.2968  0.1666
  502TMC3    O2 7471   1.680   0.451  15.079 -0.0219 -0.7965  0.1406
  503MPD2     C 7472   3.704   1.227  16.588  0.6857 -0.2509  0.0460
  503MPD2    C1 7473   3.720   1.273  16.715  0.1262 -0.1251  0.3823
  503MPD2    C2 7474   3.772   1.192  16.812  0.2644  0.6322  0.6072
  503MPD2    C3 7475   3.829   1.070  16.784  0.1712  0.0800 -0.3201
  503MPD2    C4 7476   3.812   1.022  16.655  0.1362  0.5941  0.0851
  503MPD2    C5 7477   3.749   1.102  16.568  0.7082  0.3438  0.0546
  503MPD2     H 7478   3.769   1.231  16.913 -3.5967 -2.9661  1.8680
  503MPD2    H1 7479   3.839   0.922  16.623 -2.6480  0.3895 -1.5625
  503MPD2    H2 7480   3.673   1.294  16.508  2.1931 -0.3617 -0.6314
  503MPD2    H3 7481   3.741   1.071  16.465  0.0883 -2.1886  0.8562
  503MPD2     N 7482   3.888   0.999  16.893  0.3151 -0.0176 -0.4228
  503MPD2    H5 7483   3.883   1.032  16.989  0.3840  0.5892 -0.6280
  503MPD2    N1 7484   3.689   1.400  16.753  0.1354  0.4641  0.1144
  503MPD2    H7 7485   3.708   1.417  16.851 -1.0463 -0.4956  0.5058
  504TMC3    C1 7486   4.019   0.817  16.984  1.0987 -0.1378  1.3043
  504TMC3    C2 7487   4.005   0.858  17.118 -0.5025  0.2323  0.5743
  504TMC3    C3 7488   4.090   0.818  17.209 -0.1658 -0.3009  0.1825
  504TMC3    C4 7489   4.127   0.753  16.948 -0.2953  0.0667 -0.8357
  504TMC3    C5 7490   4.227   0.730  17.038 -0.3368  0.0584 -0.2510
  504TMC3    C6 7491   4.212   0.763  17.167  0.0224  0.1873 -0.2941
  504TMC3     C 7492   3.943   0.875  16.873 -0.1286  0.2756 -0.0765
  504TMC3     O 7493   3.951   0.810  16.774 -0.3402  0.3269  0.2627
  504TMC3     H 7494   3.914   0.912  17.139 -1.6316  0.4858 -4.8309
  504TMC3    H1 7495   4.141   0.717  16.847  0.8845 -3.3505  0.5404
  504TMC3    H2 7496   4.287   0.750  17.244  0.7702  1.2308 -0.8458
  504TMC3    C7 7497   4.335   0.638  16.999 -0.7061  0.3067  0.2025
  504TMC3    C8 7498   4.064   0.837  17.347  0.0776  0.6025 -0.6145
  504TMC3    O1 7499   4.308   0.577  16.896  0.0692  0.1746 -0.0176
  504TMC3    O2 7500   3.982   0.918  17.378  0.5779 -0.2901  0.4346
  505MPD2     C 7501   4.011   4.057  10.831  0.2950  0.2798  0.4717
  505MPD2    C1 7502   4.085   4.129  10.745 -0.0862  0.3318 -0.5621
  505MPD2    C2 7503   4.198   4.188  10.793  0.1958 -0.5503 -0.3240
  505MPD2    C3 7504   4.245   4.169  10.919  0.3148  0.0587  0.5694
  505MPD2    C4 7505   4.172   4.087  11.000  0.5571  0.6651 -0.1854
  505MPD2    C5 7506   4.055   4.038  10.957  0.2093  0.2267  0.2918
  505MPD2     H 7507   4.264   4.240  10.724  0.4625 -0.5667 -0.0815
  505MPD2    H1 7508   4.200   4.066  11.103 -1.9053 -1.3457  0.0686
  505MPD2    H2 7509   3.912   4.020  10.806  0.2924 -1.2920  2.8028
  505MPD2    H3 7510   3.992   3.975  11.019 -1.1611  0.8371 -0.4832
  505MPD2     N 7511   4.368   4.225  10.964  0.4702  0.0260  0.3614
  505MPD2    H5 7512   4.411   4.180  11.045  2.3489  2.3051  0.6158
  505MPD2    N1 7513   4.039   4.129  10.612  0.2283 -0.4239 -0.2231
  505MPD2    H7 7514   3.953   4.081  10.587  0.2960 -0.0641 -1.1186
  506TMC3    C1 7515   4.054   4.130  10.388  0.2574  0.5769  0.7513
  506TMC3    C2 7516   4.118   4.202  10.296 -0.5134 -0.7126 -0.3215
  506TMC3    C3 7517   4.188   4.137  10.198  0.4354  0.2904  0.3187
  506TMC3    C4 7518   4.072   3.991  10.392  0.1922  0.1464  1.0575
  506TMC3    C5 7519   4.142   3.934  10.290  0.2605  0.1529  0.0150
  506TMC3    C6 7520   4.196   4.003  10.187  0.1771  0.0534  0.2662
  506TMC3     C 7521   4.111   4.173  10.508 -0.0917 -0.2402 -0.3146
  506TMC3     O 7522   4.228   4.199  10.506  0.6083 -0.3847 -0.0651
  506TMC3     H 7523   4.129   4.310  10.301 -1.4398 -0.6912  1.2583
  506TMC3    H1 7524   4.024   3.926  10.463 -0.0965 -1.2363 -0.4013
  506TMC3    H2 7525   4.269   3.963  10.118  0.4513  3.5771 -1.4774
  506TMC3    C7 7526   4.239   3.842  10.339 -0.4667 -0.4495  0.0535
  506TMC3    C8 7527   4.282   4.215  10.114 -0.3903 -0.1400  0.2971
  506TMC3    O1 7528   4.277   3.754  10.264  0.0651  0.0665 -0.1448
  506TMC3    O2 7529   4.314   4.323  10.149 -0.0329  0.1575  0.1478
  507TMC3    C1 7530   4.280   0.490  14.082  0.1121 -0.0481  1.1545
  507TMC3    C2 7531   4.295   0.547  13.960  0.0666 -0.2136 -0.1665
  507TMC3    C3 7532   4.415   0.585  13.920  0.3586  0.2646  0.2989
  507TMC3    C4 7533   4.383   0.468  14.170 -0.1031 -0.1726 -0.2651
  507TMC3    C5 7534   4.507   0.506  14.129 -0.1496 -0.0760  0.1690
  507TMC3    C6 7535   4.520   0.550  14.001  0.1626  0.1946  0.7002
  507TMC3     C 7536   4.146   0.446  14.111  0.4813  0.4565  1.0566
  507TMC3     O 7537   4.062   0.506  14.044 -0.4316  0.2674 -0.6503
  507TMC3     H 7538   4.206   0.572  13.903 -0.3910  2.0488  1.5318
  507TMC3    H1 7539   4.363   0.433  14.271 -1.0976 -0.5534 -0.5930
  507TMC3    H2 7540   4.618   0.580  13.964  0.3468  0.9064  1.7842
  507TMC3    C7 7541   4.584   0.579  14.231 -0.1385 -0.1635 -0.2423
  507TMC3    C8 7542   4.415   0.730  13.901  0.3434 -0.1592  0.7239
  507TMC3    O1 7543   4.667   0.652  14.176 -1.2067  0.5576 -0.3469
  507TMC3    O2 7544   4.336   0.792  13.968 -0.0385 -0.0518 -0.4177
  508MPD2     C 7545   0.986   2.837  16.027  0.3790  0.4371 -0.2274
  508MPD2    C1 7546   0.935   2.928  16.116  0.5784  0.4701 -0.3954
  508MPD2    C2 7547   0.885   3.048  16.067  0.1081 -0.2219 -0.2141
  508MPD2    C3 7548   0.872   3.069  15.934  0.0003 -0.4033  0.3729
  508MPD2    C4 7549   0.910   2.975  15.845 -0.0971  0.2059  0.8388
  508MPD2    C5 7550   0.972   2.863  15.895  0.0198 -0.0978  0.0234
  508MPD2     H 7551   0.829   3.116  16.130  0.0574  0.4045 -0.9469
  508MPD2    H1 7552   0.894   2.988  15.739 -1.4279  1.9803  1.2603
  508MPD2    H2 7553   1.047   2.749  16.046 -1.1363 -0.3596  0.9541
  508MPD2    H3 7554   1.016   2.797  15.821  0.8070  1.8551 -1.2428
  508MPD2     N 7555   0.812   3.194  15.898 -0.6542  0.0253 -0.1720
  508MPD2    H5 7556   0.781   3.261  15.968  2.0589 -1.6255  2.6018
  508MPD2    N1 7557   0.946   2.891  16.256  0.6263  0.4067 -0.1386
  508MPD2    H7 7558   0.979   2.797  16.276  0.7655  0.1059 -1.8431
  509TMC3    C1 7559   0.741   3.542  15.587 -0.0664 -0.7681 -0.3021
  509TMC3    C2 7560   0.830   3.616  15.652 -0.0567  0.0204  0.9083
  509TMC3    C3 7561   0.874   3.571  15.776  0.6691 -0.4555 -0.1337
  509TMC3    C4 7562   0.713   3.409  15.632 -0.3327 -0.1172 -0.1171
  509TMC3    C5 7563   0.754   3.374  15.757  0.0829 -0.0478  0.0331
  509TMC3    C6 7564   0.835   3.454  15.833 -0.4032  0.0122 -0.2548
  509TMC3     C 7565   0.675   3.581  15.468  0.1436 -0.2815 -1.0837
  509TMC3     O 7566   0.602   3.501  15.416 -0.5195 -0.9248  0.0690
  509TMC3     H 7567   0.832   3.723  15.634  1.8302 -0.0406  0.7432
  509TMC3    H1 7568   0.653   3.338  15.577 -0.1047  0.6847 -1.4059
  509TMC3    H2 7569   0.866   3.436  15.935  0.3059 -2.2227 -0.8638
  509TMC3    C7 7570   0.792   3.241  15.768  0.3812 -0.2778  0.6020
  509TMC3    C8 7571   0.992   3.633  15.841  0.0431  0.0257 -1.1277
  509TMC3    O1 7572   0.817   3.193  15.658  0.2926 -0.3023  0.0008
  509TMC3    O2 7573   1.030   3.589  15.947 -0.0210  0.1242 -0.1660
  510MPD2     C 7574   3.428   4.382  14.102 -0.0494  0.3667  0.3692
  510MPD2    C1 7575   3.469   4.458  14.210 -0.2766  0.1438 -0.4484
  510MPD2    C2 7576   3.590   4.519  14.217 -0.2173  0.2514  1.0686
  510MPD2    C3 7577   3.681   4.506  14.110 -0.0339  0.0182 -0.0317
  510MPD2    C4 7578   3.635   4.437  13.996  0.3529 -0.2919 -0.3761
  510MPD2    C5 7579   3.511   4.383  13.989 -1.2459 -0.4392  0.2155
  510MPD2     H 7580   3.613   4.565  14.313  1.3827 -1.4634  1.4972
  510MPD2    H1 7581   3.700   4.427  13.910  0.1330 -2.0188 -0.3418
  510MPD2    H2 7582   3.335   4.326  14.097  1.0529 -1.3836 -0.7963
  510MPD2    H3 7583   3.488   4.324  13.901  2.2842 -0.1358 -0.9049
  510MPD2     N 7584   3.813   4.563  14.123  0.3000 -0.6369  0.0252
  510MPD2    H5 7585   3.834   4.615  14.208  1.8275 -1.2771  0.0497
  510MPD2    N1 7586   3.386   4.452  14.324 -0.1042 -0.6295  0.8406
  510MPD2    H7 7587   3.295   4.411  14.308  0.5970 -0.6502 -2.9486
  511TMC3    C1 7588   3.281   4.485  14.530 -0.8830  0.7424  0.4971
  511TMC3    C2 7589   3.261   4.572  14.636  0.5061 -0.0154  0.3620
  511TMC3    C3 7590   3.188   4.533  14.746  0.0409  0.0507  0.3809
  511TMC3    C4 7591   3.252   4.353  14.543  0.5083  0.3503 -0.3530
  511TMC3    C5 7592   3.171   4.324  14.655  0.2039  0.3727 -0.1487
  511TMC3    C6 7593   3.133   4.406  14.753 -0.1075  0.0272 -0.4073
  511TMC3     C 7594   3.390   4.526  14.438  0.1720  0.0161  0.0069
  511TMC3     O 7595   3.480   4.596  14.483  0.1889  0.4531  0.0815
  511TMC3     H 7596   3.295   4.675  14.628 -0.4932  0.3619  1.0064
  511TMC3    H1 7597   3.272   4.276  14.469  0.4736  1.4232 -1.4698
  511TMC3    H2 7598   3.065   4.368  14.827  0.3893 -0.1004 -0.0178
  511TMC3    C7 7599   3.126   4.188  14.663 -0.5573 -0.3947  0.1643
  511TMC3    C8 7600   3.190   4.613  14.866  0.0796 -0.0733  0.2205
  511TMC3    O1 7601   3.105   4.131  14.555 -0.4724  0.5995 -0.1939
  511TMC3    O2 7602   3.199   0.013  14.857 -0.0032 -0.5682  0.4975
  512TMC3    C1 7603   2.266   4.087  13.352  0.0664  0.7686  0.4671
  512TMC3    C2 7604   2.363   4.064  13.456 -0.0329 -0.3982 -0.4699
  512TMC3    C3 7605   2.430   3.946  13.440 -0.0332 -0.2237  0.5292
  512TMC3    C4 7606   2.233   3.996  13.258  0.5325 -0.1038  0.1092
  512TMC3    C5 7607   2.310   3.883  13.251  0.5300  0.1243  0.1328
  512TMC3    C6 7608   2.411   3.857  13.339 -0.1763  0.0711 -0.0989
  512TMC3     C 7609   2.160   4.188  13.372 -0.1352 -0.2348 -0.0992
  512TMC3     O 7610   2.042   4.159  13.351 -0.1036 -0.0013 -0.2550
  512TMC3     H 7611   2.376   4.127  13.543  1.8052  0.4351 -1.3589
  512TMC3    H1 7612   2.157   4.029  13.189  1.0639  1.2410  0.1721
  512TMC3    H2 7613   2.476   3.770  13.337  0.3974  0.4935  0.3361
  512TMC3    C7 7614   2.267   3.782  13.161  0.6933 -0.3543 -0.2384
  512TMC3    C8 7615   2.515   3.913  13.548  0.5181 -0.6012  0.3772
  512TMC3    O1 7616   2.192   3.810  13.066 -0.6885 -0.3974 -0.1403
  512TMC3    O2 7617   2.553   3.800  13.557 -0.1318 -0.2054  0.0861
  513MPD2     C 7618   4.326   3.905  13.115  0.3988 -0.0485  0.4390
  513MPD2    C1 7619   4.435   3.872  13.037 -0.4776 -0.5083  1.0017
  513MPD2    C2 7620   4.542   3.962  13.035  0.3132  0.4468 -0.8726
  513MPD2    C3 7621   4.548   4.080  13.106  0.3975  0.9774 -0.3818
  513MPD2    C4 7622   4.437   4.116  13.176 -0.0933 -0.0322  0.0563
  513MPD2    C5 7623   4.335   4.025  13.180  0.0195 -0.5935 -0.2203
  513MPD2     H 7624   4.632   3.942  12.977  2.0770  0.1813  1.9549
  513MPD2    H1 7625   4.436   4.202  13.242 -1.2392  1.1227 -1.4753
  513MPD2    H2 7626   4.240   3.840  13.126 -1.2974  2.6220  3.0390
  513MPD2    H3 7627   4.252   4.055  13.242 -0.2840  1.2697 -1.5102
  513MPD2     N 7628   4.665   4.157  13.085 -0.4588 -0.7418  0.5994
  513MPD2    H5 7629   0.014   4.114  13.028  1.6352  2.6292  0.7341
  513MPD2    N1 7630   4.421   3.749  12.975 -0.0734  0.0423  0.1305
  513MPD2    H7 7631   4.335   3.696  12.986 -0.5501  0.5059 -1.4214
  514TMC3    C1 7632   4.485   3.564  12.850  0.2788 -0.1705 -0.3680
  514TMC3    C2 7633   4.382   3.583  12.760  0.0952  0.2701  0.5923
  514TMC3    C3 7634   4.407   3.552  12.626  0.7403  0.5738  0.1824
  514TMC3    C4 7635   4.603   3.498  12.809 -0.1268 -0.9331  0.5152
  514TMC3    C5 7636   4.617   3.474  12.674  0.6122  0.3632  0.0784
  514TMC3    C6 7637   4.522   3.488  12.583  0.0765 -0.4121 -0.2549
  514TMC3     C 7638   4.523   3.685  12.919 -0.6546 -0.0339 -0.5368
  514TMC3     O 7639   4.645   3.705  12.925  0.4132  0.1293  0.1795
  514TMC3     H 7640   4.293   3.639  12.786  0.9572  1.2612  1.3805
  514TMC3    H1 7641   4.674   3.475  12.887 -0.5040  0.5713  1.2984
  514TMC3    H2 7642   4.544   3.470  12.479 -0.8666  0.6596 -0.6359
  514TMC3    C7 7643   0.034   3.494  12.637 -0.0302 -0.1071  0.0789
  514TMC3    C8 7644   4.301   3.594  12.533 -0.4564 -0.2631 -0.2786
  514TMC3    O1 7645   0.081   3.446  12.536 -1.0605 -0.3348 -0.4583
  514TMC3    O2 7646   4.190   3.614  12.581 -0.5863 -0.1487 -0.4145
  515MPD2     C 7647   2.159   1.305  14.925 -0.4382  0.1156  0.4888
  515MPD2    C1 7648   2.181   1.174  14.887 -0.0437 -0.3738 -0.1042
  515MPD2    C2 7649   2.276   1.099  14.947 -0.2598 -0.4590 -0.1228
  515MPD2    C3 7650   2.364   1.165  15.035 -0.6782 -0.3346  0.7052
  515MPD2    C4 7651   2.336   1.291  15.078 -0.0345  0.1480  0.1994
  515MPD2    C5 7652   2.242   1.359  15.017  0.2003 -0.3247 -0.0138
  515MPD2     H 7653   2.300   1.001  14.908 -1.1447 -1.9657  3.1912
  515MPD2    H1 7654   2.404   1.340  15.147 -1.1324 -0.5075  1.7515
  515MPD2    H2 7655   2.070   1.357  14.891  0.1775  0.7978 -0.0615
  515MPD2    H3 7656   2.222   1.464  15.036  2.3279 -0.0264  0.5370
  515MPD2     N 7657   2.489   1.111  15.090  0.0958  0.3235  0.1682
  515MPD2    H5 7658   2.547   1.177  15.140 -3.0273  1.4646  2.2676
  515MPD2    N1 7659   2.100   1.104  14.792 -0.3120  0.7133  0.0722
  515MPD2    H7 7660   2.101   1.002  14.796  1.0420  0.6415 -2.2560
  516TMC3    C1 7661   1.931   1.076  14.626  0.1893 -0.1103 -0.5405
  516TMC3    C2 7662   1.886   1.114  14.502  0.3876 -0.1837  0.2157
  516TMC3    C3 7663   1.835   1.029  14.417  0.2351  0.5237  0.0511
  516TMC3    C4 7664   1.915   0.951  14.676  0.3291  0.7593 -0.7176
  516TMC3    C5 7665   1.845   0.865  14.590 -0.5047  0.2793  0.5056
  516TMC3    C6 7666   1.816   0.900  14.460 -0.0147  0.0790  0.2124
  516TMC3     C 7667   2.015   1.165  14.703  0.9908 -0.0566 -0.2938
  516TMC3     O 7668   2.006   1.283  14.671  0.2887 -0.5252 -0.3224
  516TMC3     H 7669   1.926   1.202  14.453 -2.9822  0.7898 -0.7818
  516TMC3    H1 7670   1.945   0.921  14.776 -2.8702 -0.6062 -0.1659
  516TMC3    H2 7671   1.804   0.825  14.382  0.6485  0.6842 -0.4692
  516TMC3    C7 7672   1.822   0.736  14.645  0.0757 -0.5652  0.2728
  516TMC3    C8 7673   1.855   1.041  14.274  0.2930  0.1043 -0.4398
  516TMC3    O1 7674   1.867   0.714  14.757  0.5520  0.0964 -0.9004
  516TMC3    O2 7675   1.775   0.995  14.188  0.0967  0.2814 -0.4863
  517MPD2     C 7676   1.992   2.599   0.244  0.1848 -0.2545  0.3992
  517MPD2    C1 7677   2.106   2.650   0.292  1.6233 -0.4889 -0.0314
  517MPD2    C2 7678   2.097   2.760   0.370 -0.5031 -0.2325  0.3578
  517MPD2    C3 7679   1.970   2.810   0.406  0.3957 -0.4033 -0.3790
  517MPD2    C4 7680   1.853   2.755   0.358  0.2754 -0.1479 -0.0189
  517MPD2    C5 7681   1.873   2.645   0.278 -0.1235 -0.4753 -0.3082
  517MPD2     H 7682   2.187   2.800   0.416 -0.7928  1.2308 -0.3366
  517MPD2    H1 7683   1.759   2.803   0.380  0.2570 -0.4034  0.4439
  517MPD2    H2 7684   1.992   2.519   0.171 -2.4683  2.7522 -2.8971
  517MPD2    H3 7685   1.787   2.590   0.241 -0.6033  0.0705 -0.0104
  517MPD2     N 7686   1.954   2.922   0.494 -0.4239 -0.4170 -0.4024
  517MPD2    H5 7687   1.859   2.947   0.517 -0.2280  1.7609 -1.8564
  517MPD2    N1 7688   2.238   2.602   0.250 -0.0044 -0.6118  0.2164
  517MPD2    H7 7689   2.317   2.630   0.307  0.8713 -0.0252 -1.3002
  518TMC3    C1 7690   2.407   2.499   0.137 -0.7228 -0.1393  0.1277
  518TMC3    C2 7691   2.448   2.389   0.209 -0.5768 -0.8098 -0.2886
  518TMC3    C3 7692   2.553   2.315   0.157 -0.0114 -0.5658  0.3825
  518TMC3    C4 7693   2.458   2.534   0.014 -0.4050 -0.0399 -0.1942
  518TMC3    C5 7694   2.557   2.455  17.660 -0.0236  0.6081 -0.5875
  518TMC3    C6 7695   2.606   2.351   0.032 -0.0930  0.4385  0.6494
  518TMC3     C 7696   2.260   2.522   0.147 -0.6009  0.2020  0.7237
  518TMC3     O 7697   2.188   2.487   0.056 -0.4823 -0.0117 -0.3778
  518TMC3     H 7698   2.410   2.369   0.308 -2.8406 -2.9030 -1.5849
  518TMC3    H1 7699   2.416   2.619  17.659 -0.6796 -0.3869 -0.5363
  518TMC3    H2 7700   2.698   2.300   0.004  0.2715  1.3878  0.1250
  518TMC3    C7 7701   2.623   2.504  17.542 -0.0632 -0.2169  0.1407
  518TMC3    C8 7702   2.564   2.169   0.186  0.4755  0.3743 -0.0199
  518TMC3    O1 7703   2.609   2.619  17.506 -0.3711 -0.5563 -0.3977
  518TMC3    O2 7704   2.623   2.099   0.110 -0.1031  0.6313 -0.0686
  519MPD2     C 7705   4.070   1.140  13.396 -0.5988 -0.3013 -0.0800
  519MPD2    C1 7706   3.989   1.114  13.506 -0.2047 -0.3161  0.0646
  519MPD2    C2 7707   3.987   0.982  13.565  0.2766 -0.8236 -0.2881
  519MPD2    C3 7708   4.069   0.886  13.518 -0.1771  0.4580 -0.0769
  519MPD2    C4 7709   4.154   0.916  13.413  0.3860  0.0640  0.1454
  519MPD2    C5 7710   4.151   1.039  13.355  0.1555 -0.0894 -0.3745
  519MPD2     H 7711   3.912   0.956  13.638  0.0865 -0.8618 -0.4942
  519MPD2    H1 7712   4.223   0.845  13.370  2.1322  1.9760 -0.1624
  519MPD2    H2 7713   4.082   1.238  13.353  0.3573 -1.3778 -2.2302
  519MPD2    H3 7714   4.218   1.055  13.271 -0.4786  1.6350 -0.5347
  519MPD2     N 7715   4.067   0.751  13.568 -0.1057 -0.5516 -0.2941
  519MPD2    H5 7716   4.128   0.680  13.529  0.1251 -1.3295  1.4635
  519MPD2    N1 7717   3.915   1.220  13.563 -0.5624 -0.0981  0.0269
  519MPD2    H7 7718   3.911   1.307  13.510  0.5727  0.6122  1.1214
  520TMC3    C1 7719   3.972   0.559  13.669  0.4215 -0.8654  0.4441
  520TMC3    C2 7720   3.856   0.508  13.733 -1.0168 -0.0527 -0.0219
  520TMC3    C3 7721   3.856   0.385  13.789 -0.6089 -0.0978  0.6088
  520TMC3    C4 7722   4.082   0.484  13.671  0.8097 -0.2693  0.4769
  520TMC3    C5 7723   4.081   0.363  13.736 -0.0350  0.5923  0.0343
  520TMC3    C6 7724   3.971   0.302  13.790 -0.4391 -0.2130  0.5414
  520TMC3     C 7725   3.977   0.706  13.663 -0.4187  0.2624 -0.4774
  520TMC3     O 7726   3.899   0.766  13.735 -0.6520 -0.0506  1.3291
  520TMC3     H 7727   3.767   0.570  13.745 -0.1433  0.7862  2.1316
  520TMC3    H1 7728   4.174   0.534  13.640  1.6318 -0.7689  2.1394
  520TMC3    H2 7729   3.968   0.198  13.820  1.5209 -0.5717 -0.4912
  520TMC3    C7 7730   4.210   0.305  13.777  0.0153 -0.2247  0.3008
  520TMC3    C8 7731   3.725   0.313  13.791 -0.3350 -1.1709 -0.1646
  520TMC3    O1 7732   4.209   0.209  13.856  0.1002  0.9725  0.2815
  520TMC3    O2 7733   3.724   0.203  13.737 -0.4764 -0.2242 -0.1394
  521MPD2     C 7734   0.093   3.694   0.083  0.2488 -0.0628 -0.5773
  521MPD2    C1 7735   0.069   3.607  17.673 -0.0324  1.0870  0.6660
  521MPD2    C2 7736   0.174   3.532  17.626  0.0594 -0.4152  0.1164
  521MPD2    C3 7737   0.302   3.557  17.664  0.5676 -0.8011 -0.1833
  521MPD2    C4 7738   0.325   3.648   0.069 -0.7804  0.1887  0.7942
  521MPD2    C5 7739   0.220   3.715   0.129 -0.3879  0.9918 -0.3549
  521MPD2     H 7740   0.152   3.444  17.567 -2.3790  0.8937 -0.9582
  521MPD2    H1 7741   0.416   3.676   0.121  0.4937 -1.2825 -0.6359
  521MPD2    H2 7742   0.017   3.756   0.130 -0.5576 -0.8819 -0.8018
  521MPD2    H3 7743   0.235   3.773   0.219 -0.1658  1.4637 -0.6967
  521MPD2     N 7744   0.403   3.476  17.600  0.2294  0.2170  0.0281
  521MPD2    H5 7745   0.378   3.398  17.540 -1.2019  0.9619 -0.3335
  521MPD2    N1 7746   4.657   3.597  17.625  0.7361 -0.2747 -0.3667
  521MPD2    H7 7747   4.593   3.654  17.679  1.8986 -0.2479  0.9855
  522TMC3    C1 7748   0.605   3.406  17.517 -0.5966  0.3890 -0.3140
  522TMC3    C2 7749   0.706   3.330  17.558  0.4151 -0.3956  0.6032
  522TMC3    C3 7750   0.739   3.212  17.495  0.8673 -0.2256  0.5789
  522TMC3    C4 7751   0.528   3.369  17.410 -0.2822 -0.6909 -0.2228
  522TMC3    C5 7752   0.545   3.238  17.364 -0.8862  0.0467 -0.0359
  522TMC3    C6 7753   0.648   3.161  17.403 -0.4151 -0.0080 -0.3897
  522TMC3     C 7754   0.537   3.499  17.613  0.7493 -0.3950 -0.1772
  522TMC3     O 7755   0.597   3.559   0.003 -0.3689  0.4115  0.0269
  522TMC3     H 7756   0.773   3.363  17.637  2.3367 -2.0591 -0.3128
  522TMC3    H1 7757   0.447   3.432  17.378  0.0925  0.3677  0.8944
  522TMC3    H2 7758   0.665   3.063  17.358 -0.2190  0.1997 -0.7727
  522TMC3    C7 7759   0.503   3.213  17.229  0.5496 -0.3543  0.1501
  522TMC3    C8 7760   0.876   3.206  17.460  0.5677 -0.3654 -0.1820
  522TMC3    O1 7761   0.554   3.116  17.170  0.0678  0.1457 -0.3843
  522TMC3    O2 7762   0.958   3.272  17.526 -0.3432  0.3053  0.0016
  523MPD2     C 7763   2.259   3.127  10.193  0.6659  0.1283 -0.1955
  523MPD2    C1 7764   2.220   3.061  10.080 -0.1832 -0.1876 -0.0291
  523MPD2    C2 7765   2.168   3.140   9.977 -0.5824  0.6479 -0.0760
  523MPD2    C3 7766   2.135   3.277  10.005  0.0053 -1.1894  0.6139
  523MPD2    C4 7767   2.167   3.329  10.123  0.2512  0.6411  0.0952
  523MPD2    C5 7768   2.238   3.261  10.218  0.2338 -0.3389  0.1046
  523MPD2     H 7769   2.128   3.088   9.890 -2.3025  0.0047  1.1049
  523MPD2    H1 7770   2.157   3.437  10.128 -0.9456  0.4782  1.2910
  523MPD2    H2 7771   2.310   3.073  10.272 -2.2891 -0.5524  1.2555
  523MPD2    H3 7772   2.277   3.302  10.310 -2.0808  3.4699 -0.6125
  523MPD2     N 7773   2.067   3.361   9.910 -0.4374 -0.2415 -0.4040
  523MPD2    H5 7774   2.044   3.456   9.934  0.7895 -0.0746  0.0811
  523MPD2    N1 7775   2.236   2.919  10.079 -0.1802  0.8660  0.3487
  523MPD2    H7 7776   2.277   2.880  10.163 -0.6165  0.4175  0.3590
  524TMC3    C1 7777   1.971   3.450   9.714  0.2061 -0.1234  0.6526
  524TMC3    C2 7778   1.971   3.462   9.579  0.7019  0.3437  0.2446
  524TMC3    C3 7779   1.936   3.584   9.522 -0.1567  0.1359 -0.3787
  524TMC3    C4 7780   1.921   3.547   9.797 -0.3935 -0.4500  0.6946
  524TMC3    C5 7781   1.873   3.664   9.734  0.0387 -0.1006 -0.4637
  524TMC3    C6 7782   1.888   3.683   9.601 -0.1676  0.0849  0.4549
  524TMC3     C 7783   2.032   3.332   9.780  0.3447  0.7891  0.1084
  524TMC3     O 7784   2.052   3.226   9.717 -0.6445  0.2104  0.0323
  524TMC3     H 7785   2.038   3.399   9.522 -1.8480 -3.1240  1.0153
  524TMC3    H1 7786   1.882   3.517   9.894  1.7357 -0.0741  1.6596
  524TMC3    H2 7787   1.847   3.771   9.553 -1.6755 -0.6431  0.4093
  524TMC3    C7 7788   1.782   3.755   9.811 -0.5552 -0.6671  0.1229
  524TMC3    C8 7789   1.986   3.628   9.400 -0.8555 -0.8146 -0.6087
  524TMC3    O1 7790   1.734   3.708   9.914 -0.1782  0.0401  0.2205
  524TMC3    O2 7791   2.002   3.753   9.385  0.3649 -0.1478  0.5547
  525MPD2     C 7792   0.301   0.502  14.358 -0.3512 -0.4198 -0.0551
  525MPD2    C1 7793   0.414   0.560  14.424  0.0545 -0.5727  0.5855
  525MPD2    C2 7794   0.437   0.697  14.405  0.1104  0.9697 -0.1197
  525MPD2    C3 7795   0.341   0.782  14.362  0.6885 -0.5721  0.3154
  525MPD2    C4 7796   0.230   0.725  14.307 -0.0591 -0.4178  0.8404
  525MPD2    C5 7797   0.215   0.589  14.303  0.0178  0.0479  0.1992
  525MPD2     H 7798   0.520   0.752  14.448  0.1624  0.1357  0.8574
  525MPD2    H1 7799   0.144   0.773  14.263  0.3866 -0.7446 -0.3970
  525MPD2    H2 7800   0.270   0.399  14.345  0.9459 -0.5699 -1.8587
  525MPD2    H3 7801   0.133   0.540  14.253 -0.6875  0.4035  1.0055
  525MPD2     N 7802   0.359   0.917  14.378  0.1948  0.2818 -0.0895
  525MPD2    H5 7803   0.452   0.951  14.401  0.1183 -0.1629  0.9041
  525MPD2    N1 7804   0.508   0.484  14.501  0.0284  0.1430 -0.6773
  525MPD2    H7 7805   0.599   0.522  14.526  0.1910 -1.1563  0.6380
  526TMC3    C1 7806   0.614   0.292  14.586  0.1128 -0.5503  0.3239
  526TMC3    C2 7807   0.589   0.178  14.658  0.2227  0.4377 -0.1658
  526TMC3    C3 7808   0.698   0.112  14.700  0.4646 -0.2017 -0.2240
  526TMC3    C4 7809   0.736   0.346  14.554  0.0461  0.5099  0.2581
  526TMC3    C5 7810   0.843   0.268  14.589  1.0074 -0.1295 -0.5211
  526TMC3    C6 7811   0.823   0.154  14.664  0.0695 -0.7666 -0.0452
  526TMC3     C 7812   0.497   0.347  14.524  0.3754  0.3820  0.2839
  526TMC3     O 7813   0.397   0.277  14.514 -0.1906 -0.3595 -0.6085
  526TMC3     H 7814   0.492   0.147  14.696 -0.4676  1.6664 -0.9392
  526TMC3    H1 7815   0.753   0.431  14.488 -1.8940  1.2461  0.7362
  526TMC3    H2 7816   0.907   0.101  14.709  0.7119  1.5164  1.3972
  526TMC3    C7 7817   0.969   0.287  14.517  0.6690  0.4011 -0.6110
  526TMC3    C8 7818   0.682   0.004  14.798  0.4087  0.0066 -0.2994
  526TMC3    O1 7819   0.998   0.397  14.476 -0.1663  0.3303 -0.3016
  526TMC3    O2 7820   0.766   4.639  14.804 -0.2755 -0.6065 -0.3424
  527MPD2     C 7821   3.020   2.410   1.446  0.0664  0.2315 -0.4642
  527MPD2    C1 7822   3.151   2.394   1.461  0.7045  0.2067 -0.0333
  527MPD2    C2 7823   3.233   2.439   1.357 -0.9842 -0.2845 -0.5560
  527MPD2    C3 7824   3.189   2.510   1.248  0.0631  0.6257  0.3769
  527MPD2    C4 7825   3.053   2.524   1.229 -0.2459 -0.4687 -0.0215
  527MPD2    C5 7826   2.969   2.471   1.330 -0.0931 -0.2278  0.1750
  527MPD2     H 7827   3.339   2.418   1.363 -0.7845  0.9449  0.4208
  527MPD2    H1 7828   3.019   2.587   1.147  0.5262  0.7000  0.5621
  527MPD2    H2 7829   2.946   2.370   1.514  0.4596 -1.4426 -1.0038
  527MPD2    H3 7830   2.862   2.489   1.327 -0.1001 -0.2368  0.3744
  527MPD2     N 7831   3.292   2.556   1.163  0.3853 -0.4357 -0.4854
  527MPD2    H5 7832   3.385   2.553   1.203  0.2280  0.8255 -0.0121
  527MPD2    N1 7833   3.216   2.321   1.566 -0.0470  0.0766 -0.4961
  527MPD2    H7 7834   3.312   2.344   1.590 -0.7101 -0.7941  3.0068
  528TMC3    C1 7835   3.228   2.215   1.772 -0.0351 -0.0404  0.2047
  528TMC3    C2 7836   3.326   2.302   1.814  0.7475  0.2967  0.2482
  528TMC3    C3 7837   3.421   2.247   1.895  0.5601  0.6249  0.0992
  528TMC3    C4 7838   3.204   2.086   1.808  0.7472 -0.0299  0.0422
  528TMC3    C5 7839   3.296   2.043   1.895 -0.4155  0.3074 -0.2375
  528TMC3    C6 7840   3.408   2.117   1.932  0.3471  0.0979 -0.3540
  528TMC3     C 7841   3.145   2.258   1.666  0.0541 -0.9918  0.0274
  528TMC3     O 7842   3.036   2.209   1.646  0.5096 -0.2396 -0.2393
  528TMC3     H 7843   3.351   2.394   1.763 -1.1310  0.2875 -0.6916
  528TMC3    H1 7844   3.125   2.021   1.774 -0.0499  0.6078  0.6919
  528TMC3    H2 7845   3.467   2.082   2.016 -0.1666  0.5525  0.1882
  528TMC3    C7 7846   3.282   1.916   1.964  0.0289  0.2293 -0.2013
  528TMC3    C8 7847   3.555   2.310   1.892 -0.3558  0.0340 -0.4287
  528TMC3    O1 7848   3.371   1.893   2.044 -0.8063 -0.0734 -0.1873
  528TMC3    O2 7849   3.560   2.427   1.845 -0.5033  0.5530 -0.0749
  529MPD2     C 7850   1.647   1.868   0.777 -0.5110  0.4259  0.4471
  529MPD2    C1 7851   1.557   1.780   0.724 -0.2270 -0.1476  0.5610
  529MPD2    C2 7852   1.512   1.789   0.593  0.2839 -0.1638  0.2219
  529MPD2    C3 7853   1.561   1.900   0.519  0.8695  0.0818  0.8661
  529MPD2    C4 7854   1.652   1.987   0.572 -0.0544  0.0286 -0.1858
  529MPD2    C5 7855   1.698   1.965   0.696  0.0279  0.6525 -0.0536
  529MPD2     H 7856   1.443   1.718   0.550 -0.2945 -0.0030  0.8749
  529MPD2    H1 7857   1.694   2.070   0.516  0.1692  0.2864  0.3572
  529MPD2    H2 7858   1.707   1.853   0.866  0.6573 -0.5483 -0.5009
  529MPD2    H3 7859   1.766   2.039   0.736  1.0243 -1.4080  2.1001
  529MPD2     N 7860   1.524   1.930   0.387 -0.1118  0.0511 -0.3061
  529MPD2    H5 7861   1.566   2.007   0.335  1.6194 -1.2911 -0.8932
  529MPD2    N1 7862   1.502   1.674   0.802  0.3604 -0.2501 -0.4562
  529MPD2    H7 7863   1.444   1.607   0.752 -0.0666 -0.7146  0.6626
  530TMC3    C1 7864   1.474   1.539   1.003  0.6645  0.7197  1.3953
  530TMC3    C2 7865   1.445   1.530   1.132 -0.0248  0.3719  0.1425
  530TMC3    C3 7866   1.417   1.409   1.189  0.0076 -0.7385  0.0761
  530TMC3    C4 7867   1.452   1.423   0.927  1.0619 -0.5152 -0.2986
  530TMC3    C5 7868   1.411   1.308   0.981 -0.0905  0.3416 -0.0218
  530TMC3    C6 7869   1.392   1.297   1.116 -0.2327  0.2359 -0.4258
  530TMC3     C 7870   1.520   1.664   0.939  0.4863 -0.0290  0.0773
  530TMC3     O 7871   1.560   1.749   1.011 -0.2089 -0.1390 -0.3882
  530TMC3     H 7872   1.476   1.617   1.188 -3.1123  1.0151  0.8016
  530TMC3    H1 7873   1.461   1.447   0.822  1.4162 -3.2832 -0.8903
  530TMC3    H2 7874   1.360   1.209   1.172 -2.0462  0.9760 -0.2973
  530TMC3    C7 7875   1.354   1.220   0.876 -0.5454 -0.3024  0.3674
  530TMC3    C8 7876   1.395   1.407   1.334 -0.4443 -0.2598  0.9027
  530TMC3    O1 7877   1.344   1.268   0.763  0.2189 -0.3025 -0.1908
  530TMC3    O2 7878   1.360   1.507   1.393 -0.2325 -0.0871 -0.4961
  531MPD2     C 7879   0.414   3.847  12.672 -0.9293 -0.4537 -0.6115
  531MPD2    C1 7880   0.323   3.870  12.773  0.3001 -0.6346 -0.3325
  531MPD2    C2 7881   0.216   3.782  12.785  0.0965  0.1560 -0.0705
  531MPD2    C3 7882   0.207   3.668  12.703 -0.2848 -0.0038  0.1447
  531MPD2    C4 7883   0.302   3.642  12.612  0.1329  0.1717 -0.3761
  531MPD2    C5 7884   0.407   3.730  12.596 -0.3442  0.3235 -0.6219
  531MPD2     H 7885   0.146   3.802  12.865 -0.7731  1.4215 -1.1440
  531MPD2    H1 7886   0.296   3.558  12.544  1.0605  1.4315 -2.0288
  531MPD2    H2 7887   0.498   3.915  12.661  0.8240 -2.4366  0.4244
  531MPD2    H3 7888   0.483   3.715  12.522  0.2120 -0.9738  0.2102
  531MPD2     N 7889   0.083   3.596  12.718  0.2106 -0.3273  0.4515
  531MPD2    H5 7890   0.021   3.642  12.784  0.0972 -2.8060  2.0531
  531MPD2    N1 7891   0.341   3.992  12.844  0.2909  0.1094  0.2918
  531MPD2    H7 7892   0.429   4.041  12.843  0.2374  0.1625 -1.3859
  532TMC3    C1 7893   0.263   4.182  12.969  0.9789  0.1503  0.1734
  532TMC3    C2 7894   0.141   4.244  12.980  0.0500 -0.3780 -0.2073
  532TMC3    C3 7895   0.109   4.311  13.093 -0.3357  0.8835 -0.2106
  532TMC3    C4 7896   0.361   4.189  13.065 -0.0893 -0.2269 -0.5259
  532TMC3    C5 7897   0.328   4.271  13.169 -0.0042 -0.1788 -0.3171
  532TMC3    C6 7898   0.202   4.331  13.187 -0.7083 -0.1810  0.9160
  532TMC3     C 7899   0.239   4.057  12.901 -0.4298  0.4530 -0.1026
  532TMC3     O 7900   0.118   4.032  12.888 -0.0719 -0.7748 -0.4910
  532TMC3     H 7901   0.072   4.252  12.897 -0.7969 -0.6180  0.4805
  532TMC3    H1 7902   0.450   4.127  13.061 -0.4030 -0.6681 -0.6620
  532TMC3    H2 7903   0.171   4.366  13.285 -1.4936  1.0335  0.2267
  532TMC3    C7 7904   0.411   4.270  13.284 -1.0268 -0.4672 -0.3449
  532TMC3    C8 7905   4.699   4.281  13.135 -0.3485 -0.7581  0.2986
  532TMC3    O1 7906   0.531   4.277  13.269  0.2580  0.3206 -0.4221
  532TMC3    O2 7907   4.646   4.342  13.221  0.1291  0.6522  0.9117
  533TMC3    C1 7908   0.299   1.126  14.445 -0.2643 -1.0821  0.1309
  533TMC3    C2 7909   0.420   1.174  14.414  0.1901  0.0649 -0.0363
  533TMC3    C3 7910   0.473   1.268  14.488 -0.2085 -0.2187  0.0169
  533TMC3    C4 7911   0.224   1.169  14.550 -0.0529  0.7036  0.0118
  533TMC3    C5 7912   0.284   1.262  14.632  0.3434  0.0088  0.1511
  533TMC3    C6 7913   0.401   1.324  14.595 -0.8011  0.0648 -0.0250
  533TMC3     C 7914   0.263   1.009  14.382 -0.2280 -0.2825 -0.2110
  533TMC3     O 7915   0.144   0.996  14.373 -0.3575  0.0284 -0.2156
  533TMC3     H 7916   0.468   1.142  14.322  2.7686  1.4209  0.8379
  533TMC3    H1 7917   0.133   1.114  14.574  1.5921 -1.5968  1.0129
  533TMC3    H2 7918   0.436   1.411  14.649  0.1190 -0.6324  0.5056
  533TMC3    C7 7919   0.314   1.192  14.751  0.3756  0.6791  0.3774
  533TMC3    C8 7920   0.619   1.292  14.484 -0.0940 -0.2886 -1.1972
  533TMC3    O1 7921   0.249   1.091  14.774 -0.1927  0.2582 -0.2000
  533TMC3    O2 7922   0.658   1.342  14.587  0.6258  0.3500 -0.5971
  534MPD2     C 7923   3.815   1.340   2.357  0.1396 -0.5442 -0.0108
  534MPD2    C1 7924   3.745   1.367   2.240 -0.4959 -0.0679  0.1615
  534MPD2    C2 7925   3.649   1.272   2.192 -0.1720 -0.5259  0.4934
  534MPD2    C3 7926   3.646   1.154   2.265 -0.0843  0.0953  0.0171
  534MPD2    C4 7927   3.714   1.130   2.385 -0.3129 -0.2022 -0.5583
  534MPD2    C5 7928   3.800   1.223   2.428  0.0709  0.4971 -0.2593
  534MPD2     H 7929   3.581   1.299   2.113  0.3642  0.0462  0.2252
  534MPD2    H1 7930   3.708   1.038   2.442  0.2869  1.0411  1.5136
  534MPD2    H2 7931   3.882   1.419   2.389 -2.0317  0.4950  2.0031
  534MPD2    H3 7932   3.859   1.201   2.517 -3.3188  0.9362  2.1023
  534MPD2     N 7933   3.557   1.046   2.236 -0.6101  0.5572  0.2906
  534MPD2    H5 7934   3.552   0.969   2.301 -1.1965  1.5511  1.4117
  534MPD2    N1 7935   3.765   1.483   2.161  0.1110  0.7780  0.0160
  534MPD2    H7 7936   3.711   1.485   2.075  0.5023  0.1128 -0.2529
  535TMC3    C1 7937   3.403   0.945   2.088  0.4437  0.1723  0.0172
  535TMC3    C2 7938   3.313   0.935   2.186  0.4540  0.1269  0.4819
  535TMC3    C3 7939   3.185   0.890   2.157 -0.4814  0.4471  0.4676
  535TMC3    C4 7940   3.370   0.919   1.960 -0.3364 -0.1564  0.2913
  535TMC3    C5 7941   3.240   0.884   1.933  0.1273  0.0389 -0.1103
  535TMC3    C6 7942   3.151   0.866   2.027  0.1313  0.5274 -0.2938
  535TMC3     C 7943   3.511   1.043   2.103 -0.5028 -1.3999  0.2873
  535TMC3     O 7944   3.557   1.100   2.006 -0.0443  0.4606 -0.1408
  535TMC3     H 7945   3.327   0.967   2.289 -0.4652  1.1286  0.2939
  535TMC3    H1 7946   3.426   0.950   1.873 -1.5612  1.4055  0.0520
  535TMC3    H2 7947   3.052   0.834   1.997  0.2332 -0.1531  0.0909
  535TMC3    C7 7948   3.192   0.958   1.817 -0.3960  0.8256 -0.3800
  535TMC3    C8 7949   3.070   0.921   2.231  1.0421  0.3663 -0.1332
  535TMC3    O1 7950   3.255   0.969   1.714 -0.0416 -0.1386  0.2885
  535TMC3    O2 7951   2.979   0.969   2.164 -0.3993 -0.4318  0.2828
  536MPD2     C 7952   1.729   0.263  17.045  0.4996 -0.1662  0.0115
  536MPD2    C1 7953   1.794   0.222  16.928  0.3174 -0.1795  0.2114
  536MPD2    C2 7954   1.756   0.273  16.808 -0.2718  0.4455  0.7038
  536MPD2    C3 7955   1.652   0.358  16.796 -0.3156 -1.2755  0.4945
  536MPD2    C4 7956   1.595   0.408  16.912 -0.4001 -0.1813  0.1332
  536MPD2    C5 7957   1.635   0.356  17.035  0.3761 -0.4971 -1.1821
  536MPD2     H 7958   1.808   0.236  16.721 -0.4273  0.7700  0.4775
  536MPD2    H1 7959   1.515   0.481  16.907 -0.6204 -0.5072 -1.0967
  536MPD2    H2 7960   1.757   0.218  17.139 -0.8527 -2.0623 -0.4834
  536MPD2    H3 7961   1.601   0.406  17.125  0.8374 -0.0714 -1.2485
  536MPD2     N 7962   1.611   0.415  16.677 -0.0477  0.0997 -0.2503
  536MPD2    H5 7963   1.527   0.472  16.677  0.0788  0.2878 -0.1008
  536MPD2    N1 7964   1.891   0.118  16.940 -0.1335 -0.1908 -0.0586
  536MPD2    H7 7965   1.912   0.084  17.033 -1.4796  2.2475  1.1358
  537TMC3    C1 7966   2.014   4.656  16.889  0.2019 -0.2179  0.5485
  537TMC3    C2 7967   2.110   4.697  16.976 -0.0947  0.2974 -0.1175
  537TMC3    C3 7968   2.175   4.596  17.044 -0.3318 -0.6425 -0.5586
  537TMC3    C4 7969   1.966   4.528  16.884  0.2915 -0.4233 -0.7820
  537TMC3    C5 7970   2.029   4.432  16.955  0.3473 -0.6054 -0.3097
  537TMC3    C6 7971   2.132   4.464  17.041 -0.1241 -0.7491  0.6035
  537TMC3     C 7972   1.926   0.033  16.845 -0.0356  0.4857  0.0328
  537TMC3     O 7973   1.872   0.005  16.739 -0.5048  0.3237  0.2586
  537TMC3     H 7974   2.158   0.069  16.963  0.1166  0.3478  1.0606
  537TMC3    H1 7975   1.885   4.500  16.817 -1.2934 -0.0599  0.9980
  537TMC3    H2 7976   2.192   4.384  17.084 -0.2133 -0.9673  0.3233
  537TMC3    C7 7977   1.961   4.310  16.981  0.2981 -0.2111 -0.0901
  537TMC3    C8 7978   2.300   4.619  17.102 -0.2683  0.3102  0.1894
  537TMC3    O1 7979   1.877   4.281  16.895  0.6497 -0.0181  0.6534
  537TMC3    O2 7980   2.320   0.007  17.146 -0.0198  0.5785 -0.2103
  538TMC3    C1 7981   3.071   2.722  10.736  0.0636 -0.6106 -0.9401
  538TMC3    C2 7982   3.183   2.709  10.656  0.0177  0.4149 -0.3586
  538TMC3    C3 7983   3.171   2.689  10.520  0.3698 -0.3145  0.2031
  538TMC3    C4 7984   2.946   2.719  10.679  0.6603 -0.7335  0.3944
  538TMC3    C5 7985   2.937   2.712  10.543  0.1053  0.2005  1.0467
  538TMC3    C6 7986   3.043   2.691  10.468  0.9878 -0.0960  0.5273
  538TMC3     C 7987   3.080   2.774  10.870  0.5440 -0.3535 -0.0139
  538TMC3     O 7988   3.009   2.866  10.899  0.0701  0.3817 -0.2295
  538TMC3     H 7989   3.277   2.722  10.709 -0.1671  1.8992 -0.4072
  538TMC3    H1 7990   2.864   2.746  10.745 -0.2244 -1.0738 -0.5667
  538TMC3    H2 7991   3.033   2.706  10.362 -1.2670  0.6602  0.8651
  538TMC3    C7 7992   2.861   2.819  10.492 -0.5502 -0.3694  0.4503
  538TMC3    C8 7993   3.255   2.773  10.448 -0.3943 -0.0039 -0.4497
  538TMC3    O1 7994   2.740   2.824  10.500  0.7969  0.7062 -0.0541
  538TMC3    O2 7995   3.243   2.890  10.476  0.0565  0.2976 -0.1846
  539MPD2     C 7996   2.790   2.290  11.805 -0.1247  0.5178  0.5948
  539MPD2    C1 7997   2.797   2.308  11.677  0.1315 -0.9741  0.0265
  539MPD2    C2 7998   2.823   2.431  11.619 -0.0255 -0.1646 -0.7906
  539MPD2    C3 7999   2.821   2.543  11.698 -0.0842  0.2500 -0.5341
  539MPD2    C4 8000   2.798   2.528  11.835  0.2691 -0.0868  0.5356
  539MPD2    C5 8001   2.790   2.400  11.884  0.0318 -0.8894 -0.6363
  539MPD2     H 8002   2.844   2.435  11.513 -0.7925  0.7501 -0.9043
  539MPD2    H1 8003   2.800   2.614  11.901 -3.4933 -0.8086  1.6009
  539MPD2    H2 8004   2.772   2.195  11.854 -2.0183  1.7482  2.3351
  539MPD2    H3 8005   2.777   2.388  11.991  1.7578  1.2273 -0.2097
  539MPD2     N 8006   2.834   2.671  11.637 -0.2381 -0.3293 -0.2433
  539MPD2    H5 8007   2.781   2.740  11.690 -0.7103  0.1770 -1.3739
  539MPD2    N1 8008   2.794   2.201  11.582  0.4650  0.0671  0.2884
  539MPD2    H7 8009   2.773   2.213  11.483  3.4225  0.4603 -0.2764
  540TMC3    C1 8010   2.823   2.837  11.478  0.1817  0.4907  0.2443
  540TMC3    C2 8011   2.786   2.868  11.348  0.2964  0.6046 -0.4345
  540TMC3    C3 8012   2.775   2.995  11.309  0.1741 -0.0079 -0.2461
  540TMC3    C4 8013   2.846   2.932  11.567  0.1453  0.2902 -0.0223
  540TMC3    C5 8014   2.825   3.061  11.524 -0.4408  0.3254  0.0326
  540TMC3    C6 8015   2.793   3.095  11.393  0.3111 -0.2231 -0.0313
  540TMC3     C 8016   2.864   2.698  11.505  0.2407 -1.6044 -1.3402
  540TMC3     O 8017   2.912   2.628  11.420 -0.3888  0.1266 -0.0135
  540TMC3     H 8018   2.767   2.782  11.285  1.7421  0.5754 -0.8375
  540TMC3    H1 8019   2.892   2.909  11.663  1.5594  0.2865 -0.7071
  540TMC3    H2 8020   2.781   3.196  11.355  0.4035 -0.2726 -0.1912
  540TMC3    C7 8021   2.776   3.141  11.625  0.4044 -0.0104 -0.1394
  540TMC3    C8 8022   2.749   3.029  11.170  0.2180 -0.1224 -0.1763
  540TMC3    O1 8023   2.750   3.092  11.735  0.6164 -0.4721  0.3335
  540TMC3    O2 8024   2.790   3.131  11.113  0.0413  0.0779  0.3933
  541MPD2     C 8025   1.528   3.981  13.525 -0.5939  0.4564  0.2841
  541MPD2    C1 8026   1.434   3.961  13.422  0.5269  0.4195 -0.5815
  541MPD2    C2 8027   1.457   4.008  13.298  0.3036  0.8946 -0.2563
  541MPD2    C3 8028   1.573   4.077  13.281 -0.6443 -0.8383  0.2022
  541MPD2    C4 8029   1.661   4.101  13.381  0.8596  0.3125  0.2610
  541MPD2    C5 8030   1.638   4.053  13.505  0.6940 -0.2334 -0.1156
  541MPD2     H 8031   1.379   3.988  13.225  0.1502  1.0947 -0.1464
  541MPD2    H1 8032   1.747   4.165  13.364  0.9420  0.0364 -0.3789
  541MPD2    H2 8033   1.501   3.959  13.627 -0.1537  4.8857  1.3570
  541MPD2    H3 8034   1.699   4.084  13.589 -0.5357 -2.2723  1.5201
  541MPD2     N 8035   1.603   4.140  13.155  0.2816  0.0821 -0.2508
  541MPD2    H5 8036   1.688   4.195  13.158  2.3296 -2.9959 -1.2398
  541MPD2    N1 8037   1.321   3.877  13.437 -0.2788  0.8627  0.4673
  541MPD2    H7 8038   1.270   3.852  13.352  1.5506  2.1945 -1.0363
  542TMC3    C1 8039   1.563   4.217  12.935  0.5763  0.3012 -0.1831
  542TMC3    C2 8040   1.571   4.167  12.807 -0.3406 -0.7958  0.8624
  542TMC3    C3 8041   1.582   4.252  12.703 -0.4418  0.6769  0.3336
  542TMC3    C4 8042   1.563   4.351  12.961  0.6533  0.5006 -0.0764
  542TMC3    C5 8043   1.573   4.432  12.851  0.1334 -0.8436  0.3807
  542TMC3    C6 8044   1.581   4.390  12.726 -0.3485  0.2967 -0.5148
  542TMC3     C 8045   1.527   4.129  13.039  0.3763  0.0518 -0.2421
  542TMC3     O 8046   1.444   4.046  13.005  0.0783 -0.1034 -0.5689
  542TMC3     H 8047   1.566   4.060  12.791 -0.1165 -0.2991 -2.5728
  542TMC3    H1 8048   1.562   4.396  13.060 -1.5771 -1.8910  0.9689
  542TMC3    H2 8049   1.587   4.460  12.644 -2.9100 -0.5066 -1.3801
  542TMC3    C7 8050   1.595   4.572  12.881 -0.4955 -0.2668  0.0691
  542TMC3    C8 8051   1.620   4.202  12.571 -0.1169 -0.4141 -0.5113
  542TMC3    O1 8052   1.629   4.600  12.994 -0.5261  0.0892 -0.3725
  542TMC3    O2 8053   1.587   4.251  12.465  0.3498 -0.1329  0.3062
  543TMC3    C1 8054   0.748   0.261  17.566 -0.5082  0.2537 -0.3363
  543TMC3    C2 8055   0.810   0.142  17.578  0.2672  0.5579 -0.1936
  543TMC3    C3 8056   0.812   0.078   0.006  0.3831 -0.2911  0.0676
  543TMC3    C4 8057   0.667   0.309  17.666  0.4495 -0.5191 -0.3940
  543TMC3    C5 8058   0.667   0.243   0.089  0.2682 -0.4917  0.3747
  543TMC3    C6 8059   0.740   0.131   0.112  0.0434  0.3273 -0.0165
  543TMC3     C 8060   0.754   0.328  17.433 -0.3747  0.1211  0.1573
  543TMC3     O 8061   0.694   0.433  17.419  0.2869 -0.1481  0.4301
  543TMC3     H 8062   0.856   0.091  17.494  0.1297  1.0059 -0.5398
  543TMC3    H1 8063   0.627   0.409  17.659 -1.5414 -1.2933 -0.0196
  543TMC3    H2 8064   0.732   0.074   0.204 -0.2902  1.4249  0.6302
  543TMC3    C7 8065   0.567   0.275   0.197  1.0283  0.1995 -0.1234
  543TMC3    C8 8066   0.820   4.659  17.677  0.7666 -0.3552  0.6142
  543TMC3    O1 8067   0.584   0.218   0.307 -0.0348  0.3025  0.5293
  543TMC3    O2 8068   0.857   4.613  17.569 -0.3196 -0.4463  0.3777
  544MPD2     C 8069   0.649   4.205   0.132 -0.4018  0.4908  0.0918
  544MPD2    C1 8070   0.636   4.263   0.008 -0.3773  0.2672 -0.0256
  544MPD2    C2 8071   0.685   4.393  17.692  0.5597  0.0533  0.3340
  544MPD2    C3 8072   0.740   4.457   0.104 -0.0942 -0.3210 -0.0805
  544MPD2    C4 8073   0.741   4.396   0.226  0.2834 -0.3069 -0.2141
  544MPD2    C5 8074   0.697   4.270   0.237  0.5002 -0.4318 -1.3300
  544MPD2     H 8075   0.687   4.448  17.599 -1.5806  0.8169  0.7366
  544MPD2    H1 8076   0.781   4.443   0.315  1.2077 -0.6386 -0.4557
  544MPD2    H2 8077   0.616   4.103   0.146  0.6990  0.0763 -0.2590
  544MPD2    H3 8078   0.717   4.218   0.330 -2.9023  3.0930  1.3811
  544MPD2     N 8079   0.776   4.596   0.096 -0.3862 -0.7616  0.0279
  544MPD2    H5 8080   0.780   4.644   0.186 -2.9855 -0.2006 -0.1509
  544MPD2    N1 8081   0.573   4.197  17.597  0.0401 -0.7659  0.3929
  544MPD2    H7 8082   0.564   4.096  17.602  0.2044 -0.7885  0.2004
  545TMC3    C1 8083   0.556   4.173  17.360 -0.3462  0.2040  0.4962
  545TMC3    C2 8084   0.461   4.180  17.267 -0.9295  0.3503  0.3424
  545TMC3    C3 8085   0.478   4.099  17.153 -0.1073 -0.7736 -0.3885
  545TMC3    C4 8086   0.669   4.096  17.353  0.2736  0.8094  0.3222
  545TMC3    C5 8087   0.691   4.032  17.232  0.2754  0.3822  0.1711
  545TMC3    C6 8088   0.596   4.026  17.133 -0.7633 -0.5374 -0.3896
  545TMC3     C 8089   0.551   4.261  17.473 -0.2626 -0.1059 -0.3463
  545TMC3     O 8090   0.524   4.376  17.439  0.8183  0.5941 -0.2411
  545TMC3     H 8091   0.383   4.255  17.274  2.1611  3.5320  0.6289
  545TMC3    H1 8092   0.738   4.094  17.437  1.2809 -1.9488 -0.5914
  545TMC3    H2 8093   0.616   3.983  17.035  1.7838 -0.7997  0.2549
  545TMC3    C7 8094   0.826   4.004  17.196  0.4540  0.5815 -0.7185
  545TMC3    C8 8095   0.386   4.110  17.047  0.4936  0.1022  1.0699
  545TMC3    O1 8096   0.853   3.978  17.076  0.1490  0.1241  0.0469
  545TMC3    O2 8097   0.293   4.187  17.071 -0.9089  0.4456  0.2358
  546MPD2     C 8098   1.959   1.015  17.117  0.5262  0.3820  0.4812
  546MPD2    C1 8099   1.932   1.026  17.250 -0.4683 -0.1557 -0.5172
  546MPD2    C2 8100   2.024   1.078  17.336  0.3444 -0.2438 -0.5010
  546MPD2    C3 8101   2.144   1.130  17.285 -0.5385  0.0352  0.2751
  546MPD2    C4 8102   2.162   1.133  17.149 -0.4801 -0.1253  0.3926
  546MPD2    C5 8103   2.070   1.080  17.069 -0.1303 -0.2647 -0.9452
  546MPD2     H 8104   2.004   1.077  17.443  0.7455  0.2543 -0.4266
  546MPD2    H1 8105   2.250   1.177  17.104 -0.5396  0.7923  1.1730
  546MPD2    H2 8106   1.899   0.951  17.054  0.0739  2.1046 -0.8419
  546MPD2    H3 8107   2.081   1.076  16.962  0.2917 -1.5756 -0.8548
  546MPD2     N 8108   2.244   1.199  17.359  0.7242  0.0016 -0.5667
  546MPD2    H5 8109   2.329   1.220  17.309  0.4156 -1.2643 -1.6291
  546MPD2    N1 8110   1.811   0.974  17.302  0.4061 -0.2945  0.4752
  546MPD2    H7 8111   1.748   0.933  17.234  0.0077  3.4147 -1.3532
  547TMC3    C1 8112   1.638   0.917  17.449 -0.7679 -0.6187 -0.1184
  547TMC3    C2 8113   1.554   0.950  17.353  0.2216 -0.4308 -0.2627
  547TMC3    C3 8114   1.432   0.888  17.353  0.3253  0.7569  0.2984
  547TMC3    C4 8115   1.607   0.829  17.555  0.4543 -0.4026  0.1781
  547TMC3    C5 8116   1.484   0.774  17.553  0.1560  0.2692  0.0223
  547TMC3    C6 8117   1.395   0.801  17.448 -0.4001  0.0844  0.3242
  547TMC3     C 8118   1.773   0.964  17.434 -0.0033  0.3570  0.6728
  547TMC3     O 8119   1.846   0.948  17.532  0.1084 -0.5750  0.7775
  547TMC3     H 8120   1.572   1.021  17.273  2.7498  0.1286  0.7858
  547TMC3    H1 8121   1.678   0.822  17.636  0.3944  1.6613  0.4051
  547TMC3    H2 8122   1.291   0.772  17.454 -0.0438 -1.0169  1.0579
  547TMC3    C7 8123   1.450   0.663  17.632  0.1363  0.3367 -0.4021
  547TMC3    C8 8124   1.330   0.916  17.249 -0.3410 -0.7424  0.6850
  547TMC3    O1 8125   1.503   0.663   0.048 -0.0171 -0.4676  0.2856
  547TMC3    O2 8126   1.216   0.922  17.289 -0.2162 -1.1575  0.3006
  548MPD2     C 8127   2.173   1.220  12.200  0.1177  0.0962  0.5319
  548MPD2    C1 8128   2.145   1.105  12.261 -0.2676  0.6213  0.2207
  548MPD2    C2 8129   2.240   1.003  12.275 -0.1303  0.6471 -0.9919
  548MPD2    C3 8130   2.365   1.023  12.221 -0.5830 -0.3258  0.7807
  548MPD2    C4 8131   2.389   1.145  12.155 -0.0658  0.2929 -0.1382
  548MPD2    C5 8132   2.292   1.240  12.149  0.4958  0.1607  0.3465
  548MPD2     H 8133   2.213   0.904  12.312 -1.5025  0.8033 -1.5850
  548MPD2    H1 8134   2.488   1.167  12.117 -0.7736 -0.4464 -2.4617
  548MPD2    H2 8135   2.102   1.301  12.195  0.1342  0.0916  0.2621
  548MPD2    H3 8136   2.323   1.335  12.108  0.4332 -0.6509 -1.6009
  548MPD2     N 8137   2.458   0.923  12.235 -0.1328  0.8460 -0.1941
  548MPD2    H5 8138   2.423   0.848  12.293  3.7041  0.3724  1.4868
  548MPD2    N1 8139   2.018   1.103  12.321 -0.4299  0.2462  0.0140
  548MPD2    H7 8140   1.952   1.176  12.295  1.7868  2.6045  1.1241
  549TMC3    C1 8141   1.844   1.024  12.455 -0.0763 -0.1918  0.0640
  549TMC3    C2 8142   1.806   1.153  12.488  0.2899 -0.5603 -0.4748
  549TMC3    C3 8143   1.693   1.168  12.556 -0.0062 -0.1561 -0.0164
  549TMC3    C4 8144   1.779   0.914  12.497  0.1236 -0.1572  0.1120
  549TMC3    C5 8145   1.668   0.932  12.571 -0.0944 -0.9343 -0.1679
  549TMC3    C6 8146   1.618   1.055  12.595 -0.0516 -0.1599  0.5214
  549TMC3     C 8147   1.971   0.994  12.393 -0.4510  0.0068 -0.3319
  549TMC3     O 8148   2.026   0.895  12.438 -0.2350 -0.0018 -0.6593
  549TMC3     H 8149   1.861   1.235  12.444  1.6790 -2.2651 -1.9423
  549TMC3    H1 8150   1.794   0.821  12.444 -2.6901 -0.8503  0.5196
  549TMC3    H2 8151   1.523   1.069  12.646 -0.8947 -0.2620 -1.0401
  549TMC3    C7 8152   1.668   0.857  12.697  0.2040  0.6596  0.1506
  549TMC3    C8 8153   1.619   1.282  12.515  0.0609 -0.6284 -0.7305
  549TMC3    O1 8154   1.610   0.901  12.794 -0.0907  0.4394 -0.1007
  549TMC3    O2 8155   1.498   1.261  12.492 -0.1333 -0.3632 -0.1685
  550TMC3    C1 8156   0.907   3.816  11.984  0.0172  0.1064 -0.1060
  550TMC3    C2 8157   0.910   3.932  12.057 -0.0984  0.3690  0.0770
  550TMC3    C3 8158   0.788   3.983  12.081  0.1477  0.4550  0.0109
  550TMC3    C4 8159   0.793   3.758  11.931  0.1300 -0.5384  0.1890
  550TMC3    C5 8160   0.670   3.815  11.964  0.1654  0.9336 -0.3864
  550TMC3    C6 8161   0.666   3.930  12.034 -0.1477 -0.2878  0.3210
  550TMC3     C 8162   1.031   3.774  11.925  0.0027 -0.0771 -0.4886
  550TMC3     O 8163   1.134   3.769  11.989  0.2779 -0.1717  0.0246
  550TMC3     H 8164   0.998   3.993  12.076  1.1324 -0.9652 -1.3959
  550TMC3    H1 8165   0.803   3.659  11.888  0.7015 -0.9149  1.2010
  550TMC3    H2 8166   0.570   3.970  12.064 -0.5730 -1.2642  0.2729
  550TMC3    C7 8167   0.542   3.778  11.904  0.0648 -0.2722 -0.0321
  550TMC3    C8 8168   0.768   4.093  12.169  1.5104  0.2444  0.6338
  550TMC3    O1 8169   0.440   3.814  11.959  0.0691  0.4773  0.1096
  550TMC3    O2 8170   0.653   4.145  12.170 -0.3400  0.4062 -0.2187
  551TMC3    C1 8171   2.789   1.732  13.415  0.8219 -0.3837  0.5535
  551TMC3    C2 8172   2.905   1.768  13.364 -0.4179  0.1295  0.3815
  551TMC3    C3 8173   3.013   1.792  13.449 -0.0989  0.7979 -0.7481
  551TMC3    C4 8174   2.775   1.736  13.551  0.7538 -0.0129  0.3065
  551TMC3    C5 8175   2.885   1.755  13.638 -0.1095  0.1094 -0.3504
  551TMC3    C6 8176   3.004   1.779  13.577  0.5991 -0.0897 -0.2694
  551TMC3     C 8177   2.697   1.676  13.317  0.1297  0.4668  0.2421
  551TMC3     O 8178   2.726   1.684  13.198  0.2047 -0.3364 -0.1286
  551TMC3     H 8179   2.922   1.776  13.257  0.3996  1.0633  0.5730
  551TMC3    H1 8180   2.690   1.699  13.607  0.0065  0.0820 -0.7596
  551TMC3    H2 8181   3.089   1.794  13.644 -1.0824 -1.4983  2.1961
  551TMC3    C7 8182   2.864   1.792  13.776  0.2758  0.2279  0.5361
  551TMC3    C8 8183   3.114   1.879  13.404 -0.0667  1.0072  0.3260
  551TMC3    O1 8184   2.954   1.779  13.862 -0.0309  0.2767 -0.3898
  551TMC3    O2 8185   3.221   1.882  13.457  0.3776  0.0268  0.4266
  552MPD2     C 8186   4.721   4.207  13.847  0.1103  0.6763 -0.0256
  552MPD2    C1 8187   4.672   4.102  13.920 -0.8657  0.8159  0.3836
  552MPD2    C2 8188   0.022   4.046  14.017 -0.3685 -0.3048  0.3370
  552MPD2    C3 8189   0.156   4.075  14.040 -0.4922 -0.3464  0.6957
  552MPD2    C4 8190   0.204   4.184  13.973  0.1034  0.4657 -0.1851
  552MPD2    C5 8191   0.130   4.244  13.874 -0.2848 -0.1788 -0.7444
  552MPD2     H 8192   4.699   3.971  14.079  0.6115  0.2110  1.6911
  552MPD2    H1 8193   0.304   4.221  13.992  0.6020 -0.5900 -0.7879
  552MPD2    H2 8194   4.666   4.243  13.761  0.5721  0.9148 -0.2199
  552MPD2    H3 8195   0.182   4.319  13.816  1.8003 -1.0537 -0.0157
  552MPD2     N 8196   0.246   4.008  14.129  0.1350  0.0558  0.2645
  552MPD2    H5 8197   0.341   4.042  14.140  0.6997 -1.5011  0.1399
  552MPD2    N1 8198   4.542   4.047  13.895 -0.3437  0.4332 -0.7585
  552MPD2    H7 8199   4.527   3.962  13.948 -4.1464  0.7893 -1.2918
  553TMC3    C1 8200   4.350   3.981  13.765 -0.1042  0.0095 -0.3143
  553TMC3    C2 8201   4.311   3.967  13.638  0.0351 -0.2159  0.0190
  553TMC3    C3 8202   4.238   3.847  13.605 -0.3399 -0.0855  0.0491
  553TMC3    C4 8203   4.328   3.876  13.860  0.0139  0.7978 -0.0382
  553TMC3    C5 8204   4.240   3.777  13.823  1.0366 -0.6996  0.3202
  553TMC3    C6 8205   4.186   3.763  13.697 -0.6046  0.8421  0.5927
  553TMC3     C 8206   4.462   4.074  13.787 -0.1152 -0.2450  0.2290
  553TMC3     O 8207   4.461   4.174  13.719 -0.2421 -0.0500  0.6704
  553TMC3     H 8208   4.347   4.027  13.555  1.7277  0.2137  1.0775
  553TMC3    H1 8209   4.356   3.891  13.963  1.5196 -3.4873  0.1746
  553TMC3    H2 8210   4.135   3.674  13.662 -2.5050  2.4137 -0.6316
  553TMC3    C7 8211   4.232   3.655  13.893  0.2969 -0.3984 -0.8792
  553TMC3    C8 8212   4.204   3.823  13.466 -0.4614  0.3850 -0.6113
  553TMC3    O1 8213   4.122   3.597  13.897  0.1738  0.1650  0.6539
  553TMC3    O2 8214   4.095   3.861  13.422  0.3557  0.1982  0.9046
  554TMC3    C1 8215   2.170   2.722  11.657  0.4488 -0.4834  0.5679
  554TMC3    C2 8216   2.065   2.661  11.586  0.5071  0.2427  0.5641
  554TMC3    C3 8217   2.076   2.653  11.450 -0.7381 -0.1404  0.8158
  554TMC3    C4 8218   2.286   2.755  11.585  0.5624 -0.6173 -0.4594
  554TMC3    C5 8219   2.288   2.731  11.449  0.4498  0.3445  0.3633
  554TMC3    C6 8220   2.182   2.690  11.376 -0.1399 -0.2651  1.0583
  554TMC3     C 8221   2.194   2.685  11.797 -0.0436 -0.1337 -0.0161
  554TMC3     O 8222   2.272   2.757  11.862 -0.0539  0.1929  0.2926
  554TMC3     H 8223   1.975   2.644  11.643 -1.6133 -0.6496 -3.0519
  554TMC3    H1 8224   2.380   2.768  11.639 -0.6857  1.5133  1.1957
  554TMC3    H2 8225   2.184   2.696  11.268  3.4841  0.6064  1.1707
  554TMC3    C7 8226   2.378   2.815  11.374  0.7431 -0.5287  0.2169
  554TMC3    C8 8227   1.961   2.611  11.368  0.1817 -0.0207 -0.3192
  554TMC3    O1 8228   2.411   2.774  11.265  0.4931 -0.9080 -0.1839
  554TMC3    O2 8229   1.989   2.583  11.253 -0.3257 -0.6015 -0.4121
  555TMC3    C1 8230   1.300   2.025  14.749  0.0165  0.1743  0.7756
  555TMC3    C2 8231   1.313   2.114  14.851  0.1138  0.7202  0.0140
  555TMC3    C3 8232   1.351   2.068  14.979  0.3832  0.2326  0.2904
  555TMC3    C4 8233   1.324   1.893  14.775  0.1145 -0.1488  1.0337
  555TMC3    C5 8234   1.341   1.848  14.904 -0.3585 -0.3847 -0.0742
  555TMC3    C6 8235   1.358   1.931  15.011  0.1279  0.1610  0.6905
  555TMC3     C 8236   1.246   2.069  14.627 -0.6447  0.3540 -0.5294
  555TMC3     O 8237   1.266   1.999  14.527 -0.4209 -0.0772  0.7972
  555TMC3     H 8238   1.324   2.222  14.838 -1.0746  0.7744 -0.4805
  555TMC3    H1 8239   1.311   1.817  14.699 -0.1449  0.1205  0.8085
  555TMC3    H2 8240   1.386   1.886  15.106  2.4190  0.2602  0.0527
  555TMC3    C7 8241   1.365   1.711  14.918  0.4721  1.0866 -0.1782
  555TMC3    C8 8242   1.318   2.153  15.091  0.1672 -0.4206  0.2859
  555TMC3    O1 8243   1.459   1.666  14.850 -0.1847  0.5064  0.2797
  555TMC3    O2 8244   1.221   2.227  15.088  0.6249 -0.5017 -0.1674
  556MPD2     C 8245   3.017   3.730  10.576 -0.0191 -0.1271  0.6371
  556MPD2    C1 8246   3.154   3.735  10.585  0.6748  0.3382  0.3168
  556MPD2    C2 8247   3.219   3.703  10.466 -0.0872  0.1168 -0.2686
  556MPD2    C3 8248   3.146   3.671  10.353  0.1384  0.8033  0.2980
  556MPD2    C4 8249   3.006   3.676  10.349 -0.1018  0.0114  0.5869
  556MPD2    C5 8250   2.937   3.707  10.463 -0.2035  0.2327  0.1123
  556MPD2     H 8251   3.328   3.702  10.469 -0.0992  0.1265  0.2344
  556MPD2    H1 8252   2.943   3.659  10.262  0.7752 -1.1778  0.1826
  556MPD2    H2 8253   2.964   3.740  10.670 -1.0331 -0.6213  0.1140
  556MPD2    H3 8254   2.829   3.712  10.463 -0.1518  1.2911 -1.1776
  556MPD2     N 8255   3.217   3.639  10.240  0.1631 -0.0200 -0.0311
  556MPD2    H5 8256   3.316   3.624  10.253  0.1610 -0.1584 -0.1649
  556MPD2    N1 8257   3.219   3.762  10.703  0.3878  0.3508 -0.6034
  556MPD2    H7 8258   3.317   3.737  10.695  0.6113  0.8838  0.5393
  557TMC3    C1 8259   3.256   3.535  10.030 -0.1103 -0.1364 -0.3972
  557TMC3    C2 8260   3.216   3.514   9.904 -0.3021  0.3708 -0.0155
  557TMC3    C3 8261   3.235   3.395   9.848 -0.5995  0.1206 -0.5807
  557TMC3    C4 8262   3.332   3.433  10.093  0.2119  0.3599 -0.8625
  557TMC3    C5 8263   3.341   3.311  10.038 -1.0684  0.2528  0.3567
  557TMC3    C6 8264   3.299   3.290   9.904  0.8973 -0.3023  0.1774
  557TMC3     C 8265   3.169   3.617  10.113 -0.1883 -0.3588  0.0829
  557TMC3     O 8266   3.069   3.664  10.059 -0.0731  0.2128 -0.4490
  557TMC3     H 8267   3.145   3.583   9.860 -0.8711  0.6249  1.3170
  557TMC3    H1 8268   3.346   3.435  10.200  1.3657  0.8652 -1.0249
  557TMC3    H2 8269   3.304   3.197   9.848  0.6238 -0.4068  0.3228
  557TMC3    C7 8270   3.390   3.193  10.122  0.3708  0.3398  0.2950
  557TMC3    C8 8271   3.195   3.389   9.706  0.2191 -0.5433 -1.0039
  557TMC3    O1 8272   3.391   3.195  10.246 -0.0977  0.1043  0.2042
  557TMC3    O2 8273   3.188   3.500   9.656  0.0977  0.4583 -0.8583
  558TMC3    C1 8274   1.371   1.455   9.860  0.0858 -0.2505 -0.5029
  558TMC3    C2 8275   1.275   1.385   9.938 -0.4738  0.0487  0.3000
  558TMC3    C3 8276   1.149   1.398   9.885 -0.1154  0.1267  0.1900
  558TMC3    C4 8277   1.352   1.509   9.738  0.0733  0.4044  0.3803
  558TMC3    C5 8278   1.226   1.505   9.690  0.8584 -0.2074 -0.2334
  558TMC3    C6 8279   1.122   1.462   9.770 -0.0036 -0.2882 -0.2242
  558TMC3     C 8280   1.502   1.447   9.910 -0.1165 -0.2438  0.7907
  558TMC3     O 8281   1.517   1.428  10.029 -0.0454  0.8642 -0.4387
  558TMC3     H 8282   1.300   1.318  10.019  1.8577  0.9536  0.3169
  558TMC3    H1 8283   1.425   1.574   9.691  2.0352 -3.0209 -1.3852
  558TMC3    H2 8284   1.017   1.468   9.744  0.1897  1.2634 -0.6423
  558TMC3    C7 8285   1.190   1.562   9.559  0.2153 -0.3794  0.1204
  558TMC3    C8 8286   1.038   1.389   9.979  0.4525  0.3622 -0.2021
  558TMC3    O1 8287   1.274   1.623   9.498  0.1781 -0.1088  0.0020
  558TMC3    O2 8288   0.922   1.375   9.946  0.0259 -0.4811 -0.7532
  559MPD2     C 8289   1.494   2.282  10.596  0.8171  0.5959  0.6909
  559MPD2    C1 8290   1.400   2.239  10.689  0.7822  0.2373  0.3113
  559MPD2    C2 8291   1.442   2.213  10.817 -0.0817 -0.5078  0.0361
  559MPD2    C3 8292   1.570   2.243  10.854  0.1367  0.3553 -0.2141
  559MPD2    C4 8293   1.664   2.292  10.764  0.1793  0.4696 -0.0838
  559MPD2    C5 8294   1.621   2.320  10.637  0.7672  0.5459 -0.0490
  559MPD2     H 8295   1.381   2.162  10.890 -0.0698  1.3584  1.3513
  559MPD2    H1 8296   1.761   2.335  10.785  0.0413  0.3035  0.9032
  559MPD2    H2 8297   1.465   2.307  10.495 -3.7489  0.6307  2.0304
  559MPD2    H3 8298   1.685   2.377  10.572 -1.6208  0.4273 -2.5187
  559MPD2     N 8299   1.594   2.219  10.989  0.4148 -0.8162 -0.3471
  559MPD2    H5 8300   1.513   2.180  11.037  1.8848 -0.4333  2.4791
  559MPD2    N1 8301   1.266   2.216  10.644  0.5769 -0.0332  0.3306
  559MPD2    H7 8302   1.249   2.199  10.546 -1.2320  0.5817  0.5408
  560TMC3    C1 8303   1.712   2.176  11.191  0.5183  0.2315 -0.1266
  560TMC3    C2 8304   1.606   2.101  11.236 -0.1090  0.1872 -0.6804
  560TMC3    C3 8305   1.623   2.045  11.360  0.1209  0.1563 -0.0436
  560TMC3    C4 8306   1.817   2.217  11.267  0.0028  0.2073 -0.7156
  560TMC3    C5 8307   1.828   2.150  11.386 -0.6297 -0.4656  0.3549
  560TMC3    C6 8308   1.732   2.066  11.434 -0.0956 -0.0245 -0.0802
  560TMC3     C 8309   1.712   2.230  11.054 -0.3835 -0.7700 -0.2919
  560TMC3     O 8310   1.820   2.255  11.001 -0.2305 -0.2779 -0.5756
  560TMC3     H 8311   1.524   2.062  11.177 -1.0043  1.1773 -0.0942
  560TMC3    H1 8312   1.881   2.295  11.228  2.3547 -0.7504  1.2399
  560TMC3    H2 8313   1.749   2.010  11.525  0.2288 -0.7653 -0.6000
  560TMC3    C7 8314   1.935   2.189  11.480 -0.7945 -0.1319 -0.3753
  560TMC3    C8 8315   1.542   1.923  11.377 -0.2056 -0.3628 -0.7696
  560TMC3    O1 8316   1.922   2.160  11.599 -0.2183 -0.0882  0.5597
  560TMC3    O2 8317   1.600   1.813  11.371  0.4834 -0.0282  0.1572
  561TMC3    C1 8318   4.307   1.465  11.081  0.7566  0.2096 -0.1272
  561TMC3    C2 8319   4.311   1.405  11.200 -0.0021 -0.2999  0.2936
  561TMC3    C3 8320   4.281   1.482  11.306 -0.3506 -0.2652  0.2425
  561TMC3    C4 8321   4.295   1.603  11.067 -0.0362  0.0082 -0.4301
  561TMC3    C5 8322   4.261   1.676  11.179  0.0023 -0.0738  0.3555
  561TMC3    C6 8323   4.251   1.618  11.302  0.2218 -0.5012  0.2279
  561TMC3     C 8324   4.364   1.399  10.962  0.0159 -0.1074  0.4566
  561TMC3     O 8325   4.365   1.470  10.863 -0.9466 -0.0581  0.9636
  561TMC3     H 8326   4.355   1.308  11.221  0.3892 -0.6383 -2.1872
  561TMC3    H1 8327   4.318   1.649  10.971 -1.4335  2.7471  0.5366
  561TMC3    H2 8328   4.227   1.666  11.397  1.3480 -1.6849  1.1184
  561TMC3    C7 8329   4.232   1.817  11.174  0.6593 -0.6999 -0.1368
  561TMC3    C8 8330   4.309   1.420  11.435  0.2715 -0.3924  0.6849
  561TMC3    O1 8331   4.185   1.859  11.278  0.1960  0.0377  0.2838
  561TMC3    O2 8332   4.383   1.323  11.438 -0.1433 -0.5403 -0.7059
  562TMC3    C1 8333   0.685   2.643  16.096 -0.9077  0.2393  0.0308
  562TMC3    C2 8334   0.635   2.767  16.117  0.4582  0.2502 -0.5024
  562TMC3    C3 8335   0.614   2.838  16.005 -0.1147  0.2284 -0.7612
  562TMC3    C4 8336   0.723   2.585  15.974 -0.4144  0.2747 -0.2093
  562TMC3    C5 8337   0.681   2.659  15.863  0.1995  0.1654 -0.2016
  562TMC3    C6 8338   0.628   2.783  15.880 -0.1769 -0.9809  0.1835
  562TMC3     C 8339   0.729   2.565  16.213 -0.3586  1.0031  0.4194
  562TMC3     O 8340   0.808   2.471  16.187  0.0143 -0.3827 -0.1942
  562TMC3     H 8341   0.624   2.812  16.215  1.9730  0.0514 -0.2283
  562TMC3    H1 8342   0.777   2.491  15.964 -0.2678  0.5739 -2.1578
  562TMC3    H2 8343   0.612   2.841  15.790 -0.2594 -0.0001  0.8316
  562TMC3    C7 8344   0.701   2.604  15.732 -1.1015  0.3594 -0.5274
  562TMC3    C8 8345   0.543   2.957  16.020  0.8069 -0.1429 -0.2321
  562TMC3    O1 8346   0.689   2.685  15.644  0.1348 -0.3505  0.5263
  562TMC3    O2 8347   0.518   2.994  16.133  0.0618 -0.3285  0.3941
  563MPD2     C 8348   3.118   4.011  15.956  0.2239  0.3836 -0.3309
  563MPD2    C1 8349   3.098   3.953  16.079 -0.0171 -0.1523  0.1100
  563MPD2    C2 8350   3.196   3.859  16.115  1.2065  0.8615 -0.2170
  563MPD2    C3 8351   3.292   3.806  16.038 -0.3443  0.2751  0.0204
  563MPD2    C4 8352   3.303   3.857  15.911  0.1090 -0.1791 -0.5521
  563MPD2    C5 8353   3.216   3.962  15.870  0.1770 -0.1048 -0.1473
  563MPD2     H 8354   3.185   3.823  16.217  1.4823  0.1963 -0.4184
  563MPD2    H1 8355   3.381   3.839  15.838 -1.0507  0.0434 -1.8387
  563MPD2    H2 8356   3.061   4.096  15.921 -0.1266 -0.3693 -1.6065
  563MPD2    H3 8357   3.231   4.006  15.772  2.2474  2.6949  1.4406
  563MPD2     N 8358   3.381   3.712  16.089 -0.2253  0.1767 -0.1171
  563MPD2    H5 8359   3.364   3.684  16.185  0.7253  0.6753  0.1915
  563MPD2    N1 8360   2.995   3.996  16.168 -0.3331 -0.2658  0.1436
  563MPD2    H7 8361   2.991   3.951  16.259  1.7987  0.2097  0.4630
  564TMC3    C1 8362   2.792   4.072  16.238  0.4961 -0.2127  0.6093
  564TMC3    C2 8363   2.684   4.014  16.176  0.0976 -0.0905 -0.0188
  564TMC3    C3 8364   2.618   3.910  16.231 -0.0631 -0.5248  0.0651
  564TMC3    C4 8365   2.829   4.027  16.360  0.7981 -0.2264  0.5775
  564TMC3    C5 8366   2.778   3.903  16.399  0.4512  0.0962 -0.2428
  564TMC3    C6 8367   2.665   3.851  16.346 -0.0867  0.9369 -0.0351
  564TMC3     C 8368   2.903   4.090  16.148 -0.7900 -0.5583 -0.6099
  564TMC3     O 8369   2.889   4.172  16.058  0.0251  0.0329  0.5601
  564TMC3     H 8370   2.644   4.060  16.086  3.0924  0.4148 -1.0805
  564TMC3    H1 8371   2.897   4.083  16.423 -0.1363 -0.1724  1.5298
  564TMC3    H2 8372   2.622   3.757  16.378  2.8612 -0.0408  1.0004
  564TMC3    C7 8373   2.888   3.814  16.431  0.2438 -0.2132 -0.0730
  564TMC3    C8 8374   2.580   3.812  16.133  0.5218 -0.6892 -0.6910
  564TMC3    O1 8375   2.990   3.860  16.485 -0.0866 -0.3145  0.2147
  564TMC3    O2 8376   2.506   3.724  16.180 -0.1900  0.4146  0.6971
  565TMC3    C1 8377   4.104   0.406  10.191  0.1553 -0.0627  0.2287
  565TMC3    C2 8378   3.987   0.377  10.253 -0.0318 -0.2253 -0.1952
  565TMC3    C3 8379   3.906   0.282  10.194  0.6895 -0.3092 -0.2193
  565TMC3    C4 8380   4.142   0.349  10.071 -0.0713 -0.3682  0.5285
  565TMC3    C5 8381   4.055   0.257  10.021  0.5622 -0.2615  0.1951
  565TMC3    C6 8382   3.937   0.221  10.077  0.0584  0.0351 -0.2479
  565TMC3     C 8383   4.190   0.511  10.231  0.2397 -0.1019  0.0435
  565TMC3     O 8384   4.278   0.533  10.155  0.4793  0.1579  0.3054
  565TMC3     H 8385   3.961   0.403  10.355  1.1276 -1.5510  0.4434
  565TMC3    H1 8386   4.232   0.375  10.017  0.1982  0.3999  1.3544
  565TMC3    H2 8387   3.896   0.123  10.053  1.0270 -0.9278  1.9966
  565TMC3    C7 8388   4.049   0.230   9.872 -0.4587 -0.1701  0.1198
  565TMC3    C8 8389   3.802   0.221  10.273  0.7913 -0.2049  0.4362
  565TMC3    O1 8390   3.947   0.178   9.829 -0.2136 -0.1268 -0.3769
  565TMC3    O2 8391   3.807   0.246  10.393  0.6692 -0.0156 -0.6417
  566MPD2     C 8392   0.408   2.281  14.052  0.7863 -0.0972  0.0844
  566MPD2    C1 8393   0.515   2.274  13.968 -0.2389 -0.4183  0.0178
  566MPD2    C2 8394   0.493   2.238  13.835 -0.0364  1.0134  0.6748
  566MPD2    C3 8395   0.362   2.224  13.789 -0.3321  0.2373  0.2794
  566MPD2    C4 8396   0.253   2.223  13.881 -0.1459 -0.1274 -0.0524
  566MPD2    C5 8397   0.281   2.251  14.010  0.2134 -0.1208 -0.0238
  566MPD2     H 8398   0.573   2.237  13.762  0.8420  0.6770  1.6422
  566MPD2    H1 8399   0.148   2.203  13.860 -1.0991  0.6655  3.9622
  566MPD2    H2 8400   0.425   2.297  14.158  1.7835 -1.2627  0.1032
  566MPD2    H3 8401   0.211   2.219  14.087  1.5233 -0.4676  1.0203
  566MPD2     N 8402   0.339   2.193  13.651  0.3699 -0.0349  0.0150
  566MPD2    H5 8403   0.420   2.197  13.589 -1.7790  1.7596 -2.6712
  566MPD2    N1 8404   0.642   2.277  14.021  0.1251 -0.0360  0.4140
  566MPD2    H7 8405   0.647   2.282  14.123  2.5692 -1.6704  0.3582
  567TMC3    C1 8406   0.863   2.205  14.057 -0.4000  0.8057 -0.1976
  567TMC3    C2 8407   0.985   2.186  14.003 -0.6283 -0.1767 -0.8093
  567TMC3    C3 8408   1.063   2.086  14.053 -0.2574 -0.0477  0.0894
  567TMC3    C4 8409   0.828   2.140  14.179 -0.2434 -0.9795 -0.0837
  567TMC3    C5 8410   0.921   2.056  14.234 -0.3338  0.1092  0.1094
  567TMC3    C6 8411   1.033   2.021  14.167  0.0024 -0.4975  0.0844
  567TMC3     C 8412   0.755   2.233  13.960 -0.5994  0.3811  0.6582
  567TMC3     O 8413   0.787   2.244  13.839  0.0324 -0.0697 -0.7407
  567TMC3     H 8414   1.003   2.232  13.907  0.8542  1.9280  0.4600
  567TMC3    H1 8415   0.726   2.141  14.218 -0.0398  0.4589  0.4340
  567TMC3    H2 8416   1.088   1.933  14.198 -2.5625 -2.4496 -0.9359
  567TMC3    C7 8417   0.907   2.001  14.371  0.3786 -0.3004 -1.0781
  567TMC3    C8 8418   1.109   1.993  13.952 -0.2532 -0.1513  0.4690
  567TMC3    O1 8419   0.981   1.908  14.403 -0.3004 -0.1509 -0.0449
  567TMC3    O2 8420   1.043   1.997  13.853  0.1456 -0.0067  0.3290
  568MPD2     C 8421   2.613   2.362  16.294  0.0918 -0.0723 -0.3796
  568MPD2    C1 8422   2.613   2.445  16.397 -1.1632 -0.0990  0.0766
  568MPD2    C2 8423   2.632   2.579  16.377  0.3979  0.1771  0.6670
  568MPD2    C3 8424   2.654   2.626  16.251  0.3249  0.9393 -0.3077
  568MPD2    C4 8425   2.654   2.538  16.146  0.1128 -0.4331  0.2364
  568MPD2    C5 8426   2.625   2.407  16.165  0.0831 -0.9575 -0.1161
  568MPD2     H 8427   2.634   2.658  16.452 -0.6094  2.0445 -1.2583
  568MPD2    H1 8428   2.673   2.571  16.045  0.0171  2.7311  1.2752
  568MPD2    H2 8429   2.605   2.256  16.318  0.0547  0.4544  1.9293
  568MPD2    H3 8430   2.628   2.334  16.085 -0.6261 -1.8634  0.6786
  568MPD2     N 8431   2.678   2.767  16.224  0.3835 -0.3453 -0.4378
  568MPD2    H5 8432   2.653   2.822  16.305  1.9495  0.6691 -0.6650
  568MPD2    N1 8433   2.588   2.381  16.518 -0.5823  0.0582  0.7847
  568MPD2    H7 8434   2.589   2.279  16.521 -1.4596 -0.0276 -2.2989
  569TMC3    C1 8435   2.690   2.964  16.090  0.0777 -0.0117  0.2170
  569TMC3    C2 8436   2.583   3.009  16.163  0.7484 -0.0084 -0.5505
  569TMC3    C3 8437   2.501   3.103  16.109 -0.2893 -0.8085 -0.3338
  569TMC3    C4 8438   2.711   3.013  15.966 -0.1900  0.2359 -0.0745
  569TMC3    C5 8439   2.638   3.116  15.914  0.1753  0.4338  1.0021
  569TMC3    C6 8440   2.525   3.159  15.982 -0.4066 -0.1295  0.4492
  569TMC3     C 8441   2.703   2.825  16.097  0.3625  0.2140 -0.0543
  569TMC3     O 8442   2.751   2.775  15.997 -0.5226  0.0545 -0.0392
  569TMC3     H 8443   2.557   2.970  16.261 -0.5673  2.0183 -0.1002
  569TMC3    H1 8444   2.798   2.981  15.909 -0.5889 -0.3495 -0.3542
  569TMC3    H2 8445   2.455   3.231  15.939 -1.0188  0.8817  3.1618
  569TMC3    C7 8446   2.722   3.226  15.871 -0.0077 -0.2183 -0.0163
  569TMC3    C8 8447   2.473   3.217  16.197 -0.5571  0.6914  0.7171
  569TMC3    O1 8448   2.818   3.198  15.800  0.2083  0.7775  0.2785
  569TMC3    O2 8449   2.418   3.315  16.144 -0.3270 -0.3089  0.1698
  570TMC3    C1 8450   1.754   1.590  16.372  0.1393 -0.7694  0.3239
  570TMC3    C2 8451   1.792   1.564  16.242  0.0511  0.2005 -0.0267
  570TMC3    C3 8452   1.847   1.663  16.171 -0.4227  0.4325 -0.4434
  570TMC3    C4 8453   1.762   1.717  16.426 -0.2102  0.5634  0.3970
  570TMC3    C5 8454   1.819   1.813  16.349  0.2642 -0.5921  0.0459
  570TMC3    C6 8455   1.861   1.791  16.222  0.1480 -0.3224 -0.0214
  570TMC3     C 8456   1.666   1.500  16.445  0.5842 -0.0844 -0.7048
  570TMC3     O 8457   1.610   1.405  16.389  0.3532  0.2047  0.7128
  570TMC3     H 8458   1.783   1.461  16.207 -1.3789  0.5545 -0.7274
  570TMC3    H1 8459   1.732   1.730  16.529 -1.6611 -1.6991  0.2644
  570TMC3    H2 8460   1.913   1.873  16.172  0.1715  0.2982  1.0382
  570TMC3    C7 8461   1.878   1.924  16.421 -0.1944  0.4993 -0.4657
  570TMC3    C8 8462   1.941   1.631  16.063 -0.2924  0.2099 -0.2151
  570TMC3    O1 8463   1.884   1.903  16.539 -0.2864  0.1304 -0.2712
  570TMC3    O2 8464   1.997   1.725  16.005  0.0014 -0.7429  0.5155
  571MPD2     C 8465   0.587   2.886  17.652 -0.3726  0.1147 -0.3050
  571MPD2    C1 8466   0.492   2.984  17.660 -0.0347  1.2273 -0.3489
  571MPD2    C2 8467   0.502   3.089   0.062  0.0265 -0.1687  0.1572
  571MPD2    C3 8468   0.618   3.100   0.141 -0.2674  0.0961  0.6358
  571MPD2    C4 8469   0.723   3.011   0.108  0.5156 -0.6210 -0.5840
  571MPD2    C5 8470   0.697   2.903   0.027 -0.5646  0.5398  0.6598
  571MPD2     H 8471   0.419   3.155   0.080 -1.3699 -1.8974  0.0580
  571MPD2    H1 8472   0.816   3.016   0.163 -0.1735 -3.4316  0.8581
  571MPD2    H2 8473   0.574   2.811  17.575 -1.3686 -0.8591  0.7910
  571MPD2    H3 8474   0.774   2.830   0.005  0.3904  2.0099 -0.8655
  571MPD2     N 8475   0.633   3.196   0.240  0.2277  0.5259  0.0171
  571MPD2    H5 8476   0.710   3.180   0.304  0.5185 -1.6000 -0.8444
  571MPD2    N1 8477   0.390   2.976  17.556  0.1378  0.4082 -0.4327
  571MPD2    H7 8478   0.391   2.900  17.489  0.1479  0.8274 -0.9136
  572TMC3    C1 8479   0.592   3.375   0.375  0.4213 -0.9274  0.2935
  572TMC3    C2 8480   0.539   3.316   0.492  0.3413  0.2680 -0.4167
  572TMC3    C3 8481   0.477   3.395   0.587 -0.3549 -0.2161  0.0130
  572TMC3    C4 8482   0.590   3.510   0.365  0.1602 -0.3312  0.3091
  572TMC3    C5 8483   0.535   3.588   0.465 -0.2877  0.0015  0.1499
  572TMC3    C6 8484   0.473   3.533   0.576 -0.0883 -0.1660  0.4390
  572TMC3     C 8485   0.555   3.303   0.260 -0.1673  0.2010 -0.6188
  572TMC3     O 8486   0.461   3.345   0.191 -0.5457  0.1186 -0.4454
  572TMC3     H 8487   0.512   3.211   0.484  1.5159 -0.0706 -0.0529
  572TMC3    H1 8488   0.613   3.546   0.265 -0.7588  1.4972  0.7687
  572TMC3    H2 8489   0.411   3.593   0.641  0.6648  0.2773  0.7512
  572TMC3    C7 8490   0.501   3.725   0.418 -0.5360  0.6691 -0.3317
  572TMC3    C8 8491   0.412   3.324   0.684 -0.3865 -0.6394 -0.1406
  572TMC3    O1 8492   0.539   3.768   0.313 -0.5659  0.0771  0.1068
  572TMC3    O2 8493   0.468   3.222   0.730 -0.2846  0.2072 -0.6665
  573MPD2     C 8494   1.082   4.233   0.593 -0.1674 -0.4373  0.7646
  573MPD2    C1 8495   1.188   4.159   0.639 -0.2149 -0.4144 -0.2053
  573MPD2    C2 8496   1.255   4.075   0.549 -0.5484 -0.4230 -0.2625
  573MPD2    C3 8497   1.216   4.072   0.416  0.3174  0.2726  0.2866
  573MPD2    C4 8498   1.106   4.139   0.376 -0.5238  0.0002 -0.8828
  573MPD2    C5 8499   1.044   4.220   0.461  0.3633 -1.0819  0.1185
  573MPD2     H 8500   1.344   4.028   0.588 -0.8359  0.1300  1.0333
  573MPD2    H1 8501   1.070   4.117   0.275 -1.3610  1.2443 -0.8573
  573MPD2    H2 8502   1.024   4.294   0.661  0.6130  2.2873 -1.0272
  573MPD2    H3 8503   0.943   4.248   0.436  1.0891  0.0984 -1.4895
  573MPD2     N 8504   1.282   3.993   0.317  0.0783 -0.3708  0.6635
  573MPD2    H5 8505   1.248   4.011   0.223 -0.3743  0.5719  1.0078
  573MPD2    N1 8506   1.214   4.175   0.776  0.2811 -0.3277 -0.5598
  573MPD2    H7 8507   1.156   4.241   0.828  1.7641 -1.8075  2.9578
  574TMC3    C1 8508   1.473   3.891   0.217 -0.4104  0.7465  0.0998
  574TMC3    C2 8509   1.426   3.873   0.093  0.3390  0.7457  1.0158
  574TMC3    C3 8510   1.508   3.844  17.685 -0.0220  0.3675  0.2232
  574TMC3    C4 8511   1.616   3.866   0.238  0.1240 -0.0123  0.4563
  574TMC3    C5 8512   1.696   3.831   0.133  0.0442  0.1098  0.5946
  574TMC3    C6 8513   1.643   3.831   0.006  0.8033 -0.0605  0.4826
  574TMC3     C 8514   1.397   3.920   0.344  0.7648  0.2325 -0.0199
  574TMC3     O 8515   1.454   3.887   0.449 -0.0130 -0.2153 -0.1708
  574TMC3     H 8516   1.318   3.879   0.080  0.4924  1.0475 -0.1725
  574TMC3    H1 8517   1.653   3.855   0.339  1.9415  1.1685 -0.0770
  574TMC3    H2 8518   1.707   3.825  17.616  1.7979  2.7901  1.0323
  574TMC3    C7 8519   1.840   3.829   0.155  0.3237  1.2971  0.0744
  574TMC3    C8 8520   1.461   3.848  17.550  0.1665 -0.0806  0.2277
  574TMC3    O1 8521   1.906   3.752   0.085 -0.0747  0.2854  0.7815
  574TMC3    O2 8522   1.535   3.818  17.458 -0.0504  0.3123 -0.3921
  575TMC3    C1 8523   3.552   4.668  11.035 -0.0981 -0.1604 -0.0396
  575TMC3    C2 8524   3.486   4.548  11.051  0.5748  0.2019 -0.5719
  575TMC3    C3 8525   3.455   4.480  10.940 -0.0347  0.8227  0.2026
  575TMC3    C4 8526   3.598   4.721  10.916  0.6465 -0.0949 -0.2048
  575TMC3    C5 8527   3.551   4.650  10.803 -0.0186  0.8343 -0.3444
  575TMC3    C6 8528   3.477   4.538  10.816  0.3127  0.9238 -0.5045
  575TMC3     C 8529   3.574   0.023  11.160 -0.1892 -0.2623 -0.3909
  575TMC3     O 8530   3.546   4.685  11.263 -0.5150 -0.3940  0.5754
  575TMC3     H 8531   3.451   4.518  11.149 -0.2454  0.4167 -0.8010
  575TMC3    H1 8532   3.647   0.093  10.903  1.0032 -0.1649  0.6036
  575TMC3    H2 8533   3.442   4.484  10.729  2.9699  0.5162 -1.3310
  575TMC3    C7 8534   3.580   4.714  10.675  0.1911  0.3270 -0.0263
  575TMC3    C8 8535   3.358   4.382  10.954  0.0662  0.4224 -0.2402
  575TMC3    O1 8536   3.655   0.083  10.676  0.4386  0.3072 -0.6727
  575TMC3    O2 8537   3.280   4.383  10.857 -0.3379  0.5107 -0.4908
  576MPD2     C 8538   3.649   1.186  12.566  0.3502  0.2273  0.0122
  576MPD2    C1 8539   3.630   1.320  12.518  0.0445 -0.2063 -0.5183
  576MPD2    C2 8540   3.596   1.420  12.603 -0.2310 -0.1633 -0.3820
  576MPD2    C3 8541   3.583   1.399  12.737 -0.1591  0.2265  0.4240
  576MPD2    C4 8542   3.611   1.273  12.792  0.3186 -0.0551 -0.2719
  576MPD2    C5 8543   3.639   1.168  12.704  0.2816  0.2246  0.0614
  576MPD2     H 8544   3.567   1.518  12.566  1.2137  0.9609  1.4672
  576MPD2    H1 8545   3.599   1.249  12.897  0.3294 -1.2420 -0.5488
  576MPD2    H2 8546   3.672   1.099  12.506  0.4152 -1.2193  2.1561
  576MPD2    H3 8547   3.655   1.068  12.741  1.3519  0.3353 -0.0744
  576MPD2     N 8548   3.538   1.500  12.823  0.1291 -0.1327  0.2987
  576MPD2    H5 8549   3.521   1.589  12.777  1.5290  0.6120  1.2303
  576MPD2    N1 8550   3.627   1.343  12.380  0.2046 -0.7061 -0.5135
  576MPD2    H7 8551   3.583   1.427  12.343 -0.2193 -0.1064  1.3290
  577TMC3    C1 8552   3.647   1.309  12.156  0.7154  0.0574 -0.0369
  577TMC3    C2 8553   3.736   1.267  12.057 -0.2829  0.7705 -0.0791
  577TMC3    C3 8554   3.699   1.292  11.927  0.9720 -0.3680  0.2820
  577TMC3    C4 8555   3.521   1.352  12.132 -0.1377 -0.1726  0.4894
  577TMC3    C5 8556   3.483   1.369  12.002  0.0419  0.4008 -1.0894
  577TMC3    C6 8557   3.570   1.346  11.897 -0.0905  0.8620  0.0815
  577TMC3     C 8558   3.675   1.258  12.286  0.3354 -0.1638 -0.0100
  577TMC3     O 8559   3.762   1.175  12.298  0.5967 -0.0023  0.0071
  577TMC3     H 8560   3.836   1.243  12.091 -0.6216 -1.8770 -0.9855
  577TMC3    H1 8561   3.448   1.360  12.212  1.1359 -0.1324  1.6349
  577TMC3    H2 8562   3.559   1.380  11.795  0.7719  0.0380 -0.2853
  577TMC3    C7 8563   3.342   1.382  11.975  0.9040  0.5507 -0.0316
  577TMC3    C8 8564   3.790   1.293  11.817 -0.3612  0.0422 -0.6160
  577TMC3    O1 8565   3.275   1.330  12.061  0.3822  0.1836 -0.0309
  577TMC3    O2 8566   3.761   1.358  11.718  0.1218 -0.1652 -0.4413
  578MPD2     C 8567   1.983   1.605   2.106  0.4176 -0.5901 -0.0855
  578MPD2    C1 8568   2.062   1.523   2.025 -0.4238 -0.0890  0.2059
  578MPD2    C2 8569   2.105   1.407   2.087  0.9827  0.3724 -0.7914
  578MPD2    C3 8570   2.076   1.369   2.221 -1.2415  0.1591 -0.7090
  578MPD2    C4 8571   2.009   1.456   2.298  0.4299 -1.0740  0.4141
  578MPD2    C5 8572   1.970   1.579   2.241 -0.4974 -0.4969  0.0027
  578MPD2     H 8573   2.150   1.339   2.015  0.1439  1.0854 -1.9830
  578MPD2    H1 8574   1.977   1.415   2.393 -1.9516 -0.3285 -0.0662
  578MPD2    H2 8575   1.945   1.699   2.068 -1.0727 -1.4442 -0.7577
  578MPD2    H3 8576   1.909   1.640   2.307  1.4551  1.0808  0.3163
  578MPD2     N 8577   2.122   1.247   2.263 -0.5350  0.2886 -0.0360
  578MPD2    H5 8578   2.174   1.190   2.198 -0.0923 -2.5561  2.8208
  578MPD2    N1 8579   2.083   1.567   1.895 -0.7744  0.0404 -0.7138
  578MPD2    H7 8580   2.040   1.654   1.866 -0.3847 -0.0009 -1.3973
  579TMC3    C1 8581   2.176   1.071   2.407 -0.2684 -0.3942  1.0679
  579TMC3    C2 8582   2.282   1.070   2.492 -0.1651  0.2916  0.4562
  579TMC3    C3 8583   2.389   0.997   2.453 -0.4846 -0.2298 -0.1755
  579TMC3    C4 8584   2.177   0.991   2.290  0.5457  0.1775 -0.4816
  579TMC3    C5 8585   2.279   0.905   2.263  0.1698 -0.2149  0.1118
  579TMC3    C6 8586   2.395   0.906   2.345  0.3374 -0.3326  0.0165
  579TMC3     C 8587   2.116   1.201   2.393 -0.7981 -0.2149  0.6024
  579TMC3     O 8588   2.112   1.269   2.495  0.9424  0.3927  0.3979
  579TMC3     H 8589   2.294   1.141   2.573  0.2653  0.9889 -0.2101
  579TMC3    H1 8590   2.085   0.985   2.232 -1.0380 -0.2133  2.0626
  579TMC3    H2 8591   2.479   0.841   2.322  1.4802  0.5680  1.5943
  579TMC3    C7 8592   2.293   0.848   2.127 -0.1880 -0.0870 -0.4481
  579TMC3    C8 8593   2.508   1.009   2.537 -0.2395  0.0499 -0.0669
  579TMC3    O1 8594   2.386   0.775   2.102 -0.0161  0.4575  0.2142
  579TMC3    O2 8595   2.500   1.035   2.661  0.1825  0.5651  0.0564
  580TMC3    C1 8596   1.189   0.492  11.890  0.4454  0.1028 -0.8125
  580TMC3    C2 8597   1.234   0.623  11.874  0.0657  0.0041 -0.1415
  580TMC3    C3 8598   1.315   0.681  11.972  0.1819  0.1019  0.1675
  580TMC3    C4 8599   1.227   0.415  11.997  0.5257  0.1539 -0.2764
  580TMC3    C5 8600   1.309   0.483  12.091 -0.0168 -1.2646 -0.2058
  580TMC3    C6 8601   1.349   0.616  12.081  0.3010 -0.0760 -0.1123
  580TMC3     C 8602   1.137   0.419  11.773 -0.3560  1.1237 -0.1945
  580TMC3     O 8603   1.059   0.325  11.793 -0.3534 -0.2419 -0.2801
  580TMC3     H 8604   1.205   0.678  11.785  0.9615 -0.5887 -0.8035
  580TMC3    H1 8605   1.206   0.308  11.996 -1.1489  0.4782 -0.0248
  580TMC3    H2 8606   1.417   0.654  12.157  0.2555 -0.5944  0.1914
  580TMC3    C7 8607   1.398   0.394  12.174  0.5104  0.3960  0.2049
  580TMC3    C8 8608   1.396   0.796  11.932  0.2187 -0.3189 -0.0182
  580TMC3    O1 8609   1.490   0.438  12.237 -0.3779  0.4533  0.2397
  580TMC3    O2 8610   1.340   0.884  11.866  0.0320  0.2801 -0.4387
  581MPD2     C 8611   3.817   4.701  14.895  0.5052  0.3838  0.1376
  581MPD2    C1 8612   3.830   0.098  14.954  0.3562  0.3978 -0.1122
  581MPD2    C2 8613   3.752   0.211  14.919  0.9241 -0.8156 -0.4769
  581MPD2    C3 8614   3.659   0.195  14.816 -0.1718 -0.5235  0.4052
  581MPD2    C4 8615   3.667   0.075  14.746  0.3088  1.0660  0.0890
  581MPD2    C5 8616   3.739   4.694  14.783 -0.3590  0.2898  0.4622
  581MPD2     H 8617   3.757   0.305  14.972 -0.8465 -1.1036  0.1830
  581MPD2    H1 8618   3.597   0.053  14.666  0.2003  0.1552  0.4301
  581MPD2    H2 8619   3.881   4.621  14.931  0.7301 -0.3774 -1.9393
  581MPD2    H3 8620   3.726   4.601  14.729  1.3960  0.5527 -0.4255
  581MPD2     N 8621   3.579   0.306  14.787 -0.2298 -0.1012 -0.6060
  581MPD2    H5 8622   3.596   0.394  14.833 -1.2827  0.2057 -0.8036
  581MPD2    N1 8623   3.924   0.108  15.054  0.0937  0.0631 -0.4335
  581MPD2    H7 8624   3.976   0.021  15.068  2.1194  1.5644  1.4630
  582TMC3    C1 8625   4.067   0.185  15.233  0.0937  0.6954  0.5076
  582TMC3    C2 8626   4.060   0.248  15.351  0.3954 -0.0639 -0.1416
  582TMC3    C3 8627   4.085   0.177  15.463 -0.3260  0.0653  0.1380
  582TMC3    C4 8628   4.112   0.055  15.230  0.4475  0.4983  0.3086
  582TMC3    C5 8629   4.134   4.714  15.340 -0.4766 -0.2054 -0.0897
  582TMC3    C6 8630   4.126   0.046  15.464 -0.1408 -0.0716  0.3811
  582TMC3     C 8631   3.958   0.211  15.140 -0.0589  1.1504 -0.3608
  582TMC3     O 8632   3.913   0.327  15.150 -0.1703  0.0101 -0.2732
  582TMC3     H 8633   4.016   0.347  15.357  0.8823  0.2259 -1.2665
  582TMC3    H1 8634   4.120   0.002  15.136  0.0182 -0.5877  0.8910
  582TMC3    H2 8635   4.153   4.710  15.551 -1.2942  0.2340  0.9375
  582TMC3    C7 8636   4.181   4.575  15.337 -0.0992  0.1624  0.6431
  582TMC3    C8 8637   4.097   0.246  15.592  0.0496  0.8246 -0.4628
  582TMC3    O1 8638   4.278   4.557  15.403  0.2424  0.2575  0.4475
  582TMC3    O2 8639   4.033   0.350  15.609  0.5547  0.4662  0.1718
  583MPD2     C 8640   4.192   1.921  16.803  0.3994 -0.0167 -0.7501
  583MPD2    C1 8641   4.167   2.019  16.714  1.0697 -0.3357 -0.2877
  583MPD2    C2 8642   4.101   2.133  16.755 -0.0780  0.9995  0.1844
  583MPD2    C3 8643   4.054   2.145  16.881  0.0768 -0.2729  0.0621
  583MPD2    C4 8644   4.067   2.041  16.968  0.7513  0.0207 -0.7257
  583MPD2    C5 8645   4.142   1.934  16.925  0.0401  0.2323 -0.3707
  583MPD2     H 8646   4.083   2.219  16.692  1.4191  1.7863  0.8237
  583MPD2    H1 8647   4.023   2.040  17.067 -1.0456  1.7503 -1.5184
  583MPD2    H2 8648   4.244   1.829  16.778 -0.1474 -0.1836 -1.2786
  583MPD2    H3 8649   4.152   1.850  16.994 -0.0310 -0.0403 -0.6894
  583MPD2     N 8650   3.979   2.261  16.917  0.1382 -0.6773  0.1632
  583MPD2    H5 8651   3.952   2.328  16.846  2.2268 -1.5259 -1.4133
  583MPD2    N1 8652   4.206   2.012  16.580 -0.4388  0.5647  0.1134
  583MPD2    H7 8653   4.178   2.081  16.511 -0.6333  1.3646  0.9952
  584TMC3    C1 8654   3.876   2.405  17.078 -0.1601 -0.6799 -0.4006
  584TMC3    C2 8655   3.893   2.520  17.011  0.0091  0.2136 -0.0419
  584TMC3    C3 8656   3.871   2.635  17.081 -0.4982 -0.2835 -0.4937
  584TMC3    C4 8657   3.827   2.395  17.204  0.1030  0.7923 -0.0532
  584TMC3    C5 8658   3.806   2.513  17.276  0.0483  0.1238 -0.2249
  584TMC3    C6 8659   3.822   2.634  17.208 -0.6163 -0.3551 -0.3404
  584TMC3     C 8660   3.963   2.296  17.051 -1.2420  0.3230 -0.7389
  584TMC3     O 8661   4.010   2.240  17.148  0.1741 -0.4124  0.1562
  584TMC3     H 8662   3.944   2.519  16.915  0.1456 -0.1576  0.0333
  584TMC3    H1 8663   3.820   2.295  17.246 -0.0111  0.7901 -0.0786
  584TMC3    H2 8664   3.819   2.727  17.264  2.3072 -0.1102 -0.5528
  584TMC3    C7 8665   3.730   2.506  17.404 -0.6025  0.4196  0.7726
  584TMC3    C8 8666   3.894   2.765  17.023  0.1818 -0.0982 -0.1927
  584TMC3    O1 8667   3.727   2.398  17.456  0.2495 -0.3332 -0.6355
  584TMC3    O2 8668   3.871   2.773  16.906  0.1799 -0.0911 -0.5927
  585MPD2     C 8669   3.242   0.790   1.211  0.0147 -0.4678  0.0891
  585MPD2    C1 8670   3.190   0.852   1.099 -0.1807 -0.2625 -0.4364
  585MPD2    C2 8671   3.238   0.817   0.979  0.7164  0.7832  0.4873
  585MPD2    C3 8672   3.337   0.713   0.969 -0.0875 -0.2954  0.4279
  585MPD2    C4 8673   3.379   0.649   1.082 -0.4109  0.0663  0.2587
  585MPD2    C5 8674   3.326   0.682   1.202 -0.2796 -0.1355  0.5822
  585MPD2     H 8675   3.201   0.871   0.893  1.8604 -1.7071 -1.5892
  585MPD2    H1 8676   3.454   0.571   1.075 -1.2988 -0.7052 -0.6195
  585MPD2    H2 8677   3.195   0.812   1.307  0.7522  0.3727  0.2575
  585MPD2    H3 8678   3.353   0.633   1.294 -0.0031 -0.2076  0.4624
  585MPD2     N 8679   3.377   0.684   0.834 -0.6076 -0.5354  0.3819
  585MPD2    H5 8680   3.323   0.729   0.760 -0.6982  0.4214  1.0369
  585MPD2    N1 8681   3.094   0.951   1.112  0.2106 -0.3117  0.6081
  585MPD2    H7 8682   3.061   0.963   1.207  0.0031 -2.4440  0.8205
  586TMC3    C1 8683   3.510   0.658   0.656 -0.3136  0.0212 -0.5780
  586TMC3    C2 8684   3.641   0.670   0.611  0.1702 -0.2070 -0.1725
  586TMC3    C3 8685   3.658   0.712   0.490  0.3182 -0.4794 -0.1498
  586TMC3    C4 8686   3.398   0.661   0.571  0.7112 -0.3832 -0.4614
  586TMC3    C5 8687   3.421   0.697   0.440  0.2357  0.9591 -1.0636
  586TMC3    C6 8688   3.552   0.733   0.405 -0.2948  0.5150  0.1458
  586TMC3     C 8689   3.494   0.630   0.796 -0.4647 -0.4144 -0.3262
  586TMC3     O 8690   3.584   0.581   0.863  0.3061  0.7919 -0.2878
  586TMC3     H 8691   3.724   0.672   0.681 -0.4709  0.0537  0.5850
  586TMC3    H1 8692   3.306   0.613   0.603  0.2788  0.9040  0.2166
  586TMC3    H2 8693   3.564   0.781   0.308  0.4612  0.4267  0.2016
  586TMC3    C7 8694   3.350   0.611   0.342 -0.3026  0.1290  0.0482
  586TMC3    C8 8695   3.773   0.645   0.430  0.1851 -0.0327 -0.7031
  586TMC3    O1 8696   3.242   0.567   0.382  0.1406  0.1389  0.7092
  586TMC3    O2 8697   3.802   0.540   0.487 -0.0809  0.1001  0.1390
  587TMC3    C1 8698   1.182   4.722  16.292 -0.0440  0.2005 -0.6918
  587TMC3    C2 8699   1.099   0.108  16.281 -0.7600 -0.9857 -0.1741
  587TMC3    C3 8700   1.154   0.230  16.246  0.6874  0.2035 -0.7671
  587TMC3    C4 8701   1.316   0.014  16.268 -0.1461  0.1672  0.1420
  587TMC3    C5 8702   1.366   0.138  16.226 -0.0152 -0.4824  0.7343
  587TMC3    C6 8703   1.293   0.253  16.228  0.5705 -0.4733 -0.0907
  587TMC3     C 8704   1.135   4.587  16.320  0.2614 -0.3860  0.0807
  587TMC3     O 8705   1.202   4.489  16.291 -0.4990  0.5544 -0.2558
  587TMC3     H 8706   0.992   0.086  16.279 -0.4031 -2.7005 -0.6668
  587TMC3    H1 8707   1.381   4.650  16.271 -1.0677 -0.6118 -2.4761
  587TMC3    H2 8708   1.335   0.340  16.179  0.8051 -1.0720 -0.9513
  587TMC3    C7 8709   1.500   0.140  16.181  0.0186  0.4118  0.2044
  587TMC3    C8 8710   1.071   0.350  16.226  0.1410  0.4025  0.0408
  587TMC3    O1 8711   1.524   0.223  16.094  0.2253  0.3101  0.0023
  587TMC3    O2 8712   1.106   0.438  16.146 -0.7412  0.0487  0.1758
  588TMC3    C1 8713   2.596   2.020   9.759 -0.3256  1.1546 -0.4332
  588TMC3    C2 8714   2.593   1.881   9.776  0.5702 -0.4991  0.1350
  588TMC3    C3 8715   2.639   1.833   9.900  0.3196 -0.1597 -1.3872
  588TMC3    C4 8716   2.602   2.102   9.863  0.4344 -0.0104  0.5261
  588TMC3    C5 8717   2.624   2.054   9.991  0.4345 -0.4800  0.3367
  588TMC3    C6 8718   2.640   1.917  10.008  0.2310  0.0745  0.6811
  588TMC3     C 8719   2.539   2.067   9.633 -0.1895 -0.3662  0.4632
  588TMC3     O 8720   2.450   2.002   9.573 -0.1419  0.2369  0.5096
  588TMC3     H 8721   2.582   1.831   9.681 -2.4886  0.8172 -0.2110
  588TMC3    H1 8722   2.592   2.209   9.846  2.3334  0.0524 -0.1748
  588TMC3    H2 8723   2.660   1.884  10.109  0.9553 -1.4013  0.0534
  588TMC3    C7 8724   2.691   2.145  10.088  0.0926 -0.0573  0.1164
  588TMC3    C8 8725   2.673   1.688   9.896  0.4711  0.1554  0.5145
  588TMC3    O1 8726   2.684   2.123  10.212  0.3748 -0.0103 -0.1072
  588TMC3    O2 8727   2.640   1.620   9.802  0.3969 -0.0661 -0.1419
  589TMC3    C1 8728   2.200   4.565   1.256  0.1941  0.0399 -0.1017
  589TMC3    C2 8729   2.268   4.555   1.370 -0.2057 -0.2667 -0.8547
  589TMC3    C3 8730   2.355   4.446   1.392  0.5349 -0.1283  0.1058
  589TMC3    C4 8731   2.210   4.473   1.147  0.0782  0.2034 -0.2047
  589TMC3    C5 8732   2.300   4.366   1.176 -0.2130 -0.9142 -1.4630
  589TMC3    C6 8733   2.374   4.353   1.293 -0.5282 -0.5186 -0.9909
  589TMC3     C 8734   2.090   4.656   1.238  0.6306  0.2216  0.0545
  589TMC3     O 8735   2.023   4.633   1.136  0.1546 -0.1422  0.2893
  589TMC3     H 8736   2.240   4.621   1.451 -0.7466 -1.2565 -0.2416
  589TMC3    H1 8737   2.148   4.480   1.059 -2.5250  2.0114  1.7438
  589TMC3    H2 8738   2.416   4.256   1.318  0.1739 -0.2928 -1.2946
  589TMC3    C7 8739   2.260   4.239   1.121 -0.2003  0.6738  0.8459
  589TMC3    C8 8740   2.424   4.442   1.520  0.4408 -0.0936 -0.2779
  589TMC3    O1 8741   2.261   4.137   1.186 -0.4323  0.5662 -0.2675
  589TMC3    O2 8742   2.376   4.497   1.621  0.7124  0.3302  0.1453
  590MPD2     C 8743   1.563   2.667  16.784 -0.5070 -0.8362  1.2491
  590MPD2    C1 8744   1.505   2.760  16.699 -0.1827 -0.1134  0.2972
  590MPD2    C2 8745   1.584   2.845  16.622  0.1918  0.0519  0.2129
  590MPD2    C3 8746   1.722   2.841  16.649 -0.3506 -0.8551 -0.0612
  590MPD2    C4 8747   1.776   2.751  16.743 -0.4043 -0.0207 -0.0059
  590MPD2    C5 8748   1.697   2.669  16.807 -0.6697 -0.8098  0.0196
  590MPD2     H 8749   1.545   2.926  16.561  0.1824  0.2175  0.4371
  590MPD2    H1 8750   1.882   2.744  16.764 -0.4264 -0.8979 -0.2054
  590MPD2    H2 8751   1.504   2.595  16.839 -1.9672 -0.0348  0.7643
  590MPD2    H3 8752   1.748   2.597  16.871  2.5378  1.7246  0.2834
  590MPD2     N 8753   1.800   2.929  16.574 -0.0675  0.2090  0.2446
  590MPD2    H5 8754   1.749   2.965  16.493  1.3557 -0.1823 -0.8271
  590MPD2    N1 8755   1.364   2.766  16.690  0.5766  0.4156 -0.2461
  590MPD2    H7 8756   1.316   2.720  16.766 -1.1320  1.1000 -0.9003
  591TMC3    C1 8757   1.958   3.049  16.475 -0.4770 -0.7100  0.5038
  591TMC3    C2 8758   2.081   3.042  16.423 -0.1991 -0.2792 -0.2054
  591TMC3    C3 8759   2.107   3.139  16.328 -0.6646  0.0333 -0.0326
  591TMC3    C4 8760   1.872   3.154  16.460 -0.3314 -0.2454  0.0730
  591TMC3    C5 8761   1.913   3.262  16.382 -0.0570 -0.8564  0.1262
  591TMC3    C6 8762   2.025   3.254  16.308  0.2075 -0.7397  0.1766
  591TMC3     C 8763   1.929   2.950  16.577  0.6009 -0.5378 -0.2212
  591TMC3     O 8764   2.024   2.892  16.635  1.0117 -0.5398  0.0379
  591TMC3     H 8765   2.140   2.951  16.426  0.2918  0.0747  0.8957
  591TMC3    H1 8766   1.777   3.165  16.511 -0.5100  0.3301 -0.3903
  591TMC3    H2 8767   2.060   3.338  16.249 -0.4807 -1.2694 -0.9778
  591TMC3    C7 8768   1.814   3.367  16.362 -0.3436 -0.5440 -0.3457
  591TMC3    C8 8769   2.163   3.084  16.206 -0.8754  0.4212  0.2087
  591TMC3    O1 8770   1.712   3.365  16.428 -0.8361 -0.4327  0.1678
  591TMC3    O2 8771   2.208   2.972  16.212 -0.5343 -0.0012  0.0317
  592MPD2     C 8772   2.457   0.137  11.386  0.4353  1.2043  0.0995
  592MPD2    C1 8773   2.452   0.200  11.505 -0.1245 -0.4054  0.3768
  592MPD2    C2 8774   2.381   0.154  11.615  0.1226 -0.6676  0.2855
  592MPD2    C3 8775   2.309   0.033  11.609 -0.1070 -0.6187 -0.8130
  592MPD2    C4 8776   2.323   4.688  11.491  0.6857 -0.4473 -0.3129
  592MPD2    C5 8777   2.390   0.013  11.384  0.1916 -0.0529  0.1137
  592MPD2     H 8778   2.367   0.209  11.708  3.0524  1.2745 -0.4177
  592MPD2    H1 8779   2.286   4.588  11.471  0.1719 -0.7131  1.9107
  592MPD2    H2 8780   2.505   0.170  11.294 -1.8927  1.1706 -1.1312
  592MPD2    H3 8781   2.386   4.672  11.297  0.2075  1.6036 -1.1040
  592MPD2     N 8782   2.242   4.716  11.723 -0.2461  0.3986 -0.7383
  592MPD2    H5 8783   2.269   0.047  11.804  2.6050  0.5959 -1.8153
  592MPD2    N1 8784   2.536   0.315  11.507 -0.4552 -0.4983 -0.0258
  592MPD2    H7 8785   2.568   0.344  11.415  1.5002 -1.0586  0.4839
  593TMC3    C1 8786   2.663   0.493  11.587  0.3473 -0.3105  0.0682
  593TMC3    C2 8787   2.677   0.587  11.685 -0.4268 -0.0997 -0.5974
  593TMC3    C3 8788   2.784   0.671  11.678 -0.2386  0.0372 -0.7048
  593TMC3    C4 8789   2.754   0.481  11.481 -0.0802  0.0584  0.0947
  593TMC3    C5 8790   2.856   0.571  11.483 -0.2892 -0.2601  0.1797
  593TMC3    C6 8791   2.874   0.667  11.579 -0.3690 -1.2154  0.1220
  593TMC3     C 8792   2.573   0.389  11.619  0.4174  0.0020  0.1772
  593TMC3     O 8793   2.539   0.373  11.730 -0.4138 -0.2377 -0.3304
  593TMC3     H 8794   2.610   0.599  11.769  0.5150  1.0768 -0.0126
  593TMC3    H1 8795   2.753   0.398  11.411 -1.0992 -1.2849  1.6980
  593TMC3    H2 8796   2.946   0.747  11.564  0.1931 -1.4430  1.6937
  593TMC3    C7 8797   2.917   0.598  11.356 -0.1268 -0.8290 -0.0860
  593TMC3    C8 8798   2.810   0.749  11.798  0.4678  0.3541 -0.2987
  593TMC3    O1 8799   2.849   0.594  11.253 -0.1775  0.5553  0.7066
  593TMC3    O2 8800   2.721   0.752  11.880 -0.4379 -0.0093  0.3371
  594MPD2     C 8801   0.840   3.933  13.891  0.4433 -0.0627  0.3063
  594MPD2    C1 8802   0.836   3.915  14.025 -0.5292  0.5974  0.6241
  594MPD2    C2 8803   0.951   3.942  14.101  0.2080  0.9090  0.1954
  594MPD2    C3 8804   1.069   3.985  14.040  0.0710  0.1084  0.6075
  594MPD2    C4 8805   1.074   3.991  13.899  0.1322  0.4013  0.1645
  594MPD2    C5 8806   0.961   3.953  13.830  0.1837 -0.4766 -0.1582
  594MPD2     H 8807   0.944   3.939  14.209  0.1691  0.6681  0.1858
  594MPD2    H1 8808   1.160   4.016  13.837 -1.8480  1.7510 -2.0638
  594MPD2    H2 8809   0.760   3.892  13.830 -2.3603  2.8010  2.0504
  594MPD2    H3 8810   0.974   3.960  13.723 -1.7386 -1.2533 -0.4483
  594MPD2     N 8811   1.174   4.031  14.121  0.1605  0.1027  0.3967
  594MPD2    H5 8812   1.147   4.044  14.218 -1.5064 -0.2276 -0.0143
  594MPD2    N1 8813   0.718   3.860  14.082  0.2406 -0.0881 -0.2257
  594MPD2    H7 8814   0.641   3.853  14.016  1.1631 -1.5553 -1.1389
  595TMC3    C1 8815   1.568   4.267  14.238  0.3921 -0.0976  0.8406
  595TMC3    C2 8816   1.510   4.162  14.173  0.2507  0.0094  0.2196
  595TMC3    C3 8817   1.371   4.144  14.191 -0.2067  0.3225 -0.4343
  595TMC3    C4 8818   1.496   4.348  14.315 -0.1630  0.0360 -0.1161
  595TMC3    C5 8819   1.360   4.337  14.328  0.2130  0.0112 -0.3543
  595TMC3    C6 8820   1.294   4.229  14.272  0.3931  0.1194 -0.2149
  595TMC3     C 8821   1.702   4.241  14.288  0.3540 -0.2010  0.3184
  595TMC3     O 8822   1.730   4.291  14.398 -0.2038 -0.2006 -0.1604
  595TMC3     H 8823   1.565   4.081  14.126 -0.5976 -0.5972  0.2561
  595TMC3    H1 8824   1.541   4.441  14.348  0.5524 -0.6517  0.8494
  595TMC3    H2 8825   1.186   4.221  14.277  0.3796  0.7054  0.5579
  595TMC3    C7 8826   1.282   4.449  14.376 -0.0483  0.0489 -0.0388
  595TMC3    C8 8827   1.299   4.077  14.086  0.2492 -0.2162  0.7105
  595TMC3    O1 8828   1.170   4.427  14.422  0.1962  0.7121 -0.7860
  595TMC3    O2 8829   1.357   4.046  13.981 -0.2636 -0.2091  0.3034
  596MPD2     C 8830   0.278   1.844  16.794  0.4536 -0.7395 -0.0575
  596MPD2    C1 8831   0.290   1.968  16.735  1.0924 -0.0826 -0.2285
  596MPD2    C2 8832   0.303   1.975  16.595 -0.6045 -0.1492 -0.1132
  596MPD2    C3 8833   0.320   1.863  16.518 -0.0441  0.2634  0.1032
  596MPD2    C4 8834   0.326   1.741  16.582 -0.5531 -0.1065 -0.1273
  596MPD2    C5 8835   0.303   1.735  16.716  0.1221 -0.0864  0.6180
  596MPD2     H 8836   0.284   2.074  16.557 -0.9734  0.1484  0.8253
  596MPD2    H1 8837   0.345   1.653  16.523 -1.5530  0.2773 -1.0233
  596MPD2    H2 8838   0.275   1.827  16.901 -0.0177 -0.6006 -0.0482
  596MPD2    H3 8839   0.318   1.642  16.770  3.8134  2.4435  3.9629
  596MPD2     N 8840   0.314   1.860  16.379 -0.8249 -0.0261  0.4911
  596MPD2    H5 8841   0.333   1.774  16.327  0.3203  0.6340 -0.1773
  596MPD2    N1 8842   0.267   2.091  16.801  0.4456 -0.3287  0.9316
  596MPD2    H7 8843   0.280   2.177  16.750 -0.1627 -1.4611 -1.1227
  597TMC3    C1 8844   0.193   2.240  16.958 -0.1884 -0.0519 -0.4265
  597TMC3    C2 8845   0.283   2.331  16.911  0.3776 -0.6527  0.4226
  597TMC3    C3 8846   0.251   2.462  16.911  0.1396 -0.1484  0.5013
  597TMC3    C4 8847   0.071   2.278  17.010 -0.3152 -0.9382  0.1003
  597TMC3    C5 8848   0.051   2.414  17.020 -0.0370  0.1174  0.0381
  597TMC3    C6 8849   0.130   2.510  16.956  0.4904  0.1624 -0.3364
  597TMC3     C 8850   0.223   2.107  16.930 -0.2063 -0.8153 -0.8127
  597TMC3     O 8851   0.184   2.018  17.009 -0.0100 -0.6489 -0.3068
  597TMC3     H 8852   0.382   2.319  16.869  0.9647  0.0713  1.5971
  597TMC3    H1 8853   0.002   2.200  17.042 -0.7214 -0.4230  0.4937
  597TMC3    H2 8854   0.109   2.616  16.948 -2.2315 -0.2958  0.9531
  597TMC3    C7 8855   4.643   2.458  17.078 -0.5987  0.5420 -0.4041
  597TMC3    C8 8856   0.300   2.536  16.794 -0.9435 -0.1700  0.7811
  597TMC3    O1 8857   4.573   2.373  17.125  0.2506 -0.5232 -0.5199
  597TMC3    O2 8858   0.307   2.467  16.696  0.4789 -0.4682 -0.4655
  598TMC3    C1 8859   3.378   3.734  15.471 -0.2518  0.3633 -0.5661
  598TMC3    C2 8860   3.341   3.641  15.570  0.2321  0.3994 -0.0017
  598TMC3    C3 8861   3.216   3.586  15.554 -0.4711 -0.3826  1.1135
  598TMC3    C4 8862   3.302   3.781  15.365  0.0316 -0.5136  0.0295
  598TMC3    C5 8863   3.180   3.725  15.358  0.5155  0.5775  0.3090
  598TMC3    C6 8864   3.138   3.625  15.451  0.4098  0.8563  0.0085
  598TMC3     C 8865   3.500   3.812  15.490 -0.3923 -0.8914  0.2570
  598TMC3     O 8866   3.531   3.890  15.402 -0.1179  0.2040  0.1955
  598TMC3     H 8867   3.416   3.606  15.640  0.5278  2.9218  0.9182
  598TMC3    H1 8868   3.339   3.848  15.289 -3.6671  1.2263 -0.2272
  598TMC3    H2 8869   3.042   3.577  15.435  0.4506  1.2081 -1.2669
  598TMC3    C7 8870   3.128   3.717  15.225 -0.2438  0.0209  0.1123
  598TMC3    C8 8871   3.177   3.474  15.628  0.5050  0.0420 -0.1498
  598TMC3    O1 8872   3.085   3.610  15.185 -0.3615  0.5769  0.1314
  598TMC3    O2 8873   3.075   3.423  15.598 -0.3127  0.0582 -0.0735
  599MPD2     C 8874   3.383   1.077  15.991  0.1699  0.8779 -0.3042
  599MPD2    C1 8875   3.297   0.979  15.951  0.5031  1.1419  0.5041
  599MPD2    C2 8876   3.162   1.004  15.948 -0.4075 -0.4100 -0.6204
  599MPD2    C3 8877   3.106   1.118  16.006  1.3861  0.3812  0.1402
  599MPD2    C4 8878   3.198   1.201  16.061 -0.2636 -0.7349  0.4002
  599MPD2    C5 8879   3.333   1.187  16.054 -0.5987  0.0579  0.2502
  599MPD2     H 8880   3.103   0.920  15.913  0.0942 -0.8572 -0.3903
  599MPD2    H1 8881   3.169   1.288  16.118  1.1731 -0.7102  1.0855
  599MPD2    H2 8882   3.490   1.058  15.996 -0.2934 -1.9630 -1.1635
  599MPD2    H3 8883   3.404   1.255  16.100 -0.8383  0.3911  0.1241
  599MPD2     N 8884   2.971   1.132  16.043  0.4212  0.5033  0.7487
  599MPD2    H5 8885   2.955   1.215  16.100  4.6337  0.3102  2.1523
  599MPD2    N1 8886   3.374   0.861  15.909 -0.6191  0.2228 -0.0210
  599MPD2    H7 8887   3.475   0.864  15.914 -0.5801  1.1534 -1.4780
  600TMC3    C1 8888   2.744   1.081  16.063 -0.5053  0.3227 -0.9157
  600TMC3    C2 8889   2.628   1.025  16.014 -0.2127  0.1477 -0.5353
  600TMC3    C3 8890   2.507   1.061  16.070  0.3572 -0.1665  0.1339
  600TMC3    C4 8891   2.741   1.158  16.180  0.0298 -0.1165 -0.5055
  600TMC3    C5 8892   2.614   1.184  16.233  0.0402 -0.2584  0.9149
  600TMC3    C6 8893   2.498   1.140  16.180  0.0889 -0.0429  0.2378
  600TMC3     C 8894   2.868   1.053  15.998  0.4810  0.2179 -0.4907
  600TMC3     O 8895   2.871   0.973  15.905  0.2232 -0.6396  0.0840
  600TMC3     H 8896   2.634   0.972  15.920  0.2816 -2.0094  0.7199
  600TMC3    H1 8897   2.833   1.195  16.225  1.1544 -2.9035 -0.4743
  600TMC3    H2 8898   2.414   1.161  16.245  2.6045  1.6889  2.8952
  600TMC3    C7 8899   2.608   1.271  16.346  0.3450 -0.2801 -0.5944
  600TMC3    C8 8900   2.399   0.976  16.034 -0.1345  0.2272  0.0154
  600TMC3    O1 8901   2.514   1.342  16.376 -0.4738  0.3883 -0.3778
  600TMC3    O2 8902   2.428   0.862  15.995 -0.3644 -0.0135 -0.0200
  601MPD2     C 8903   0.416   4.210   0.544  0.0340 -0.2156  0.6676
  601MPD2    C1 8904   0.412   4.153   0.423  0.7214  0.7029  0.0106
  601MPD2    C2 8905   0.427   4.015   0.410 -0.1045  0.3388 -0.5768
  601MPD2    C3 8906   0.453   3.932   0.525  1.2092  0.6375 -0.2942
  601MPD2    C4 8907   0.450   3.993   0.646 -0.2762  0.1274 -0.4716
  601MPD2    C5 8908   0.432   4.131   0.657 -1.1787  0.8916 -0.2146
  601MPD2     H 8909   0.418   3.972   0.311  0.5443  0.4564 -0.6876
  601MPD2    H1 8910   0.456   3.935   0.738 -2.5655 -1.0417 -1.0743
  601MPD2    H2 8911   0.393   4.314   0.564  0.5512  0.2196 -1.0115
  601MPD2    H3 8912   0.432   4.172   0.758 -0.2755  3.1303 -1.1248
  601MPD2     N 8913   0.464   3.795   0.526  0.5240  0.2964 -0.7725
  601MPD2    H5 8914   0.468   3.757   0.620  1.2937 -0.6365 -1.1812
  601MPD2    N1 8915   0.387   4.222   0.308 -0.9554  0.2513  0.1835
  601MPD2    H7 8916   0.391   4.177   0.217  1.2283 -1.6321  1.2142
  602TMC3    C1 8917   0.334   4.394   0.164 -0.6545 -0.9532  0.4387
  602TMC3    C2 8918   0.384   4.505   0.104 -0.8752 -0.1015 -0.2054
  602TMC3    C3 8919   0.351   4.528  17.674  0.1272  0.6997 -1.1780
  602TMC3    C4 8920   0.230   4.322   0.112  0.2285 -0.0828 -0.0660
  602TMC3    C5 8921   0.182   4.362  17.685 -0.9166  0.0926  0.6015
  602TMC3    C6 8922   0.250   4.455  17.611  0.1176 -0.0620  0.5551
  602TMC3     C 8923   0.375   4.359   0.295 -0.2593  0.1342 -0.2628
  602TMC3     O 8924   0.370   4.449   0.381  0.2339  0.3532 -0.1023
  602TMC3     H 8925   0.465   4.553   0.158 -1.4310  0.4015  0.1883
  602TMC3    H1 8926   0.175   4.246   0.167 -0.8032  2.4714  2.4301
  602TMC3    H2 8927   0.234   4.450  17.503  4.2407  1.3950 -0.0843
  602TMC3    C7 8928   0.062   4.309  17.622 -0.4569  0.8155  0.1635
  602TMC3    C8 8929   0.395   4.648  17.609  0.4891  0.9611  0.2722
  602TMC3    O1 8930   0.036   4.193  17.652 -0.1940 -0.0319  0.4341
  602TMC3    O2 8931   0.477   0.004  17.652  0.1347 -0.0283  0.6123
  603TMC3    C1 8932   2.890   4.350  10.943  0.4417 -1.4365 -0.8293
  603TMC3    C2 8933   2.855   4.328  11.072 -0.4279 -0.0988 -0.4209
  603TMC3    C3 8934   2.885   4.415  11.170 -0.7197  0.0367  0.3396
  603TMC3    C4 8935   2.965   4.465  10.905 -0.4405 -0.1839  0.1330
  603TMC3    C5 8936   2.984   4.553  11.011  0.3647  0.2668  0.3979
  603TMC3    C6 8937   2.947   4.536  11.141 -0.5609 -0.7679 -0.0787
  603TMC3     C 8938   2.862   4.258  10.834  0.4761 -0.0608 -0.4448
  603TMC3     O 8939   2.845   4.140  10.865 -0.1021 -0.0605  0.6993
  603TMC3     H 8940   2.810   4.235  11.103  1.2266 -1.3483 -1.7841
  603TMC3    H1 8941   3.000   4.488  10.805  2.1623 -0.9219  0.8635
  603TMC3    H2 8942   2.968   4.620  11.206 -1.0183  0.0349 -0.9676
  603TMC3    C7 8943   3.091   4.653  10.994 -0.6654  0.2581 -0.4507
  603TMC3    C8 8944   2.899   4.368  11.305  0.2465  0.3451  0.0122
  603TMC3    O1 8945   3.159   4.686  11.089  0.2352 -0.5272 -0.5303
  603TMC3    O2 8946   2.854   4.265  11.348  0.2819 -0.3825 -0.0303
  604MPD2     C 8947   3.816   2.920  16.522 -0.8432 -0.8453 -1.0372
  604MPD2    C1 8948   3.723   3.008  16.469 -0.5527  0.2351  0.0340
  604MPD2    C2 8949   3.742   3.057  16.344  0.3616 -0.5327 -0.0882
  604MPD2    C3 8950   3.856   3.019  16.269 -0.9648  0.4802  0.2786
  604MPD2    C4 8951   3.951   2.932  16.331  0.1057  0.1439 -0.2414
  604MPD2    C5 8952   3.929   2.878  16.456 -0.2235 -0.7068  0.5414
  604MPD2     H 8953   3.670   3.122  16.296 -0.1932 -0.0891  1.3318
  604MPD2    H1 8954   4.042   2.910  16.277 -1.1953 -1.0539 -1.9391
  604MPD2    H2 8955   3.806   2.890  16.626 -2.3416 -2.0725 -1.5374
  604MPD2    H3 8956   3.999   2.809  16.503  1.0864  0.8096  0.8194
  604MPD2     N 8957   3.874   3.079  16.142  0.3442  0.4933 -0.0468
  604MPD2    H5 8958   3.793   3.114  16.090  2.3803  1.1993 -2.7779
  604MPD2    N1 8959   3.628   3.058  16.561  0.3639  0.2681  0.2997
  604MPD2    H7 8960   3.629   3.025  16.657 -0.4278  1.6169  0.7575
  605TMC3    C1 8961   3.474   3.194  16.660  0.1173  0.6958  0.1795
  605TMC3    C2 8962   3.574   3.238  16.749  1.1588  0.5311  1.2460
  605TMC3    C3 8963   3.556   3.367  16.799  0.3497 -0.5074 -0.4233
  605TMC3    C4 8964   3.359   3.270  16.642  0.5478 -0.1936  0.6463
  605TMC3    C5 8965   3.358   3.401  16.683  1.4034  0.8256  0.3286
  605TMC3    C6 8966   3.462   3.456  16.755 -0.4285 -0.0173 -0.8254
  605TMC3     C 8967   3.525   3.141  16.537  0.3385  0.3741  0.3268
  605TMC3     O 8968   3.475   3.172  16.430  0.4135 -0.3151  0.0725
  605TMC3     H 8969   3.652   3.171  16.784  0.8757 -1.3355 -1.6077
  605TMC3    H1 8970   3.277   3.226  16.587 -0.4625  1.3598  0.9477
  605TMC3    H2 8971   3.458   3.561  16.781  3.8437  0.3703 -1.7760
  605TMC3    C7 8972   3.293   3.497  16.601  0.1617 -0.0217  0.2307
  605TMC3    C8 8973   3.687   3.424  16.846  0.9976  0.1701  0.1465
  605TMC3    O1 8974   3.254   3.601  16.646  0.0548 -0.5382  0.3870
  605TMC3    O2 8975   3.783   3.358  16.822  0.2251  0.3850  0.1517
  606TMC3    C1 8976   0.738   1.863  16.856  0.6202 -0.5463  0.3412
  606TMC3    C2 8977   0.782   1.895  16.979 -0.6453 -0.0019 -0.3617
  606TMC3    C3 8978   0.763   1.803  17.075 -0.6352 -0.0301 -0.1339
  606TMC3    C4 8979   0.684   1.737  16.827 -0.5868 -0.1373 -0.2523
  606TMC3    C5 8980   0.665   1.646  16.926  0.4601 -0.2634 -0.7518
  606TMC3    C6 8981   0.698   1.679  17.054  0.4522 -0.6592  0.0195
  606TMC3     C 8982   0.716   1.972  16.765  0.0616 -1.0544  0.1033
  606TMC3     O 8983   0.715   2.085  16.818 -0.0604 -0.0086 -0.2121
  606TMC3     H 8984   0.832   1.990  16.992  0.2279 -0.9517  3.3657
  606TMC3    H1 8985   0.644   1.714  16.729 -0.2497  2.8515 -1.0951
  606TMC3    H2 8986   0.696   1.603  17.131 -1.8955 -1.8962 -1.2358
  606TMC3    C7 8987   0.611   1.512  16.888  0.2974 -0.6724  0.1180
  606TMC3    C8 8988   0.796   1.845  17.210 -0.0192  0.5860 -0.0750
  606TMC3    O1 8989   0.618   1.478  16.771  0.0151 -0.2652 -0.0169
  606TMC3    O2 8990   0.867   1.945  17.225 -0.1920  0.0323 -0.7926
  607MPD2     C 8991   2.356   4.255  11.739 -0.5416  0.2948 -0.3191
  607MPD2    C1 8992   2.385   4.362  11.823 -0.3166  0.3049 -0.0052
  607MPD2    C2 8993   2.332   4.351  11.953  0.5902 -0.0048  0.4235
  607MPD2    C3 8994   2.263   4.240  11.991  0.7217  0.4085  1.1011
  607MPD2    C4 8995   2.232   4.146  11.904 -0.3368  0.2173 -0.5990
  607MPD2    C5 8996   2.272   4.149  11.777 -0.2277  0.2085  0.1269
  607MPD2     H 8997   2.348   4.419  12.036  1.3605 -0.1069  0.3570
  607MPD2    H1 8998   2.177   4.061  11.942 -0.2190  0.9576  1.2013
  607MPD2    H2 8999   2.415   4.251  11.648  1.3671  1.6858  0.8616
  607MPD2    H3 9000   2.253   4.064  11.712 -0.1805  0.0678  0.2992
  607MPD2     N 9001   2.231   4.232  12.127  0.1644  0.0923 -0.5649
  607MPD2    H5 9002   2.260   4.316  12.175 -1.2817  1.5497 -2.2878
  607MPD2    N1 9003   2.476   4.467  11.794  0.1023  1.1270 -0.3192
  607MPD2    H7 9004   2.495   4.527  11.874 -0.8393  1.6515 -0.4916
  608TMC3    C1 9005   2.647   4.590  11.706  0.7286  0.1776  0.2820
  608TMC3    C2 9006   2.705   4.583  11.834 -0.1371 -0.2860  0.2947
  608TMC3    C3 9007   2.799   4.675  11.869 -0.2283  0.4816  0.6156
  608TMC3    C4 9008   2.689   4.681  11.613  0.1835 -0.4194 -0.2028
  608TMC3    C5 9009   2.788   0.045  11.653  0.3599 -0.5697 -0.6786
  608TMC3    C6 9010   2.832   0.053  11.781  0.0219 -0.7386 -0.9208
  608TMC3     C 9011   2.550   4.484  11.678  0.2962 -0.4636  0.1322
  608TMC3     O 9012   2.547   4.424  11.575  0.3284  0.9225 -0.6843
  608TMC3     H 9013   2.682   4.498  11.898 -1.2768  0.0626  0.3420
  608TMC3    H1 9014   2.643   4.683  11.515 -1.4246  1.2158  0.5840
  608TMC3    H2 9015   2.899   0.132  11.814 -0.1765 -0.5852 -0.8841
  608TMC3    C7 9016   2.856   0.125  11.552 -0.3909 -0.6166 -1.0425
  608TMC3    C8 9017   2.820   4.713  12.008 -0.5933 -0.6668 -0.1842
  608TMC3    O1 9018   2.805   0.138  11.439 -0.2410 -0.5168  0.5709
  608TMC3    O2 9019   2.920   0.042  12.053 -0.3150  0.0466  0.4353
  609TMC3    C1 9020   0.207   3.548   9.583  0.1524 -0.1555 -0.2168
  609TMC3    C2 9021   0.223   3.603   9.704 -0.7111  0.3071  0.2911
  609TMC3    C3 9022   0.337   3.582   9.774 -0.1699 -0.3141  0.5454
  609TMC3    C4 9023   0.311   3.488   9.518  0.4042  0.8577  0.7777
  609TMC3    C5 9024   0.436   3.477   9.594  0.2194 -0.3976  0.1511
  609TMC3    C6 9025   0.449   3.520   9.722  0.0776 -0.1963  0.8662
  609TMC3     C 9026   0.076   3.563   9.524  0.5483  0.3799 -0.3073
  609TMC3     O 9027   0.005   3.657   9.558 -0.8270  0.2857  0.0905
  609TMC3     H 9028   0.140   3.655   9.750  0.0670  0.0570  1.9991
  609TMC3    H1 9029   0.303   3.453   9.416 -0.9174 -3.1492  2.2382
  609TMC3    H2 9030   0.545   3.512   9.772  1.7146 -0.9623 -2.3738
  609TMC3    C7 9031   0.543   3.391   9.549 -0.0441  0.1803  0.3585
  609TMC3    C8 9032   0.344   3.624   9.914  0.0731  0.1510 -0.4497
  609TMC3    O1 9033   0.652   3.397   9.611 -0.1318 -0.9264 -0.1492
  609TMC3    O2 9034   0.272   3.720   9.942  0.0022  0.1897 -0.0812
  610TMC3    C1 9035   3.213   4.719  12.326  0.1772  0.4615 -0.2776
  610TMC3    C2 9036   3.245   4.675  12.207  0.2175 -0.3765  0.1468
  610TMC3    C3 9037   3.290   4.546  12.190 -0.4425 -0.9165  0.1301
  610TMC3    C4 9038   3.247   4.647  12.440  0.6968  0.1129 -0.9994
  610TMC3    C5 9039   3.294   4.520  12.419 -0.0555 -0.1195  0.5848
  610TMC3    C6 9040   3.308   4.465  12.296 -0.3581  0.5155 -0.8015
  610TMC3     C 9041   3.195   0.141  12.324 -0.5640  0.0336 -0.1904
  610TMC3     O 9042   3.247   0.208  12.414 -0.8375 -0.0296 -0.0720
  610TMC3     H 9043   3.209   4.722  12.117  2.8030  0.1877 -0.5799
  610TMC3    H1 9044   3.230   4.696  12.536 -1.3512 -1.7035 -0.4416
  610TMC3    H2 9045   3.347   4.364  12.297  0.1100  0.7165  3.1468
  610TMC3    C7 9046   3.347   4.443  12.539  0.0869 -0.1235 -0.3303
  610TMC3    C8 9047   3.347   4.500  12.062 -0.5371  0.1638  0.2140
  610TMC3    O1 9048   3.401   4.335  12.520  0.6834  0.2406 -0.2574
  610TMC3    O2 9049   3.373   4.375  12.058  0.1720  0.1857 -0.0986
  611MPD2     C 9050   2.670   4.620  10.066  0.1980 -0.5149  0.2203
  611MPD2    C1 9051   2.691   4.664  10.194  0.1113 -0.3527  0.6086
  611MPD2    C2 9052   2.809   0.015  10.220  0.1393 -0.7226  0.2778
  611MPD2    C3 9053   2.901   0.039  10.120  0.2641 -1.0575 -0.4877
  611MPD2    C4 9054   2.875   4.716   9.995 -0.6113 -0.3846 -0.1427
  611MPD2    C5 9055   2.764   4.642   9.971  0.2991 -0.0201  0.7138
  611MPD2     H 9056   2.827   0.055  10.320 -2.4979 -1.8138  1.1880
  611MPD2    H1 9057   2.929   0.015   9.903 -1.0403 -1.6625 -0.7147
  611MPD2    H2 9058   2.576   4.570  10.044  1.3083 -2.0939 -0.8919
  611MPD2    H3 9059   2.743   4.609   9.870 -0.7314 -2.3301  1.6917
  611MPD2     N 9060   3.018   0.114  10.157  0.5696 -0.2103  0.5684
  611MPD2    H5 9061   3.017   0.157  10.249 -0.3556  0.4261  0.2590
  611MPD2    N1 9062   2.588   4.641  10.283  0.0159 -0.2504 -0.0017
  611MPD2    H7 9063   2.501   4.599  10.250 -0.3653 -0.8085  1.7000
  612TMC3    C1 9064   3.226   0.217  10.125  0.1484 -0.1006  0.3132
  612TMC3    C2 9065   3.228   0.244  10.258 -0.5727 -0.2518 -0.4853
  612TMC3    C3 9066   3.338   0.313  10.303 -0.0527 -0.6934 -0.5451
  612TMC3    C4 9067   3.324   0.261  10.035 -0.1900  0.3111 -0.2157
  612TMC3    C5 9068   3.433   0.330  10.091 -0.0438  0.1181 -0.3473
  612TMC3    C6 9069   3.438   0.361  10.224  0.0907  0.0660 -0.0638
  612TMC3     C 9070   3.115   0.143  10.064  0.4723  0.1192 -0.3114
  612TMC3     O 9071   3.134   0.113   9.949  0.1738  0.6605  0.5720
  612TMC3     H 9072   3.143   0.235  10.324  0.4334  1.9772  1.1039
  612TMC3    H1 9073   3.334   0.228   9.932 -2.9691 -0.9681 -0.0790
  612TMC3    H2 9074   3.521   0.403  10.280 -0.7007  0.8741  0.5092
  612TMC3    C7 9075   3.536   0.374   9.997  0.5902 -0.8587 -0.1989
  612TMC3    C8 9076   3.356   0.331  10.446  0.1167  0.4993  0.3660
  612TMC3    O1 9077   3.542   0.325   9.884  0.0547 -0.4991  0.1059
  612TMC3    O2 9078   3.424   0.424  10.488 -0.2704  0.4589  0.5530
  613MPD2     C 9079   1.469   1.907  16.146  0.2047 -0.7381  0.2727
  613MPD2    C1 9080   1.523   1.888  16.018  0.0508  0.1792  1.0126
  613MPD2    C2 9081   1.451   1.829  15.919  1.0385  0.0198  0.3239
  613MPD2    C3 9082   1.318   1.801  15.931  0.2896 -0.0332 -0.5036
  613MPD2    C4 9083   1.263   1.843  16.054  0.2158  0.1242  0.1636
  613MPD2    C5 9084   1.337   1.877  16.159 -0.3106 -0.1573  0.7726
  613MPD2     H 9085   1.499   1.798  15.827  0.0782  1.4671 -0.6647
  613MPD2    H1 9086   1.156   1.831  16.070  0.5294  0.9952  2.9721
  613MPD2    H2 9087   1.534   1.927  16.230 -1.6272  0.5996  1.3712
  613MPD2    H3 9088   1.284   1.891  16.252 -0.6177  0.1318  0.5529
  613MPD2     N 9089   1.252   1.737  15.824 -0.7775  0.0619 -0.0338
  613MPD2    H5 9090   1.308   1.715  15.742 -0.0168  0.5800  0.3457
  613MPD2    N1 9091   1.647   1.941  15.982 -0.1807 -0.0012  0.8554
  613MPD2    H7 9092   1.684   1.918  15.890 -1.7291 -0.0490  0.2371
  614TMC3    C1 9093   1.819   2.084  15.954 -0.4587 -0.4071 -0.4136
  614TMC3    C2 9094   1.859   1.989  15.857 -0.3862  0.2806 -0.0694
  614TMC3    C3 9095   1.873   2.030  15.725 -0.0979 -0.0160 -0.2465
  614TMC3    C4 9096   1.785   2.206  15.900  0.1724 -0.7456 -0.1150
  614TMC3    C5 9097   1.790   2.232  15.767 -0.3186  0.5553 -0.4512
  614TMC3    C6 9098   1.857   2.154  15.676  0.0491  0.8865  0.9896
  614TMC3     C 9099   1.724   2.028  16.051 -0.7541  0.2110  0.0602
  614TMC3     O 9100   1.721   2.077  16.159 -0.1855  0.2738  0.1428
  614TMC3     H 9101   1.875   1.883  15.877  0.7759  0.1484 -1.7373
  614TMC3    H1 9102   1.717   2.262  15.964 -0.0460  0.3900 -1.3366
  614TMC3    H2 9103   1.836   2.168  15.570 -1.2735  2.5247  1.4778
  614TMC3    C7 9104   1.657   2.274  15.728  0.0622 -0.4574 -0.1941
  614TMC3    C8 9105   1.794   1.936  15.653  0.3924 -0.0095  0.7102
  614TMC3    O1 9106   1.572   2.319  15.806 -0.9424 -0.0270  0.3958
  614TMC3    O2 9107   1.696   1.899  15.714  0.0290 -0.1385  0.0411
  615MPD2     C 9108   0.596   3.447  16.892  0.5401  0.2006  0.6101
  615MPD2    C1 9109   0.715   3.518  16.869 -0.4351 -0.1939 -0.8051
  615MPD2    C2 9110   0.742   3.587  16.757  0.7068  0.3359  0.1599
  615MPD2    C3 9111   0.644   3.590  16.655  0.4021 -0.1437 -0.7243
  615MPD2    C4 9112   0.530   3.510  16.669 -0.1787  0.6766  0.0779
  615MPD2    C5 9113   0.508   3.438  16.789 -0.4747 -0.0892 -0.7947
  615MPD2     H 9114   0.832   3.646  16.757 -0.7182  2.5087  2.0280
  615MPD2    H1 9115   0.451   3.501  16.595 -2.5612  1.5229  2.5509
  615MPD2    H2 9116   0.569   3.392  16.982 -0.2461 -0.2097  0.1297
  615MPD2    H3 9117   0.420   3.375  16.792 -0.6187  0.0134 -2.6025
  615MPD2     N 9118   0.669   3.662  16.531 -0.3572 -0.2692 -0.0439
  615MPD2    H5 9119   0.608   3.633  16.456  0.6176  0.8171 -1.2701
  615MPD2    N1 9120   0.817   3.524  16.966 -0.3798 -0.0772 -0.6143
  615MPD2    H7 9121   0.901   3.576  16.940 -1.2045  0.3113 -2.4895
  616TMC3    C1 9122   0.932   3.510  17.165 -0.6156  0.0301 -0.1698
  616TMC3    C2 9123   1.045   3.520  17.094 -0.2002  0.5447  0.0135
  616TMC3    C3 9124   1.163   3.550  17.157  0.3593 -0.3695  0.4696
  616TMC3    C4 9125   0.928   3.546  17.296 -0.5110  0.0797 -0.8648
  616TMC3    C5 9126   1.041   3.590  17.361  0.2535  0.4276 -0.6768
  616TMC3    C6 9127   1.165   3.580  17.295  0.2599  0.5526  0.3036
  616TMC3     C 9128   0.807   3.469  17.097  0.2226 -0.2196  0.1150
  616TMC3     O 9129   0.713   3.425  17.165  0.3599 -0.3568 -0.3213
  616TMC3     H 9130   1.051   3.484  16.992  0.3888  1.1572 -0.1693
  616TMC3    H1 9131   0.842   3.514  17.355  0.2455  1.2631  0.8583
  616TMC3    H2 9132   1.258   3.620  17.335  1.2400 -1.6677  0.2899
  616TMC3    C7 9133   1.040   3.590  17.506 -0.2473  0.6621  0.1961
  616TMC3    C8 9134   1.275   3.613  17.083  0.0857  0.0436 -0.1439
  616TMC3    O1 9135   0.949   3.654  17.551 -0.3738 -0.1392  0.3364
  616TMC3    O2 9136   1.389   3.611  17.130  0.0718 -0.0541 -0.0006
  617MPD2     C 9137   3.880   1.746  13.662  0.2873 -0.3915  0.0864
  617MPD2    C1 9138   3.909   1.663  13.765  0.6787  0.2283  0.8857
  617MPD2    C2 9139   3.823   1.647  13.873  0.3901 -0.5308 -0.3588
  617MPD2    C3 9140   3.701   1.712  13.866  0.6179 -0.4343  0.9529
  617MPD2    C4 9141   3.664   1.787  13.757  0.2356  0.1530 -0.9236
  617MPD2    C5 9142   3.755   1.809  13.656  0.5039 -0.1686 -0.2889
  617MPD2     H 9143   3.844   1.577  13.953  1.3349 -0.1665 -0.2883
  617MPD2    H1 9144   3.565   1.831  13.757  0.3544  0.4561  0.6365
  617MPD2    H2 9145   3.941   1.765  13.575  0.1286 -1.4441 -0.2501
  617MPD2    H3 9146   3.729   1.866  13.568  1.3670  0.8298  0.1039
  617MPD2     N 9147   3.602   1.694  13.967 -0.2339  0.6275  0.2331
  617MPD2    H5 9148   3.517   1.748  13.955  0.4200  1.1975 -1.7714
  617MPD2    N1 9149   4.028   1.594  13.755  0.0421  1.0052 -0.0882
  617MPD2    H7 9150   4.087   1.619  13.677 -0.8684  2.0826 -0.4296
  618TMC3    C1 9151   4.197   1.431  13.783 -0.9827  0.2557  0.2227
  618TMC3    C2 9152   4.229   1.295  13.788 -0.1533  0.8621  0.2240
  618TMC3    C3 9153   4.359   1.254  13.773 -0.5095  0.1160  0.0464
  618TMC3    C4 9154   4.303   1.525  13.790  0.6024  0.5129  0.0754
  618TMC3    C5 9155   4.437   1.483  13.782 -0.1795 -0.7099 -0.2369
  618TMC3    C6 9156   4.461   1.349  13.765  0.0804  0.5409 -0.7748
  618TMC3     C 9157   4.068   1.477  13.823 -0.4697  0.1662  0.1086
  618TMC3     O 9158   4.004   1.408  13.901 -0.1339  0.2111  0.1557
  618TMC3     H 9159   4.150   1.221  13.791 -0.8164  1.5108 -1.1510
  618TMC3    H1 9160   4.286   1.632  13.789  1.9960  0.7129 -1.5775
  618TMC3    H2 9161   4.565   1.319  13.764  0.3149  1.3131 -0.0026
  618TMC3    C7 9162   4.515   1.551  13.682 -0.3458 -0.8248 -0.2638
  618TMC3    C8 9163   4.372   1.150  13.671 -0.1846  0.0337 -0.1121
  618TMC3    O1 9164   4.525   1.478  13.587  0.2298 -0.8169  0.0323
  618TMC3    O2 9165   4.302   1.049  13.673  0.1833  0.6912 -0.6435
  619MPD2     C 9166   0.423   3.099  13.707 -0.2275  0.1699  0.4445
  619MPD2    C1 9167   0.326   3.193  13.672 -0.2430  0.3032 -0.4935
  619MPD2    C2 9168   0.243   3.168  13.563  0.3308  0.3932 -0.0819
  619MPD2    C3 9169   0.253   3.040  13.500 -0.1028  0.1440 -0.5886
  619MPD2    C4 9170   0.345   2.946  13.542 -0.3516  0.4070  0.2766
  619MPD2    C5 9171   0.436   2.984  13.638  0.4701 -0.1567 -0.4883
  619MPD2     H 9172   0.173   3.244  13.528  0.1793 -0.3840 -1.4766
  619MPD2    H1 9173   0.344   2.852  13.489 -1.2627  0.8113 -0.4200
  619MPD2    H2 9174   0.493   3.123  13.787 -0.3381  0.7445  0.3724
  619MPD2    H3 9175   0.520   2.919  13.658 -0.5961  0.3666  5.8605
  619MPD2     N 9176   0.162   3.010  13.396  0.4575  0.0676 -0.6951
  619MPD2    H5 9177   0.169   2.912  13.371  0.3722 -0.4844  1.4487
  619MPD2    N1 9178   0.299   3.318  13.728 -1.0629 -0.0111 -0.3018
  619MPD2    H7 9179   0.242   3.386  13.679  0.1239  1.8665  0.9076
  620TMC3    C1 9180   0.285   3.494  13.869  0.1239 -1.3352  0.7788
  620TMC3    C2 9181   0.151   3.508  13.836 -0.4538 -0.1004 -0.2576
  620TMC3    C3 9182   0.094   3.633  13.849  0.3266  0.2395  0.4738
  620TMC3    C4 9183   0.357   3.613  13.895 -0.0282  0.6126  0.2581
  620TMC3    C5 9184   0.297   3.737  13.906  0.7307  0.0325 -0.0378
  620TMC3    C6 9185   0.164   3.754  13.875 -1.0472  0.1484  0.5461
  620TMC3     C 9186   0.349   3.369  13.841  0.0474  0.2088  0.3163
  620TMC3     O 9187   0.429   3.321  13.924  0.6833 -0.3946  0.0222
  620TMC3     H 9188   0.096   3.415  13.832  2.1708 -1.5847 -1.4391
  620TMC3    H1 9189   0.464   3.604  13.907  0.0135 -0.1432 -0.7338
  620TMC3    H2 9190   0.111   3.849  13.869 -2.2992 -0.5677  0.2006
  620TMC3    C7 9191   0.389   3.841  13.862 -0.0434 -0.3546 -0.4445
  620TMC3    C8 9192   4.683   3.635  13.796  0.2625  0.3220 -1.0593
  620TMC3    O1 9193   0.502   3.835  13.905  0.5622  0.4629 -0.0620
  620TMC3    O2 9194   4.599   3.714  13.838  0.1529 -0.2317 -0.7033
  621MPD2     C 9195   0.052   3.006  10.197  0.1028  0.5943  0.3513
  621MPD2    C1 9196   0.117   2.983  10.077 -0.5321  0.1872 -0.0817
  621MPD2    C2 9197   0.256   2.973  10.083 -0.9727  0.3215 -0.3701
  621MPD2    C3 9198   0.330   2.970  10.203  0.5113  0.3063 -0.0736
  621MPD2    C4 9199   0.254   2.982  10.322  0.2649 -0.1381  0.1283
  621MPD2    C5 9200   0.116   3.001  10.319 -0.2188 -0.3511  0.7183
  621MPD2     H 9201   0.308   2.961   9.988 -0.6889 -1.5686  0.0246
  621MPD2    H1 9202   0.307   2.980  10.417 -0.5667  0.2412  0.6092
  621MPD2    H2 9203   4.669   3.026  10.208  0.4393  2.5321  0.1148
  621MPD2    H3 9204   0.062   2.987  10.412 -1.5939  0.8807  0.0929
  621MPD2     N 9205   0.473   2.964  10.202  0.3694 -1.1052  0.2133
  621MPD2    H5 9206   0.527   2.948  10.117  0.4051  2.7488 -0.4879
  621MPD2    N1 9207   0.044   2.959   9.954  0.3007 -0.2471  0.7957
  621MPD2    H7 9208   0.112   2.937   9.881  1.2449 -0.7120  1.8177
  622TMC3    C1 9209   4.599   2.938   9.803  0.2521  0.0836 -0.4096
  622TMC3    C2 9210   4.464   2.907   9.783  0.0170  0.3987 -0.0346
  622TMC3    C3 9211   4.419   2.887   9.654 -0.0363 -0.4406  0.1798
  622TMC3    C4 9212   4.691   2.947   9.697 -0.4846  0.4260 -0.2119
  622TMC3    C5 9213   4.646   2.912   9.575  0.1988  0.8538 -0.3176
  622TMC3    C6 9214   4.511   2.893   9.553 -0.3002  0.2310 -0.7075
  622TMC3     C 9215   4.634   2.971   9.942  0.3242 -1.2324  0.1913
  622TMC3     O 9216   4.551   2.972  10.033  0.9066 -0.4035 -0.5302
  622TMC3     H 9217   4.401   2.908   9.871  0.5151 -0.9202  0.3460
  622TMC3    H1 9218   0.066   2.982   9.722  0.9700 -1.7638 -2.9108
  622TMC3    H2 9219   4.473   2.874   9.453 -0.7625 -0.6903 -0.3583
  622TMC3    C7 9220   0.013   2.951   9.463 -1.1099  0.2034  0.6018
  622TMC3    C8 9221   4.280   2.920   9.614  0.2021  0.3052 -0.5991
  622TMC3    O1 9222   0.130   2.975   9.501 -0.4303 -0.2026 -0.5296
  622TMC3    O2 9223   4.241   2.882   9.506  0.8239 -0.1885 -0.0335
  623MPD2     C 9224   4.163   3.495  16.115  0.2746  0.0906  0.2811
  623MPD2    C1 9225   4.081   3.512  16.225  0.6015  0.7382 -0.3459
  623MPD2    C2 9226   4.128   3.547  16.354  0.6460 -0.2428  0.3283
  623MPD2    C3 9227   4.267   3.545  16.369 -0.2571  0.3942  0.9723
  623MPD2    C4 9228   4.347   3.514  16.258 -0.3071  0.5916  0.6085
  623MPD2    C5 9229   4.296   3.507  16.132 -0.3118 -0.5940 -0.1340
  623MPD2     H 9230   4.053   3.577  16.427  2.0456  1.5376  1.0534
  623MPD2    H1 9231   4.455   3.512  16.263 -0.3591 -0.0727  1.4227
  623MPD2    H2 9232   4.131   3.483  16.012 -2.6517 -1.9718  1.4238
  623MPD2    H3 9233   4.356   3.497  16.042  0.5943 -0.8599  0.5153
  623MPD2     N 9234   4.315   3.572  16.502 -0.2553 -0.3633 -0.0090
  623MPD2    H5 9235   4.248   3.612  16.567  0.3682 -0.0218  0.4237
  623MPD2    N1 9236   3.944   3.489  16.215  0.4447 -0.0462 -0.2351
  623MPD2    H7 9237   3.882   3.503  16.293 -1.3338  0.1115 -1.6838
  624TMC3    C1 9238   4.585   3.544  16.881 -0.3341 -0.2749 -0.5554
  624TMC3    C2 9239   4.500   3.623  16.957  0.1116 -0.4640  0.2484
  624TMC3    C3 9240   4.382   3.657  16.892  0.2295 -0.6035  0.1024
  624TMC3    C4 9241   4.575   3.521  16.750  0.0616  0.3794 -0.2898
  624TMC3    C5 9242   4.463   3.572  16.690  0.7040  0.3449  0.5332
  624TMC3    C6 9243   4.363   3.639  16.759  0.3258  0.5518 -0.0144
  624TMC3     C 9244   4.703   3.496  16.952  0.1883  0.1228 -0.1527
  624TMC3     O 9245   0.002   3.538  17.061 -0.0827 -0.1545  0.1322
  624TMC3     H 9246   4.518   3.646  17.062  1.9373 -1.7387  0.2221
  624TMC3    H1 9247   4.651   3.478  16.687  0.4305 -0.7448  0.9130
  624TMC3    H2 9248   4.282   3.683  16.703  0.8122  3.3488  1.5152
  624TMC3    C7 9249   4.445   3.547  16.549 -0.1712  0.3491 -0.3999
  624TMC3    C8 9250   4.274   3.703  16.972  0.0075 -0.5745  0.6923
  624TMC3    O1 9251   4.531   3.481  16.493  0.1805 -0.2425  0.3199
  624TMC3    O2 9252   4.292   3.778  17.067 -0.1774 -0.4585  0.0915
  625MPD2     C 9253   4.183   4.386   0.342  0.0741  0.5879 -0.1738
  625MPD2    C1 9254   4.203   4.490   0.424  0.4869  0.5268 -0.0459
  625MPD2    C2 9255   4.253   4.464   0.552 -0.6036  0.6717  0.2414
  625MPD2    C3 9256   4.289   4.339   0.588 -0.0336  0.7014  0.8207
  625MPD2    C4 9257   4.270   4.233   0.499  0.2727  0.1920  0.2638
  625MPD2    C5 9258   4.226   4.260   0.377 -0.2878 -0.5054  0.4492
  625MPD2     H 9259   4.274   4.547   0.618  0.1231  0.5032  0.2225
  625MPD2    H1 9260   4.282   4.127   0.522  0.7424  0.1149 -0.3395
  625MPD2    H2 9261   4.127   4.405   0.251  1.5005  0.6108 -1.0482
  625MPD2    H3 9262   4.193   4.179   0.313 -0.4079 -0.1308  0.0361
  625MPD2     N 9263   4.352   4.327   0.714 -0.3257 -0.1408 -0.0942
  625MPD2    H5 9264   4.375   4.417   0.755 -0.4025 -0.1287 -0.0771
  625MPD2    N1 9265   4.162   4.621   0.393  0.1133 -0.2692 -0.4547
  625MPD2    H7 9266   4.160   4.692   0.465 -0.2827 -0.7991  0.0550
  626TMC3    C1 9267   4.080   0.084   0.282 -0.5576 -0.0273 -0.2102
  626TMC3    C2 9268   4.115   0.173   0.185 -0.3178 -0.0510 -0.5587
  626TMC3    C3 9269   4.094   0.309   0.219 -0.8157  0.5686 -0.4761
  626TMC3    C4 9270   4.024   0.125   0.398 -0.2540  0.2029 -0.5901
  626TMC3    C5 9271   4.002   0.255   0.423  0.1339  0.0364 -0.9008
  626TMC3    C6 9272   4.037   0.352   0.334 -0.0439  0.0475 -0.7352
  626TMC3     C 9273   4.125   4.671   0.268 -0.2280 -0.1457  0.2281
  626TMC3     O 9274   4.120   4.615   0.157  0.5018  0.0536  0.0560
  626TMC3     H 9275   4.171   0.153   0.094  0.8894 -0.1378  0.2089
  626TMC3    H1 9276   4.034   0.067   0.489  0.0393 -1.5201 -1.7223
  626TMC3    H2 9277   4.006   0.452   0.362 -0.4740  0.3608 -2.3225
  626TMC3    C7 9278   4.068   0.291   0.546  0.3866 -0.4970 -0.4591
  626TMC3    C8 9279   4.114   0.408   0.114 -0.9808  0.5436  0.5749
  626TMC3    O1 9280   4.169   0.230   0.577 -0.3215  0.2772  0.0427
  626TMC3    O2 9281   4.131   0.363   0.000 -0.2157 -0.2913 -0.0735
  627MPD2     C 9282   2.899   0.602  14.338  0.4785 -0.0233  0.0622
  627MPD2    C1 9283   2.964   0.479  14.378 -0.3628 -0.0008 -0.1567
  627MPD2    C2 9284   2.904   0.355  14.351  0.2381 -0.1655 -0.2304
  627MPD2    C3 9285   2.775   0.364  14.295 -0.6945 -0.3661 -0.1656
  627MPD2    C4 9286   2.714   0.481  14.252  0.4743 -0.3345  0.4362
  627MPD2    C5 9287   2.771   0.604  14.276  1.1192  0.2447 -0.4163
  627MPD2     H 9288   2.954   0.263  14.379 -0.8915 -0.1936  1.6524
  627MPD2    H1 9289   2.615   0.468  14.209  0.4668  2.1715 -0.2790
  627MPD2    H2 9290   2.937   0.702  14.357  0.2075  0.4212 -1.7773
  627MPD2    H3 9291   2.725   0.696  14.244  1.6848  1.8094  3.3424
  627MPD2     N 9292   2.687   0.252  14.274 -0.0047  0.4271  0.2730
  627MPD2    H5 9293   2.605   0.280  14.220 -0.7734 -2.1967  0.0792
  627MPD2    N1 9294   3.087   0.476  14.440  0.6220 -0.6770 -0.2601
  627MPD2    H7 9295   3.119   0.385  14.473 -1.1388 -1.1946 -0.0231
  628TMC3    C1 9296   3.280   0.569  14.548  0.9417 -0.8034  0.2228
  628TMC3    C2 9297   3.311   0.443  14.588 -0.2882 -0.2722 -0.4287
  628TMC3    C3 9298   3.422   0.434  14.663 -0.5362  0.3001  0.2289
  628TMC3    C4 9299   3.332   0.683  14.595 -0.9239 -0.1491 -0.9146
  628TMC3    C5 9300   3.435   0.669  14.683  0.1888 -0.0022 -1.1760
  628TMC3    C6 9301   3.483   0.548  14.710 -0.2833  0.2268 -0.0465
  628TMC3     C 9302   3.171   0.588  14.452 -0.4191 -0.2961  0.0029
  628TMC3     O 9303   3.155   0.698  14.401  0.1485 -0.5317  0.0535
  628TMC3     H 9304   3.251   0.354  14.570 -2.3340  0.7299  1.3915
  628TMC3    H1 9305   3.302   0.779  14.556 -0.7468  0.1045 -0.4242
  628TMC3    H2 9306   3.591   0.549  14.723 -0.4905  0.9882  1.5716
  628TMC3    C7 9307   3.527   0.784  14.715  0.0127  0.3571 -0.3846
  628TMC3    C8 9308   3.482   0.302  14.687  0.0808 -0.2121  0.4629
  628TMC3    O1 9309   3.622   0.759  14.789  0.0630  0.1741 -0.7576
  628TMC3    O2 9310   3.426   0.204  14.644  0.0309 -0.2079 -0.3902
  629MPD2     C 9311   1.430   3.889  16.680 -0.0721 -0.0617 -0.3410
  629MPD2    C1 9312   1.509   3.839  16.777 -0.5585  0.3435  0.0979
  629MPD2    C2 9313   1.443   3.771  16.878 -0.5340 -0.3656 -0.0953
  629MPD2    C3 9314   1.303   3.736  16.865  0.4278  0.1898  0.3464
  629MPD2    C4 9315   1.230   3.774  16.755 -0.6022  0.0918 -0.0765
  629MPD2    C5 9316   1.304   3.846  16.661 -0.5286  0.1128 -0.2092
  629MPD2     H 9317   1.492   3.732  16.967 -0.3880 -2.0033 -0.8989
  629MPD2    H1 9318   1.123   3.760  16.739 -0.9732 -1.8664  4.1732
  629MPD2    H2 9319   1.460   3.959  16.603  0.2938 -0.5200 -0.6123
  629MPD2    H3 9320   1.251   3.890  16.578 -3.8925 -0.3444  1.6982
  629MPD2     N 9321   1.231   3.673  16.971  0.4720  0.1142 -0.1148
  629MPD2    H5 9322   1.130   3.677  16.955  0.3776  2.1064  0.9008
  629MPD2    N1 9323   1.650   3.863  16.771 -0.5195 -0.5516 -0.1095
  629MPD2    H7 9324   1.663   3.918  16.687 -1.6274  0.2290  0.2158
  630TMC3    C1 9325   1.879   3.858  16.825 -0.0031 -0.1567  0.0609
  630TMC3    C2 9326   1.908   3.940  16.721 -0.6962 -0.8276  0.3052
  630TMC3    C3 9327   2.042   3.987  16.718 -0.3418  0.4232 -0.8089
  630TMC3    C4 9328   1.977   3.821  16.915  0.4657  0.5016 -0.0143
  630TMC3    C5 9329   2.101   3.863  16.905 -0.4903 -0.5330 -0.2590
  630TMC3    C6 9330   2.140   3.955  16.810  0.4107  0.3981 -0.1638
  630TMC3     C 9331   1.744   3.823  16.858 -1.3042  0.6889 -0.6999
  630TMC3     O 9332   1.725   3.741  16.948 -0.0008 -0.2495  0.2815
  630TMC3     H 9333   1.834   3.982  16.654  1.0835  1.2077 -0.4020
  630TMC3    H1 9334   1.943   3.774  17.006 -0.3566 -0.9694 -1.0761
  630TMC3    H2 9335   2.236   4.003  16.803  0.8993 -0.7208 -1.0829
  630TMC3    C7 9336   2.185   3.835  17.019 -0.0794 -0.9707  0.6708
  630TMC3    C8 9337   2.083   4.112  16.654 -0.1842  0.7268 -0.5012
  630TMC3    O1 9338   2.149   3.753  17.099 -0.5348 -0.1311 -0.1224
  630TMC3    O2 9339   2.138   4.191  16.727  0.3757 -0.6138  0.5440
  631MPD2     C 9340   0.394   3.799  15.598 -0.4527  1.0167  0.0712
  631MPD2    C1 9341   0.497   3.887  15.611  0.4519  0.1748 -0.7443
  631MPD2    C2 9342   0.578   3.880  15.722 -0.0030  0.6326 -0.4008
  631MPD2    C3 9343   0.575   3.779  15.820 -0.1236 -0.2116  0.3924
  631MPD2    C4 9344   0.473   3.687  15.801 -0.4044 -0.0818 -0.6016
  631MPD2    C5 9345   0.384   3.698  15.689  0.2593  0.2430  0.5855
  631MPD2     H 9346   0.647   3.958  15.748  0.0643  0.1537  0.8376
  631MPD2    H1 9347   0.465   3.605  15.872 -0.1863 -0.5412 -1.1069
  631MPD2    H2 9348   0.323   3.808  15.517 -0.1119 -0.2467 -0.3650
  631MPD2    H3 9349   0.301   3.629  15.683  1.0631 -1.0119  3.6652
  631MPD2     N 9350   0.657   3.795  15.927  0.1191  0.4208  1.0838
  631MPD2    H5 9351   0.715   3.878  15.929  1.0399 -0.1807 -0.5496
  631MPD2    N1 9352   0.508   4.000  15.531  0.2938  0.7416 -0.4263
  631MPD2    H7 9353   0.586   4.064  15.547  0.9369  0.0176 -0.6860
  632TMC3    C1 9354   0.444   4.179  15.397 -0.0749 -0.0820 -0.1252
  632TMC3    C2 9355   0.424   4.246  15.516  0.1362 -0.6372 -0.7647
  632TMC3    C3 9356   0.336   4.352  15.516  0.1832  0.6932 -0.1462
  632TMC3    C4 9357   0.377   4.212  15.290  0.3987  0.3669  0.1185
  632TMC3    C5 9358   0.286   4.311  15.286 -0.1205 -0.1547 -0.2484
  632TMC3    C6 9359   0.269   4.388  15.399 -0.4178  0.2818  0.6913
  632TMC3     C 9360   0.435   4.036  15.423  0.5091 -0.0970  0.5106
  632TMC3     O 9361   0.341   3.984  15.365 -0.6384 -1.1472 -0.3469
  632TMC3     H 9362   0.465   4.220  15.613  0.1921  1.7080 -0.1606
  632TMC3    H1 9363   0.401   4.148  15.206  0.5003  0.9781 -0.3109
  632TMC3    H2 9364   0.205   4.476  15.395 -3.2473 -1.9636 -3.8580
  632TMC3    C7 9365   0.227   4.352  15.160 -0.1494 -0.5131  0.2243
  632TMC3    C8 9366   0.270   4.392  15.642  0.3083 -0.6137 -0.9582
  632TMC3    O1 9367   0.226   4.264  15.074  0.5876  0.0983 -0.0200
  632TMC3    O2 9368   0.150   4.417  15.641  0.2499  0.2860 -0.0779
  633MPD2     C 9369   4.379   1.830  17.416 -1.5334 -0.0209  0.5995
  633MPD2    C1 9370   4.492   1.789  17.346 -0.6865 -0.3848 -0.1324
  633MPD2    C2 9371   4.542   1.664  17.368 -0.5280 -0.1209  0.1099
  633MPD2    C3 9372   4.497   1.576  17.469  0.9605  0.4022 -0.4307
  633MPD2    C4 9373   4.390   1.627  17.541 -0.6157 -0.4224 -0.3915
  633MPD2    C5 9374   4.334   1.747  17.517  0.0648 -0.0369  0.9162
  633MPD2     H 9375   4.621   1.637  17.298  0.9280  0.1617  1.6249
  633MPD2    H1 9376   4.362   1.555  17.616  1.1226 -0.3612  0.3204
  633MPD2    H2 9377   4.332   1.927  17.401 -0.2309  0.5527  0.2839
  633MPD2    H3 9378   4.251   1.771  17.582 -1.4803  0.5586 -1.2593
  633MPD2     N 9379   4.535   1.442  17.486 -0.2869  0.0665 -1.0121
  633MPD2    H5 9380   4.487   1.392  17.560 -0.1181  0.4843 -0.6217
  633MPD2    N1 9381   4.536   1.855  17.228  0.0692  0.1348 -0.2166
  633MPD2    H7 9382   4.615   1.815  17.177 -0.4355 -0.8248 -0.2466
  634TMC3    C1 9383   4.525   1.983  17.042 -0.6549 -0.0282  0.4331
  634TMC3    C2 9384   4.566   1.877  16.966  0.9407  0.4232 -0.1192
  634TMC3    C3 9385   4.573   1.888  16.832 -0.6674  0.9342  0.6614
  634TMC3    C4 9386   4.477   2.101  16.982 -0.6067  0.1390 -0.5766
  634TMC3    C5 9387   4.495   2.113  16.848 -0.2692 -0.0381  0.8052
  634TMC3    C6 9388   4.534   2.001  16.778 -1.1290  0.0811 -0.2028
  634TMC3     C 9389   4.469   1.957  17.172 -0.1280  0.2889 -0.3206
  634TMC3     O 9390   4.382   2.035  17.211  0.6892  0.3285  0.1923
  634TMC3     H 9391   4.591   1.781  17.011  1.2480  0.8057  0.5338
  634TMC3    H1 9392   4.445   2.177  17.053  0.1082 -0.4266  0.3537
  634TMC3    H2 9393   4.525   2.006  16.670 -1.6266  1.6260 -0.0866
  634TMC3    C7 9394   4.431   2.227  16.775  0.5089 -1.0638  0.5082
  634TMC3    C8 9395   4.555   1.764  16.759 -0.2510  0.3109 -0.1963
  634TMC3    O1 9396   4.419   2.228  16.650 -0.0084  0.0091  0.0926
  634TMC3    O2 9397   4.507   1.674  16.826  0.1214  0.1994 -0.1204
  635TMC3    C1 9398   0.200   3.040  17.419  0.7998 -0.1941  0.1388
  635TMC3    C2 9399   0.173   2.904  17.425  0.1256  0.1156 -0.0179
  635TMC3    C3 9400   0.051   2.870  17.460 -0.0690  0.2325  0.1574
  635TMC3    C4 9401   0.100   3.131  17.436  0.8802  0.2417  0.2371
  635TMC3    C5 9402   4.696   3.096  17.466  0.1680 -0.2241 -0.0222
  635TMC3    C6 9403   4.675   2.959  17.473  0.0670 -0.0191 -0.0744
  635TMC3     C 9404   0.298   3.074  17.523 -0.0769 -0.3714 -0.3228
  635TMC3     O 9405   0.285   3.180  17.577  0.0772 -0.0794 -0.3966
  635TMC3     H 9406   0.250   2.833  17.395 -1.6020 -1.9229  0.3354
  635TMC3    H1 9407   0.121   3.238  17.434  0.8115  0.2803  1.2374
  635TMC3    H2 9408   4.574   2.922  17.492  0.4015  0.1418  2.0057
  635TMC3    C7 9409   4.639   3.160  17.584  0.0275  0.0539 -0.8904
  635TMC3    C8 9410   0.022   2.729  17.457  0.6676  0.2371  0.2399
  635TMC3    O1 9411   4.517   3.161  17.594  0.6456  0.4675 -0.4068
  635TMC3    O2 9412   0.099   2.653  17.399  0.4110  0.0255  0.3267
  636MPD2     C 9413   0.815   2.464  15.495 -0.0077 -0.5993  0.4133
  636MPD2    C1 9414   0.807   2.405  15.618 -0.7275 -0.8303 -0.2743
  636MPD2    C2 9415   0.845   2.276  15.638  0.9817  0.2930  0.5976
  636MPD2    C3 9416   0.892   2.199  15.529 -0.2096 -0.0953 -0.2345
  636MPD2    C4 9417   0.918   2.262  15.409 -0.3599  0.8445 -0.3250
  636MPD2    C5 9418   0.877   2.394  15.393 -0.0252  0.1782 -0.2569
  636MPD2     H 9419   0.836   2.236  15.738  0.6808  2.1855  1.3274
  636MPD2    H1 9420   0.975   2.218  15.328  0.8406 -1.7279  1.9105
  636MPD2    H2 9421   0.795   2.570  15.484  0.4615 -0.2293  3.1567
  636MPD2    H3 9422   0.896   2.455  15.305  0.4790 -0.5312 -0.6427
  636MPD2     N 9423   0.945   2.068  15.550  0.2080  0.1250  0.1990
  636MPD2    H5 9424   0.947   2.039  15.647 -0.4315  0.5728  0.3435
  636MPD2    N1 9425   0.758   2.479  15.734  0.5619  0.2966 -0.3011
  636MPD2    H7 9426   0.754   2.429  15.822 -1.5000  2.4509  0.8542
  637TMC3    C1 9427   1.057   1.863  15.507  0.0106  0.4246  0.0468
  637TMC3    C2 9428   1.009   1.812  15.625 -0.0859 -0.2592 -0.5172
  637TMC3    C3 9429   1.072   1.703  15.678 -0.4217  0.2418 -0.0515
  637TMC3    C4 9430   1.161   1.818  15.431  0.0935 -0.4101 -0.1103
  637TMC3    C5 9431   1.211   1.696  15.481 -0.0849 -0.2111 -0.1389
  637TMC3    C6 9432   1.163   1.639  15.599  0.8845  0.6004 -0.2902
  637TMC3     C 9433   0.996   1.982  15.454  0.1736 -0.2125 -0.0066
  637TMC3     O 9434   0.998   1.991  15.331  0.2926  0.0531  0.0557
  637TMC3     H 9435   0.934   1.860  15.686  0.9391  0.8380 -0.1119
  637TMC3    H1 9436   1.201   1.880  15.352  0.6290  1.5498  1.6950
  637TMC3    H2 9437   1.222   1.562  15.646  0.3272 -0.6554 -1.6442
  637TMC3    C7 9438   1.353   1.692  15.494  0.1738 -0.5330  0.4551
  637TMC3    C8 9439   1.112   1.727  15.817  1.1106  0.3253  0.3654
  637TMC3    O1 9440   1.401   1.707  15.607  0.4172 -0.3132 -0.0375
  637TMC3    O2 9441   1.022   1.774  15.889 -0.0064  0.3108 -0.6135
  638MPD2     C 9442   0.589   1.241  14.981 -0.3315  0.5087 -0.4691
  638MPD2    C1 9443   0.488   1.170  14.922  0.6553 -0.2193 -0.4545
  638MPD2    C2 9444   0.456   1.040  14.960  0.9327 -0.2721 -0.9650
  638MPD2    C3 9445   0.536   0.987  15.069 -0.1264  0.0187 -0.0387
  638MPD2    C4 9446   0.643   1.055  15.123  0.8105 -0.1620  0.0838
  638MPD2    C5 9447   0.659   1.184  15.078 -0.0499 -0.5243  0.0151
  638MPD2     H 9448   0.379   0.980  14.914 -0.3648  0.7101 -0.0442
  638MPD2    H1 9449   0.715   1.013  15.192 -0.2588  0.3500  1.5086
  638MPD2    H2 9450   0.613   1.341  14.945 -0.0635  0.5944 -0.0619
  638MPD2    H3 9451   0.739   1.232  15.133 -0.8969  2.1850 -1.1123
  638MPD2     N 9452   0.513   0.851  15.107 -0.0324 -0.6144  0.5158
  638MPD2    H5 9453   0.437   0.807  15.056 -1.0432  1.1660  0.4631
  638MPD2    N1 9454   0.427   1.238  14.816 -0.7328 -0.0756  1.1206
  638MPD2    H7 9455   0.460   1.333  14.800 -1.3117  0.0275  0.5404
  639TMC3    C1 9456   0.540   0.636  15.220  0.0234 -0.0722 -0.4725
  639TMC3    C2 9457   0.451   0.582  15.128  0.3146  0.0233  0.3710
  639TMC3    C3 9458   0.476   0.454  15.085 -0.2717  0.3758 -0.2410
  639TMC3    C4 9459   0.639   0.557  15.270  0.0541 -0.1510 -0.3510
  639TMC3    C5 9460   0.652   0.428  15.238  0.1783 -0.6001  0.1427
  639TMC3    C6 9461   0.575   0.369  15.139  0.2071 -0.4889 -0.2697
  639TMC3     C 9462   0.565   0.783  15.219  0.2328 -0.1860 -0.1467
  639TMC3     O 9463   0.644   0.820  15.300 -0.2859  0.6040 -0.4739
  639TMC3     H 9464   0.369   0.643  15.091  2.1577  2.2846 -0.0505
  639TMC3    H1 9465   0.698   0.595  15.353  1.6877 -0.4803 -1.3437
  639TMC3    H2 9466   0.569   0.264  15.115  2.1799 -0.3191 -1.4742
  639TMC3    C7 9467   0.701   0.345  15.340 -0.0998  0.2728 -0.5113
  639TMC3    C8 9468   0.382   0.378  14.996 -0.5713 -0.6469 -0.3349
  639TMC3    O1 9469   0.640   0.255  15.388  0.2775 -0.5470  0.0971
  639TMC3    O2 9470   0.431   0.278  14.938 -0.0858  0.0386  0.2516
  640MPD2     C 9471   0.863   3.961   9.634 -0.3504 -0.6035  0.7696
  640MPD2    C1 9472   0.919   4.078   9.671  0.3046  0.1269  0.0537
  640MPD2    C2 9473   0.837   4.167   9.734  0.2702 -0.0180 -0.2070
  640MPD2    C3 9474   0.700   4.151   9.751  0.6722  0.6836  0.8253
  640MPD2    C4 9475   0.646   4.038   9.702  0.0206  0.3537 -0.2946
  640MPD2    C5 9476   0.728   3.947   9.652 -0.2079  0.1497 -0.4133
  640MPD2     H 9477   0.885   4.261   9.759 -2.1144  0.9347  0.7537
  640MPD2    H1 9478   0.540   4.015   9.710 -0.0566  0.8333  0.1100
  640MPD2    H2 9479   0.913   3.880   9.581  0.1211  0.1248  0.0968
  640MPD2    H3 9480   0.691   3.852   9.614 -2.2062  0.4787  0.7273
  640MPD2     N 9481   0.612   4.230   9.831 -0.1496  0.2569  0.0095
  640MPD2    H5 9482   0.517   4.197   9.844 -0.3152  0.2288 -1.2723
  640MPD2    N1 9483   1.057   4.104   9.635 -0.0993  0.3461  0.4070
  640MPD2    H7 9484   1.107   4.039   9.575  0.7374 -0.4246  1.9332
  641TMC3    C1 9485   1.259   4.227   9.603  0.4182 -0.4742 -0.9505
  641TMC3    C2 9486   1.339   4.121   9.578  0.3531  0.9953 -0.1064
  641TMC3    C3 9487   1.453   4.149   9.503  1.0627  0.6938 -0.0303
  641TMC3    C4 9488   1.294   4.344   9.555 -0.0599  1.0539 -0.5812
  641TMC3    C5 9489   1.400   4.366   9.474  0.1279  0.0436  0.4252
  641TMC3    C6 9490   1.486   4.265   9.432  0.5304 -0.4933 -0.4111
  641TMC3     C 9491   1.132   4.215   9.667  0.7537 -0.4045 -0.3561
  641TMC3     O 9492   1.099   4.319   9.730 -0.1855  0.1316  0.5396
  641TMC3     H 9493   1.319   4.026   9.626 -0.3205  0.4886 -1.3957
  641TMC3    H1 9494   1.233   4.431   9.575  0.0067  0.9508  0.0746
  641TMC3    H2 9495   1.572   4.283   9.370 -0.1960 -3.8041 -2.3406
  641TMC3    C7 9496   1.435   4.502   9.435 -0.4070 -0.6866  0.3078
  641TMC3    C8 9497   1.535   4.031   9.465 -0.3858 -0.8090 -0.2462
  641TMC3    O1 9498   1.337   4.577   9.433  0.3830  0.6243  0.0659
  641TMC3    O2 9499   1.639   4.053   9.405 -0.3437  0.7849 -0.3399
  642TMC3    C1 9500   2.652   0.799  12.209  0.4576  0.2864 -0.0450
  642TMC3    C2 9501   2.768   0.808  12.278  0.0799 -0.5758 -0.5675
  642TMC3    C3 9502   2.804   0.692  12.334 -0.4025 -0.4464 -0.0223
  642TMC3    C4 9503   2.573   0.687  12.197  0.2477 -0.4600  0.5286
  642TMC3    C5 9504   2.614   0.570  12.253 -0.1083 -0.4901 -0.3281
  642TMC3    C6 9505   2.729   0.574  12.324 -0.1583 -0.2843  0.1475
  642TMC3     C 9506   2.585   0.924  12.194  0.1451  0.2781  0.7232
  642TMC3     O 9507   2.653   1.015  12.152 -0.1826 -0.3228 -0.4173
  642TMC3     H 9508   2.830   0.896  12.266  0.3917 -0.5124  1.4908
  642TMC3    H1 9509   2.484   0.689  12.134 -0.4520 -0.8440  1.5020
  642TMC3    H2 9510   2.779   0.487  12.366  3.0222  0.0899 -2.8812
  642TMC3    C7 9511   2.538   0.451  12.238  0.0235  0.0475 -0.7389
  642TMC3    C8 9512   2.932   0.671  12.401 -0.7163  0.0392 -0.6312
  642TMC3    O1 9513   2.472   0.453  12.134  0.1870 -0.0396  0.4416
  642TMC3    O2 9514   2.976   0.564  12.431  0.5376 -0.3996  0.5256
  643TMC3    C1 9515   1.327   0.488   0.728 -0.0606 -0.3440  0.1121
  643TMC3    C2 9516   1.198   0.526   0.766 -0.1854 -0.6479 -0.1048
  643TMC3    C3 9517   1.086   0.503   0.685 -0.5801  0.1291  0.3479
  643TMC3    C4 9518   1.349   0.434   0.605 -0.0390  0.4043  0.0997
  643TMC3    C5 9519   1.234   0.418   0.527 -0.3555 -0.0700  0.0221
  643TMC3    C6 9520   1.105   0.445   0.567  0.1121  0.2422  0.3711
  643TMC3     C 9521   1.441   0.561   0.787 -0.2752  0.0265  0.2960
  643TMC3     O 9522   1.417   0.674   0.826 -1.1769 -0.1662 -0.3193
  643TMC3     H 9523   1.189   0.581   0.859 -0.7086 -0.9988  0.0572
  643TMC3    H1 9524   1.452   0.411   0.576  0.2436 -0.3206  1.6847
  643TMC3    H2 9525   1.022   0.444   0.497  0.8936  0.2932 -0.5545
  643TMC3    C7 9526   1.264   0.443   0.387  0.2285 -0.1115  0.4930
  643TMC3    C8 9527   1.005   0.622   0.667 -0.5034 -0.0922  0.4581
  643TMC3    O1 9528   1.367   0.508   0.368  0.7574  0.2470  0.4388
  643TMC3    O2 9529   0.893   0.600   0.619 -0.2351 -0.7878  0.4324
  644MPD2     C 9530   1.138   0.166   9.561  0.0190  0.2738  0.7815
  644MPD2    C1 9531   1.265   0.221   9.564 -0.1339 -0.3681  0.2251
  644MPD2    C2 9532   1.277   0.358   9.536 -0.3618  0.2225  0.4022
  644MPD2    C3 9533   1.166   0.439   9.520  0.0310 -0.4554  1.5127
  644MPD2    C4 9534   1.043   0.384   9.538  0.1852 -0.2995  0.1209
  644MPD2    C5 9535   1.029   0.249   9.549  0.2290 -0.8319 -0.5574
  644MPD2     H 9536   1.377   0.398   9.524 -0.8880  2.2167  2.8033
  644MPD2    H1 9537   0.958   0.451   9.532 -0.6112 -1.2423  0.7023
  644MPD2    H2 9538   1.135   0.058   9.557 -0.4299  0.3297 -0.4480
  644MPD2    H3 9539   0.931   0.205   9.561  0.4968 -1.3673 -0.3348
  644MPD2     N 9540   1.174   0.584   9.500  0.2693 -0.0124  0.1585
  644MPD2    H5 9541   1.266   0.624   9.516  0.4662  0.1087 -1.3181
  644MPD2    N1 9542   1.377   0.141   9.587 -0.5893 -0.1881 -0.0721
  644MPD2    H7 9543   1.357   0.043   9.607 -1.9387 -0.3436 -2.1215
  645TMC3    C1 9544   1.118   0.807   9.456 -0.1240 -0.0605  0.2438
  645TMC3    C2 9545   1.211   0.848   9.546 -0.0735  0.1927 -0.1071
  645TMC3    C3 9546   1.228   0.983   9.558  0.4743 -0.0410  0.0442
  645TMC3    C4 9547   1.037   0.891   9.381  0.6078  0.0051  0.6597
  645TMC3    C5 9548   1.067   1.025   9.389  0.1277 -0.5006 -0.2401
  645TMC3    C6 9549   1.162   1.069   9.477  0.4695 -0.1180  0.3887
  645TMC3     C 9550   1.071   0.676   9.469 -0.1674  1.0980 -0.1200
  645TMC3     O 9551   0.949   0.661   9.449  0.3829 -0.0414  0.0417
  645TMC3     H 9552   1.254   0.778   9.616  0.0953  1.1632  0.7584
  645TMC3    H1 9553   0.969   0.849   9.307  0.5025 -0.5222  1.0515
  645TMC3    H2 9554   1.169   1.176   9.494  1.1304 -0.0790 -0.1215
  645TMC3    C7 9555   0.978   1.125   9.345 -0.3803 -0.5077  0.2893
  645TMC3    C8 9556   1.337   1.036   9.629  0.1410 -0.3961 -0.2338
  645TMC3    O1 9557   1.023   1.237   9.347 -0.1726  0.2533 -0.5031
  645TMC3    O2 9558   1.327   1.153   9.657 -0.4468  0.3781 -0.2402
  646MPD2     C 9559   0.862   4.564  14.394  0.5791  0.6967 -0.4658
  646MPD2    C1 9560   0.780   4.505  14.487  0.6409 -0.7470 -0.2740
  646MPD2    C2 9561   0.648   4.543  14.495  0.0367  0.1067 -0.0628
  646MPD2    C3 9562   0.600   4.627  14.396  1.0069 -0.1336  0.0469
  646MPD2    C4 9563   0.684   4.673  14.302 -0.7610 -0.1173  0.3442
  646MPD2    C5 9564   0.816   4.649  14.304  0.3019  0.1624 -0.7418
  646MPD2     H 9565   0.586   4.499  14.572 -0.6738  0.6383 -0.3336
  646MPD2    H1 9566   0.658   0.019  14.223 -2.3126 -0.4263  0.5803
  646MPD2    H2 9567   0.969   4.542  14.392  0.4827  0.1538  0.2046
  646MPD2    H3 9568   0.887   4.693  14.235  0.1802 -1.2311 -1.7427
  646MPD2     N 9569   0.464   4.669  14.392 -0.1376  0.6303  0.1429
  646MPD2    H5 9570   0.399   4.638  14.464  2.7247 -1.0684  1.9695
  646MPD2    N1 9571   0.847   4.419  14.575 -0.1036  0.0299  1.0886
  646MPD2    H7 9572   0.947   4.407  14.561 -0.1596 -0.2064  0.8807
  647TMC3    C1 9573   0.900   4.291  14.768  0.3550  0.1570 -0.3530
  647TMC3    C2 9574   0.867   4.236  14.889 -0.1144  0.4128  0.1725
  647TMC3    C3 9575   0.961   4.149  14.941  0.6307  0.1714 -0.7649
  647TMC3    C4 9576   1.035   4.287  14.724  0.4941 -0.0468 -0.3866
  647TMC3    C5 9577   1.119   4.197  14.786 -0.1038  0.3676  0.4394
  647TMC3    C6 9578   1.083   4.130  14.893 -0.3015  0.4311 -0.0375
  647TMC3     C 9579   0.795   4.350  14.684  0.3772 -0.3460  0.0906
  647TMC3     O 9580   0.678   4.341  14.721 -0.1526 -0.4521  0.1684
  647TMC3     H 9581   0.769   4.245  14.935  0.8092  0.1574  2.1841
  647TMC3    H1 9582   1.070   4.336  14.634  0.9926  0.1678 -0.0779
  647TMC3    H2 9583   1.156   4.081  14.956  0.2027  0.0300 -0.9458
  647TMC3    C7 9584   1.250   4.178  14.726  0.5214 -0.2778 -0.2489
  647TMC3    C8 9585   0.912   4.044  15.025  0.2319  0.1375 -0.7802
  647TMC3    O1 9586   1.254   4.184  14.602 -0.0486 -0.1284  0.3331
  647TMC3    O2 9587   0.997   3.975  15.083  0.2261  1.2305  0.6125
  648TMC3    C1 9588   0.251   1.933  16.168 -0.0327 -0.3508 -0.4195
  648TMC3    C2 9589   0.296   1.811  16.110 -0.1071  0.2114  0.1230
  648TMC3    C3 9590   0.252   1.789  15.982  0.7486  0.8834  0.5164
  648TMC3    C4 9591   0.191   2.036  16.089  0.5053 -0.5897  0.3735
  648TMC3    C5 9592   0.172   2.014  15.957 -0.0584  0.7432  0.6950
  648TMC3    C6 9593   0.212   1.895  15.904  0.3294 -0.1645 -0.2936
  648TMC3     C 9594   0.268   1.963  16.306 -0.7768 -0.5172 -0.4673
  648TMC3     O 9595   0.228   2.071  16.344  0.1917  0.3310  0.0724
  648TMC3     H 9596   0.333   1.729  16.171 -1.2142 -0.3513  0.0393
  648TMC3    H1 9597   0.171   2.136  16.127 -1.9554 -0.3513 -1.6095
  648TMC3    H2 9598   0.183   1.866  15.804 -0.0641  2.9385 -1.0698
  648TMC3    C7 9599   0.106   2.110  15.866  0.0839  0.1021  0.7537
  648TMC3    C8 9600   0.302   1.674  15.906  0.2035  0.1561 -0.7894
  648TMC3    O1 9601   0.121   2.101  15.745 -0.1109  0.2919  0.4119
  648TMC3    O2 9602   0.398   1.614  15.948  0.0243  0.7178  0.4830
  649TMC3    C1 9603   2.868   2.775  13.091 -0.2811  0.1803 -0.2972
  649TMC3    C2 9604   2.991   2.788  13.051 -0.5343 -0.1275 -0.8788
  649TMC3    C3 9605   3.085   2.702  13.101 -0.0656 -0.2447  0.3914
  649TMC3    C4 9606   2.826   2.677  13.174 -0.2102 -0.1472  0.8110
  649TMC3    C5 9607   2.919   2.593  13.224  0.2680  0.5607  0.5131
  649TMC3    C6 9608   3.054   2.609  13.192 -0.4819  0.1266 -0.5470
  649TMC3     C 9609   2.770   2.867  13.043 -0.3767 -0.0038  0.1299
  649TMC3     O 9610   2.812   2.978  13.022 -0.3895 -0.0564 -0.2404
  649TMC3     H 9611   3.011   2.862  12.975 -0.6352  0.6863 -0.1087
  649TMC3    H1 9612   2.724   2.667  13.209 -0.3303 -0.1975  0.4479
  649TMC3    H2 9613   3.126   2.559  13.254  0.7312  1.4935 -0.8588
  649TMC3    C7 9614   2.881   2.519  13.343  1.1874 -0.2981  0.1275
  649TMC3    C8 9615   3.224   2.736  13.102  0.2720  0.0560  0.3312
  649TMC3    O1 9616   2.767   2.539  13.376 -0.5021 -0.1447  0.3085
  649TMC3    O2 9617   3.288   2.698  13.201  0.4366  0.0361  0.3632
  650TMC3    C1 9618   2.027   4.688  12.750 -0.1391 -0.1619  0.2316
  650TMC3    C2 9619   2.060   0.096  12.765  0.3016  0.5427 -0.0890
  650TMC3    C3 9620   1.995   0.170  12.676 -0.1638  0.1104 -0.1075
  650TMC3    C4 9621   1.950   4.636  12.645 -0.6485 -0.4692  0.5049
  650TMC3    C5 9622   1.894   4.715  12.562 -0.2348  0.4870 -0.5134
  650TMC3    C6 9623   1.921   0.124  12.572  0.6933  0.1960 -0.0041
  650TMC3     C 9624   2.119   4.596  12.809  0.0349 -0.6948 -0.0372
  650TMC3     O 9625   2.235   4.619  12.820 -0.3218 -0.8145  0.6552
  650TMC3     H 9626   2.127   0.136  12.840  0.2887  0.8628 -0.2491
  650TMC3    H1 9627   1.938   4.529  12.633  0.6465 -0.5198 -0.3367
  650TMC3    H2 9628   1.876   0.199  12.509 -1.6627 -0.8283  0.4554
  650TMC3    C7 9629   1.784   4.671  12.487  0.2108 -0.0716 -0.3154
  650TMC3    C8 9630   2.000   0.317  12.683 -0.2543  0.1980 -0.7294
  650TMC3    O1 9631   1.758   4.551  12.485  0.5735  0.7626 -0.2039
  650TMC3    O2 9632   2.005   0.380  12.578 -0.2631  0.6220 -0.8112
  651MPD2     C 9633   0.351   2.531  10.426 -0.0542 -0.1724  0.3571
  651MPD2    C1 9634   0.309   2.416  10.491  0.3722 -0.0312 -0.2971
  651MPD2    C2 9635   0.403   2.334  10.547 -0.0560 -0.5676  0.0457
  651MPD2    C3 9636   0.535   2.362  10.533  0.0977 -0.4738  0.2641
  651MPD2    C4 9637   0.575   2.489  10.482 -0.0319 -0.1681 -0.2632
  651MPD2    C5 9638   0.478   2.573  10.433 -0.2743 -0.2041  0.1417
  651MPD2     H 9639   0.375   2.239  10.590  1.3264 -1.4597 -1.0423
  651MPD2    H1 9640   0.675   2.532  10.482 -0.5528  1.0277 -2.0734
  651MPD2    H2 9641   0.289   2.594  10.363  0.6167  0.3398  0.2110
  651MPD2    H3 9642   0.512   2.669  10.395 -0.7906 -0.2960 -0.5668
  651MPD2     N 9643   0.631   2.266  10.583  0.1325  0.1586 -0.0528
  651MPD2    H5 9644   0.597   2.176  10.615 -1.2085  1.1758  1.3653
  651MPD2    N1 9645   0.169   2.382  10.496  0.8090  0.3740  0.6703
  651MPD2    H7 9646   0.151   2.298  10.549  0.5833 -0.7696 -1.2130
  652TMC3    C1 9647   1.061   2.107  10.687 -0.9281  0.7830 -0.5374
  652TMC3    C2 9648   0.978   2.178  10.610 -0.2009 -0.1952 -0.1430
  652TMC3    C3 9649   0.850   2.163  10.630 -0.3508  0.5846  0.2011
  652TMC3    C4 9650   1.020   2.019  10.786 -0.5116 -0.0027  0.4965
  652TMC3    C5 9651   0.890   2.010  10.815 -0.1603  0.6150  0.3858
  652TMC3    C6 9652   0.804   2.078  10.724 -0.2211  0.3746 -1.0205
  652TMC3     C 9653   1.164   2.193  10.732 -0.4172 -0.0712  0.1079
  652TMC3     O 9654   1.160   2.214  10.855  0.0021  0.2213  0.3728
  652TMC3     H 9655   1.018   2.257  10.546  1.7630  0.0029  1.3604
  652TMC3    H1 9656   1.098   1.981  10.851 -0.0649 -0.0434 -0.0757
  652TMC3    H2 9657   0.697   2.082  10.744  0.6276 -0.3504  3.5468
  652TMC3    C7 9658   0.869   2.029  10.954 -0.0969  0.2717 -0.3528
  652TMC3    C8 9659   0.763   2.268  10.563 -0.1796 -0.0230 -0.0372
  652TMC3    O1 9660   0.766   1.980  10.993 -0.3899  0.8565 -0.1496
  652TMC3    O2 9661   0.824   2.354  10.503 -0.1404  0.4627 -0.6881
  653MPD2     C 9662   3.996   1.897  17.504 -0.6613  0.2260 -0.1261
  653MPD2    C1 9663   3.957   2.008  17.428 -0.0697  0.4157 -0.4292
  653MPD2    C2 9664   3.883   1.988  17.310  0.2779  0.0069  0.4105
  653MPD2    C3 9665   3.865   1.860  17.262  0.3664 -1.1651  0.1738
  653MPD2    C4 9666   3.917   1.756  17.332 -0.1096  0.2147  0.2404
  653MPD2    C5 9667   3.981   1.768  17.457  0.7587  0.5009  0.1097
  653MPD2     H 9668   3.857   2.075  17.251 -1.9872  0.0628  1.4679
  653MPD2    H1 9669   3.924   1.654  17.296 -1.0901  0.3615 -0.3556
  653MPD2    H2 9670   4.051   1.901  17.598 -2.1573 -0.9650  0.7932
  653MPD2    H3 9671   4.020   1.684  17.513  2.5879  0.8122 -0.6787
  653MPD2     N 9672   3.799   1.839  17.134  0.4035 -0.0486 -0.4035
  653MPD2    H5 9673   3.750   1.920  17.096 -0.2366 -0.0068  0.5357
  653MPD2    N1 9674   3.974   2.137  17.466  0.4037 -0.0678  0.1560
  653MPD2    H7 9675   3.934   2.206  17.403  2.0712 -0.4572 -1.3543
  654TMC3    C1 9676   3.701   1.729  16.954  0.8410  0.5691  0.2552
  654TMC3    C2 9677   3.593   1.817  16.944 -0.0921 -0.2558 -0.1265
  654TMC3    C3 9678   3.515   1.796  16.834  0.2478  0.2087  0.6496
  654TMC3    C4 9679   3.734   1.636  16.864 -0.1683 -0.5333 -0.6029
  654TMC3    C5 9680   3.668   1.631  16.750 -0.5887 -0.1190 -0.0922
  654TMC3    C6 9681   3.553   1.707  16.733  0.2391 -0.1179 -0.0329
  654TMC3     C 9682   3.787   1.719  17.072  0.0592  0.5496  0.3371
  654TMC3     O 9683   3.848   1.615  17.090  0.2522 -0.0360 -0.3242
  654TMC3     H 9684   3.572   1.892  17.020  1.6437 -0.4180  0.5035
  654TMC3    H1 9685   3.829   1.584  16.870 -0.9540 -2.0516 -1.4689
  654TMC3    H2 9686   3.490   1.684  16.647 -0.3488 -1.6291  0.8085
  654TMC3    C7 9687   3.655   1.509  16.677  0.2185  0.1396  0.2133
  654TMC3    C8 9688   3.412   1.893  16.809  0.4132 -0.2390  0.9349
  654TMC3    O1 9689   3.618   1.514  16.561 -0.6136 -0.4448  0.3283
  654TMC3    O2 9690   3.391   1.983  16.891 -0.3495  0.0802 -0.2231
  655MPD2     C 9691   0.466   2.289  15.611  0.6442  0.1108  0.3080
  655MPD2    C1 9692   0.405   2.402  15.557  0.8017  0.1041  0.7010
  655MPD2    C2 9693   0.389   2.416  15.422 -0.7758 -0.1104  0.2109
  655MPD2    C3 9694   0.442   2.332  15.333  0.6610 -0.1926 -0.4331
  655MPD2    C4 9695   0.512   2.225  15.383 -0.2225  0.0937  0.1877
  655MPD2    C5 9696   0.521   2.204  15.517  0.7043  0.0192 -0.3576
  655MPD2     H 9697   0.333   2.506  15.396  3.0063  2.4107  0.8344
  655MPD2    H1 9698   0.566   2.156  15.320 -0.5947 -1.5285  1.6607
  655MPD2    H2 9699   0.485   2.266  15.715  0.1106 -0.2363  0.3307
  655MPD2    H3 9700   0.597   2.132  15.547  0.8989  0.0058 -0.8752
  655MPD2     N 9701   0.422   2.341  15.190  0.1024  0.4208 -0.2767
  655MPD2    H5 9702   0.454   2.261  15.136  1.7510  0.6601  0.3569
  655MPD2    N1 9703   0.346   2.496  15.643 -0.4185  0.0271  0.1019
  655MPD2    H7 9704   0.295   2.574  15.602 -0.6014  1.3697  2.8925
  656TMC3    C1 9705   0.311   2.624  15.836  0.7287 -1.0075  0.4381
  656TMC3    C2 9706   0.282   2.624  15.973  0.0671  0.7401 -0.4119
  656TMC3    C3 9707   0.235   2.739  16.028  0.0513  0.7086 -0.0481
  656TMC3    C4 9708   0.283   2.731  15.756  0.0620 -0.6851  0.1924
  656TMC3    C5 9709   0.233   2.838  15.817  0.3301  0.3637  0.2887
  656TMC3    C6 9710   0.203   2.851  15.954  0.4634 -0.0376 -0.2405
  656TMC3     C 9711   0.381   2.509  15.777  0.4096 -0.9278 -0.3565
  656TMC3     O 9712   0.438   2.427  15.847 -0.0531 -0.4949 -0.3537
  656TMC3     H 9713   0.302   2.537  16.035  1.1372 -1.0115 -3.2297
  656TMC3    H1 9714   0.317   2.725  15.654  0.6772  0.3545  0.3374
  656TMC3    H2 9715   0.171   2.940  16.006  1.0105  1.1699 -1.9955
  656TMC3    C7 9716   0.167   2.927  15.733 -0.0907  0.8936  0.8458
  656TMC3    C8 9717   0.199   2.732  16.164 -0.0382  0.2747  0.3680
  656TMC3    O1 9718   0.210   2.936  15.617 -0.1625 -0.3641  0.2125
  656TMC3    O2 9719   0.213   2.827  16.241 -0.4480 -0.6117  0.2319
  657TMC3    C1 9720   4.021   1.730  15.074  0.0558 -0.3711 -0.0887
  657TMC3    C2 9721   4.084   1.658  15.169 -0.0718  0.3672 -0.3012
  657TMC3    C3 9722   4.005   1.588  15.255 -0.0370  0.4344  0.6541
  657TMC3    C4 9723   3.891   1.765  15.086 -0.2005  0.0546 -0.3461
  657TMC3    C5 9724   3.818   1.690  15.169 -0.2454  0.0376 -0.2129
  657TMC3    C6 9725   3.869   1.593  15.255 -0.3678  0.6202 -0.3423
  657TMC3     C 9726   4.086   1.747  14.945 -0.1414 -0.8007  0.5601
  657TMC3     O 9727   4.053   1.836  14.869 -0.2378 -0.2907 -0.0413
  657TMC3     H 9728   4.190   1.635  15.170  0.0679  0.9546 -1.6616
  657TMC3    H1 9729   3.850   1.822  15.003 -0.4407  0.1988 -0.1262
  657TMC3    H2 9730   3.813   1.541  15.331  1.5826  0.3960  0.9453
  657TMC3    C7 9731   3.669   1.696  15.166 -0.6094  0.1837 -0.3672
  657TMC3    C8 9732   4.072   1.529  15.366  0.4661 -0.1128 -0.7285
  657TMC3    O1 9733   3.605   1.608  15.226  0.0563  0.3557  0.6242
  657TMC3    O2 9734   4.169   1.595  15.415  0.6072  0.0553 -0.8594
  658MPD2     C 9735   0.705   1.994  14.837  0.1976  0.3601 -0.3291
  658MPD2    C1 9736   0.614   2.053  14.756 -1.2042  0.0448 -0.3407
  658MPD2    C2 9737   0.652   2.076  14.622  0.2743 -0.1317  0.6612
  658MPD2    C3 9738   0.771   2.033  14.569  0.7963  0.0186 -0.5882
  658MPD2    C4 9739   0.858   1.970  14.653 -0.3078 -0.3454 -0.5083
  658MPD2    C5 9740   0.818   1.943  14.782  0.0289 -0.7075  0.6323
  658MPD2     H 9741   0.582   2.128  14.557  0.9217  0.9472  0.8441
  658MPD2    H1 9742   0.957   1.940  14.621 -0.2999 -0.9894  0.0984
  658MPD2    H2 9743   0.685   1.970  14.941  0.6025 -2.1957 -0.8322
  658MPD2    H3 9744   0.882   1.876  14.838 -0.1771 -0.7808  0.7821
  658MPD2     N 9745   0.807   2.071  14.436 -0.2143  0.4044  0.4443
  658MPD2    H5 9746   0.744   2.135  14.389 -1.1691  0.0823  1.2794
  658MPD2    N1 9747   0.496   2.105  14.816  0.1378  0.0721 -0.3947
  658MPD2    H7 9748   0.492   2.115  14.917  0.3176 -1.0824 -0.2733
  659TMC3    C1 9749   0.318   2.265  14.819 -0.1387 -0.3517  0.1052
  659TMC3    C2 9750   0.366   2.303  14.940  0.3386  0.2220 -0.1497
  659TMC3    C3 9751   0.290   2.396  15.009  0.6368 -0.5642 -1.0460
  659TMC3    C4 9752   0.191   2.303  14.776  0.2648 -0.2933  0.2207
  659TMC3    C5 9753   0.116   2.379  14.858 -0.6487 -0.3593 -0.3147
  659TMC3    C6 9754   0.167   2.435  14.967 -0.1041  0.2904 -0.2949
  659TMC3     C 9755   0.391   2.165  14.740 -0.6622 -0.7798 -0.6009
  659TMC3     O 9756   0.359   2.152  14.622  0.0807 -0.0671 -0.1759
  659TMC3     H 9757   0.468   2.284  14.972  0.2704  2.3700  1.3337
  659TMC3    H1 9758   0.162   2.253  14.684  0.6672 -0.8154  0.3741
  659TMC3    H2 9759   0.106   2.494  15.034  0.9396  1.9360 -0.7990
  659TMC3    C7 9760   4.690   2.358  14.856  0.9288  0.3491 -0.5585
  659TMC3    C8 9761   0.333   2.428  15.137 -0.5851  0.3876  0.1917
  659TMC3    O1 9762   4.639   2.400  14.958  0.5932 -0.0420  0.3970
  659TMC3    O2 9763   0.264   2.514  15.184  0.5535 -0.2079  0.3903
  660MPD2     C 9764   3.894   0.447  12.479 -0.1570 -0.2922  0.5653
  660MPD2    C1 9765   3.823   0.564  12.500 -0.5591 -0.2669 -0.4430
  660MPD2    C2 9766   3.768   0.575  12.627 -0.3245 -0.8137  0.1219
  660MPD2    C3 9767   3.777   0.485  12.726 -0.6692  0.5978  0.2900
  660MPD2    C4 9768   3.849   0.367  12.713 -0.3595  0.5964 -0.5580
  660MPD2    C5 9769   3.916   0.361  12.589 -0.1091 -0.1123 -0.2234
  660MPD2     H 9770   3.719   0.669  12.652 -0.8408 -1.0447 -0.0345
  660MPD2    H1 9771   3.864   0.295  12.792  1.0880  0.0528 -1.3344
  660MPD2    H2 9772   3.952   0.423  12.391  0.8801  1.4011  0.7932
  660MPD2    H3 9773   3.979   0.277  12.561 -0.8207 -0.8822  0.5052
  660MPD2     N 9774   3.707   0.498  12.848 -0.0882 -0.7368  0.2556
  660MPD2    H5 9775   3.708   0.418  12.911  0.0759  0.3628  1.6401
  660MPD2    N1 9776   3.809   0.664  12.394  0.0736 -0.3357  0.0964
  660MPD2    H7 9777   3.832   0.639  12.299 -2.8390  1.3670 -1.0507
  661TMC3    C1 9778   3.712   0.833  12.276  0.8332 -0.0588  0.2160
  661TMC3    C2 9779   3.779   0.791  12.165 -0.5161 -0.1154 -0.1658
  661TMC3    C3 9780   3.726   0.818  12.037 -0.1680  0.1242  0.2712
  661TMC3    C4 9781   3.593   0.895  12.272 -0.0289  0.7510 -0.3991
  661TMC3    C5 9782   3.544   0.917  12.151 -0.6473  0.1971  0.3559
  661TMC3    C6 9783   3.605   0.888  12.029  0.1421 -0.0314 -0.6079
  661TMC3     C 9784   3.749   0.784  12.406  0.3117  0.3824  0.3614
  661TMC3     O 9785   3.701   0.841  12.509 -0.0638  0.0385 -0.1059
  661TMC3     H 9786   3.881   0.754  12.176 -1.0022 -1.0503  1.1414
  661TMC3    H1 9787   3.544   0.929  12.362 -1.6876 -1.5354 -0.4449
  661TMC3    H2 9788   3.546   0.898  11.938 -0.4097 -0.8504 -0.3387
  661TMC3    C7 9789   3.408   0.968  12.154  0.4233 -0.4219 -0.0862
  661TMC3    C8 9790   3.779   0.747  11.925 -0.0604 -0.8582 -0.1623
  661TMC3    O1 9791   3.384   1.054  12.240  0.2600 -0.0213  0.3118
  661TMC3    O2 9792   3.855   0.658  11.951 -0.0509  0.1712  0.6085
  662MPD2     C 9793   3.779   0.469  17.632  0.4560  0.7670  0.2021
  662MPD2    C1 9794   3.765   0.404   0.057 -0.6840 -0.3948  0.3065
  662MPD2    C2 9795   3.756   0.470   0.181  0.3541  0.2782 -0.6237
  662MPD2    C3 9796   3.798   0.599   0.185  0.5492 -0.0216  0.1392
  662MPD2    C4 9797   3.824   0.668   0.065 -0.6188  0.0998 -0.2592
  662MPD2    C5 9798   3.795   0.611  17.642  0.3000 -0.7342  0.1268
  662MPD2     H 9799   3.731   0.414   0.270 -1.5102  0.4844 -1.0176
  662MPD2    H1 9800   3.849   0.773   0.062 -1.8809  0.4266  0.3418
  662MPD2    H2 9801   3.750   0.428  17.536 -2.3839 -1.0940  1.8305
  662MPD2    H3 9802   3.782   0.682  17.561 -0.7420  1.7070  2.3994
  662MPD2     N 9803   3.789   0.680   0.300  0.2851 -0.4296  0.2498
  662MPD2    H5 9804   3.794   0.779   0.277  0.9218 -0.3302  0.8252
  662MPD2    N1 9805   3.721   0.269   0.049 -0.3349  0.2296 -0.3686
  662MPD2    H7 9806   3.679   0.230   0.133  0.4314  0.6788  0.2198
  663TMC3    C1 9807   3.640   0.083  17.630 -0.1374  0.3415 -0.0612
  663TMC3    C2 9808   3.515   0.091  17.691 -0.4565  0.8486  0.0537
  663TMC3    C3 9809   3.426   4.713  17.664  0.3822 -0.3283  0.4432
  663TMC3    C4 9810   3.673   4.700  17.549 -0.6443 -0.2525 -0.1291
  663TMC3    C5 9811   3.585   4.603  17.532  0.4939 -0.7338  0.0035
  663TMC3    C6 9812   3.459   4.600  17.588 -0.8373  0.0111 -0.4145
  663TMC3     C 9813   3.732   0.187  17.628 -0.2612 -0.2814  0.0113
  663TMC3     O 9814   3.810   0.192  17.532  0.7516  0.5364  0.2522
  663TMC3     H 9815   3.481   0.183   0.040 -0.9785  0.8523 -0.3406
  663TMC3    H1 9816   3.762   4.704  17.487 -1.4660 -1.1320 -1.3515
  663TMC3    H2 9817   3.389   4.521  17.563  1.0708 -1.3817 -1.2825
  663TMC3    C7 9818   3.626   4.497  17.437  0.9882 -0.1120  0.4980
  663TMC3    C8 9819   3.326   4.685   0.067 -0.0377  0.5126 -0.2268
  663TMC3    O1 9820   3.689   4.541  17.345 -0.2284 -0.2529  0.2099
  663TMC3    O2 9821   3.267   4.578   0.059  0.4379  0.3114  0.2114
  664MPD2     C 9822   1.844   3.321  17.647  0.0516 -0.2058  0.5080
  664MPD2    C1 9823   1.897   3.422   0.023 -0.0245  0.0444 -0.5242
  664MPD2    C2 9824   1.832   3.463   0.137 -0.1687  0.5239  0.1768
  664MPD2    C3 9825   1.730   3.392   0.194  0.1540  0.0451  0.1360
  664MPD2    C4 9826   1.678   3.283   0.128 -0.6616  0.2112 -0.6813
  664MPD2    C5 9827   1.731   3.254   0.009  0.2466 -0.0417  0.6194
  664MPD2     H 9828   1.878   3.545   0.191  0.6278 -1.3369  2.3226
  664MPD2    H1 9829   1.592   3.222   0.156 -2.1184  1.5182 -2.3093
  664MPD2    H2 9830   1.867   3.309  17.542  4.1419  0.5378  1.3016
  664MPD2    H3 9831   1.667   3.191  17.645 -1.2003  3.4996 -1.5275
  664MPD2     N 9832   1.687   3.426   0.322  0.2545 -0.0649 -0.8062
  664MPD2    H5 9833   1.729   3.513   0.354  0.9328 -0.1464 -1.4862
  664MPD2    N1 9834   2.001   3.508  17.674  0.2975  0.6138 -0.1922
  664MPD2    H7 9835   1.995   3.604   0.011 -1.0626  0.2473  0.6105
  665TMC3    C1 9836   1.572   3.436   0.523 -0.1013  0.1067  0.3167
  665TMC3    C2 9837   1.444   3.436   0.573  0.3446 -0.2019 -0.5158
  665TMC3    C3 9838   1.404   3.544   0.642  0.4400  0.4398  0.3843
  665TMC3    C4 9839   1.654   3.542   0.546  0.5059 -0.0459  0.1280
  665TMC3    C5 9840   1.609   3.651   0.623 -1.0792  0.0894  0.1556
  665TMC3    C6 9841   1.484   3.649   0.670  0.5374  0.9362  0.2140
  665TMC3     C 9842   1.602   3.359   0.406 -0.3502  0.4368 -0.6727
  665TMC3     O 9843   1.534   3.263   0.373 -0.1136 -0.0350  0.6470
  665TMC3     H 9844   1.377   3.365   0.526  0.8401  0.4478 -2.2042
  665TMC3    H1 9845   1.761   3.535   0.526  0.7402  1.3710  0.9048
  665TMC3    H2 9846   1.433   3.734   0.714  0.9908  1.3294 -0.0197
  665TMC3    C7 9847   1.670   3.774   0.601 -0.5250 -0.1747  0.1533
  665TMC3    C8 9848   1.261   3.541   0.675  0.2066  0.2005 -0.0689
  665TMC3    O1 9849   1.760   3.777   0.513  0.2815  0.6936 -0.3339
  665TMC3    O2 9850   1.199   3.437   0.668  0.0547  0.3843  0.0568
  666TMC3    C1 9851   0.703   2.964  10.278  0.0595 -0.4827  0.1273
  666TMC3    C2 9852   0.796   2.938  10.380 -0.1073 -0.6576 -0.3438
  666TMC3    C3 9853   0.921   3.004  10.378 -0.3737 -0.2652  0.8650
  666TMC3    C4 9854   0.728   3.071  10.193  0.1355 -0.2224 -0.3719
  666TMC3    C5 9855   0.846   3.140  10.204 -0.0878 -0.0658 -0.5045
  666TMC3    C6 9856   0.944   3.106  10.293 -0.3568  0.2926 -0.1617
  666TMC3     C 9857   0.562   2.961  10.313  0.3031  0.8763  1.1818
  666TMC3     O 9858   0.523   2.941  10.430  0.2014  0.2075  0.4985
  666TMC3     H 9859   0.771   2.868  10.459 -1.6103 -1.1070 -1.2158
  666TMC3    H1 9860   0.665   3.110  10.113  3.1236  0.7159 -2.2515
  666TMC3    H2 9861   1.038   3.157  10.311 -0.3347 -0.2319  1.1879
  666TMC3    C7 9862   0.826   3.282  10.195 -0.1717  0.0480 -0.4961
  666TMC3    C8 9863   1.015   2.973  10.491  0.0050  0.3324 -0.6777
  666TMC3    O1 9864   0.837   3.351  10.294 -0.0301 -0.3889 -0.1132
  666TMC3    O2 9865   0.960   2.924  10.591 -0.2677 -0.3671  0.7663
  667MPD2     C 9866   2.532   3.378  14.918  0.1447 -0.8191 -0.1827
  667MPD2    C1 9867   2.516   3.377  15.056 -0.4006 -1.0234  0.1957
  667MPD2    C2 9868   2.442   3.280  15.111  0.3700  0.0069  0.2991
  667MPD2    C3 9869   2.374   3.189  15.025  0.1586  0.3155 -0.5423
  667MPD2    C4 9870   2.402   3.192  14.891 -0.1603 -0.1294  0.0866
  667MPD2    C5 9871   2.476   3.286  14.838 -0.1985 -0.2356  0.0951
  667MPD2     H 9872   2.418   3.270  15.216  2.4872 -2.0892  0.5812
  667MPD2    H1 9873   2.354   3.126  14.820 -0.7685  0.1500  0.2448
  667MPD2    H2 9874   2.597   3.442  14.861 -2.4507  0.6041 -1.5082
  667MPD2    H3 9875   2.496   3.292  14.732 -0.0157 -1.1834  0.0809
  667MPD2     N 9876   2.278   3.089  15.064 -0.2190 -0.0105  0.0972
  667MPD2    H5 9877   2.235   3.038  14.988  1.8136  1.2699 -1.9206
  667MPD2    N1 9878   2.569   3.486  15.135  0.6661 -0.3255  0.0199
  667MPD2    H7 9879   2.570   3.475  15.236  1.7811  1.4320  0.1948
  668TMC3    C1 9880   2.667   3.696  15.197 -0.2891 -0.0064  0.2453
  668TMC3    C2 9881   2.732   3.806  15.158 -0.2835 -0.9674 -0.5463
  668TMC3    C3 9882   2.767   3.896  15.265 -0.5192 -0.5430 -0.7629
  668TMC3    C4 9883   2.636   3.670  15.328 -0.1446  0.7888 -0.3762
  668TMC3    C5 9884   2.664   3.759  15.422 -0.3919  0.0018 -0.2937
  668TMC3    C6 9885   2.734   3.875  15.394 -0.0601 -0.2622  0.4888
  668TMC3     C 9886   2.647   3.592  15.090 -0.4427 -0.4233 -0.0193
  668TMC3     O 9887   2.665   3.634  14.974 -0.2443 -0.3368 -0.2695
  668TMC3     H 9888   2.767   3.817  15.056 -0.3135 -1.3514 -0.5970
  668TMC3    H1 9889   2.575   3.584  15.355 -0.0705  1.6199  2.4717
  668TMC3    H2 9890   2.728   3.952  15.469  0.0673 -0.2440  0.4805
  668TMC3    C7 9891   2.596   3.751  15.549  0.1327 -0.1567 -0.7296
  668TMC3    C8 9892   2.831   4.027  15.242 -0.0803 -0.7093  0.0311
  668TMC3    O1 9893   2.656   3.809  15.641  0.4160 -0.4188  0.0713
  668TMC3    O2 9894   2.879   4.077  15.342 -0.1683  0.0038  0.1839
  669TMC3    C1 9895   0.429   3.701  14.427 -0.3516 -0.0264  0.0297
  669TMC3    C2 9896   0.321   3.741  14.365 -0.4410 -0.2064  0.0986
  669TMC3    C3 9897   0.329   3.834  14.265 -0.2710  0.3840 -0.4128
  669TMC3    C4 9898   0.555   3.724  14.377 -0.1212 -0.1388 -0.7915
  669TMC3    C5 9899   0.565   3.794  14.263 -0.3525 -0.0851 -0.3253
  669TMC3    C6 9900   0.456   3.855  14.211  0.0290  0.4919 -0.2644
  669TMC3     C 9901   0.415   3.648  14.567 -0.3410 -0.0135  0.0291
  669TMC3     O 9902   0.308   3.671  14.624  0.0924 -0.0961 -0.3562
  669TMC3     H 9903   0.224   3.707  14.399 -0.9821  0.2472 -0.9799
  669TMC3    H1 9904   0.645   3.715  14.436  0.5032  0.8261 -1.5945
  669TMC3    H2 9905   0.458   3.917  14.122 -1.0187 -2.9555 -2.6830
  669TMC3    C7 9906   0.696   3.832  14.220  0.1177 -0.3039  0.0532
  669TMC3    C8 9907   0.215   3.903  14.208  1.0728 -0.6512  0.2458
  669TMC3    O1 9908   0.771   3.850  14.317  0.1778  0.2628  0.3981
  669TMC3    O2 9909   0.110   3.851  14.242  0.0376 -0.3129  0.4339
  670MPD2     C 9910   3.712   1.922  13.230  0.0877  0.1501  0.1030
  670MPD2    C1 9911   3.770   1.806  13.196  0.0091 -0.3660  0.0735
  670MPD2    C2 9912   3.722   1.689  13.251 -0.0822  0.0288 -0.0471
  670MPD2    C3 9913   3.619   1.681  13.343 -0.3114 -0.0132  0.2107
  670MPD2    C4 9914   3.563   1.801  13.382 -0.4397  0.1947  0.2892
  670MPD2    C5 9915   3.597   1.917  13.313  0.8346  0.3128  0.0459
  670MPD2     H 9916   3.786   1.603  13.235  0.6913  0.3952  1.1039
  670MPD2    H1 9917   3.483   1.809  13.454 -0.3251  0.5947  0.3699
  670MPD2    H2 9918   3.730   2.017  13.179  1.8736 -0.4202 -0.3231
  670MPD2    H3 9919   3.548   2.009  13.342 -0.9223 -1.0188  1.2242
  670MPD2     N 9920   3.597   1.560  13.414  0.4834  0.0628 -0.2853
  670MPD2    H5 9921   3.657   1.484  13.384  1.6217  0.2155  1.5862
  670MPD2    N1 9922   3.870   1.806  13.100  0.0931 -0.1448  0.2617
  670MPD2    H7 9923   3.909   1.895  13.072  1.7221 -1.5894 -2.0142
  671TMC3    C1 9924   3.567   1.432  13.615  0.1995 -0.1845  0.2764
  671TMC3    C2 9925   3.700   1.399  13.604  1.0934  0.4013  0.2280
  671TMC3    C3 9926   3.743   1.314  13.703  0.5053  0.1656  0.9397
  671TMC3    C4 9927   3.491   1.416  13.731 -0.8486 -0.1672 -0.0652
  671TMC3    C5 9928   3.551   1.345  13.832  0.4704  0.3604 -0.2505
  671TMC3    C6 9929   3.669   1.282  13.811 -0.3467 -0.1427  0.4423
  671TMC3     C 9930   3.518   1.542  13.527  0.1100  0.2063 -0.6630
  671TMC3     O 9931   3.434   1.622  13.570  0.0649 -0.1988 -0.7068
  671TMC3     H 9932   3.753   1.412  13.511  1.1207  0.8377  0.3077
  671TMC3    H1 9933   3.387   1.447  13.727 -1.3291 -2.0123 -2.3317
  671TMC3    H2 9934   3.708   1.222  13.893  1.2049 -1.0558 -0.9505
  671TMC3    C7 9935   3.458   1.273  13.923  0.0096 -0.9804 -0.1255
  671TMC3    C8 9936   3.854   1.221  13.688  0.1299  0.1979 -1.0008
  671TMC3    O1 9937   3.342   1.259  13.889 -0.3289 -0.0747  0.4695
  671TMC3    O2 9938   3.870   1.132  13.770  0.3217  0.3464 -0.3069
  672MPD2     C 9939   3.470   1.650   1.218  0.2469 -0.2149 -0.7781
  672MPD2    C1 9940   3.596   1.632   1.171  0.2319  0.6255 -0.0298
  672MPD2    C2 9941   3.704   1.691   1.236  0.0907  0.1419 -0.3616
  672MPD2    C3 9942   3.682   1.770   1.346  0.6846  0.3187  0.2549
  672MPD2    C4 9943   3.555   1.792   1.386  0.2450  0.0618  0.1652
  672MPD2    C5 9944   3.444   1.733   1.326 -0.3309 -0.5811 -0.2842
  672MPD2     H 9945   3.799   1.674   1.187  1.3053 -0.7788  2.3265
  672MPD2    H1 9946   3.537   1.853   1.474  0.9011  1.4509 -0.6652
  672MPD2    H2 9947   3.394   1.601   1.160  2.3948 -2.9913 -1.2487
  672MPD2    H3 9948   3.345   1.754   1.365 -1.0005 -2.9137 -0.7643
  672MPD2     N 9949   3.787   1.841   1.410 -0.1350 -0.2662  0.2134
  672MPD2    H5 9950   3.768   1.916   1.475  1.1676  1.2754 -1.1630
  672MPD2    N1 9951   3.620   1.554   1.059  0.3055 -0.1073 -0.3874
  672MPD2    H7 9952   3.713   1.520   1.038  0.8211 -0.0243  1.7537
  673TMC3    C1 9953   3.569   1.437   0.855  1.0125  0.0312  0.4608
  673TMC3    C2 9954   3.661   1.335   0.872 -0.1444 -0.0065  0.0289
  673TMC3    C3 9955   3.727   1.296   0.756  0.0984  0.5212 -0.1428
  673TMC3    C4 9956   3.539   1.489   0.729 -0.3864  0.3877  0.3622
  673TMC3    C5 9957   3.608   1.448   0.622  0.0284  0.2596  0.9032
  673TMC3    C6 9958   3.701   1.353   0.638 -0.4800  0.5787  0.2475
  673TMC3     C 9959   3.528   1.523   0.967  0.0716  0.5980  0.2889
  673TMC3     O 9960   3.427   1.593   0.945  0.1055 -0.2855  0.3917
  673TMC3     H 9961   3.661   1.279   0.965 -0.8833 -0.7665 -0.4222
  673TMC3    H1 9962   3.461   1.564   0.724 -0.3959  0.2742 -1.1136
  673TMC3    H2 9963   3.761   1.320   0.554 -1.7252 -0.6046 -0.1801
  673TMC3    C7 9964   3.553   1.464   0.491  0.1394 -0.5000  0.2005
  673TMC3    C8 9965   3.836   1.198   0.755  0.9443 -0.9907  0.3887
  673TMC3    O1 9966   3.556   1.371   0.416 -0.4654 -0.1112 -0.2364
  673TMC3    O2 9967   3.861   1.154   0.644 -0.2796 -0.3079 -0.3083
  674MPD2     C 9968   3.074   1.694   0.498 -0.2122  0.1903 -0.9611
  674MPD2    C1 9969   3.056   1.561   0.471  0.1521 -0.0225  0.2459
  674MPD2    C2 9970   2.982   1.484   0.560  0.0124  0.4456 -0.0975
  674MPD2    C3 9971   2.947   1.531   0.687 -0.5261 -0.5128 -0.8541
  674MPD2    C4 9972   2.975   1.656   0.717 -0.1235 -0.0447  0.3229
  674MPD2    C5 9973   3.033   1.739   0.623 -0.4787 -0.2443  0.1244
  674MPD2     H 9974   2.952   1.383   0.537  0.7918  0.7745 -2.5314
  674MPD2    H1 9975   2.966   1.696   0.817 -2.1520  0.9073 -0.2419
  674MPD2    H2 9976   3.110   1.760   0.419 -0.3518 -0.1414 -1.3029
  674MPD2    H3 9977   3.057   1.841   0.652  1.1180 -0.5316 -0.1444
  674MPD2     N 9978   2.901   1.434   0.782  0.5236 -1.0309 -0.3417
  674MPD2    H5 9979   2.887   1.339   0.751 -0.9996 -0.5021 -1.2477
  674MPD2    N1 9980   3.124   1.512   0.352 -0.0890  0.0103  0.4586
  674MPD2    H7 9981   3.170   1.586   0.300  0.9278 -0.5304  0.5877
  675TMC3    C1 9982   3.124   1.273   0.394 -0.0876  0.1052 -0.3091
  675TMC3    C2 9983   3.207   1.261   0.502  0.2056  0.2098  0.3308
  675TMC3    C3 9984   3.230   1.133   0.547  0.5279  0.2296 -0.5765
  675TMC3    C4 9985   3.076   1.161   0.332 -0.2208 -0.1910 -0.7598
  675TMC3    C5 9986   3.124   1.039   0.369  0.2240  0.1995 -0.3073
  675TMC3    C6 9987   3.199   1.019   0.478 -0.1089  0.8103  0.3752
  675TMC3     C 9988   3.143   1.380   0.305  0.0819  0.6745 -0.8271
  675TMC3     O 9989   3.178   1.345   0.190  0.4437  0.5851  0.2126
  675TMC3     H 9990   3.269   1.343   0.536  0.8429 -0.0992 -0.1040
  675TMC3    H1 9991   3.014   1.166   0.244 -0.1378 -0.8977 -0.8562
  675TMC3    H2 9992   3.224   0.917   0.506  0.1601  1.0549  1.0206
  675TMC3    C7 9993   3.135   0.936   0.264 -0.6718  0.3433  0.4761
  675TMC3    C8 9994   3.294   1.109   0.675  0.1401 -0.2438 -0.6762
  675TMC3    O1 9995   3.247   0.891   0.253 -0.2778 -0.4055  0.8095
  675TMC3    O2 9996   3.317   0.993   0.708 -0.0741  0.0136  0.3514
  676MPD2     C 9997   1.931   4.469  11.231  0.4424  0.1924 -0.3947
  676MPD2    C1 9998   1.841   4.402  11.311 -0.4218  1.0833  0.3481
  676MPD2    C2 9999   1.821   4.264  11.288 -0.4524  0.0815  0.0501
  676MPD2    C310000   1.889   4.204  11.181  0.5180  0.0235  0.3006
  676MPD2    C410001   1.978   4.275  11.112  0.4021 -0.2716 -0.5651
  676MPD2    C510002   1.999   4.406  11.131  0.3254  0.0755  0.4436
  676MPD2     H10003   1.761   4.199  11.349 -1.5046 -0.5487 -1.6618
  676MPD2    H110004   2.038   4.217  11.043  1.4602  0.9144 -0.6247
  676MPD2    H210005   1.934   4.577  11.242 -1.9669  0.3501 -1.3047
  676MPD2    H310006   2.069   4.460  11.068 -1.3580  1.0190 -0.6481
  676MPD2     N10007   1.881   4.068  11.142 -0.4239  0.3199  0.7985
  676MPD2    H510008   1.915   4.036  11.051 -1.8267  0.9160  0.0669
  676MPD2    N110009   1.779   4.462  11.421 -0.1772  0.2151 -1.1163
  676MPD2    H710010   1.706   4.410  11.467  0.0034  1.0830  0.1332
  677TMC3    C110011   1.711   4.625  11.569 -0.3212 -0.1810 -0.4092
  677TMC3    C210012   1.579   4.591  11.533  0.1299 -0.5506 -0.1440
  677TMC3    C310013   1.490   4.664  11.610  0.1069  0.5761 -0.3632
  677TMC3    C410014   1.736   0.010  11.659  0.6737  0.5884  0.3620
  677TMC3    C510015   1.642   0.075  11.727  0.3860  0.3305  0.0389
  677TMC3    C610016   1.514   0.043  11.694  0.6595  0.3640 -0.3550
  677TMC3     C10017   1.824   4.571  11.491  0.5739 -0.9206 -0.3730
  677TMC3     O10018   1.916   4.644  11.465  0.1490 -0.7178  0.0044
  677TMC3     H10019   1.543   4.507  11.475 -0.1522 -0.7972  0.3919
  677TMC3    H110020   1.841   0.024  11.683  0.7863 -0.6812  0.5957
  677TMC3    H210021   1.423   0.092  11.726 -0.4827 -2.1735  0.2552
  677TMC3    C710022   1.665   0.134  11.859 -0.4413  0.2507  0.2279
  677TMC3    C810023   1.356   4.611  11.608 -0.8773  0.3837  0.1556
  677TMC3    O110024   1.571   0.168  11.931 -0.1277 -0.1971 -0.0708
  677TMC3    O210025   1.298   4.640  11.504  0.2508  0.0008 -0.1902
  678MPD2     C10026   2.817   4.311   1.803  0.0959  0.0379  0.2211
  678MPD2    C110027   2.866   4.358   1.683  0.1234 -0.0112  0.0773
  678MPD2    C210028   2.779   4.389   1.580  0.4922  0.3971 -0.4502
  678MPD2    C310029   2.644   4.382   1.602 -0.5790  0.1722 -0.0649
  678MPD2    C410030   2.598   4.347   1.726 -1.0871  0.4105  0.3117
  678MPD2    C510031   2.682   4.312   1.828 -0.2102  0.3676 -0.3857
  678MPD2     H10032   2.810   4.420   1.481  0.6721  0.1932 -0.4585
  678MPD2    H110033   2.491   4.336   1.743 -1.2259  1.6305  0.2914
  678MPD2    H210034   2.883   4.295   1.888 -0.1990  0.4241  0.5235
  678MPD2    H310035   2.656   4.274   1.927 -3.6643  0.5444 -1.2378
  678MPD2     N10036   2.556   4.420   1.498  0.2885  0.4126  0.2049
  678MPD2    H510037   2.595   4.425   1.404 -0.7434  1.1733 -0.1861
  678MPD2    N110038   3.009   4.379   1.663  0.1825 -0.4329  1.1081
  678MPD2    H710039   3.040   4.428   1.580  1.6219 -2.3011  0.5515
  679TMC3    C110040   3.460   4.297   1.672 -0.3563  0.6161  0.5464
  679TMC3    C210041   3.328   4.259   1.690 -0.0318 -0.3808 -0.4831
  679TMC3    C310042   3.238   4.354   1.686 -0.4816 -0.4808 -0.4294
  679TMC3    C410043   3.492   4.426   1.624  0.4791 -0.2382 -0.2959
  679TMC3    C510044   3.392   4.520   1.620  0.2496  0.0157 -0.2792
  679TMC3    C610045   3.264   4.478   1.648  0.0177  0.5255  0.2953
  679TMC3     C10046   3.559   4.188   1.647 -0.7328  0.0837  0.6320
  679TMC3     O10047   3.520   4.074   1.627  0.3356 -0.2179  0.4610
  679TMC3     H10048   3.313   4.155   1.719  2.2177 -0.3618  0.7227
  679TMC3    H110049   3.594   4.460   1.613  0.7354 -0.5942  1.0516
  679TMC3    H210050   3.193   4.558   1.668 -0.6096  0.7242 -2.8364
  679TMC3    C710051   3.407   4.634   1.525 -0.2403 -0.6243  0.0316
  679TMC3    C810052   3.107   4.326   1.742 -0.1048 -0.1761 -0.1574
  679TMC3    O110053   3.302   4.679   1.484  0.1847  0.2927  0.0334
  679TMC3    O210054   3.100   4.236   1.823 -0.5408  0.4351 -0.4780
  680MPD2     C10055   2.391   2.941  13.797  0.2589  0.3522 -0.2073
  680MPD2    C110056   2.505   2.882  13.826 -0.1994 -0.6823  0.6592
  680MPD2    C210057   2.627   2.942  13.803 -0.2188  0.3712  0.2979
  680MPD2    C310058   2.633   3.076  13.751  0.2916 -0.3339 -0.2587
  680MPD2    C410059   2.513   3.141  13.724 -0.5335 -0.0776  0.0680
  680MPD2    C510060   2.397   3.072  13.753 -0.3498 -0.0466  1.2647
  680MPD2     H10061   2.714   2.889  13.838 -0.3928  2.3622  3.7474
  680MPD2    H110062   2.513   3.244  13.690  0.4361 -0.1213 -0.0602
  680MPD2    H210063   2.298   2.895  13.829  1.3994 -2.5167 -1.0903
  680MPD2    H310064   2.305   3.126  13.732  0.7798  1.4344  0.1338
  680MPD2     N10065   2.752   3.157  13.740 -0.1715  0.1407 -0.6521
  680MPD2    H510066   2.746   3.248  13.694  2.0769  0.0946 -1.0406
  680MPD2    N110067   2.506   2.750  13.892 -0.0661  0.2452  0.1284
  680MPD2    H710068   2.597   2.715  13.919 -0.1713  1.1460  1.6605
  681TMC3    C110069   2.459   2.555  14.001  0.3081 -0.2165  0.5561
  681TMC3    C210070   2.462   2.563  14.138 -0.0075  0.6300 -0.5718
  681TMC3    C310071   2.559   2.503  14.207 -0.4483 -0.4142  0.6064
  681TMC3    C410072   2.554   2.487  13.934 -0.0451 -0.6859 -0.4904
  681TMC3    C510073   2.645   2.412  14.012 -0.3933 -0.1294 -0.7051
  681TMC3    C610074   2.649   2.417  14.151 -0.4269  0.7296 -0.5372
  681TMC3     C10075   2.406   2.673  13.941 -0.2879 -0.5535 -0.3807
  681TMC3     O10076   2.283   2.692  13.932 -0.3077  0.3051 -0.4032
  681TMC3     H10077   2.407   2.644  14.186  0.0606  0.8416 -0.8480
  681TMC3    H110078   2.548   2.489  13.826  1.4407  1.5349 -0.5474
  681TMC3    H210079   2.736   2.378  14.202 -2.4841  0.3007  2.6029
  681TMC3    C710080   2.753   2.337  13.946 -0.2409 -0.4175 -0.5179
  681TMC3    C810081   2.578   2.560  14.340 -0.1135  0.1353 -0.7525
  681TMC3    O110082   2.827   2.279  14.021  0.0339 -0.1653  1.0292
  681TMC3    O210083   2.558   2.680  14.361  0.0120 -0.0705  0.1588
  682MPD2     C10084   0.742   4.515  10.558  0.2575  0.3851 -0.4428
  682MPD2    C110085   0.643   4.422  10.585  0.6555 -0.9504 -0.0622
  682MPD2    C210086   0.554   4.454  10.684 -0.4289 -0.5478  0.6389
  682MPD2    C310087   0.562   4.568  10.762  0.0151 -0.8869  0.6237
  682MPD2    C410088   0.659   4.661  10.730  0.5140 -0.8940  0.8213
  682MPD2    C510089   0.748   4.631  10.628  0.1266  0.1383 -0.0139
  682MPD2     H10090   0.478   4.380  10.706 -2.2645  1.0606 -0.2844
  682MPD2    H110091   0.661   0.037  10.772 -0.1221 -1.2247  1.6471
  682MPD2    H210092   0.801   4.502  10.469  0.5996 -0.3706 -0.1052
  682MPD2    H310093   0.812   4.709  10.589 -0.0855  0.7641  0.8840
  682MPD2     N10094   0.467   4.588  10.865  0.4300 -0.0426  0.4939
  682MPD2    H510095   0.463   4.682  10.903 -0.0957  0.0635  0.1783
  682MPD2    N110096   0.618   4.302  10.509  0.5174 -0.3680 -0.0890
  682MPD2    H710097   0.530   4.256  10.532  1.0036 -1.8715 -1.2868
  683TMC3    C110098   0.400   4.580  11.257 -0.3142 -0.0939  0.8076
  683TMC3    C210099   0.332   4.464  11.303  0.2777  0.2127 -0.0841
  683TMC3    C310100   0.254   4.398  11.213 -0.2987 -0.5478 -0.0349
  683TMC3    C410101   0.403   4.615  11.126  0.2049 -0.5537 -0.4015
  683TMC3    C510102   0.318   4.550  11.041  0.7407 -0.1443 -0.1476
  683TMC3    C610103   0.242   4.438  11.081 -0.0624 -0.1201 -0.6007
  683TMC3     C10104   0.494   4.640  11.352 -0.6510  0.0313  0.2758
  683TMC3     O10105   0.459   4.637  11.468 -0.0586 -0.1051  0.7059
  683TMC3     H10106   0.347   4.410  11.396 -0.5143 -2.7546 -1.6851
  683TMC3    H110107   0.456   4.705  11.094  0.0427 -0.9340 -1.7565
  683TMC3    H210108   0.169   4.387  11.020 -1.8787  0.8457  0.7712
  683TMC3    C710109   0.375   4.503  10.919 -0.3003  0.1791  0.3754
  683TMC3    C810110   0.224   4.262  11.238 -0.7989 -0.0414  1.4384
  683TMC3    O110111   0.358   4.382  10.904  0.3547 -0.6396  0.1472
  683TMC3    O210112   0.180   4.233  11.348  1.1703 -0.0170  0.0871
  684MPD2     C10113   3.738   3.727  16.594  0.4053  0.8572 -0.1895
  684MPD2    C110114   3.683   3.747  16.469 -0.1603  0.4474 -1.0672
  684MPD2    C210115   3.689   3.873  16.407 -0.0162  0.4949  0.4585
  684MPD2    C310116   3.741   3.978  16.485  0.8529 -0.0072  0.4315
  684MPD2    C410117   3.792   3.954  16.606  0.2465  0.1254  0.6397
  684MPD2    C510118   3.793   3.832  16.668  0.4435 -0.1318  0.2856
  684MPD2     H10119   3.644   3.893  16.311 -0.7526 -1.5174  0.3830
  684MPD2    H110120   3.814   4.043  16.664  0.6126 -0.9773  2.1977
  684MPD2    H210121   3.738   3.630  16.643 -2.8451  0.2891 -1.2514
  684MPD2    H310122   3.826   3.818  16.770  3.0772 -2.1363 -0.8439
  684MPD2     N10123   3.749   4.116  16.434  0.3808 -0.3100 -0.2724
  684MPD2    H510124   3.800   4.180  16.494 -0.0569  1.0152 -1.3288
  684MPD2    N110125   3.621   3.644  16.396  0.0655 -0.0137  0.2613
  684MPD2    H710126   3.576   3.675  16.310  0.4982  0.8000  0.3253
  685TMC3    C110127   3.593   3.446  16.294 -0.1151  0.0112  0.8359
  685TMC3    C210128   3.513   3.525  16.220 -0.7785 -0.7224 -0.2220
  685TMC3    C310129   3.539   3.534  16.088  0.1515 -0.3291 -0.3520
  685TMC3    C410130   3.703   3.395  16.240  0.1701  0.5207 -0.1899
  685TMC3    C510131   3.743   3.424  16.113  0.6101 -0.1142 -1.5307
  685TMC3    C610132   3.655   3.494  16.034  0.2809  0.1393 -0.0598
  685TMC3     C10133   3.627   3.511  16.416 -0.2939  0.0319 -0.1002
  685TMC3     O10134   3.694   3.449  16.494 -0.0199 -0.3417 -0.1875
  685TMC3     H10135   3.423   3.558  16.270  0.0687  1.5031 -0.1645
  685TMC3    H110136   3.772   3.338  16.301 -1.5391 -1.1056  0.2256
  685TMC3    H210137   3.681   3.521  15.933 -1.0898  0.8330 -0.2279
  685TMC3    C710138   3.882   3.436  16.098  0.1256 -0.1271 -0.0200
  685TMC3    C810139   3.463   3.636  16.011  0.2161 -0.3142 -0.4211
  685TMC3    O110140   3.920   3.429  15.983 -0.6178 -0.0960  0.3704
  685TMC3    O210141   3.470   3.634  15.886 -0.3248 -0.0291  0.4557
  686MPD2     C10142   0.638   4.211  15.875 -0.5464  0.2849 -0.1028
  686MPD2    C110143   0.618   4.164  16.004 -0.3269 -0.6522  0.5228
  686MPD2    C210144   0.729   4.144  16.081 -0.7946 -0.3888 -0.1565
  686MPD2    C310145   0.858   4.163  16.031 -0.6476  0.5193  0.0665
  686MPD2    C410146   0.867   4.225  15.906  0.2367 -0.1425  0.0771
  686MPD2    C510147   0.758   4.257  15.832 -0.6676 -0.2887  0.0337
  686MPD2     H10148   0.717   4.100  16.179 -2.2157  1.0911  0.3315
  686MPD2    H110149   0.969   4.249  15.877  0.4308  0.2125  1.0461
  686MPD2    H210150   0.547   4.221  15.818 -0.5259 -1.9458 -0.5208
  686MPD2    H310151   0.761   4.307  15.736  0.3224 -1.1479 -0.3935
  686MPD2     N10152   0.986   4.125  16.096  0.3977  0.0034  0.1689
  686MPD2    H510153   1.071   4.152  16.048  2.1627 -1.2437  2.5800
  686MPD2    N110154   0.492   4.112  16.038 -0.0669 -0.2214  0.6183
  686MPD2    H710155   0.422   4.091  15.968  0.3245  0.1069  0.1337
  687TMC3    C110156   0.911   3.922  16.212  0.0263 -0.1061 -0.5295
  687TMC3    C210157   0.847   3.855  16.109  0.1051  0.1004  0.2454
  687TMC3    C310158   0.753   3.761  16.141 -0.1935 -0.9789  0.0441
  687TMC3    C410159   0.886   3.890  16.344  0.2137 -0.1991  0.1108
  687TMC3    C510160   0.807   3.780  16.366  0.3350  0.7175  0.0480
  687TMC3    C610161   0.739   3.711  16.264 -0.1549  0.0815  0.2420
  687TMC3     C10162   1.008   4.027  16.191  0.0875  0.3527  0.3454
  687TMC3     O10163   1.114   4.012  16.252 -0.2142  0.1150 -0.2578
  687TMC3     H10164   0.867   3.882  16.006  1.7496 -1.3925  0.1920
  687TMC3    H110165   0.918   3.962  16.418  1.9926 -0.7070 -0.1677
  687TMC3    H210166   0.673   3.629  16.290  1.0766 -0.9174  0.1666
  687TMC3    C710167   0.781   3.746  16.506  0.8015  0.4373  0.0650
  687TMC3    C810168   0.649   3.719  16.045  0.3957  0.1691  0.2045
  687TMC3    O110169   0.847   3.808  16.584 -0.0880 -0.3632  0.4258
  687TMC3    O210170   0.589   3.617  16.068 -0.5579  0.1238 -0.4212
  688MPD2     C10171   4.325   2.813  17.272 -0.0225  0.4586 -0.1788
  688MPD2    C110172   4.326   2.673  17.283 -0.4085 -0.4247  0.5296
  688MPD2    C210173   4.425   2.605  17.222 -0.5671  0.8503 -0.4920
  688MPD2    C310174   4.524   2.665  17.143  0.4341  0.5630 -0.2212
  688MPD2    C410175   4.533   2.804  17.149 -0.4149  0.8984 -0.5591
  688MPD2    C510176   4.430   2.874  17.204  0.4624 -0.9262 -0.1698
  688MPD2     H10177   4.429   2.497  17.228  2.0496  0.8336 -2.2847
  688MPD2    H110178   4.615   2.857  17.103  2.5061  0.7435  4.4139
  688MPD2    H210179   4.259   2.877  17.330 -0.9642 -0.6838  0.0029
  688MPD2    H310180   4.420   2.981  17.195 -0.6483 -1.1565 -1.6571
  688MPD2     N10181   4.625   2.592  17.073  0.4570 -0.4859  0.1921
  688MPD2    H510182   4.704   2.647  17.039 -1.0109  1.5573  0.0488
  688MPD2    N110183   4.240   2.592  17.358  0.1582 -0.1192 -0.3489
  688MPD2    H710184   4.262   2.493  17.356  1.0640  0.0352  1.5688
  689TMC3    C110185   4.067   2.539  17.515  0.4603  0.9682  0.3080
  689TMC3    C210186   4.005   2.593  17.627  0.4187 -0.3048  0.3988
  689TMC3    C310187   3.958   2.507   0.023 -0.1398  0.8263 -0.4521
  689TMC3    C410188   4.090   2.405  17.495  0.2344  0.4271  0.2585
  689TMC3    C510189   4.041   2.323  17.598 -0.2621  0.3849 -0.2904
  689TMC3    C610190   3.978   2.375   0.015 -0.9507 -0.5098 -0.0724
  689TMC3     C10191   4.133   2.638  17.427 -0.4436  0.4499  0.0462
  689TMC3     O10192   4.083   2.749  17.408 -0.0877  0.0781 -0.1122
  689TMC3     H10193   3.998   2.700  17.641 -1.0583 -0.5723  1.6325
  689TMC3    H110194   4.148   2.365  17.413 -0.9955 -1.2401  0.2021
  689TMC3    H210195   3.930   2.309   0.086 -3.1396 -0.1227 -1.1942
  689TMC3    C710196   4.022   2.178  17.589 -0.6874 -0.2530 -0.8315
  689TMC3    C810197   3.878   2.556   0.139  0.0512  0.1802  0.3101
  689TMC3    O110198   4.059   2.119  17.688 -0.0715 -0.2681 -0.2305
  689TMC3    O210199   3.876   2.481   0.231  0.3069 -0.0736 -0.4593
  690MPD2     C10200   1.807   4.652  15.739 -0.8587 -0.8674 -0.3479
  690MPD2    C110201   1.717   4.617  15.642  0.0087  0.2017 -0.1580
  690MPD2    C210202   1.747   4.627  15.504  0.1065 -0.7559  0.1254
  690MPD2    C310203   1.876   4.662  15.473 -0.2235 -0.1547 -0.2307
  690MPD2    C410204   1.964   4.692  15.570 -0.2276 -0.0090  0.3538
  690MPD2    C510205   1.927   4.689  15.700 -0.3489  0.6355 -0.5350
  690MPD2     H10206   1.671   4.590  15.436 -1.8226 -0.7381  2.2706
  690MPD2    H110207   2.069   4.701  15.547  0.2690 -0.5319  2.4915
  690MPD2    H210208   1.784   4.640  15.844 -0.4274  0.9582 -0.0453
  690MPD2    H310209   1.999   4.714  15.777 -1.4264 -0.6565  0.8647
  690MPD2     N10210   1.914   4.678  15.336  0.0985  0.3015  0.6271
  690MPD2    H510211   2.012   4.697  15.320  0.0883 -0.0647  0.1051
  690MPD2    N110212   1.585   4.572  15.664  0.2796 -0.1674  0.2771
  690MPD2    H710213   1.521   4.543  15.591  0.1372 -0.4569  0.5162
  691TMC3    C110214   1.385   4.539  15.768  0.0695 -0.4168 -0.4244
  691TMC3    C210215   1.285   4.608  15.834  0.3197 -0.1462 -0.5767
  691TMC3    C310216   1.153   4.570  15.810 -0.7101  0.7788  0.3696
  691TMC3    C410217   1.360   4.425  15.687  0.1592 -0.5445  0.1090
  691TMC3    C510218   1.225   4.388  15.673  0.4108 -0.4418  0.1264
  691TMC3    C610219   1.120   4.455  15.733  0.4304  0.1639 -0.0825
  691TMC3     C10220   1.521   4.590  15.782 -0.4972  0.5883  0.0549
  691TMC3     O10221   1.550   4.655  15.880  0.0042  0.0437  0.2414
  691TMC3     H10222   1.296   4.692  15.902  0.7841 -1.3313  0.7860
  691TMC3    H110223   1.443   4.360  15.661 -0.1017 -0.0120 -2.0919
  691TMC3    H210224   1.014   4.437  15.721  0.0806  0.0393  3.0824
  691TMC3    C710225   1.199   4.245  15.665 -0.1756  0.5568 -0.0383
  691TMC3    C810226   1.060   4.623  15.906  0.4907 -0.1704 -0.1157
  691TMC3    O110227   1.089   4.210  15.630  0.5160 -0.2272  0.4098
  691TMC3    O210228   1.106   4.662  16.013 -0.1053 -0.0074  0.2907
  692TMC3    C110229   3.416   0.644  15.810 -0.4850 -0.4430  0.2200
  692TMC3    C210230   3.550   0.667  15.834  0.3710  0.0086  0.3271
  692TMC3    C310231   3.641   0.565  15.817  0.0020  0.0289  0.0174
  692TMC3    C410232   3.365   0.518  15.806 -0.0558  0.4776 -0.4139
  692TMC3    C510233   3.457   0.423  15.789  0.5781 -0.3841  0.0111
  692TMC3    C610234   3.590   0.439  15.793  0.9336  0.2038  0.0491
  692TMC3     C10235   3.322   0.747  15.850 -0.3239  0.2222  0.2359
  692TMC3     O10236   3.203   0.717  15.847 -0.5151  0.9749  0.1264
  692TMC3     H10237   3.580   0.770  15.815 -1.6917  0.4034 -0.8851
  692TMC3    H110238   3.259   0.496  15.798  0.2853 -1.6852  1.0498
  692TMC3    H210239   3.648   0.355  15.757  0.5094 -0.2831  0.4998
  692TMC3    C710240   3.403   0.293  15.768 -0.3144  0.1132 -0.3042
  692TMC3    C810241   3.707   0.563  15.948 -0.0042  0.0965 -0.6892
  692TMC3    O110242   3.289   0.282  15.723  0.0762 -0.6883  0.1525
  692TMC3    O210243   3.773   0.465  15.978 -0.3050  0.1105 -0.3849
  693MPD2     C10244   2.876   3.339  10.472  0.3214 -0.5865  0.0831
  693MPD2    C110245   2.774   3.246  10.479  0.1149  0.0542  0.3410
  693MPD2    C210246   2.795   3.112  10.460  0.6578  0.7152 -0.9822
  693MPD2    C310247   2.922   3.070  10.450 -0.1384 -0.7543 -0.6372
  693MPD2    C410248   3.027   3.159  10.453 -0.5948  0.2495 -0.5339
  693MPD2    C510249   3.007   3.290  10.465  0.2139  0.6322 -0.6787
  693MPD2     H10250   2.713   3.042  10.456  1.5497 -0.3455 -0.3641
  693MPD2    H110251   3.129   3.127  10.471 -1.3295 -1.1292  1.0716
  693MPD2    H210252   2.862   3.440  10.509 -0.4934 -0.3746 -0.7919
  693MPD2    H310253   3.079   3.364  10.498 -0.0552 -0.0238  1.3742
  693MPD2     N10254   2.951   2.931  10.468  0.2246  0.4464  0.4055
  693MPD2    H510255   3.048   2.901  10.467 -0.3200 -1.3494  0.6199
  693MPD2    N110256   2.647   3.286  10.531 -0.4423 -0.2397  0.4186
  693MPD2    H710257   2.654   3.365  10.595  1.0004  0.2173 -0.3069
  694TMC3    C110258   2.413   3.266  10.600 -1.1990  0.1476  0.7780
  694TMC3    C210259   2.293   3.210  10.578 -0.6474 -0.4341  0.2638
  694TMC3    C310260   2.210   3.172  10.679  0.1449  0.6826 -0.5507
  694TMC3    C410261   2.453   3.307  10.723  0.4224  0.0635 -0.2013
  694TMC3    C510262   2.373   3.256  10.825  0.5755 -0.3905 -0.6348
  694TMC3    C610263   2.257   3.193  10.806  0.2701  0.5494 -0.3492
  694TMC3     C10264   2.524   3.223  10.509  0.8355 -0.7422 -0.1586
  694TMC3     O10265   2.491   3.140  10.430  0.2470 -0.5496 -0.4134
  694TMC3     H10266   2.269   3.182  10.476 -1.5838 -0.1267  0.4009
  694TMC3    H110267   2.550   3.352  10.741  0.5612  0.3210 -1.5935
  694TMC3    H210268   2.194   3.164  10.890 -0.3286 -0.7668 -1.2503
  694TMC3    C710269   2.421   3.275  10.953  0.6293  0.2736  0.4296
  694TMC3    C810270   2.099   3.083  10.660  0.6282 -0.1473  0.1418
  694TMC3    O110271   2.501   3.369  10.969 -0.1612  0.5941 -0.5895
  694TMC3    O210272   2.059   3.018  10.757 -0.2000 -0.8805  0.1817
  695MPD2     C10273   3.444   0.290  13.702  0.0256 -0.0769 -0.1466
  695MPD2    C110274   3.486   0.375  13.800 -0.5093  0.4472 -0.1929
  695MPD2    C210275   3.401   0.469  13.844 -0.2515 -0.1575  0.3952
  695MPD2    C310276   3.273   0.484  13.801  0.4121  0.2204 -0.3808
  695MPD2    C410277   3.237   0.385  13.707 -0.5284 -0.0921  0.1460
  695MPD2    C510278   3.319   0.292  13.658 -0.2936 -0.8258  0.1084
  695MPD2     H10279   3.440   0.537  13.918 -2.4284  0.3646  1.0494
  695MPD2    H110280   3.137   0.388  13.665 -0.2404 -0.8350 -0.5991
  695MPD2    H210281   3.509   0.218  13.655  1.0959 -0.0154  1.2230
  695MPD2    H310282   3.279   0.227  13.581  0.1865 -3.0449  1.7272
  695MPD2     N10283   3.192   0.584  13.854 -0.2469 -0.5389  0.1561
  695MPD2    H510284   3.238   0.654  13.911  1.3487 -0.6009 -1.0782
  695MPD2    N110285   3.621   0.387  13.837 -0.1925  0.5215  0.0807
  695MPD2    H710286   3.649   0.470  13.887  0.0924 -0.0700  0.8974
  696TMC3    C110287   3.001   0.719  13.888 -0.3701  0.3460 -0.2685
  696TMC3    C210288   3.044   0.754  14.014 -0.2833  0.6524 -0.2314
  696TMC3    C310289   2.978   0.856  14.078  0.1331  0.0287 -0.4752
  696TMC3    C410290   2.901   0.778  13.820 -0.7315  0.3682 -0.0419
  696TMC3    C510291   2.846   0.889  13.879  0.1446 -0.1345  0.5941
  696TMC3    C610292   2.876   0.918  14.013 -0.5587  0.0236  0.3723
  696TMC3     C10293   3.069   0.612  13.809  0.1879 -0.0100  0.4814
  696TMC3     O10294   3.009   0.560  13.720  0.0872 -0.2021 -0.5129
  696TMC3     H10295   3.124   0.704  14.067  0.8786  2.2895 -0.4256
  696TMC3    H110296   2.866   0.756  13.720 -2.0969  0.9733  0.2993
  696TMC3    H210297   2.827   1.003  14.058  0.1196 -0.4555  2.0276
  696TMC3    C710298   2.883   0.998  13.790 -0.0002  0.0141 -0.0399
  696TMC3    C810299   3.061   0.957  14.148 -0.8643 -0.4715 -1.2628
  696TMC3    O110300   2.849   0.994  13.670 -0.1132 -0.2361  0.6186
  696TMC3    O210301   3.026   1.072  14.116 -0.6297 -0.2200 -0.4242
  697MPD2     C10302   2.806   2.262  15.834  0.2572  0.2773 -0.1138
  697MPD2    C110303   2.767   2.221  15.708 -0.1513  0.4074 -0.0222
  697MPD2    C210304   2.811   2.302  15.598  0.1297  0.3556 -0.0776
  697MPD2    C310305   2.890   2.411  15.615  0.2771  0.3899  0.3104
  697MPD2    C410306   2.925   2.448  15.737 -0.1411  0.0963 -0.0283
  697MPD2    C510307   2.879   2.374  15.846 -0.3137 -0.2789 -0.0073
  697MPD2     H10308   2.786   2.279  15.496 -3.0327 -0.6730  0.9425
  697MPD2    H110309   2.980   2.539  15.758  2.1809 -1.0090 -1.4056
  697MPD2    H210310   2.773   2.209  15.923  2.0469  0.7400  0.8222
  697MPD2    H310311   2.902   2.415  15.943  1.0498 -0.6119 -0.1845
  697MPD2     N10312   2.942   2.477  15.497  0.0723  0.2123 -0.0019
  697MPD2    H510313   2.920   2.448  15.402 -1.1216 -1.9815  0.9532
  697MPD2    N110314   2.689   2.108  15.676 -0.4494  0.2144  0.2887
  697MPD2    H710315   2.656   2.093  15.581 -3.8654  0.8508  1.3587
  698TMC3    C110316   3.063   2.643  15.377 -0.3216  0.7431  0.1041
  698TMC3    C210317   3.169   2.733  15.371  0.2879  0.5715 -0.1129
  698TMC3    C310318   3.187   2.812  15.260 -0.3843 -0.8793  0.4250
  698TMC3    C410319   2.962   2.651  15.276  0.5856  0.9114  0.3725
  698TMC3    C510320   2.984   2.736  15.173  0.2989 -0.0828  0.4935
  698TMC3    C610321   3.103   2.800  15.152  0.5897 -0.3209  0.2116
  698TMC3     C10322   3.042   2.570  15.503  0.4468  0.4177  0.5147
  698TMC3     O10323   3.125   2.584  15.593  0.8917 -0.6462 -0.2328
  698TMC3     H10324   3.244   2.729  15.449 -0.5993 -0.1707  0.7114
  698TMC3    H110325   2.862   2.612  15.292  0.0609  1.8290 -0.6773
  698TMC3    H210326   3.135   2.853  15.063 -0.1274  0.7746  0.5961
  698TMC3    C710327   2.878   2.751  15.077 -0.4506  0.4609  0.4102
  698TMC3    C810328   3.320   2.875  15.253 -0.1294 -0.8289 -0.1707
  698TMC3    O110329   2.778   2.684  15.097  0.4157  0.1419  0.3572
  698TMC3    O210330   3.379   2.866  15.363 -0.0613 -0.5814 -0.1797
  699TMC3    C110331   3.555   0.600  13.010 -0.4668 -0.2471 -0.8029
  699TMC3    C210332   3.549   0.480  13.073 -0.2004  0.7689  0.1825
  699TMC3    C310333   3.488   0.482  13.190 -0.3180  0.1213  0.6600
  699TMC3    C410334   3.499   0.715  13.063  0.4439 -0.1375  1.0267
  699TMC3    C510335   3.426   0.713  13.176  0.1959 -0.6924  0.2223
  699TMC3    C610336   3.422   0.588  13.233 -0.2369  0.4849  0.5658
  699TMC3     C10337   3.632   0.609  12.890 -0.2304  0.6180 -0.1979
  699TMC3     O10338   3.629   0.721  12.842 -0.2290 -0.0947 -0.0780
  699TMC3     H10339   3.571   0.383  13.029  0.5907  1.0305 -0.0019
  699TMC3    H110340   3.505   0.807  13.005  1.0445 -1.3961 -0.9349
  699TMC3    H210341   3.374   0.588  13.331  1.3261 -0.0126  1.3381
  699TMC3    C710342   3.354   0.827  13.231 -0.5118 -0.2490 -0.2320
  699TMC3    C810343   3.473   0.354  13.259  0.2588 -0.4215 -0.0735
  699TMC3    O110344   3.269   0.799  13.307  0.1401 -0.3619  0.0458
  699TMC3    O210345   3.376   0.357  13.332  0.3207  0.1826  0.0436
  700TMC3    C110346   1.908   2.910  17.457 -0.8046 -0.5003 -0.4218
  700TMC3    C210347   1.967   2.812  17.389 -0.5421  0.2554 -0.3208
  700TMC3    C310348   2.071   2.743  17.454 -0.5950 -0.3251 -0.1135
  700TMC3    C410349   1.946   2.935  17.587 -0.1316 -0.0001 -0.0170
  700TMC3    C510350   2.046   2.868  17.655  0.0666 -0.7997  0.3289
  700TMC3    C610351   2.105   2.768  17.587  0.6810 -0.1637 -0.0196
  700TMC3     C10352   1.842   3.016  17.386  0.4935  0.2230  0.7085
  700TMC3     O10353   1.721   3.040  17.404 -0.0743  0.2845 -0.5811
  700TMC3     H10354   1.935   2.781  17.290 -1.5488 -1.4020  0.5187
  700TMC3    H110355   1.895   3.016  17.639 -1.6883 -1.0457  0.0877
  700TMC3    H210356   2.187   2.721  17.640 -0.3999 -1.7844  0.2355
  700TMC3    C710357   2.123   2.925   0.066 -0.5507 -0.3086 -0.5638
  700TMC3    C810358   2.148   2.641  17.383  0.4309 -0.5503 -0.6637
  700TMC3    O110359   2.247   2.917   0.054 -0.3348 -0.2120 -0.2846
  700TMC3    O210360   2.160   2.662  17.261  0.3190 -0.2171 -0.1623
  701TMC3    C110361   1.857   1.587  15.608 -0.0897  0.0256 -0.1328
  701TMC3    C210362   1.861   1.570  15.477  0.0433  0.0380 -0.5300
  701TMC3    C310363   1.981   1.602  15.409 -0.0552 -0.1192  0.6107
  701TMC3    C410364   1.959   1.642  15.683  0.8380 -0.1628  0.0038
  701TMC3    C510365   2.083   1.659  15.622 -0.0388 -0.1100  0.4300
  701TMC3    C610366   2.084   1.656  15.483 -0.0125 -0.2305  0.0748
  701TMC3     C10367   1.748   1.538  15.691  0.2352 -0.1801 -0.5926
  701TMC3     O10368   1.751   1.552  15.814 -0.2272  0.6283 -0.2403
  701TMC3     H10369   1.772   1.544  15.421 -0.6929  0.2729  0.5262
  701TMC3    H110370   1.956   1.648  15.791  0.3700  0.4099 -0.0406
  701TMC3    H210371   2.173   1.682  15.427  1.3771 -1.4765  1.7278
  701TMC3    C710372   2.165   1.772  15.668 -0.1209  0.8308 -0.1711
  701TMC3    C810373   1.991   1.583  15.267  0.1641 -0.3460  0.1563
  701TMC3    O110374   2.256   1.809  15.593  0.3905  0.2506 -0.3381
  701TMC3    O210375   2.091   1.637  15.214  0.3422  0.1802 -0.1829
  702MPD2     C10376   1.964   3.889  10.488  0.6298 -0.7677  0.1990
  702MPD2    C110377   1.992   3.950  10.614 -0.6647  0.0007 -0.3612
  702MPD2    C210378   2.062   4.074  10.608  0.5297  0.5235  0.5391
  702MPD2    C310379   2.114   4.131  10.495  0.3442 -0.4376 -0.2264
  702MPD2    C410380   2.085   4.062  10.378 -0.2699 -0.0222 -0.0980
  702MPD2    C510381   2.004   3.948  10.375 -0.6454 -0.9503  0.1705
  702MPD2     H10382   2.095   4.112  10.704  2.2987 -0.0618  0.1488
  702MPD2    H110383   2.130   4.098  10.286  1.4934  0.5858  1.0205
  702MPD2    H210384   1.898   3.802  10.485  2.6666 -2.2601 -1.0930
  702MPD2    H310385   1.973   3.911  10.278 -2.3801  0.1629  0.3104
  702MPD2     N10386   2.190   4.249  10.506 -0.2838  0.1077 -0.6144
  702MPD2    H510387   2.214   4.279  10.599  0.2117 -0.9719 -0.4014
  702MPD2    N110388   1.944   3.897  10.736 -0.5894 -0.1354  0.3037
  702MPD2    H710389   1.965   3.952  10.819 -1.1138  1.2254 -0.4720
  703TMC3    C110390   2.305   4.427  10.461  0.1374 -0.1785  0.1411
  703TMC3    C210391   2.239   4.494  10.559 -0.2507 -0.2827 -0.0375
  703TMC3    C310392   2.298   4.600  10.623  0.0237 -0.4727  0.2210
  703TMC3    C410393   2.428   4.469  10.421  0.1996  0.5183 -0.0569
  703TMC3    C510394   2.481   4.585  10.481 -0.1908  0.2326 -0.3450
  703TMC3    C610395   2.414   4.656  10.580 -0.3972 -0.2139 -1.2714
  703TMC3     C10396   2.249   4.317  10.404  0.1118 -0.3032  0.1189
  703TMC3     O10397   2.270   4.292  10.289  0.1766 -0.1106 -0.1209
  703TMC3     H10398   2.133   4.478  10.576 -0.1558 -0.0410  0.7846
  703TMC3    H110399   2.478   4.397  10.358  1.5749  0.1687  1.4167
  703TMC3    H210400   2.442   0.028  10.623  2.6746 -1.3817 -0.6585
  703TMC3    C710401   2.595   4.646  10.417 -0.0242 -0.2739  0.1471
  703TMC3    C810402   2.208   4.678  10.702  0.1475 -0.1816 -0.3819
  703TMC3    O110403   2.677   4.703  10.494  0.2968  0.4656  0.4280
  703TMC3    O210404   2.217   0.077  10.696 -0.1875  0.2283  0.2584
  704TMC3    C110405   4.195   2.227  12.638  0.6154  0.2678 -0.5620
  704TMC3    C210406   4.315   2.248  12.567 -0.5649  0.3003  0.1386
  704TMC3    C310407   4.420   2.160  12.592 -0.0946  0.0148  0.1570
  704TMC3    C410408   4.175   2.112  12.707 -0.4509  0.0037 -0.8667
  704TMC3    C510409   4.271   2.016  12.701 -0.5316 -0.8234  0.3941
  704TMC3    C610410   4.403   2.039  12.653  0.1711  0.5881  1.0326
  704TMC3     C10411   4.072   2.295  12.591 -0.0959  0.0741 -0.1043
  704TMC3     O10412   3.969   2.258  12.647 -0.1569 -0.2662  0.1364
  704TMC3     H10413   4.326   2.350  12.534  1.0263  0.6406  1.7131
  704TMC3    H110414   4.092   2.107  12.776  0.8012  0.5966  0.6860
  704TMC3    H210415   4.472   1.955  12.649 -0.8680 -0.0452 -3.5583
  704TMC3    C710416   4.232   1.875  12.672  0.3853 -0.1948 -0.1264
  704TMC3    C810417   4.532   2.177  12.500 -0.2826 -0.1097 -0.6308
  704TMC3    O110418   4.320   1.793  12.645  0.4508  0.3066 -0.4449
  704TMC3    O210419   4.519   2.252  12.403 -0.6720 -0.2407  0.0590
  705MPD2     C10420   3.705   0.569  16.876 -0.2885 -0.0011  0.2296
  705MPD2    C110421   3.661   0.634  16.764 -0.7589 -1.1075  0.1337
  705MPD2    C210422   3.543   0.714  16.768  0.3585  0.6897 -0.4149
  705MPD2    C310423   3.455   0.705  16.881 -0.1159 -0.0580 -0.7174
  705MPD2    C410424   3.496   0.638  16.992  0.1749 -0.1884 -0.1782
  705MPD2    C510425   3.627   0.580  16.986 -0.7290  0.6162 -0.3060
  705MPD2     H10426   3.524   0.768  16.677  1.0258 -1.7902 -2.0265
  705MPD2    H110427   3.423   0.611  17.067  0.4270 -0.7972 -0.1489
  705MPD2    H210428   3.798   0.515  16.883 -0.3015 -0.1817 -0.9241
  705MPD2    H310429   3.654   0.505  17.059 -0.0061 -1.0422 -2.2674
  705MPD2     N10430   3.314   0.749  16.876  0.0769 -0.8272  0.0406
  705MPD2    H510431   3.268   0.757  16.966 -0.0151  0.9537 -0.1489
  705MPD2    N110432   3.741   0.638  16.645  0.4033  0.9770  0.0647
  705MPD2    H710433   3.705   0.696  16.570 -0.6577  0.3538  0.0843
  706TMC3    C110434   4.004   0.499  16.296  0.0559  0.4415 -0.5551
  706TMC3    C210435   3.992   0.621  16.228  0.1457 -0.5008  0.4202
  706TMC3    C310436   3.940   0.729  16.298  0.0184 -0.1386  0.5089
  706TMC3    C410437   3.962   0.483  16.427 -0.2843  0.6326 -0.6709
  706TMC3    C510438   3.906   0.590  16.490  0.2261  0.0424 -0.6823
  706TMC3    C610439   3.883   0.715  16.424 -0.4076  0.2326  0.5342
  706TMC3     C10440   4.089   0.387  16.247  0.2663  0.4419 -0.1835
  706TMC3     O10441   4.131   0.315  16.336 -0.0416 -0.9120 -0.3790
  706TMC3     H10442   4.042   0.641  16.134  0.3464  2.8860  1.2478
  706TMC3    H110443   3.989   0.394  16.483 -2.7425 -0.3973 -1.1236
  706TMC3    H210444   3.839   0.803  16.470 -1.8919  0.7876 -1.9458
  706TMC3    C710445   3.853   0.559  16.622 -0.9034  0.1852  0.3673
  706TMC3    C810446   3.913   0.847  16.222 -0.2787  0.0009  0.1565
  706TMC3    O110447   3.890   0.456  16.679  0.0135 -0.0945 -0.6582
  706TMC3    O210448   3.901   0.841  16.100  0.1121  0.1278  0.5146
  707TMC3    C110449   0.431   4.394   1.347  0.6976  0.6186  0.7768
  707TMC3    C210450   0.374   4.276   1.350 -0.5755 -0.0968  0.4339
  707TMC3    C310451   0.241   4.268   1.358  0.9042 -0.1370  0.2135
  707TMC3    C410452   0.362   4.513   1.340 -0.4341 -0.3052  0.0253
  707TMC3    C510453   0.229   4.501   1.349  0.5037 -0.4342  0.0858
  707TMC3    C610454   0.163   4.378   1.347  0.0404 -0.2095  0.3381
  707TMC3     C10455   0.574   4.396   1.337  0.2358 -0.1472 -0.0101
  707TMC3     O10456   0.632   4.290   1.354  0.7140  0.4670 -0.0478
  707TMC3     H10457   0.436   4.188   1.341  0.3413  0.5143  0.7258
  707TMC3    H110458   0.402   4.611   1.364  1.5456 -0.6508 -1.8667
  707TMC3    H210459   0.054   4.380   1.350  0.1072  1.5790  1.1326
  707TMC3    C710460   0.161   4.630   1.364 -0.0259 -0.1343  0.1154
  707TMC3    C810461   0.177   4.137   1.376 -0.3094  0.3796 -0.8096
  707TMC3    O110462   0.219   0.007   1.323 -0.4072  0.1420  0.2577
  707TMC3    O210463   0.054   4.132   1.380  0.0225  0.4799  0.1999
  708MPD2     C10464   1.738   3.203  14.429 -0.4685  0.3323  0.1562
  708MPD2    C110465   1.756   3.338  14.453 -0.0251 -0.0302 -0.2585
  708MPD2    C210466   1.664   3.403  14.525  0.8448 -0.5237  0.8883
  708MPD2    C310467   1.555   3.340  14.584  0.4396  0.5144 -0.3260
  708MPD2    C410468   1.540   3.201  14.561 -0.1321  0.0003 -0.5042
  708MPD2    C510469   1.636   3.140  14.492 -0.1479 -0.2756 -0.0976
  708MPD2     H10470   1.675   3.510  14.542 -0.6467  0.1671 -2.5055
  708MPD2    H110471   1.456   3.144  14.599  0.7567 -2.0800 -1.6367
  708MPD2    H210472   1.814   3.137  14.388 -0.2265  0.3753  0.5258
  708MPD2    H310473   1.623   3.034  14.475 -1.0058 -0.2927  0.6915
  708MPD2     N10474   1.474   3.419  14.671 -0.0009  0.0102 -0.1423
  708MPD2    H510475   1.495   3.518  14.676  0.4699 -0.0998  0.0898
  708MPD2    N110476   1.870   3.406  14.394  0.2410 -0.3540 -0.3011
  708MPD2    H710477   1.871   3.506  14.416 -0.8981 -0.1193 -1.3019
  709TMC3    C110478   2.024   3.461  14.218  0.5037 -0.1793  0.8266
  709TMC3    C210479   1.964   3.459  14.095 -0.5599  0.2885  0.4547
  709TMC3    C310480   1.916   3.575  14.048  0.2086  0.2499  0.1034
  709TMC3    C410481   2.028   3.578  14.291  0.2919  0.2194 -0.3272
  709TMC3    C510482   1.962   3.689  14.239  0.5937 -0.3002  0.8073
  709TMC3    C610483   1.918   3.697  14.115 -0.6582 -0.5360  0.0961
  709TMC3     C10484   1.944   3.358  14.289  0.2716  0.8227  0.0544
  709TMC3     O10485   1.947   3.247  14.238 -0.0946 -0.5650 -0.2432
  709TMC3     H10486   1.953   3.364  14.044 -0.9013  0.2673  0.5684
  709TMC3    H110487   2.074   3.562  14.388  0.9571 -0.5306 -0.7683
  709TMC3    H210488   1.891   3.795  14.077  1.9994  0.1724  0.0240
  709TMC3    C710489   1.866   3.728  14.335 -0.0744 -0.0365 -0.0963
  709TMC3    C810490   1.803   3.571  13.969  0.5424 -0.1504 -0.0959
  709TMC3    O110491   1.875   3.695  14.450 -0.6390 -0.5646 -0.1610
  709TMC3    O210492   1.700   3.532  14.024  0.2268 -0.3202  1.0650
  710TMC3    C110493   3.103   0.443   0.924  0.3268 -0.2109  0.2923
  710TMC3    C210494   3.144   0.422   0.795  0.5094 -0.5670  0.7584
  710TMC3    C310495   3.261   0.351   0.785  0.3782  0.4127 -0.6759
  710TMC3    C410496   3.161   0.400   1.040 -0.0186 -0.1232 -0.8043
  710TMC3    C510497   3.278   0.333   1.015  0.4883 -0.1706  0.3244
  710TMC3    C610498   3.333   0.303   0.891 -0.0213  0.1469 -0.0499
  710TMC3     C10499   3.007   0.553   0.938  0.0308 -0.4736  0.3556
  710TMC3     O10500   2.966   0.602   0.832  0.1607 -0.2255  0.0491
  710TMC3     H10501   3.080   0.459   0.717  1.2838 -0.7601  0.0301
  710TMC3    H110502   3.108   0.404   1.135  1.3963 -0.9918  0.0168
  710TMC3    H210503   3.401   0.221   0.869 -2.0518 -1.6218  0.3745
  710TMC3    C710504   3.330   0.255   1.123  0.4861  0.3171  0.1028
  710TMC3    C810505   3.283   0.289   0.655 -0.6431 -0.0549 -0.0578
  710TMC3    O110506   3.252   0.241   1.219  0.3012  0.2296 -0.4516
  710TMC3    O210507   3.397   0.285   0.609 -0.0018 -0.1090 -0.2741
  711TMC3    C110508   2.673   0.962  15.107  0.2138  0.2140 -0.0523
  711TMC3    C210509   2.728   1.048  15.198  0.0576  0.0956 -0.1113
  711TMC3    C310510   2.858   1.027  15.238 -0.2170  0.0816 -0.3740
  711TMC3    C410511   2.744   0.860  15.056  0.0548 -0.1984 -0.0390
  711TMC3    C510512   2.872   0.838  15.106  0.5437  0.1704 -0.3741
  711TMC3    C610513   2.931   0.921  15.196 -0.2820 -0.6564  0.2732
  711TMC3     C10514   2.536   0.986  15.063 -0.0576  0.5393 -0.2346
  711TMC3     O10515   2.485   0.897  14.996 -0.8282  0.5092  0.0395
  711TMC3     H10516   2.667   1.118  15.253 -1.6221 -1.2767 -0.2556
  711TMC3    H110517   2.689   0.806  14.980  0.1192  1.3971 -1.2333
  711TMC3    H210518   3.036   0.903  15.215  0.5733  4.0838 -0.0574
  711TMC3    C710519   2.958   0.742  15.038  0.3091  0.0221 -0.7008
  711TMC3    C810520   2.873   1.078  15.371 -0.1331 -0.8535 -0.4431
  711TMC3    O110521   3.076   0.734  15.067  0.3433 -0.1886  0.7359
  711TMC3    O210522   2.800   1.028  15.455 -0.2952 -0.0372 -0.0922
  712MPD2     C10523   4.456   2.321  13.606 -0.9201 -0.6025  0.4487
  712MPD2    C110524   4.349   2.393  13.565  0.0263  0.1904  0.0423
  712MPD2    C210525   4.361   2.516  13.511 -0.1169  0.4597  0.3838
  712MPD2    C310526   4.492   2.567  13.496 -0.3867 -0.4018 -0.3726
  712MPD2    C410527   4.605   2.494  13.538  0.0552 -0.0609 -0.2107
  712MPD2    C510528   4.584   2.368  13.596  0.1563 -0.5831 -0.1643
  712MPD2     H10529   4.276   2.577  13.481 -1.3402 -1.3541  0.1518
  712MPD2    H110530   4.708   2.523  13.522  0.3676 -1.8820 -1.5311
  712MPD2    H210531   4.449   2.229  13.663 -1.4083 -0.5899  0.4096
  712MPD2    H310532   4.662   2.307  13.641  0.0663 -1.5162 -1.2830
  712MPD2     N10533   4.523   2.690  13.440 -0.0146  0.2238 -0.0811
  712MPD2    H510534   4.621   2.711  13.452 -0.2636  2.1495 -1.4226
  712MPD2    N110535   4.215   2.347  13.579 -0.4131  0.3032 -0.5758
  712MPD2    H710536   4.149   2.411  13.537  0.2654  1.1904 -0.2972
  713TMC3    C110537   4.496   2.898  13.318 -0.5243  0.1838  0.0500
  713TMC3    C210538   4.628   2.920  13.330  0.5382  0.2085  0.1466
  713TMC3    C310539   4.677   3.032  13.278 -0.1504 -0.6525  0.5491
  713TMC3    C410540   4.415   2.983  13.252  0.2402 -0.1604 -0.6717
  713TMC3    C510541   4.477   3.088  13.188 -0.0889 -0.1371 -0.0675
  713TMC3    C610542   4.607   3.117  13.197 -0.0263 -0.7056  0.3751
  713TMC3     C10543   4.435   2.787  13.386 -0.5850  0.7525 -0.3824
  713TMC3     O10544   4.316   2.784  13.377 -0.0301  0.3896  0.5043
  713TMC3     H10545   4.698   2.848  13.371  1.4758  0.5741 -0.8204
  713TMC3    H110546   4.310   2.960  13.245  0.0056  0.5543  0.5550
  713TMC3    H210547   4.661   3.194  13.143 -0.9668 -0.1313  0.2548
  713TMC3    C710548   4.407   3.164  13.086  0.1810 -0.3420 -0.0128
  713TMC3    C810549   0.063   3.099  13.351  0.1901  0.1818  0.0951
  713TMC3    O110550   4.482   3.215  13.006 -0.4568  0.0896 -0.0962
  713TMC3    O210551   0.058   3.219  13.344  0.0328  0.1825 -0.0720
  714MPD2     C10552   1.493   1.165   1.781  0.0134  0.1042  0.2860
  714MPD2    C110553   1.552   1.092   1.679 -0.0373 -0.1589  0.0592
  714MPD2    C210554   1.531   1.140   1.550  0.2639 -0.0122 -0.0224
  714MPD2    C310555   1.458   1.252   1.527  0.4395  0.0522 -0.1557
  714MPD2    C410556   1.403   1.325   1.630 -0.2260  0.0514 -0.3059
  714MPD2    C510557   1.420   1.281   1.758  0.4567  0.0580  0.1753
  714MPD2     H10558   1.573   1.094   1.461 -2.0069 -1.0927 -0.5274
  714MPD2    H110559   1.332   1.407   1.621  0.3461  0.5491 -0.2542
  714MPD2    H210560   1.502   1.133   1.885 -1.3320 -0.5811  0.1958
  714MPD2    H310561   1.386   1.338   1.844 -1.2503  0.5824 -0.8501
  714MPD2     N10562   1.463   1.295   1.387 -0.4721  0.4522  0.3377
  714MPD2    H510563   1.512   1.236   1.321 -0.6420  0.3897  0.2682
  714MPD2    N110564   1.642   0.982   1.713  0.2537  0.3212  0.5732
  714MPD2    H710565   1.626   0.953   1.809 -1.9425 -2.4221 -0.6098
  715TMC3    C110566   1.810   0.821   1.689  0.3375  0.4688  1.2220
  715TMC3    C210567   1.887   0.747   1.608  0.2981 -0.4383  0.3085
  715TMC3    C310568   1.960   0.651   1.673  0.5061 -0.3506  0.1518
  715TMC3    C410569   1.827   0.827   1.828 -0.0786  0.2997  0.2539
  715TMC3    C510570   1.908   0.733   1.883 -0.5856  0.4091  0.5208
  715TMC3    C610571   1.964   0.638   1.810 -0.1774 -0.5911  0.5963
  715TMC3     C10572   1.723   0.918   1.623  0.6389  0.2353 -0.5133
  715TMC3     O10573   1.748   0.939   1.507 -0.0307  0.2834 -0.0962
  715TMC3     H10574   1.888   0.761   1.500 -1.1575 -2.7169  0.0167
  715TMC3    H110575   1.806   0.917   1.885  2.4444  0.0694  1.5683
  715TMC3    H210576   2.029   0.567   1.861 -0.5273 -1.9070 -0.7604
  715TMC3    C710577   1.935   0.723   2.025  0.1910 -1.1651 -0.2113
  715TMC3    C810578   2.039   0.567   1.584 -0.5224  0.1535 -0.3314
  715TMC3    O110579   2.019   0.647   2.068  1.0448  0.4239  0.3507
  715TMC3    O210580   2.031   0.584   1.463 -0.3797  0.3687 -0.1524
  716MPD2     C10581   1.638   3.775   9.337 -0.1148  0.4253 -0.0319
  716MPD2    C110582   1.536   3.784   9.433  0.0836 -0.5615  0.2405
  716MPD2    C210583   1.475   3.664   9.470  0.0530 -0.4049 -0.1208
  716MPD2    C310584   1.517   3.538   9.415  0.8951 -0.1604 -0.2174
  716MPD2    C410585   1.619   3.538   9.322 -0.1986 -0.4712  0.8977
  716MPD2    C510586   1.679   3.658   9.282 -0.3945 -0.2687 -0.1282
  716MPD2     H10587   1.395   3.668   9.543 -0.7272 -0.6455 -0.9682
  716MPD2    H110588   1.642   3.449   9.265  1.3359  0.8703 -0.5535
  716MPD2    H210589   1.680   3.864   9.292  0.9974 -0.2877 -0.3976
  716MPD2    H310590   1.738   3.664   9.192 -1.5035  1.3173 -0.7476
  716MPD2     N10591   1.452   3.418   9.451 -0.1333 -0.4752 -0.7742
  716MPD2    H510592   1.364   3.415   9.501 -0.2308 -1.0542 -0.9733
  716MPD2    N110593   1.486   3.906   9.490  0.0394  0.1580  0.5320
  716MPD2    H710594   1.399   3.909   9.542  0.2430 -2.5646  1.0738
  717TMC3    C110595   1.399   3.189   9.436  0.7846  0.0927 -0.0124
  717TMC3    C210596   1.270   3.221   9.454  0.3010 -0.0496 -0.6762
  717TMC3    C310597   1.179   3.118   9.452  0.1456  1.1535  0.6108
  717TMC3    C410598   1.443   3.060   9.417  0.5520  0.1608 -0.4659
  717TMC3    C510599   1.347   2.960   9.418 -0.9387 -0.1600 -0.9681
  717TMC3    C610600   1.212   2.986   9.435 -0.1855 -0.2266 -0.4164
  717TMC3     C10601   1.499   3.292   9.426  0.2564  0.4785  0.1563
  717TMC3     O10602   1.609   3.261   9.397 -0.1906 -0.3365  0.5601
  717TMC3     H10603   1.237   3.324   9.447 -1.3785 -0.6342 -1.3516
  717TMC3    H110604   1.544   3.047   9.380 -0.2665  0.3322 -2.7578
  717TMC3    H210605   1.139   2.907   9.431  0.1486 -0.5633  0.0591
  717TMC3    C710606   1.378   2.818   9.416  1.5011  0.1123  0.7093
  717TMC3    C810607   1.039   3.162   9.447  0.6115 -0.0816 -0.4470
  717TMC3    O110608   1.284   2.736   9.402 -0.9382 -0.2231  0.6554
  717TMC3    O210609   1.009   3.256   9.519 -0.3329 -0.3486 -0.0117
  718MPD2     C10610   1.074   3.158  12.911  0.0102  0.4375  0.1167
  718MPD2    C110611   1.021   3.192  12.787  0.3626 -0.0527  0.0812
  718MPD2    C210612   0.921   3.115  12.733  0.3428 -0.8740  0.0293
  718MPD2    C310613   0.860   3.016  12.803  0.8323 -0.6930  0.0771
  718MPD2    C410614   0.910   2.977  12.925 -0.2567 -0.8260 -0.3614
  718MPD2    C510615   1.015   3.047  12.974  0.2235  0.0221  0.3194
  718MPD2     H10616   0.884   3.132  12.633  0.3317  3.4884  0.8035
  718MPD2    H110617   0.863   2.892  12.973 -1.2530 -0.3738 -0.5229
  718MPD2    H210618   1.155   3.207  12.965 -0.2482 -0.9606  1.7984
  718MPD2    H310619   1.058   3.028  13.071 -1.2067  0.2123  0.9874
  718MPD2     N10620   0.749   2.950  12.749  0.2133 -0.3746  0.0085
  718MPD2    H510621   0.734   2.980  12.653 -1.9733 -3.1353 -0.5109
  718MPD2    N110622   1.072   3.302  12.719  0.0891  0.3663 -0.0192
  718MPD2    H710623   1.163   3.339  12.747  1.8337 -2.8742 -1.4147
  719TMC3    C110624   1.059   3.482  12.561  0.0691  0.3432  0.5523
  719TMC3    C210625   0.956   3.552  12.505 -0.1403  0.0723 -0.9100
  719TMC3    C310626   0.973   3.616  12.382  0.5407  0.0968  0.3793
  719TMC3    C410627   1.184   3.494  12.507  0.3697  0.8535 -0.1895
  719TMC3    C510628   1.196   3.560  12.388  0.3857  0.4160  0.4758
  719TMC3    C610629   1.090   3.612  12.318 -0.1594 -0.4328  0.6315
  719TMC3     C10630   1.006   3.363  12.613  0.4887  0.1692  0.0039
  719TMC3     O10631   0.898   3.346  12.564 -0.1484 -0.3956 -0.5766
  719TMC3     H10632   0.862   3.562  12.559  0.1673  0.0500 -0.3692
  719TMC3    H110633   1.265   3.439  12.553 -1.0955 -0.8263  0.4224
  719TMC3    H210634   1.099   3.662  12.222  2.0174  0.3813  1.2527
  719TMC3    C710635   1.327   3.565  12.331  0.1962  0.4283 -0.0783
  719TMC3    C810636   0.853   3.612  12.302 -0.3004  0.0769 -0.0989
  719TMC3    O110637   1.397   3.488  12.393 -0.0456 -0.7297 -0.6672
  719TMC3    O210638   0.801   3.709  12.251  0.5847 -0.1060 -0.1137
  720MPD2     C10639   4.083   4.154  13.960 -0.1355 -0.4022 -0.1346
  720MPD2    C110640   4.151   4.240  13.884 -0.1479  0.0358  0.1587
  720MPD2    C210641   4.267   4.297  13.940  0.4100  0.1697  0.8722
  720MPD2    C310642   4.317   4.263  14.061  0.1908 -0.0106 -0.3324
  720MPD2    C410643   4.250   4.171  14.135  0.1686 -0.6615 -0.2743
  720MPD2    C510644   4.131   4.124  14.086  0.1859 -0.7654 -0.3789
  720MPD2     H10645   4.316   4.368  13.875 -0.0812 -1.3296 -1.1854
  720MPD2    H110646   4.285   4.137  14.231  0.3301  3.2198  1.0313
  720MPD2    H210647   3.994   4.097  13.935 -1.0780  0.6183  0.9111
  720MPD2    H310648   4.074   4.059  14.152  1.4770 -0.1164  1.3778
  720MPD2     N10649   4.435   4.332  14.102 -0.0878 -0.1597 -0.7136
  720MPD2    H510650   4.477   4.401  14.041  0.8626 -0.2911 -0.2165
  720MPD2    N110651   4.104   4.283  13.758 -0.4647 -0.4006 -0.3811
  720MPD2    H710652   4.164   4.344  13.703  0.0602 -0.0833  0.5327
  721TMC3    C110653   4.598   4.425  14.257 -0.0372  0.6990 -0.3132
  721TMC3    C210654   4.583   4.480  14.384 -0.2345  0.8055 -0.8868
  721TMC3    C310655   4.693   4.487  14.465 -0.2078  0.6614  0.3260
  721TMC3    C410656   0.003   4.384  14.215  0.2264 -0.7107 -0.6115
  721TMC3    C510657   0.103   4.383  14.312 -0.4424  0.7350  0.7220
  721TMC3    C610658   0.090   4.435  14.433  0.0699 -0.2878  0.0222
  721TMC3     C10659   4.489   4.332  14.230  0.0774  0.2876 -0.1938
  721TMC3     O10660   4.449   4.263  14.326 -0.1887 -0.4901  0.0019
  721TMC3     H10661   4.487   4.483  14.436 -0.6652  3.1153 -1.8122
  721TMC3    H110662   0.013   4.351  14.113 -0.1583 -2.5894 -0.0254
  721TMC3    H210663   0.177   4.449  14.496  0.1764  2.6344 -0.7827
  721TMC3    C710664   0.231   4.358  14.261  0.5106 -0.0255 -0.5994
  721TMC3    C810665   4.677   4.567  14.581  0.4303 -0.0916  0.4165
  721TMC3    O110666   0.258   4.406  14.157  0.7481  0.3682 -0.2865
  721TMC3    O210667   4.597   4.655  14.588  0.0569 -0.3998  0.4551
  722MPD2     C10668   3.286   2.974  13.432  0.1152  0.9398 -0.0327
  722MPD2    C110669   3.216   3.031  13.322 -0.1724 -0.0259  0.4134
  722MPD2    C210670   3.077   3.007  13.316  0.7787 -0.0351  0.0379
  722MPD2    C310671   3.006   2.943  13.415 -0.2948  0.0798  0.5993
  722MPD2    C410672   3.086   2.886  13.518  0.1029  0.0305  0.3399
  722MPD2    C510673   3.218   2.890  13.510  0.5526  0.3676 -0.3274
  722MPD2     H10674   3.021   3.040  13.229  0.7950  0.4468  0.2083
  722MPD2    H110675   3.033   2.834  13.597  1.1889 -1.4973  0.0528
  722MPD2    H210676   3.394   2.983  13.438  0.1307 -0.6848  2.3339
  722MPD2    H310677   3.281   2.834  13.578  0.0954  0.8037  0.4517
  722MPD2     N10678   2.863   2.929  13.391  0.1791 -1.1102  0.4487
  722MPD2    H510679   2.820   2.982  13.317  0.9935 -1.6074 -0.3890
  722MPD2    N110680   3.270   3.126  13.232  0.2911 -0.5668  0.1333
  722MPD2    H710681   3.207   3.151  13.156  1.9420  1.1596 -0.6866
  723TMC3    C110682   2.635   2.900  13.440 -0.0119  0.3718  0.2913
  723TMC3    C210683   2.547   2.798  13.457  0.4617  0.5274 -0.0314
  723TMC3    C310684   2.412   2.817  13.447  0.0204 -0.1742 -0.0135
  723TMC3    C410685   2.590   3.021  13.399  0.2266 -0.4256 -0.3429
  723TMC3    C510686   2.456   3.040  13.385 -0.0706  0.2028 -0.0891
  723TMC3    C610687   2.357   2.941  13.410  0.0374 -0.6811 -0.2127
  723TMC3     C10688   2.777   2.868  13.478  0.2270 -0.0481  0.1170
  723TMC3     O10689   2.806   2.817  13.584 -0.1510  0.3197 -0.2342
  723TMC3     H10690   2.588   2.702  13.486  0.8254  1.1437  1.4897
  723TMC3    H110691   2.663   3.098  13.376 -0.0675  0.6859  2.3713
  723TMC3    H210692   2.254   2.964  13.437 -0.6201 -2.8220 -0.8942
  723TMC3    C710693   2.419   3.167  13.330 -0.4681  0.1184  0.0978
  723TMC3    C810694   2.338   2.699  13.421 -1.0658  0.0253  0.1886
  723TMC3    O110695   2.503   3.256  13.328  0.0100 -0.2384  0.4367
  723TMC3    O210696   2.385   2.593  13.458 -0.3775 -0.9074 -0.2623
  724TMC3    C110697   2.741   1.090   9.709  0.1131  0.0475  0.1478
  724TMC3    C210698   2.710   1.149   9.594  0.4861 -0.0666  0.0320
  724TMC3    C310699   2.803   1.223   9.532  0.2729 -0.0780  0.4164
  724TMC3    C410700   2.871   1.092   9.760 -0.1751 -0.2159  0.5389
  724TMC3    C510701   2.965   1.153   9.688 -0.8949  0.0572  0.0646
  724TMC3    C610702   2.935   1.221   9.574 -0.3596  0.4071 -0.8199
  724TMC3     C10703   2.643   1.029   9.794 -0.3015 -0.1423 -0.0126
  724TMC3     O10704   2.658   1.018   9.916 -0.2295  0.3868 -0.1018
  724TMC3     H10705   2.605   1.164   9.570  0.5519  0.0279 -0.1946
  724TMC3    H110706   2.895   1.068   9.863 -0.5552  3.4420  1.4925
  724TMC3    H210707   3.014   1.277   9.525 -1.5901  0.8079 -2.3104
  724TMC3    C710708   3.073   1.210   9.770  0.3021  0.6302  0.2486
  724TMC3    C810709   2.754   1.308   9.431  1.2213  0.0711 -0.4789
  724TMC3    O110710   3.101   1.327   9.755  0.3907 -0.8026 -0.3710
  724TMC3    O210711   2.659   1.266   9.366  0.5846  0.3455  0.3585
  725TMC3    C110712   0.300   4.544  12.766  0.2109 -0.1321 -0.2976
  725TMC3    C210713   0.175   4.513  12.734 -0.0048 -0.1677 -0.4724
  725TMC3    C310714   0.144   4.400  12.660  0.4262 -0.1688 -0.7593
  725TMC3    C410715   0.402   4.465  12.716 -0.2741  0.0639  1.0425
  725TMC3    C510716   0.366   4.350  12.650 -0.1611  1.1021 -1.2438
  725TMC3    C610717   0.239   4.310  12.628  0.1509 -0.0885  0.3549
  725TMC3     C10718   0.337   4.665  12.833 -0.1720 -0.4287 -0.1983
  725TMC3     O10719   0.440   4.710  12.787  1.3129 -0.0991  0.3842
  725TMC3     H10720   0.103   4.589  12.762 -0.9480 -0.7242 -1.3873
  725TMC3    H110721   0.500   4.511  12.707 -0.1622 -0.7908 -2.0671
  725TMC3    H210722   0.219   4.218  12.574 -2.0229  0.2088  0.6471
  725TMC3    C710723   0.465   4.294  12.561 -0.4065  0.7496  0.0374
  725TMC3    C810724   0.036   4.407  12.569  0.7249 -0.1196  1.1791
  725TMC3    O110725   0.429   4.221  12.469  0.1306 -0.4273  0.0489
  725TMC3    O210726   4.708   4.306  12.529 -0.2690  0.0824 -0.2165
  726MPD2     C10727   3.087   1.230  10.587  0.3833 -0.2057 -0.5087
  726MPD2    C110728   2.958   1.230  10.560  0.0350 -0.0663  0.5927
  726MPD2    C210729   2.878   1.121  10.596 -0.0189 -0.7906  0.3905
  726MPD2    C310730   2.938   1.011  10.659  0.2660 -0.5761 -0.0232
  726MPD2    C410731   3.074   1.013  10.681 -0.4530 -0.1003  0.5113
  726MPD2    C510732   3.143   1.120  10.643  0.3523  0.7870 -1.0313
  726MPD2     H10733   2.771   1.121  10.576 -0.0162 -0.1364  0.3805
  726MPD2    H110734   3.127   0.931  10.729 -0.9843 -1.1320 -0.6602
  726MPD2    H210735   3.158   1.306  10.555  1.2495 -0.4178  0.9164
  726MPD2    H310736   3.245   1.129  10.677  0.3913 -1.3084 -0.5925
  726MPD2     N10737   2.851   0.909  10.715 -0.5036  0.1787 -0.1382
  726MPD2    H510738   2.753   0.915  10.686 -0.4482  2.1284  0.0790
  726MPD2    N110739   2.908   1.346  10.495 -0.4009  0.2270 -0.2803
  726MPD2    H710740   2.977   1.420  10.491 -1.6425  1.2924 -2.0216
  727TMC3    C110741   2.761   1.502  10.419 -0.7135 -0.6040  0.1881
  727TMC3    C210742   2.806   1.591  10.509 -0.5889  0.3030 -0.1963
  727TMC3    C310743   2.750   1.713  10.520 -0.3322 -0.4619  0.6415
  727TMC3    C410744   2.651   1.528  10.338  0.3002 -0.3176  0.4433
  727TMC3    C510745   2.591   1.648  10.352 -0.4171  0.5583 -0.2624
  727TMC3    C610746   2.638   1.750  10.437 -0.1557  0.4668 -0.2513
  727TMC3     C10747   2.785   1.364  10.446  0.2305 -0.4313 -0.0537
  727TMC3     O10748   2.699   1.280  10.416  0.1294 -0.2217 -0.0294
  727TMC3     H10749   2.890   1.575  10.575 -1.0292  0.4723  0.4009
  727TMC3    H110750   2.619   1.458  10.262  0.9245 -1.5609  1.3130
  727TMC3    H210751   2.611   1.855  10.434  2.1873  1.0241 -2.1833
  727TMC3    C710752   2.484   1.677  10.254  0.5919  0.2876 -0.6940
  727TMC3    C810753   2.804   1.804  10.616 -0.4763  0.2446  0.0437
  727TMC3    O110754   2.480   1.604  10.158 -0.0962 -0.5687  0.3400
  727TMC3    O210755   2.917   1.776  10.650  0.6839 -0.2930 -0.0278
  728TMC3    C110756   1.906   4.684  15.111 -0.3484 -0.6648  0.2324
  728TMC3    C210757   2.037   4.654  15.120 -1.3415  0.1771  0.2312
  728TMC3    C310758   2.124   4.722  15.040  0.3973  0.3300 -0.2746
  728TMC3    C410759   1.861   0.053  15.025  0.2545 -0.3716 -0.0839
  728TMC3    C510760   1.953   0.127  14.952  0.2740  0.5599  0.0715
  728TMC3    C610761   2.088   0.095  14.949  0.2247 -1.1816 -0.2848
  728TMC3     C10762   1.831   4.661  15.231 -0.3497 -0.1555  0.6937
  728TMC3     O10763   1.708   4.650  15.230  0.2814  0.4005 -0.3388
  728TMC3     H10764   2.077   4.575  15.181 -0.8652  0.9982  0.9910
  728TMC3    H110765   1.754   0.071  15.024  0.2849 -0.2323 -0.5632
  728TMC3    H210766   2.160   0.165  14.909 -0.8691 -0.8904 -1.7346
  728TMC3    C710767   1.917   0.246  14.874  0.1057  0.0099 -0.5228
  728TMC3    C810768   2.262   4.711  15.093  0.0115  0.7642 -0.3521
  728TMC3    O110769   1.998   0.337  14.875 -0.0834  0.0412  0.3586
  728TMC3    O210770   2.287   4.652  15.198 -0.1001 -0.8950 -0.1912
  729MPD2     C10771   4.161   1.217  16.916  0.0845 -0.3638  0.4656
  729MPD2    C110772   4.253   1.110  16.915  0.3155 -0.6566 -0.4311
  729MPD2    C210773   4.311   1.072  17.036  0.5266 -0.2523 -0.6706
  729MPD2    C310774   4.282   1.145  17.154 -0.2842  0.1785  0.2818
  729MPD2    C410775   4.190   1.247  17.156 -0.6344 -0.0803 -0.3756
  729MPD2    C510776   4.125   1.278  17.036  0.2513  0.0395  0.3671
  729MPD2     H10777   4.372   0.982  17.034  1.2311  0.2407 -1.4346
  729MPD2    H110778   4.159   1.305  17.242  1.2697  1.5024 -0.7629
  729MPD2    H210779   4.124   1.253  16.820 -1.4593 -0.6876  0.9382
  729MPD2    H310780   4.046   1.352  17.038 -2.4302 -2.7377 -2.4533
  729MPD2     N10781   4.353   1.118  17.274 -0.3426 -0.4788  0.8556
  729MPD2    H510782   4.349   1.191  17.345 -0.6938 -0.8671  1.2346
  729MPD2    N110783   4.303   1.058  16.792  0.4950  0.1819 -0.3187
  729MPD2    H710784   4.283   1.093  16.698  1.1181  0.6969 -0.2648
  730TMC3    C110785   4.548   1.056  17.396 -0.6485 -0.4358 -0.1958
  730TMC3    C210786   4.672   0.999  17.363 -0.8046 -0.1682  0.3691
  730TMC3    C310787   0.059   1.075  17.369  0.3675  0.2405  0.2146
  730TMC3    C410788   4.545   1.182  17.441 -0.4977  0.7559 -1.1238
  730TMC3    C510789   4.660   1.252  17.461 -0.0113 -0.8089  0.2299
  730TMC3    C610790   0.056   1.200  17.417 -0.8113  0.3538  0.0694
  730TMC3     C10791   4.447   1.022  17.295 -0.1746 -0.3157 -0.7820
  730TMC3     O10792   4.478   0.929  17.217 -0.2917  0.1099 -0.2455
  730TMC3     H10793   4.691   0.900  17.324  0.4256  1.1078 -2.2956
  730TMC3    H110794   4.452   1.227  17.474 -1.3634 -3.4594  2.1597
  730TMC3    H210795   0.147   1.260  17.418  0.6184 -1.8575  1.4928
  730TMC3    C710796   4.647   1.388  17.426  0.8054  0.6943  0.4943
  730TMC3    C810797   0.148   1.058  17.248  0.5460 -0.2935  0.4318
  730TMC3    O110798   0.012   1.426  17.350  0.1487 -0.6381 -0.4112
  730TMC3    O210799   0.139   0.955  17.183 -0.2086  0.2804  0.3564
  731MPD2     C10800   4.113   3.674  12.069  0.8841  0.1972  0.2940
  731MPD2    C110801   4.249   3.672  12.055  0.8364  0.2364 -0.4831
  731MPD2    C210802   4.329   3.659  12.171  0.7534  0.1956 -0.6209
  731MPD2    C310803   4.259   3.643  12.292 -0.3359 -0.3109  0.2503
  731MPD2    C410804   4.118   3.635  12.300 -0.6259  0.4503  0.0120
  731MPD2    C510805   4.046   3.651  12.185  1.1716  0.8325  0.2094
  731MPD2     H10806   4.437   3.668  12.166  0.7058  0.7778 -0.6167
  731MPD2    H110807   4.059   3.612  12.387  0.1567 -0.1887  0.3765
  731MPD2    H210808   4.055   3.694  11.979  0.1895  0.7331  0.8568
  731MPD2    H310809   3.938   3.655  12.192  1.0626 -2.5511  0.2458
  731MPD2     N10810   4.345   3.620  12.403 -0.1617  0.2464 -0.4739
  731MPD2    H510811   4.444   3.617  12.383  0.3443 -1.1157  2.2288
  731MPD2    N110812   4.301   3.692  11.925 -0.1275  0.3471 -0.3364
  731MPD2    H710813   4.228   3.701  11.855 -0.7616  0.7312  0.3744
  732TMC3    C110814   4.455   3.717  11.744  0.2932 -0.6362  0.4922
  732TMC3    C210815   4.357   3.760  11.665  0.2216  0.5369 -0.3309
  732TMC3    C310816   4.378   3.784  11.530 -0.5041 -0.0502  0.5045
  732TMC3    C410817   4.581   3.701  11.694 -0.5369 -0.0455  0.2244
  732TMC3    C510818   4.603   3.723  11.559 -0.2685 -0.1005  0.0497
  732TMC3    C610819   4.503   3.765  11.474  0.1566  0.1154  0.3055
  732TMC3     C10820   4.434   3.717  11.891 -0.0492  0.8225 -0.2239
  732TMC3     O10821   4.535   3.717  11.956 -0.5026 -0.4883  0.4521
  732TMC3     H10822   4.269   3.805  11.709  0.2123 -1.0961  1.3107
  732TMC3    H110823   4.661   3.670  11.760 -1.0595  0.5743  1.1547
  732TMC3    H210824   4.513   3.788  11.369 -0.0246 -0.8121  0.0839
  732TMC3    C710825   0.007   3.678  11.504  0.2889  0.1518 -0.0700
  732TMC3    C810826   4.291   3.863  11.459  0.1218  0.1423 -0.0687
  732TMC3    O110827   0.007   3.617  11.395  0.0235  0.3025  0.2356
  732TMC3    O210828   4.337   3.948  11.381  0.4262 -0.4220 -0.2079
  733TMC3    C110829   0.311   2.795  12.694 -0.1213  0.7182 -0.1693
  733TMC3    C210830   0.429   2.786  12.761 -0.6237  0.6014 -0.3335
  733TMC3    C310831   0.531   2.869  12.725  0.1874 -0.7065  0.2254
  733TMC3    C410832   0.297   2.892  12.596 -0.3623  0.5666 -0.5846
  733TMC3    C510833   0.396   2.984  12.569 -0.6012  0.2691  0.7283
  733TMC3    C610834   0.517   2.975  12.640  0.7232 -0.0084 -0.1729
  733TMC3     C10835   0.187   2.757  12.759 -0.1166  0.0008 -0.0479
  733TMC3     O10836   0.092   2.826  12.727 -0.7849 -0.2389 -0.2679
  733TMC3     H10837   0.441   2.720  12.846  0.8662  0.3071 -0.7792
  733TMC3    H110838   0.196   2.905  12.558 -0.8313 -0.4655  0.2790
  733TMC3    H210839   0.600   3.043  12.621  0.9947  0.3567  2.3005
  733TMC3    C710840   0.370   3.092  12.485 -0.7376 -0.1156  0.1685
  733TMC3    C810841   0.653   2.873  12.808  0.1708 -0.2425  0.2870
  733TMC3    O110842   0.253   3.128  12.473  0.5930 -0.6667  0.0341
  733TMC3    O210843   0.647   2.829  12.923 -0.3647 -0.0227  0.0559
  734MPD2     C10844   2.605   4.683  12.487  0.3069 -0.4439  0.0025
  734MPD2    C110845   2.535   4.604  12.402  0.2845 -0.3378 -0.3871
  734MPD2    C210846   2.577   4.604  12.269  0.0178 -0.7725  0.4894
  734MPD2    C310847   2.684   4.675  12.223  0.2358  0.5964 -0.1980
  734MPD2    C410848   2.751   0.031  12.312 -0.2433 -0.6967 -0.3425
  734MPD2    C510849   2.708   0.034  12.442  0.3406 -0.2822 -0.3350
  734MPD2     H10850   2.520   4.548  12.196 -1.8614  2.4167 -0.4635
  734MPD2    H110851   2.832   0.098  12.284 -1.4733  0.6127 -0.7525
  734MPD2    H210852   2.575   4.696  12.590  1.2583 -0.9183  0.3447
  734MPD2    H310853   2.751   0.099  12.517 -0.7420  1.6733 -1.4284
  734MPD2     N10854   2.712   4.662  12.087 -0.1257 -0.7862  0.3589
  734MPD2    H510855   2.647   4.605  12.034  0.1228  0.7402 -1.5621
  734MPD2    N110856   2.433   4.523  12.456  0.1504  0.4761 -0.4955
  734MPD2    H710857   2.416   4.531  12.556  0.2821  0.0755 -0.4445
  735TMC3    C110858   2.258   4.354  12.449 -0.4153 -0.8249 -0.0621
  735TMC3    C210859   2.165   4.308  12.357 -0.6166 -0.3007 -0.7671
  735TMC3    C310860   2.168   4.172  12.336  0.6093  0.7894  0.8918
  735TMC3    C410861   2.321   4.273  12.540 -0.3871 -0.0005 -0.7844
  735TMC3    C510862   2.310   4.140  12.521  0.8037  0.0198 -0.2192
  735TMC3    C610863   2.237   4.090  12.420 -0.6441 -0.2487  0.1463
  735TMC3     C10864   2.334   4.462  12.382  0.0918 -1.1887 -0.4596
  735TMC3     O10865   2.319   4.479  12.259 -0.3290 -0.6332 -0.1680
  735TMC3     H10866   2.098   4.374  12.304  0.5735 -0.3371 -2.3049
  735TMC3    H110867   2.385   4.325  12.609 -2.8503  2.5680 -0.4416
  735TMC3    H210868   2.238   3.985  12.394  0.0190 -0.1897 -0.0888
  735TMC3    C710869   2.438   4.075  12.539  0.0873 -0.0698 -0.0535
  735TMC3    C810870   2.172   4.127  12.196  0.3326  0.0325 -0.4761
  735TMC3    O110871   2.533   4.147  12.556 -0.0801 -0.3165 -0.1396
  735TMC3    O210872   2.156   4.013  12.161  0.1828 -0.7798  0.7709
  736MPD2     C10873   2.550   3.722  12.553  0.1238 -0.5742 -0.1310
  736MPD2    C110874   2.558   3.856  12.514 -0.7047  0.3878 -0.3307
  736MPD2    C210875   2.668   3.912  12.457 -0.0983  0.2535  0.4749
  736MPD2    C310876   2.778   3.835  12.447 -0.6885 -0.5244 -0.0443
  736MPD2    C410877   2.775   3.705  12.492  0.4032 -0.8888 -0.2904
  736MPD2    C510878   2.662   3.651  12.529  0.0148 -0.2126 -0.2023
  736MPD2     H10879   2.654   4.007  12.406  0.9622 -0.7069 -1.6179
  736MPD2    H110880   2.866   3.646  12.497  1.1104  0.1887 -0.3956
  736MPD2    H210881   2.458   3.683  12.595 -1.6510 -0.6237 -4.0936
  736MPD2    H310882   2.668   3.548  12.563 -1.3680 -0.2742 -0.1435
  736MPD2     N10883   2.888   3.882  12.372 -0.8640  0.4443  0.4724
  736MPD2    H510884   2.958   3.815  12.343 -0.4635  0.0590  2.3816
  736MPD2    N110885   2.439   3.936  12.520 -0.0273 -0.5026 -0.2312
  736MPD2    H710886   2.351   3.890  12.541 -0.2140  0.3359  0.8698
  737TMC3    C110887   2.974   4.037  12.215  0.1904 -0.4149 -0.5361
  737TMC3    C210888   2.933   4.148  12.148 -0.2971  0.0122  0.2416
  737TMC3    C310889   2.970   4.159  12.019  0.2959 -0.0160  0.8222
  737TMC3    C410890   3.053   3.945  12.160  0.1465  0.7331  0.5353
  737TMC3    C510891   3.088   3.959  12.027 -0.2490 -0.3972 -0.1179
  737TMC3    C610892   3.042   4.062  11.951 -0.5671 -0.0230 -0.4463
  737TMC3     C10893   2.901   4.013  12.338  0.0508  0.5083  0.1349
  737TMC3     O10894   2.858   4.116  12.396 -0.1073  0.9330  0.2532
  737TMC3     H10895   2.880   4.225  12.202  0.9665  0.0701  1.3921
  737TMC3    H110896   3.067   3.851  12.212 -0.6164 -0.0611 -0.6943
  737TMC3    H210897   3.079   4.075  11.850 -0.3572  0.3926 -0.3153
  737TMC3    C710898   3.183   3.860  11.981  0.1184 -0.2089 -0.3077
  737TMC3    C810899   2.954   4.292  11.968 -0.5158 -0.0020 -0.7535
  737TMC3    O110900   3.216   3.767  12.048  0.1887 -0.3792  0.0070
  737TMC3    O210901   2.979   4.389  12.039 -0.8709 -0.0816 -0.4312
  738MPD2     C10902   3.548   3.065  15.237 -0.3410 -0.4535 -0.6528
  738MPD2    C110903   3.459   3.037  15.130  0.4002  0.0975 -0.7281
  738MPD2    C210904   3.477   3.112  15.019  0.1746 -0.5794 -0.2170
  738MPD2    C310905   3.579   3.213  15.003  0.6268  0.2400 -0.7935
  738MPD2    C410906   3.663   3.236  15.111 -0.6504  0.1756  0.6966
  738MPD2    C510907   3.650   3.158  15.222 -0.9213 -0.4820  0.0086
  738MPD2     H10908   3.409   3.091  14.937 -0.4168 -1.7250  0.5545
  738MPD2    H110909   3.749   3.301  15.104 -0.6873  0.0818 -0.7803
  738MPD2    H210910   3.549   3.018  15.334 -0.5452  0.7974 -0.0411
  738MPD2    H310911   3.704   3.172  15.315 -2.7471 -1.3065  1.1814
  738MPD2     N10912   3.600   3.297  14.889  0.2129  0.0103 -0.7011
  738MPD2    H510913   3.677   3.363  14.882 -0.4774  0.8841 -0.0862
  738MPD2    N110914   3.351   2.947  15.140 -0.5228 -0.3586 -0.0312
  738MPD2    H710915   3.282   2.945  15.066 -2.7440  0.1062  2.0291
  739TMC3    C110916   3.557   3.389  14.680  0.1523  0.1939  0.4141
  739TMC3    C210917   3.542   3.361  14.551 -0.2449 -0.5717 -0.2812
  739TMC3    C310918   3.581   3.446  14.457  0.2232 -0.1221 -0.1515
  739TMC3    C410919   3.610   3.509  14.719 -0.0116 -0.0887 -0.5194
  739TMC3    C510920   3.635   3.604  14.627  0.0785 -0.0743 -0.0330
  739TMC3    C610921   3.616   3.575  14.487  0.2072 -0.0699  0.0275
  739TMC3     C10922   3.508   3.301  14.787  0.0649 -0.4586  0.8247
  739TMC3     O10923   3.406   3.241  14.751 -0.3789  0.1381 -1.1044
  739TMC3     H10924   3.526   3.260  14.515  2.3930 -1.2816  0.5385
  739TMC3    H110925   3.617   3.532  14.824 -0.6484 -0.0068 -0.4960
  739TMC3    H210926   3.660   3.637  14.410  0.1543 -0.7295 -0.5407
  739TMC3    C710927   3.657   3.744  14.668  0.0974  0.0454  1.1259
  739TMC3    C810928   3.545   3.416  14.321  0.1870 -0.2587 -0.7501
  739TMC3    O110929   3.662   3.777  14.787 -0.1326 -0.0047 -0.2109
  739TMC3    O210930   3.462   3.326  14.303 -0.2872 -0.0004 -0.2716
  740TMC3    C110931   4.042   4.603  14.061 -0.3016  0.2525  0.4148
  740TMC3    C210932   4.083   4.584  14.190  0.2881  0.9618 -0.5246
  740TMC3    C310933   4.211   4.593  14.222 -0.0675 -0.7917 -0.0082
  740TMC3    C410934   4.120   4.643  13.953 -0.4215  0.6598 -0.2512
  740TMC3    C510935   4.252   4.657  13.997 -0.6151  0.0028 -0.0445
  740TMC3    C610936   4.296   4.640  14.128  0.1039 -0.2410  0.0905
  740TMC3     C10937   3.915   4.558  14.024  0.1421  0.0533  0.1070
  740TMC3     O10938   3.893   4.549  13.905 -0.0642  0.1886 -0.2430
  740TMC3     H10939   4.010   4.563  14.267  1.9721 -0.2160  0.7612
  740TMC3    H110940   4.092   4.668  13.851  0.4026 -1.6449 -1.0374
  740TMC3    H210941   4.400   4.655  14.152 -0.0951  1.6573 -0.1859
  740TMC3    C710942   4.356   4.622  13.900  1.0168  0.0975  0.1627
  740TMC3    C810943   4.248   4.608  14.354  0.4640  0.7286 -0.2137
  740TMC3    O110944   4.454   4.566  13.952 -0.2924  0.2066 -0.4240
  740TMC3    O210945   4.345   4.673  14.379  0.3405 -0.1173  0.2527
  741TMC3    C110946   3.287   3.843  13.510 -0.5768  0.3056  0.3602
  741TMC3    C210947   3.196   3.800  13.610 -0.3123  0.7861 -0.5516
  741TMC3    C310948   3.241   3.702  13.692  0.0487 -0.2524  0.5020
  741TMC3    C410949   3.414   3.792  13.503 -0.4174 -0.3043 -0.5673
  741TMC3    C510950   3.448   3.685  13.594 -0.5602 -0.6787 -0.7824
  741TMC3    C610951   3.360   3.649  13.694 -0.4608 -0.3193  0.2416
  741TMC3     C10952   3.264   3.974  13.442  0.0899  0.0515  0.4568
  741TMC3     O10953   3.357   4.029  13.390  0.1012  0.4002 -0.0078
  741TMC3     H10954   3.096   3.841  13.612 -0.6820 -0.0823 -0.9708
  741TMC3    H110955   3.499   3.833  13.451  0.4555 -0.6735  0.5683
  741TMC3    H210956   3.382   3.564  13.757 -0.9339 -0.7115 -0.1255
  741TMC3    C710957   3.517   3.570  13.540  0.7037  1.1848 -0.7879
  741TMC3    C810958   3.139   3.623  13.755  0.9653 -0.0299 -0.0569
  741TMC3    O110959   3.460   3.461  13.535  0.4741 -0.3198  0.1314
  741TMC3    O210960   3.037   3.623  13.690  0.5488 -0.6552  0.0372
  742TMC3    C110961   3.151   2.180  15.640 -0.2938  0.3325 -0.2309
  742TMC3    C210962   3.135   2.175  15.504 -0.4461 -0.1377 -0.8743
  742TMC3    C310963   3.214   2.252  15.426  0.2132  0.4996 -0.6786
  742TMC3    C410964   3.255   2.238  15.700 -0.2609 -0.0226  0.1521
  742TMC3    C510965   3.351   2.279  15.615 -0.0009  0.0168  0.2310
  742TMC3    C610966   3.333   2.292  15.479 -0.4256  0.3574  0.0871
  742TMC3     C10967   3.079   2.071  15.718  0.1418 -0.6554 -0.2399
  742TMC3     O10968   3.102   2.076  15.836  0.4846  0.2988 -0.1524
  742TMC3     H10969   3.035   2.148  15.470 -0.1146 -1.5996 -0.6826
  742TMC3    H110970   3.273   2.227  15.806  0.2973 -0.3988  0.0196
  742TMC3    H210971   3.403   2.345  15.417 -0.9374  0.6778 -0.2134
  742TMC3    C710972   3.472   2.335  15.679  0.2552 -0.0478  0.2665
  742TMC3    C810973   3.187   2.264  15.282 -0.6550  0.2792  0.1220
  742TMC3    O110974   3.455   2.359  15.799  0.4651 -0.2061  0.5952
  742TMC3    O210975   3.111   2.190  15.231 -0.5240 -0.1136  0.1138
  743MPD2     C10976   0.636   3.032   1.605  0.4504  0.1442  0.3145
  743MPD2    C110977   0.730   3.112   1.541  0.8531 -0.3261 -0.2583
  743MPD2    C210978   0.854   3.131   1.594 -0.6398 -0.5532  0.3221
  743MPD2    C310979   0.891   3.052   1.701 -0.3036 -0.2474 -0.4074
  743MPD2    C410980   0.799   2.974   1.771 -0.6665 -0.2371 -0.4323
  743MPD2    C510981   0.669   2.966   1.725 -0.5921 -0.1544 -0.3929
  743MPD2     H10982   0.936   3.182   1.546  1.1241 -2.1720  1.6503
  743MPD2    H110983   0.829   2.915   1.857 -1.4045 -1.2022 -0.8436
  743MPD2    H210984   0.539   3.024   1.556  0.0317 -0.0049  1.1784
  743MPD2    H310985   0.586   2.920   1.777 -0.5662  1.6528  1.2352
  743MPD2     N10986   1.027   3.065   1.747 -0.7268 -0.2057  0.8711
  743MPD2    H510987   1.079   3.140   1.704  0.2267 -0.5541  1.4029
  743MPD2    N110988   0.685   3.179   1.428  0.4691  0.6893  0.1779
  743MPD2    H710989   0.591   3.161   1.394  1.0513 -0.5576 -0.7878
  744TMC3    C110990   0.680   3.310   1.238  0.2196 -0.2435 -0.7298
  744TMC3    C210991   0.567   3.380   1.258 -0.0640  0.0767 -0.3402
  744TMC3    C310992   0.511   3.443   1.144  0.3166  0.2604 -0.3141
  744TMC3    C410993   0.749   3.326   1.118  0.2202 -0.5797  0.2676
  744TMC3    C510994   0.686   3.379   1.005 -0.6859 -0.0924 -0.9865
  744TMC3    C610995   0.570   3.442   1.019 -0.1589  0.6449 -0.0500
  744TMC3     C10996   0.762   3.248   1.339  0.0181  0.3058  0.1952
  744TMC3     O10997   0.877   3.290   1.350 -0.2385 -0.2433 -0.5957
  744TMC3     H10998   0.512   3.382   1.352  0.5038 -0.3208  0.0013
  744TMC3    H110999   0.846   3.278   1.113  0.4289 -0.2965  1.5484
  744TMC3    H211000   0.530   3.493   0.932  0.3731  1.2583  0.0687
  744TMC3    C711001   0.777   3.428   0.902  0.3333 -0.5048  0.3889
  744TMC3    C811002   0.443   3.569   1.175  0.5484  0.1780 -0.1729
  744TMC3    O111003   0.868   3.351   0.877  0.1692  0.2256  0.0950
  744TMC3    O211004   0.489   3.668   1.120 -0.6308  0.4199 -0.0224
  745TMC3    C111005   4.019   2.228  13.639 -0.3515 -0.0049  0.0331
  745TMC3    C211006   3.959   2.174  13.748  0.8105  0.3952  0.3703
  745TMC3    C311007   3.826   2.141  13.736  0.4633  0.3674  0.3926
  745TMC3    C411008   3.948   2.252  13.528 -0.5282  0.1706  0.1556
  745TMC3    C511009   3.813   2.230  13.522  0.7810 -0.0003  0.9044
  745TMC3    C611010   3.749   2.171  13.625 -0.0180 -0.2269  0.0519
  745TMC3     C11011   4.167   2.235  13.642  0.1852 -0.3192 -0.5331
  745TMC3     O11012   4.225   2.159  13.718 -0.2593 -0.4999 -0.0843
  745TMC3     H11013   4.022   2.131  13.826 -0.4850 -1.7898  0.2185
  745TMC3    H111014   4.004   2.279  13.439 -1.7009 -0.0772 -0.6558
  745TMC3    H211015   3.641   2.174  13.636  0.0577  0.7783  0.6182
  745TMC3    C711016   3.726   2.298  13.430 -0.5364 -0.1331  0.0735
  745TMC3    C811017   3.753   2.127  13.869  0.1856 -0.5464  0.0327
  745TMC3    O111018   3.610   2.262  13.421  0.5100 -0.3402 -0.3796
  745TMC3    O211019   3.630   2.130  13.875  0.6079 -0.4286  0.1672
  746TMC3    C111020   1.842   3.837  11.130 -0.3338 -0.0102 -0.4001
  746TMC3    C211021   1.883   3.848  11.000 -0.5326  0.4266 -0.0287
  746TMC3    C311022   1.834   3.768  10.899  0.6505 -0.2445  0.1893
  746TMC3    C411023   1.745   3.742  11.158 -0.1523  0.1519 -0.1673
  746TMC3    C511024   1.698   3.656  11.056 -0.2531 -0.4740  0.0136
  746TMC3    C611025   1.735   3.673  10.927 -0.0985 -0.4302  0.8094
  746TMC3     C11026   1.818   3.966  11.204 -0.5427 -0.2644 -0.5364
  746TMC3     O11027   1.741   3.966  11.302  0.1718  0.3320 -0.0484
  746TMC3     H11028   1.968   3.915  10.990 -0.7869  0.6354 -0.7737
  746TMC3    H111029   1.694   3.739  11.254 -2.7176 -2.0490 -1.5688
  746TMC3    H211030   1.703   3.609  10.845 -0.1454  0.4260  0.1620
  746TMC3    C711031   1.568   3.594  11.067 -1.3021  0.2303  0.1329
  746TMC3    C811032   1.877   3.779  10.758 -0.0986  0.3523  1.2889
  746TMC3    O111033   1.505   3.610  10.968 -0.5004 -0.0360  0.2129
  746TMC3    O211034   1.852   3.679  10.686  0.3740 -0.3052 -0.3391
  747TMC3    C111035   3.286   3.820  10.927  1.7662  0.0480  0.1226
  747TMC3    C211036   3.265   3.776  11.054 -0.5627 -0.8562  0.8103
  747TMC3    C311037   3.320   3.835  11.160  0.0342  0.4889 -0.1103
  747TMC3    C411038   3.378   3.915  10.892 -0.1151 -0.0676 -0.2800
  747TMC3    C511039   3.448   3.964  11.002 -0.1337 -0.5874 -0.5926
  747TMC3    C611040   3.418   3.928  11.131 -0.2092  0.1405 -0.0077
  747TMC3     C11041   3.180   3.784  10.834  0.3244  0.5232  0.8441
  747TMC3     O11042   3.070   3.763  10.881 -0.6986  0.2123 -0.0638
  747TMC3     H11043   3.195   3.700  11.083 -0.1929 -0.8960  1.5924
  747TMC3    H111044   3.392   3.941  10.788  0.7670  1.8651  0.3211
  747TMC3    H211045   3.468   3.983  11.210 -1.0438  1.1077 -0.1606
  747TMC3    C711046   3.540   4.075  10.973 -0.0582  0.1648 -0.3189
  747TMC3    C811047   3.348   3.747  11.277  0.2495 -0.0143 -0.1229
  747TMC3    O111048   3.610   4.120  11.064 -0.4621 -0.0751  0.1098
  747TMC3    O211049   3.371   3.628  11.258  0.5731  0.6533 -0.6118
  748MPD2     C11050   0.630   0.781   1.468  0.8393  0.3061 -0.0646
  748MPD2    C111051   0.654   0.649   1.477 -0.6109 -0.0701 -0.2247
  748MPD2    C211052   0.777   0.601   1.435 -0.3639  0.0699 -0.0262
  748MPD2    C311053   0.871   0.675   1.369 -0.5993  0.4565  0.5881
  748MPD2    C411054   0.832   0.806   1.346  0.6810 -0.2686 -0.0301
  748MPD2    C511055   0.711   0.862   1.392 -1.0180  0.4449  0.4519
  748MPD2     H11056   0.786   0.493   1.429  0.7316  0.1211  0.7354
  748MPD2    H111057   0.897   0.868   1.287  0.8807  0.5838  1.0830
  748MPD2    H211058   0.545   0.824   1.520 -1.1785 -1.9543 -1.5374
  748MPD2    H311059   0.688   0.966   1.372  0.3403  0.3258 -1.7617
  748MPD2     N11060   0.990   0.613   1.328 -0.0800  0.2648 -0.3106
  748MPD2    H511061   1.002   0.515   1.354  0.5468  0.3231 -0.3905
  748MPD2    N111062   0.550   0.574   1.536 -0.1621 -0.2673 -0.3810
  748MPD2    H711063   0.460   0.620   1.543  0.3235  0.6502 -0.1754
  749TMC3    C111064   1.212   0.584   1.240  0.0252  0.2509 -0.0716
  749TMC3    C211065   1.248   0.512   1.352 -0.4452 -0.4735  0.8586
  749TMC3    C311066   1.376   0.467   1.350 -0.3539  0.7352  0.0927
  749TMC3    C411067   1.313   0.637   1.154 -0.2754  0.0598 -0.2043
  749TMC3    C511068   1.440   0.589   1.155 -0.0059 -0.4488  0.5982
  749TMC3    C611069   1.469   0.498   1.253  0.6555 -0.7273  0.4104
  749TMC3     C11070   1.098   0.671   1.259 -0.5776  0.2542  0.5346
  749TMC3     O11071   1.101   0.773   1.194  0.4550  0.2244 -0.4334
  749TMC3     H11072   1.182   0.483   1.433 -1.2223  0.4906  0.5755
  749TMC3    H111073   1.283   0.722   1.094  0.4757  0.1467 -0.4427
  749TMC3    H211074   1.573   0.477   1.275  0.1706 -2.6169  0.9240
  749TMC3    C711075   1.539   0.696   1.165 -0.2123  0.0638  0.0708
  749TMC3    C811076   1.403   0.370   1.452  0.2523 -0.4514 -0.3109
  749TMC3    O111077   1.628   0.694   1.251  0.7489  0.2764  0.6597
  749TMC3    O211078   1.350   0.385   1.565  0.1717  0.2181  0.5096
  750MPD2     C11079   1.940   0.554  10.847 -0.4318 -0.8173  0.5307
  750MPD2    C111080   1.820   0.541  10.780  0.7318  0.7813  0.5042
  750MPD2    C211081   1.807   0.462  10.672 -0.2572  0.8013 -0.2393
  750MPD2    C311082   1.912   0.389  10.624  0.3986  0.2178 -0.0898
  750MPD2    C411083   2.031   0.394  10.694  0.0544  0.1191  0.0981
  750MPD2    C511084   2.049   0.485  10.798  0.3216 -0.2139 -0.1533
  750MPD2     H11085   1.709   0.460  10.628 -0.7630 -1.5373  0.9927
  750MPD2    H111086   2.116   0.336  10.661 -0.9087 -1.6451  0.7232
  750MPD2    H211087   1.962   0.624  10.927 -0.6333 -0.9745  0.7209
  750MPD2    H311088   2.142   0.487  10.854  0.4422 -0.4834 -0.3461
  750MPD2     N11089   1.894   0.301  10.513  0.3907  0.1065 -0.0829
  750MPD2    H511090   1.979   0.246  10.499 -0.0423 -0.2286 -1.3378
  750MPD2    N111091   1.704   0.606  10.839  0.6037  0.1816 -0.1856
  750MPD2    H711092   1.721   0.666  10.920  0.8181  0.1677 -0.2218
  751TMC3    C111093   1.786   0.200  10.340  0.1427 -0.3967  0.1026
  751TMC3    C211094   1.683   0.125  10.290 -0.4430 -0.0354 -0.2514
  751TMC3    C311095   1.692   0.040  10.177  0.2974  1.0522  0.3030
  751TMC3    C411096   1.893   0.211  10.264  0.0137  0.4229 -0.1895
  751TMC3    C511097   1.907   0.132  10.148  1.3510 -0.2168  0.4011
  751TMC3    C611098   1.805   0.045  10.104 -0.4860  0.2148  0.3473
  751TMC3     C11099   1.772   0.282  10.449  0.5735 -0.9010  0.1431
  751TMC3     O11100   1.658   0.314  10.472 -0.4753  0.3304 -0.0853
  751TMC3     H11101   1.585   0.151  10.328  1.1791  2.1680  2.3802
  751TMC3    H111102   1.978   0.274  10.291  1.5907 -1.5150 -0.5873
  751TMC3    H211103   1.815   4.707  10.015  2.6456 -0.4457  1.1447
  751TMC3    C711104   2.014   0.168  10.055  0.0698  0.3272  0.2026
  751TMC3    C811105   1.625   4.638  10.178 -0.0052  0.5757  0.5033
  751TMC3    O111106   2.077   0.276  10.069  0.1866 -0.2836  0.0092
  751TMC3    O211107   1.633   4.565  10.081  0.1115  0.2190  0.7453
  752TMC3    C111108   0.394   0.730  17.270  0.7967  0.4658 -0.8473
  752TMC3    C211109   0.268   0.726  17.327 -0.6219 -0.7048  0.6373
  752TMC3    C311110   0.274   0.751  17.462 -0.0857  0.0931  0.4199
  752TMC3    C411111   0.518   0.739  17.334  0.3787 -0.0914 -0.1967
  752TMC3    C511112   0.513   0.750  17.470 -0.5795  0.6638 -1.0512
  752TMC3    C611113   0.389   0.756  17.540 -0.1415  0.5413 -0.1910
  752TMC3     C11114   0.416   0.699  17.132 -0.3212 -0.1652 -0.5895
  752TMC3     O11115   0.527   0.664  17.095  0.3974 -0.3517  0.2182
  752TMC3     H11116   0.175   0.719  17.273  0.1607  1.1377 -0.9809
  752TMC3    H111117   0.615   0.730  17.287 -0.5672 -0.9364 -2.0078
  752TMC3    H211118   0.386   0.765  17.648  3.1727  2.1933 -0.2341
  752TMC3    C711119   0.636   0.735  17.538 -0.3252  0.4423  0.1774
  752TMC3    C811120   0.150   0.759  17.532  0.7131 -0.2100  0.0725
  752TMC3    O111121   0.745   0.761  17.485 -0.5812 -0.1141  0.5019
  752TMC3    O211122   0.064   0.694  17.473  0.4640  0.2455 -1.1063
  753TMC3    C111123   1.955   2.570  13.565  0.0470 -0.3131 -0.1306
  753TMC3    C211124   2.052   2.545  13.658 -0.4548  0.4126 -0.2472
  753TMC3    C311125   2.111   2.418  13.645 -0.7029 -0.4271  0.5702
  753TMC3    C411126   1.914   2.479  13.469 -0.2463 -0.1355  0.4829
  753TMC3    C511127   1.980   2.355  13.456 -0.5640  0.7702 -0.5696
  753TMC3    C611128   2.085   2.329  13.541  0.3524 -1.1290 -0.6585
  753TMC3     C11129   1.896   2.704  13.570 -0.5000 -0.0452  0.2275
  753TMC3     O11130   1.832   2.740  13.472 -0.4724  0.2547  0.2455
  753TMC3     H11131   2.096   2.619  13.724  2.2594 -1.4884  0.0967
  753TMC3    H111132   1.848   2.516  13.392  0.3457 -0.0318  0.0255
  753TMC3    H211133   2.130   2.230  13.534  1.1822 -1.0201  2.9262
  753TMC3    C711134   1.915   2.256  13.372 -0.6834 -0.1088 -0.4812
  753TMC3    C811135   2.190   2.357  13.760  0.2830 -0.4709  0.8117
  753TMC3    O111136   1.799   2.279  13.342 -0.4041  0.1990  0.8698
  753TMC3    O211137   2.255   2.258  13.743  0.2604 -0.0705  0.0323
  754MPD2     C11138   1.397   0.754  13.149  0.1711 -0.0631 -0.0256
  754MPD2    C111139   1.346   0.632  13.112  0.7670 -0.0030  0.0180
  754MPD2    C211140   1.222   0.625  13.041 -0.1306 -0.8366 -0.0488
  754MPD2    C311141   1.151   0.741  13.019  0.1698  0.3429 -0.6160
  754MPD2    C411142   1.205   0.864  13.059 -0.7475 -0.0523  0.6237
  754MPD2    C511143   1.329   0.866  13.121  0.5391 -0.4919 -0.0028
  754MPD2     H11144   1.188   0.532  12.999  1.4319 -0.3171 -2.4588
  754MPD2    H111145   1.166   0.965  13.050 -0.5666  0.0730  1.2020
  754MPD2    H211146   1.487   0.763  13.209  0.9737 -2.7196 -0.8582
  754MPD2    H311147   1.381   0.958  13.143  1.3221 -0.4544 -1.9919
  754MPD2     N11148   1.023   0.743  12.956  0.1370  0.1505 -0.4422
  754MPD2    H511149   0.966   0.826  12.967  2.1426  1.1917  2.0222
  754MPD2    N111150   1.426   0.528  13.173 -0.2073  0.2155 -0.6240
  754MPD2    H711151   1.514   0.572  13.197  2.1926 -2.5635 -4.1706
  755MPD2     C11152   0.455   1.335  12.651  0.2450  0.0674  0.2504
  755MPD2    C111153   0.380   1.273  12.750 -0.3432  0.4091  0.8154
  755MPD2    C211154   0.428   1.157  12.807 -0.2106 -0.2671 -0.1410
  755MPD2    C311155   0.550   1.102  12.768  0.1973 -0.4852 -0.9141
  755MPD2    C411156   0.624   1.162  12.677 -0.0666  0.1562 -0.7265
  755MPD2    C511157   0.573   1.267  12.613 -0.0371  0.0226 -0.7835
  755MPD2     H11158   0.367   1.107  12.881  0.1245  0.0187  0.3340
  755MPD2    H111159   0.711   1.109  12.641 -2.4643 -3.1253 -1.6684
  755MPD2    H211160   0.440   1.435  12.612 -0.7931 -0.7137 -1.3486
  755MPD2    H311161   0.637   1.298  12.530  1.1024 -1.3926 -0.4335
  755MPD2     N11162   0.604   0.982  12.823 -0.3760  0.0898  0.0810
  755MPD2    H511163   0.693   0.957  12.781 -2.5722 -3.2229 -2.5963
  755MPD2    N111164   0.267   1.334  12.807 -0.1874  0.4224 -0.1171
  755MPD2    H711165   0.219   1.283  12.880  0.8963  1.8551  1.6096
  756MPD2     C11166   1.035   1.745   9.375 -0.5157 -0.1223 -0.0778
  756MPD2    C111167   0.983   1.642   9.448 -0.4961  0.2586  0.2619
  756MPD2    C211168   0.852   1.608   9.440 -0.1575  0.7855  0.0444
  756MPD2    C311169   0.760   1.667   9.360  0.1969 -0.3415 -0.1927
  756MPD2    C411170   0.808   1.775   9.292  0.4335 -0.3204 -0.3262
  756MPD2    C511171   0.950   1.812   9.287 -0.0176 -0.2260  0.3583
  756MPD2     H11172   0.821   1.531   9.510  2.2047  1.1489  1.4497
  756MPD2    H111173   0.749   1.827   9.218 -0.0094 -0.2154  0.1039
  756MPD2    H211174   1.141   1.744   9.351 -0.3173 -0.9831  0.8164
  756MPD2    H311175   0.980   1.889   9.217  1.4660  0.4958  1.7957
  756MPD2     N11176   0.631   1.620   9.363 -0.2551 -0.4594 -0.1317
  756MPD2    H511177   0.610   1.550   9.434  1.0316 -1.0301 -0.3241
  756MPD2    N111178   1.056   1.565   9.538  0.0805  0.0020 -0.1758
  756MPD2    H711179   1.004   1.502   9.598 -0.1971  1.4184  1.0871
  757MPD2     C11180   0.448   0.869   9.692  0.3717  0.1420 -0.7728
  757MPD2    C111181   0.552   0.961   9.689 -0.0685  0.6100  0.0756
  757MPD2    C211182   0.526   1.098   9.652 -0.3744 -0.1095  0.0617
  757MPD2    C311183   0.399   1.132   9.612 -0.3784  0.3701 -0.4978
  757MPD2    C411184   0.301   1.038   9.628 -0.6649 -0.5218 -0.6067
  757MPD2    C511185   0.321   0.905   9.665  1.5069 -0.0054 -0.1677
  757MPD2     H11186   0.600   1.177   9.658 -1.8556  1.1616  1.3273
  757MPD2    H111187   0.195   1.058   9.619 -0.6637 -0.3782 -0.2873
  757MPD2    H211188   0.470   0.770   9.729 -0.0869  0.6224  0.7556
  757MPD2    H311189   0.234   0.847   9.692  1.8582 -0.4499  0.0232
  757MPD2     N11190   0.379   1.260   9.565  0.1920  0.0284 -0.7419
  757MPD2    H511191   0.456   1.326   9.561  0.1793  0.2141  1.5231
  757MPD2    N111192   0.677   0.908   9.723  0.2080  0.2766  0.7246
  757MPD2    H711193   0.670   0.808   9.740 -1.8269 -0.0560 -2.2234
  758MPD2     C11194   1.097   0.789  16.090  0.6459 -0.1426  0.3590
  758MPD2    C111195   1.137   0.759  16.220 -0.0742  0.0127  0.1877
  758MPD2    C211196   1.052   0.797  16.323  0.1714 -0.3927 -0.5451
  758MPD2    C311197   0.919   0.833  16.304  0.1194 -0.2368 -0.4114
  758MPD2    C411198   0.876   0.840  16.173 -0.1212  0.2999  0.2894
  758MPD2    C511199   0.961   0.825  16.072 -0.0394 -0.0957 -0.6183
  758MPD2     H11200   1.088   0.790  16.424 -0.6102 -2.0615 -0.3889
  758MPD2    H111201   0.774   0.850  16.138 -0.2393 -0.1835  0.4904
  758MPD2    H211202   1.163   0.761  16.008  2.5450  1.6057  1.2840
  758MPD2    H311203   0.919   0.821  15.972  2.2461 -0.0814 -1.5723
  758MPD2     N11204   0.829   0.860  16.408 -0.2087  0.9367 -0.2064
  758MPD2    H511205   0.736   0.871  16.368 -0.2637  0.4708 -0.2123
  758MPD2    N111206   1.265   0.698  16.237  0.2533  0.5434  1.1356
  758MPD2    H711207   1.323   0.675  16.157 -0.7861 -0.9961  0.8260
  759MPD2     C11208   3.976   4.008   9.936  0.3169  0.2346  0.0701
  759MPD2    C111209   4.008   3.885   9.888  0.1051 -0.7202 -0.0813
  759MPD2    C211210   4.046   3.868   9.756 -0.7655  0.1380 -0.3672
  759MPD2    C311211   4.042   3.971   9.667 -0.2227  0.2628  0.0974
  759MPD2    C411212   4.018   4.101   9.719  0.1399  0.0303  0.1535
  759MPD2    C511213   3.991   4.120   9.852 -0.5303 -0.3686  0.6736
  759MPD2     H11214   4.056   3.767   9.718  0.7375  0.3849 -0.6345
  759MPD2    H111215   4.003   4.183   9.649  0.9655  1.2944  1.4455
  759MPD2    H211216   3.939   4.026  10.036 -0.5056  3.0166 -0.7450
  759MPD2    H311217   3.966   4.219   9.888 -0.7670 -0.4298  0.6792
  759MPD2     N11218   4.073   3.939   9.531 -0.1531  0.3886  0.0639
  759MPD2    H511219   4.092   3.845   9.497  0.3244  0.5119 -0.0186
  759MPD2    N111220   3.986   3.765   9.968 -0.3510 -0.3842 -0.2093
  759MPD2    H711221   4.016   3.680   9.922 -1.0324 -1.3698  1.1695
  760MPD2     C11222   4.574   0.869  12.002 -0.2112  0.5677 -0.0661
  760MPD2    C111223   4.707   0.888  11.969 -0.4749 -0.0718  0.1873
  760MPD2    C211224   0.066   0.780  11.970  0.8070  0.4817  0.7199
  760MPD2    C311225   0.020   0.654  11.992 -0.6821 -0.4443 -0.1391
  760MPD2    C411226   4.601   0.633  11.997 -0.5350  0.1518  0.2740
  760MPD2    C511227   4.517   0.745  12.003  0.1387 -0.1407 -0.5686
  760MPD2     H11228   0.173   0.801  11.963  0.7999  0.7556  1.4339
  760MPD2    H111229   4.561   0.533  12.006  0.2280 -0.2404 -0.7835
  760MPD2    H211230   4.506   0.953  12.009  0.1002  1.0185 -2.3945
  760MPD2    H311231   4.411   0.734  12.024 -0.1126 -1.3902 -2.4582
  760MPD2     N11232   0.100   0.539  11.992  0.3229 -0.1323  0.0571
  760MPD2    H511233   0.052   0.450  12.001 -1.8258  1.1732  1.3034
  760MPD2    N111234   0.031   1.010  11.925 -0.2038 -0.0743  0.2991
  760MPD2    H711235   0.133   1.010  11.921 -0.2307  1.3764 -0.3200
  761MPD2     C11236   1.304   4.297  10.376 -0.0837 -0.9684  0.1061
  761MPD2    C111237   1.353   4.379  10.478  0.1774  0.5425 -0.2635
  761MPD2    C211238   1.433   4.487  10.446  0.3580 -0.1435 -0.3179
  761MPD2    C311239   1.474   4.506  10.321 -0.2858  0.0917  0.6943
  761MPD2    C411240   1.439   4.425  10.217  0.7101  0.0057 -0.0409
  761MPD2    C511241   1.357   4.317  10.246 -0.3196 -0.2984 -0.0359
  761MPD2     H11242   1.479   4.545  10.526  0.5246 -1.8580  0.8224
  761MPD2    H111243   1.452   4.446  10.111  0.0821  0.1631 -0.0862
  761MPD2    H211244   1.237   4.216  10.400 -1.8679  0.1778 -1.0219
  761MPD2    H311245   1.305   4.253  10.175  0.0006 -2.0110  1.2589
  761MPD2     N11246   1.565   4.615  10.301  0.1490 -0.0110  0.4882
  761MPD2    H511247   1.585   4.680  10.376 -0.0690 -0.6534  1.1045
  761MPD2    N111248   1.335   4.353  10.613 -0.2626  0.4755 -0.4983
  761MPD2    H711249   1.360   4.431  10.672 -0.7596 -0.8384  1.4205
  762MPD2     C11250   1.753   0.055  10.946 -0.0820 -0.1957 -0.9017
  762MPD2    C111251   1.768   4.645  10.920 -0.3847 -0.3135  0.4941
  762MPD2    C211252   1.893   4.597  10.880  0.5349 -0.1774  0.0775
  762MPD2    C311253   1.995   4.677  10.832 -0.0655 -0.2343 -0.7985
  762MPD2    C411254   1.972   0.090  10.840  0.5354  0.0657  0.0655
  762MPD2    C511255   1.851   0.142  10.900  0.0883 -0.0033 -0.3966
  762MPD2     H11256   1.916   4.491  10.874  0.0232 -0.0836 -3.7380
  762MPD2    H111257   2.037   0.168  10.801  0.0745 -0.8386 -2.4873
  762MPD2    H211258   1.655   0.079  10.985 -0.7283 -1.9841 -1.4041
  762MPD2    H311259   1.847   0.250  10.914 -0.4028 -0.2361  1.2637
  762MPD2     N11260   2.108   4.615  10.770 -0.1825  0.7587  0.0025
  762MPD2    H511261   2.119   4.515  10.785  1.0383  0.9523  0.3420
  762MPD2    N111262   1.660   4.559  10.949  0.0670  0.6235  0.1055
  762MPD2    H711263   1.577   4.599  10.992 -0.4249 -0.5628  0.2589
  763MPD2     C11264   2.773   0.603  16.028  0.0108 -1.0025 -0.1935
  763MPD2    C111265   2.907   0.629  16.003 -0.1640  0.5960  0.3638
  763MPD2    C211266   2.975   0.720  16.079  0.4907  0.3235  0.5909
  763MPD2    C311267   2.919   0.786  16.180 -0.3036 -0.0431  0.3263
  763MPD2    C411268   2.789   0.758  16.216  0.0345  0.0864  0.1879
  763MPD2    C511269   2.712   0.682  16.131 -0.1289  0.8056 -0.2416
  763MPD2     H11270   3.081   0.727  16.056  1.1274 -2.1997  2.6059
  763MPD2    H111271   2.741   0.791  16.308  1.0429 -0.3744  0.8838
  763MPD2    H211272   2.711   0.533  15.973 -0.8269 -2.7410  3.0198
  763MPD2    H311273   2.616   0.649  16.166 -1.1585  3.2698 -0.7241
  763MPD2     N11274   3.005   0.870  16.251  0.1718 -0.1402 -0.5362
  763MPD2    H511275   3.104   0.866  16.229  0.7798  1.7167  1.7863
  763MPD2    N111276   2.974   0.558  15.903 -0.2913  0.1052 -0.0305
  763MPD2    H711277   3.059   0.604  15.872 -1.3353 -0.3129 -3.6055
  764MPD2     C11278   1.928   2.085  17.201  0.3911  0.2823 -0.3881
  764MPD2    C111279   1.800   2.129  17.169 -0.5409 -0.3157  0.1121
  764MPD2    C211280   1.700   2.119  17.262 -0.9591 -0.4063 -0.0992
  764MPD2    C311281   1.723   2.070  17.394 -0.2981  0.2107 -0.8841
  764MPD2    C411282   1.851   2.014  17.418 -0.1403 -0.2571 -0.1000
  764MPD2    C511283   1.952   2.035  17.324 -0.2095  0.1290 -0.1730
  764MPD2     H11284   1.603   2.161  17.239 -0.7654 -0.3315 -0.7519
  764MPD2    H111285   1.877   1.958  17.507  1.0866  1.3771  0.5795
  764MPD2    H211286   2.007   2.083  17.127  0.8789  0.5599  0.1261
  764MPD2    H311287   2.054   2.006  17.346 -0.0918  1.0697  0.5247
  764MPD2     N11288   1.628   2.064  17.496  0.1823  0.3337 -0.0389
  764MPD2    H511289   1.534   2.093  17.468  0.9304 -0.0533 -2.9926
  764MPD2    N111290   1.769   2.186  17.043  0.1451 -0.0747  0.2476
  764MPD2    H711291   1.681   2.232  17.026 -0.7027 -1.6072  0.4381
  765MPD2     C11292   0.613   0.082  16.068 -0.5680 -0.0838 -0.5343
  765MPD2    C111293   0.606   0.065  15.933 -0.1166 -0.0889 -0.6627
  765MPD2    C211294   0.713   4.722  15.877  0.5697  0.1031 -0.1466
  765MPD2    C311295   0.826   4.674  15.943  0.2563  0.0593 -0.5756
  765MPD2    C411296   0.828   4.685  16.083  0.2025 -0.5699  0.2985
  765MPD2    C511297   0.721   0.027  16.138 -0.3831 -0.2816  0.4171
  765MPD2     H11298   0.719   4.722  15.769 -0.8293  0.1849 -0.2236
  765MPD2    H111299   0.903   4.648  16.151  0.3318 -0.3061  0.2981
  765MPD2    H211300   0.539   0.131  16.129 -1.2415  0.3583 -1.7071
  765MPD2    H311301   0.715   0.042  16.245 -1.8569 -0.9451  0.4297
  765MPD2     N11302   0.930   4.641  15.860 -0.0680  0.4167 -0.0218
  765MPD2    H511303   0.917   4.644  15.760 -1.6982  1.6081  0.2335
  765MPD2    N111304   0.495   0.116  15.864 -0.0324 -0.3958 -0.2581
  765MPD2    H711305   0.437   0.176  15.922 -1.1243 -2.7492  1.0800
  766MPD2     C11306   0.512   4.554  15.241  0.3132  0.0885 -0.1684
  766MPD2    C111307   0.448   4.672  15.219 -0.2550 -0.5715 -0.3883
  766MPD2    C211308   0.450   4.721  15.091  0.0787 -0.1466  0.0740
  766MPD2    C311309   0.539   4.667  14.995  0.3265  0.6973  0.1101
  766MPD2    C411310   0.609   4.554  15.026  0.4570 -0.4537  0.3888
  766MPD2    C511311   0.600   4.496  15.150 -0.8125 -0.2229 -0.2687
  766MPD2     H11312   0.395   0.087  15.067 -1.1145 -1.0747 -0.6635
  766MPD2    H111313   0.673   4.498  14.959 -1.0274 -0.0704 -1.3660
  766MPD2    H211314   0.512   4.512  15.341  0.3711  2.3488  0.7859
  766MPD2    H311315   0.639   4.395  15.161 -1.6998 -0.1851  3.1843
  766MPD2     N11316   0.565   0.021  14.879 -0.2560  0.1041 -0.0672
  766MPD2    H511317   0.514   0.108  14.866 -2.0417 -1.0140 -0.5810
  766MPD2    N111318   0.389   0.022  15.326 -0.2101  0.2489  0.2172
  766MPD2    H711319   0.424   4.721  15.418 -0.4318 -3.6877 -0.7438
  767MPD2     C11320   0.037   0.455  14.933  0.3636 -0.3347  0.8191
  767MPD2    C111321   0.160   0.406  14.903  0.1012  0.0416  0.5739
  767MPD2    C211322   0.193   0.357  14.777  0.3388  0.5425 -0.3317
  767MPD2    C311323   0.091   0.338  14.686  0.4307 -0.4269 -0.0129
  767MPD2    C411324   4.683   0.359  14.725 -0.2622  0.6553 -0.1545
  767MPD2    C511325   4.654   0.433  14.843  1.0897  0.0401 -0.1125
  767MPD2     H11326   0.295   0.332  14.748  1.0292 -0.8026  3.3326
  767MPD2    H111327   4.603   0.341  14.654 -2.0917  0.6362  1.8833
  767MPD2    H211328   0.019   0.507  15.026 -1.2606 -1.2518  1.0232
  767MPD2    H311329   4.554   0.463  14.869  0.4588 -2.4008  0.2937
  767MPD2     N11330   0.118   0.283  14.560 -0.0461 -0.0836 -0.1624
  767MPD2    H511331   0.213   0.255  14.536  0.1243 -1.4121  2.1169
  767MPD2    N111332   0.256   0.430  15.001  0.6262  0.0754 -0.0912
  767MPD2    H711333   0.224   0.485  15.080 -2.6244 -0.4362 -1.0632
  768MPD2     C11334   1.509   3.304  10.548 -0.3018  0.0773 -0.4222
  768MPD2    C111335   1.467   3.289  10.673 -0.1883 -0.7482 -0.1452
  768MPD2    C211336   1.560   3.290  10.773  0.4033  0.1476 -0.7012
  768MPD2    C311337   1.697   3.299  10.737  0.1468 -0.2815 -0.8582
  768MPD2    C411338   1.733   3.312  10.604  0.8160 -0.0845 -0.6652
  768MPD2    C511339   1.638   3.302  10.508  0.2224 -0.0164  0.2258
  768MPD2     H11340   1.522   3.269  10.872 -0.3988  1.4942 -0.7243
  768MPD2    H111341   1.836   3.317  10.571  0.9000  1.5099 -0.1991
  768MPD2    H211342   1.446   3.300  10.460 -0.3256  0.1087 -0.4066
  768MPD2    H311343   1.666   3.318  10.405  0.8662 -0.9327  0.2639
  768MPD2     N11344   1.800   3.307  10.835  0.0206  0.5059 -0.2695
  768MPD2    H511345   1.893   3.336  10.805  0.8711 -0.6725  1.2156
  768MPD2    N111346   1.329   3.273  10.712  0.3605  0.9661 -0.5253
  768MPD2    H711347   1.308   3.244  10.807  1.9003 -0.4050 -0.6127
  769MPD2     C11348   1.818   1.518  14.796 -0.5248 -0.0057  0.7283
  769MPD2    C111349   1.765   1.417  14.863  0.5244  0.2848  0.1550
  769MPD2    C211350   1.778   1.415  15.005  0.2571 -0.3400 -0.0677
  769MPD2    C311351   1.868   1.513  15.065  1.0975  0.4440 -0.3797
  769MPD2    C411352   1.927   1.608  14.987  0.2230  0.1742 -0.0035
  769MPD2    C511353   1.910   1.607  14.853 -0.3553  0.5284  0.3958
  769MPD2     H11354   1.714   1.354  15.068  1.4923 -1.1772  0.3667
  769MPD2    H111355   2.011   1.670  15.018  0.0274  0.9233 -0.9686
  769MPD2    H211356   1.813   1.514  14.687 -1.2842 -1.2684  0.8121
  769MPD2    H311357   1.982   1.660  14.791  1.8365 -0.6571  1.9197
  769MPD2     N11358   1.897   1.509  15.206  0.2424  0.1366 -0.1319
  769MPD2    H511359   1.845   1.439  15.258 -0.5257  0.3293 -0.6532
  769MPD2    N111360   1.687   1.324  14.792 -0.0228 -0.0228  0.7406
  769MPD2    H711361   1.672   1.346  14.695  1.0289  3.1181  1.2760
  770MPD2     C11362   1.351   0.342  14.812 -0.2079 -0.0921 -0.2813
  770MPD2    C111363   1.444   0.405  14.902  0.1146  0.2318  0.4310
  770MPD2    C211364   1.466   0.542  14.899 -0.4307 -0.4527 -0.9540
  770MPD2    C311365   1.400   0.615  14.806  0.6670  0.2668 -0.5035
  770MPD2    C411366   1.310   0.555  14.725 -0.5048 -0.1436 -0.5848
  770MPD2    C511367   1.280   0.425  14.720  0.6544  0.0848  0.4779
  770MPD2     H11368   1.531   0.593  14.970 -0.8261 -0.5792 -0.5020
  770MPD2    H111369   1.252   0.608  14.650  0.8494  3.4608  0.9207
  770MPD2    H211370   1.312   0.241  14.819 -1.2036  0.2317 -1.0800
  770MPD2    H311371   1.203   0.385  14.656 -0.3699  2.0215  0.5033
  770MPD2     N11372   1.402   0.758  14.821  0.4218  0.3455 -0.4752
  770MPD2    H511373   1.461   0.796  14.895 -2.9238  2.8583  0.8898
  770MPD2    N111374   1.495   0.327  15.003  0.5236  0.2301 -0.2298
  770MPD2    H711375   1.463   0.230  15.000  2.8755 -0.5667  0.2891
  771MPD2     C11376   2.905   4.033  13.856 -0.4335  0.1566  0.0313
  771MPD2    C111377   2.869   4.150  13.788 -0.6029 -0.6791 -0.4937
  771MPD2    C211378   2.754   4.145  13.710 -0.5234 -0.1191  0.6793
  771MPD2    C311379   2.693   4.016  13.687  0.9067 -0.3616  0.2130
  771MPD2    C411380   2.743   3.902  13.748  0.1822  0.6426 -0.3707
  771MPD2    C511381   2.844   3.912  13.836  0.2685 -0.9880  0.1199
  771MPD2     H11382   2.715   4.234  13.661 -1.0891 -0.8280 -0.1527
  771MPD2    H111383   2.702   3.802  13.745  0.5212  0.4789  0.4306
  771MPD2    H211384   2.991   4.027  13.922 -1.3781  0.3762  1.2907
  771MPD2    H311385   2.885   3.825  13.886 -1.9286 -1.6637  0.7562
  771MPD2     N11386   2.582   4.023  13.600  0.0036  0.4638 -1.1254
  771MPD2    H511387   2.558   4.115  13.564  1.6923  0.6940 -1.6745
  771MPD2    N111388   2.933   4.273  13.811 -0.5285  0.1744  0.3617
  771MPD2    H711389   2.895   4.356  13.766 -1.6908  0.1445  1.3018
  772MPD2     C11390   2.809   0.268  13.892 -0.2398  0.3875 -0.2373
  772MPD2    C111391   2.769   0.134  13.911 -0.4619 -0.3073 -0.5066
  772MPD2    C211392   2.636   0.110  13.947  0.7818 -0.3841 -0.3497
  772MPD2    C311393   2.548   0.220  13.943 -0.4380 -0.9617  0.0312
  772MPD2    C411394   2.587   0.350  13.927 -0.3403  0.4295  0.3575
  772MPD2    C511395   2.721   0.373  13.907 -0.0953  0.0110  0.3245
  772MPD2     H11396   2.605   0.007  13.963 -0.6805  0.3292  1.4353
  772MPD2    H111397   2.508   0.424  13.924 -0.6313  0.0997 -0.1284
  772MPD2    H211398   2.910   0.304  13.874  0.9159 -2.4539  0.4835
  772MPD2    H311399   2.761   0.473  13.898  2.2113 -0.8293  1.0651
  772MPD2     N11400   2.413   0.197  13.959 -0.3130  0.1944  0.0328
  772MPD2    H511401   2.354   0.280  13.953  0.0047  0.1499 -3.5840
  772MPD2    N111402   2.864   0.024  13.898 -0.0925  0.1715 -0.1766
  772MPD2    H711403   2.828   4.659  13.933  2.3909  0.3729  2.8555
  773MPD2     C11404   1.889   1.279   0.677 -0.1581 -0.2869 -0.8885
  773MPD2    C111405   1.787   1.210   0.611  0.4034 -0.2071 -0.9241
  773MPD2    C211406   1.799   1.078   0.589  1.0393 -0.6092  0.0042
  773MPD2    C311407   1.913   1.011   0.628  0.1881  0.3047  0.2507
  773MPD2    C411408   2.018   1.081   0.688 -0.2168 -0.6814  0.5763
  773MPD2    C511409   2.000   1.208   0.716 -0.1545 -0.1973  0.3261
  773MPD2     H11410   1.727   1.029   0.526  0.7746  0.2346 -0.3557
  773MPD2    H111411   2.109   1.037   0.729 -1.2242 -1.5772  1.8609
  773MPD2    H211412   1.889   1.385   0.702 -2.3185 -0.4613 -0.1393
  773MPD2    H311413   2.080   1.253   0.774 -1.5525  2.8537 -0.1335
  773MPD2     N11414   1.936   0.876   0.581 -0.1413 -0.0133  1.0536
  773MPD2    H511415   1.869   0.827   0.521  0.5959 -1.3249  1.2983
  773MPD2    N111416   1.669   1.272   0.550 -0.1271 -0.5647 -0.2668
  773MPD2    H711417   1.604   1.204   0.512 -3.1895  1.8669  0.5857
  774MPD2     C11418   1.186   4.248  13.386 -0.0349 -0.9419  0.0560
  774MPD2    C111419   1.094   4.328  13.449  0.2118  0.9577  0.0063
  774MPD2    C211420   1.078   4.464  13.413  0.6564 -0.3663 -0.5921
  774MPD2    C311421   1.162   4.518  13.314  0.0650  0.4936 -0.5450
  774MPD2    C411422   1.254   4.440  13.252 -0.4772  0.7937  0.1571
  774MPD2    C511423   1.262   4.305  13.283  0.1896 -0.1891  0.1516
  774MPD2     H11424   1.005   4.531  13.456  2.6387  0.5593  1.2791
  774MPD2    H111425   1.318   4.475  13.172 -1.0903  0.3741 -0.5199
  774MPD2    H211426   1.203   4.144  13.411 -0.6047 -0.6777  1.5479
  774MPD2    H311427   1.334   4.249  13.225  0.1742  0.8609 -0.9027
  774MPD2     N11428   1.145   4.649  13.275  0.2761 -0.0320  0.1252
  774MPD2    H511429   1.068   4.697  13.322  0.7861  1.1010 -0.1810
  774MPD2    N111430   1.040   4.282  13.571  0.5131  0.1103  0.0424
  774MPD2    H711431   1.089   4.209  13.622  1.1764 -0.2643 -1.1558
  775MPD2     C11432   2.004   1.328  15.878  0.3030  0.4315  0.4313
  775MPD2    C111433   2.043   1.440  15.942  0.0285  0.4276  0.2497
  775MPD2    C211434   2.164   1.492  15.912 -0.2670 -0.1434  0.5844
  775MPD2    C311435   2.251   1.432  15.822  0.5651 -0.4900 -0.4140
  775MPD2    C411436   2.217   1.310  15.764  0.3852 -1.0082 -0.2469
  775MPD2    C511437   2.092   1.262  15.790 -0.0468 -0.5865  0.3564
  775MPD2     H11438   2.194   1.586  15.958 -1.7405  0.6416 -0.0740
  775MPD2    H111439   2.273   1.268  15.681  0.6848 -0.5647 -0.2648
  775MPD2    H211440   1.911   1.278  15.903 -0.0470  0.5081 -0.7178
  775MPD2    H311441   2.064   1.173  15.734 -0.1152 -1.6403  2.0915
  775MPD2     N11442   2.375   1.496  15.778  0.5958 -0.1962 -0.0109
  775MPD2    H511443   2.413   1.454  15.693  0.5131 -0.6805  0.1925
  775MPD2    N111444   1.956   1.496  16.042 -0.1144  0.2540 -0.6288
  775MPD2    H711445   1.885   1.440  16.089  1.7989 -2.8270 -1.3912
  776MPD2     C11446   1.594   1.194  11.230 -0.1018  0.5753  0.5647
  776MPD2    C111447   1.456   1.158  11.215  0.5000  0.6595  0.2780
  776MPD2    C211448   1.357   1.229  11.284  0.0555  0.7348 -0.0540
  776MPD2    C311449   1.398   1.337  11.372  0.0550 -0.1971 -0.2331
  776MPD2    C411450   1.532   1.363  11.378  0.1154  0.4422  0.2822
  776MPD2    C511451   1.626   1.303  11.309  0.1462 -0.6359  0.9113
  776MPD2     H11452   1.252   1.206  11.269  0.5173 -0.7882 -0.8491
  776MPD2    H111453   1.581   1.437  11.440  1.6462 -0.1100 -0.2749
  776MPD2    H211454   1.674   1.153  11.169 -2.8684 -2.7625 -0.8126
  776MPD2    H311455   1.731   1.329  11.307 -0.3076  1.0394 -1.4956
  776MPD2     N11456   1.312   1.412  11.460 -0.1849  0.7993 -0.1497
  776MPD2    H511457   1.349   1.502  11.488 -0.0493  0.5561  0.4681
  776MPD2    N111458   1.418   1.051  11.136  0.1857  0.4222 -0.3028
  776MPD2    H711459   1.321   1.031  11.114  0.5180 -0.1947 -1.2218
  777MPD2     C11460   1.799   4.242   0.711  0.3395 -0.0011 -0.3863
  777MPD2    C111461   1.776   4.172   0.829  0.5466  0.2249  0.0015
  777MPD2    C211462   1.724   4.043   0.820 -0.0191 -0.0102 -0.4706
  777MPD2    C311463   1.690   3.983   0.699 -0.3941 -0.1472 -0.4271
  777MPD2    C411464   1.728   4.050   0.583  0.3246 -0.4109  0.2137
  777MPD2    C511465   1.776   4.179   0.590  0.3412 -0.0121  0.5007
  777MPD2     H11466   1.717   3.984   0.911  2.0707 -0.6975 -0.7467
  777MPD2    H111467   1.698   4.011   0.486  2.7619  4.4271 -2.5013
  777MPD2    H211468   1.850   4.338   0.709  0.5012 -0.0589  0.7553
  777MPD2    H311469   1.799   4.224   0.494  0.5114  0.1913  0.6357
  777MPD2     N11470   1.639   3.859   0.704  0.1382 -0.1265 -0.1125
  777MPD2    H511471   1.586   3.833   0.786  1.0326 -2.4060 -0.2620
  777MPD2    N111472   1.816   4.229   0.954  0.0530  0.3578  0.8690
  777MPD2    H711473   1.866   4.318   0.958 -0.3300  0.6549 -1.0322
  778MPD2     C11474   2.862   4.305  15.145 -0.6063  0.4037  0.5509
  778MPD2    C111475   2.825   4.203  15.065  0.0894 -0.6478 -0.0267
  778MPD2    C211476   2.795   4.233  14.931 -0.0643 -0.0687 -0.0180
  778MPD2    C311477   2.799   4.361  14.877 -0.0163  0.1371 -0.0416
  778MPD2    C411478   2.837   4.464  14.959 -0.2165  0.3939 -0.6824
  778MPD2    C511479   2.870   4.430  15.085 -0.3324 -0.2829  0.4278
  778MPD2     H11480   2.770   4.158  14.857 -1.4674  1.4386 -1.0847
  778MPD2    H111481   2.839   4.566  14.922 -0.9930  0.5181 -0.3719
  778MPD2    H211482   2.873   4.295  15.252  1.0771  0.1936  0.3712
  778MPD2    H311483   2.901   4.516  15.142 -0.8249  0.2568 -0.1249
  778MPD2     N11484   2.775   4.382  14.737  0.3530  0.5390 -0.3118
  778MPD2    H511485   2.735   4.300  14.692 -1.4597  1.3519 -0.1851
  778MPD2    N111486   2.818   4.066  15.106  0.1772 -0.1440  0.8403
  778MPD2    H711487   2.782   4.000  15.038 -1.3966  1.1849  0.4012
  779MPD2     C11488   2.137   3.271  14.655 -0.5579  0.9324  0.4888
  779MPD2    C111489   2.187   3.183  14.565  0.8976  0.2622 -0.2869
  779MPD2    C211490   2.257   3.235  14.452 -0.2121 -0.6481  0.3702
  779MPD2    C311491   2.288   3.370  14.440  0.6810 -0.0627  0.4280
  779MPD2    C411492   2.245   3.453  14.539  0.1350 -0.0047  0.1209
  779MPD2    C511493   2.162   3.403  14.636 -0.4341  0.4978 -0.0523
  779MPD2     H11494   2.294   3.165  14.379  1.0932  1.1962 -0.7468
  779MPD2    H111495   2.256   3.561  14.537  1.4096 -0.1422 -0.4231
  779MPD2    H211496   2.072   3.245  14.738  1.2752  1.5504  2.1093
  779MPD2    H311497   2.114   3.473  14.703 -0.7577 -0.7449  1.0189
  779MPD2     N11498   2.361   3.413  14.320 -0.3035 -0.2021 -0.0544
  779MPD2    H511499   2.387   3.338  14.256 -1.5581 -0.3491 -0.4008
  779MPD2    N111500   2.163   3.045  14.568  0.5727 -0.0764  0.7374
  779MPD2    H711501   2.185   2.998  14.482  0.4195 -2.3694  1.9553
  780MPD2     C11502   1.488   3.017   1.252 -0.3220  0.5973  0.5023
  780MPD2    C111503   1.611   2.965   1.237 -0.0194  0.2571  0.3615
  780MPD2    C211504   1.692   2.999   1.126 -0.2664 -0.5782  0.1337
  780MPD2    C311505   1.638   3.083   1.029  0.2912 -0.7493  0.0739
  780MPD2    C411506   1.511   3.135   1.048  0.1609  0.3217 -0.7854
  780MPD2    C511507   1.437   3.101   1.157  0.0215 -1.1323 -0.2321
  780MPD2     H11508   1.795   2.966   1.121  0.3743  1.6416 -1.0410
  780MPD2    H111509   1.473   3.212   0.982 -1.3957  0.3533  0.1672
  780MPD2    H211510   1.419   2.997   1.334 -0.8135  3.1931  0.7323
  780MPD2    H311511   1.343   3.150   1.180 -0.3034 -0.3010 -3.3421
  780MPD2     N11512   1.723   3.119   0.921 -0.7812 -0.4550 -0.1171
  780MPD2    H511513   1.816   3.078   0.918 -0.7415 -0.3667 -0.0932
  780MPD2    N111514   1.653   2.867   1.325 -0.2543 -0.5145  0.1599
  780MPD2    H711515   1.577   2.848   1.390  1.5719 -0.8076  2.1809
  781MPD2     C11516   4.342   0.218  11.567 -1.0143  1.1075 -0.2135
  781MPD2    C111517   4.329   0.079  11.568 -0.1646 -0.4111 -0.4472
  781MPD2    C211518   4.313   0.010  11.449 -0.2663 -0.7586  0.8259
  781MPD2    C311519   4.314   0.078  11.334  0.7559 -0.3801  0.7687
  781MPD2    C411520   4.340   0.211  11.325 -0.4031  0.1747  0.1696
  781MPD2    C511521   4.354   0.273  11.444  0.3083  0.4987 -0.1743
  781MPD2     H11522   4.305   4.626  11.455 -3.2046 -0.6562 -1.3882
  781MPD2    H111523   4.338   0.262  11.230  2.7195  1.4707  0.8055
  781MPD2    H211524   4.347   0.282  11.655 -2.7943 -0.5774  1.0967
  781MPD2    H311525   4.369   0.380  11.447 -1.1766  0.6639  1.0624
  781MPD2     N11526   4.292   0.017  11.198  0.3641  0.2879  0.1075
  781MPD2    H511527   4.302   0.076  11.116 -0.3136  1.7356  1.0717
  781MPD2    N111528   4.333   0.001  11.686  0.0314  0.5321 -0.5545
  781MPD2    H711529   4.306   4.627  11.675 -1.6032  0.8204  0.8988
  782MPD2     C11530   2.339   0.472  10.237 -0.1314  0.1137  0.2036
  782MPD2    C111531   2.447   0.567  10.228 -0.4254 -0.0462  0.3645
  782MPD2    C211532   2.467   0.650  10.337 -0.1634  0.2451  0.2484
  782MPD2    C311533   2.411   0.627  10.460  0.4085  0.6170  0.2932
  782MPD2    C411534   2.303   0.533  10.472  0.6792 -0.3657 -0.0991
  782MPD2    C511535   2.265   0.464  10.354 -0.1902 -0.4929  0.4778
  782MPD2     H11536   2.553   0.716  10.338 -1.9073  2.5281 -0.7063
  782MPD2    H111537   2.258   0.507  10.567  0.7723 -0.8429 -0.1857
  782MPD2    H211538   2.315   0.404  10.156 -1.0934 -1.2568  1.6315
  782MPD2    H311539   2.181   0.395  10.352 -2.0301  1.7550 -0.3933
  782MPD2     N11540   2.469   0.685  10.577  0.0387  0.7330 -0.6066
  782MPD2    H511541   2.546   0.749  10.562  1.1871 -0.6034 -0.4124
  782MPD2    N111542   2.520   0.599  10.111  0.0771 -0.0828  0.9785
  782MPD2    H711543   2.581   0.680  10.120  0.3411 -0.0708 -0.8355
  783MPD2     C11544   2.198   4.653   9.841 -0.2629 -0.3781  0.5561
  783MPD2    C111545   2.172   0.053   9.903 -0.7473 -0.1372  0.1970
  783MPD2    C211546   2.263   0.158   9.885  0.1979 -0.0825  0.2668
  783MPD2    C311547   2.376   0.137   9.811 -0.4954 -0.0571  0.3514
  783MPD2    C411548   2.395   0.021   9.751  0.7300  0.1434  0.6006
  783MPD2    C511549   2.307   4.647   9.758 -0.3916  0.9448 -0.5037
  783MPD2     H11550   2.263   0.257   9.928  0.4322 -0.3716  0.9234
  783MPD2    H111551   2.482   0.008   9.688  0.2108 -1.0752  0.1425
  783MPD2    H211552   2.131   4.570   9.856  1.3592 -1.3933  2.0902
  783MPD2    H311553   2.322   4.551   9.710  1.6767  1.5267 -1.0027
  783MPD2     N11554   2.472   0.239   9.816  0.1465 -0.7703 -0.1426
  783MPD2    H511555   2.449   0.322   9.870  0.3040 -1.1878  0.5630
  783MPD2    N111556   2.054   0.067   9.979  0.6307 -0.4166  0.3948
  783MPD2    H711557   2.002   4.704   9.979  0.6227 -0.4135  0.0001
  784MPD2     C11558   4.069   0.811   0.983  0.3125 -0.2287  0.5446
  784MPD2    C111559   4.087   0.920   1.062  0.0217  0.7497 -0.4448
  784MPD2    C211560   4.018   1.038   1.029  0.3608 -0.0896  0.9206
  784MPD2    C311561   3.935   1.046   0.921 -0.4857  0.0893 -0.0231
  784MPD2    C411562   3.918   0.935   0.836  0.5810 -0.0393 -0.2868
  784MPD2    C511563   3.984   0.819   0.869  0.1830 -0.6417  0.4799
  784MPD2     H11564   4.036   1.124   1.092 -0.2852  0.3906  0.4517
  784MPD2    H111565   3.859   0.944   0.745  0.5447 -1.9575 -0.4361
  784MPD2    H211566   4.119   0.716   0.997  0.9210  0.2155  1.3937
  784MPD2    H311567   3.975   0.730   0.809  0.5753 -0.7775  0.6201
  784MPD2     N11568   3.887   1.173   0.887  0.3597  0.4106  0.6850
  784MPD2    H511569   3.882   1.247   0.956  0.7545  0.3400  0.7906
  784MPD2    N111570   4.176   0.928   1.170  0.6185 -0.0929 -0.7535
  784MPD2    H711571   4.197   1.019   1.209 -2.0048  0.1944  0.0059
  785MPD2     C11572   4.661   3.816  10.646  0.1232  0.7866 -0.0380
  785MPD2    C111573   4.576   3.915  10.686 -0.4217  0.6394 -0.3438
  785MPD2    C211574   4.452   3.926  10.626  0.2479  0.2246  0.3535
  785MPD2    C311575   4.413   3.847  10.518 -0.0604  0.1338  0.0564
  785MPD2    C411576   4.491   3.741  10.484 -0.5064  0.5009 -0.3979
  785MPD2    C511577   4.610   3.731  10.548  0.2877  0.5880 -0.3320
  785MPD2     H11578   4.397   4.018  10.646 -1.3972 -0.7517  0.3486
  785MPD2    H111579   4.453   3.668  10.413 -0.6545  1.5407 -1.3873
  785MPD2    H211580   0.040   3.808  10.680  0.5524  0.3528 -1.4558
  785MPD2    H311581   4.670   3.647  10.516 -1.8808 -1.3515  0.7043
  785MPD2     N11582   4.303   3.893  10.447  0.0369  0.4875 -0.5406
  785MPD2    H511583   4.256   3.978  10.476  0.8867  0.6112  0.4528
  785MPD2    N111584   4.614   4.026  10.765 -0.3789 -0.1524  0.2912
  785MPD2    H711585   4.549   4.103  10.773  0.4566  0.5579  0.3412
  786MPD2     C11586   3.239   2.474  14.828  0.2975  0.7049 -0.0811
  786MPD2    C111587   3.174   2.363  14.859 -0.7669 -0.3577  0.1290
  786MPD2    C211588   3.169   2.324  14.989 -0.3759 -0.0818 -0.4138
  786MPD2    C311589   3.238   2.398  15.090  0.1171  0.0949  0.5783
  786MPD2    C411590   3.313   2.508  15.042  0.2167 -0.0007  0.8399
  786MPD2    C511591   3.308   2.546  14.915 -0.1002  0.3519 -0.0545
  786MPD2     H11592   3.123   2.228  15.008  1.6248 -1.1691 -1.1999
  786MPD2    H111593   3.377   2.572  15.101  0.4038  3.8017 -3.5091
  786MPD2    H211594   3.258   2.513  14.728  1.1892 -0.2358 -0.2749
  786MPD2    H311595   3.368   2.635  14.899  1.6395 -0.5921  1.1998
  786MPD2     N11596   3.249   2.373  15.226  0.7378  0.4227  0.1852
  786MPD2    H511597   3.315   2.428  15.280  2.5170 -1.2618 -0.2332
  786MPD2    N111598   3.113   2.278  14.765  0.8241 -0.2606  0.0677
  786MPD2    H711599   3.082   2.187  14.798 -2.1369  0.4623 -0.6918
  787MPD2     C11600   2.982   1.514  14.658 -0.3904  0.7934  0.2800
  787MPD2    C111601   3.082   1.608  14.644 -0.1602 -0.7419 -0.0020
  787MPD2    C211602   3.212   1.582  14.692  0.1267  0.0669 -0.0413
  787MPD2    C311603   3.235   1.469  14.771 -1.2148 -0.3047  0.5728
  787MPD2    C411604   3.133   1.373  14.791  0.3272 -0.0410 -0.9650
  787MPD2    C511605   3.016   1.398  14.725 -0.2640  0.0176  0.2159
  787MPD2     H11606   3.297   1.646  14.672  1.6808 -1.5273  1.3959
  787MPD2    H111607   3.139   1.277  14.840 -2.1324  0.2388 -0.1199
  787MPD2    H211608   2.886   1.536  14.614 -0.2652  0.9911  0.1042
  787MPD2    H311609   2.941   1.321  14.737  0.5256 -0.8092 -0.2543
  787MPD2     N11610   3.361   1.451  14.824 -0.0330 -0.5604 -1.3316
  787MPD2    H511611   3.421   1.530  14.804 -2.2076  1.0491 -1.5959
  787MPD2    N111612   3.044   1.731  14.592 -0.4229  0.2823 -0.5404
  787MPD2    H711613   2.950   1.741  14.556 -0.3498  0.1367 -0.7726
  788MPD2     C11614   4.434   0.003   1.279  0.2338  0.2691 -0.2325
  788MPD2    C111615   4.483   4.706   1.154 -0.1295 -0.2706  0.5821
  788MPD2    C211616   4.510   0.082   1.061  0.7438  0.1944  0.0227
  788MPD2    C311617   4.477   0.209   1.094 -0.0420 -0.5701  0.0430
  788MPD2    C411618   4.433   0.238   1.222 -0.1918  0.1549 -1.1936
  788MPD2    C511619   4.431   0.138   1.318  0.3449  0.0899  0.2951
  788MPD2     H11620   4.557   0.055   0.968 -1.2746 -0.7632 -0.7037
  788MPD2    H111621   4.415   0.339   1.256  1.9802  0.8179 -1.9734
  788MPD2    H211622   4.416   4.647   1.349  1.6669  1.3512  1.3528
  788MPD2    H311623   4.415   0.166   1.422 -2.8258 -1.0808  0.1207
  788MPD2     N11624   4.496   0.318   1.005  0.3039 -0.1408 -0.0753
  788MPD2    H511625   4.465   0.411   1.032  0.2272 -0.2690  0.2800
  788MPD2    N111626   4.481   4.572   1.102  0.1753 -0.2684  0.3857
  788MPD2    H711627   4.496   4.563   1.002  3.5489 -0.7039  0.9472
  789MPD2     C11628   0.819   0.493  16.161 -0.5037 -0.0358  0.0106
  789MPD2    C111629   0.829   0.387  16.251 -0.5867 -0.1926  0.6422
  789MPD2    C211630   0.709   0.351  16.315  0.1632  0.0234 -0.2589
  789MPD2    C311631   0.587   0.411  16.276  0.1643 -0.1214 -0.1560
  789MPD2    C411632   0.578   0.506  16.178 -0.4886 -0.2485 -0.3344
  789MPD2    C511633   0.702   0.548  16.132 -0.1399 -0.0873 -1.1325
  789MPD2     H11634   0.720   0.278  16.394 -2.8960  0.7659  0.8326
  789MPD2    H111635   0.491   0.561  16.144 -0.2133 -0.4669 -1.3774
  789MPD2    H211636   0.908   0.529  16.111 -1.6640  0.5743 -1.6014
  789MPD2    H311637   0.699   0.633  16.065 -3.0872 -0.1303 -1.0547
  789MPD2     N11638   0.461   0.375  16.330  0.2175 -0.6136 -0.4849
  789MPD2    H511639   0.379   0.421  16.291  1.7782  1.2909 -1.5639
  789MPD2    N111640   0.956   0.327  16.287  0.3081  0.0932  0.5323
  789MPD2    H711641   0.947   0.250  16.353 -0.7784  0.1510  0.4433
  790MPD2     C11642   1.703   1.807  13.568  0.0225 -0.1931 -0.1027
  790MPD2    C111643   1.699   1.667  13.559 -0.0163  0.6482  0.2797
  790MPD2    C211644   1.626   1.622  13.444 -0.1618  0.0337 -0.3119
  790MPD2    C311645   1.568   1.709  13.348  0.6572 -0.1946  0.4982
  790MPD2    C411646   1.574   1.847  13.369 -0.4765 -0.1906 -0.1791
  790MPD2    C511647   1.646   1.894  13.476  0.8496  0.2738 -0.2895
  790MPD2     H11648   1.611   1.517  13.421 -0.0331 -0.4126  1.6858
  790MPD2    H111649   1.526   1.914  13.298 -2.5844  0.3494  1.7472
  790MPD2    H211650   1.763   1.849  13.648  2.3319 -2.4139 -0.6471
  790MPD2    H311651   1.638   2.000  13.496 -0.8426  0.2305 -0.7140
  790MPD2     N11652   1.512   1.651  13.231 -0.1588  0.0976 -0.0058
  790MPD2    H511653   1.535   1.553  13.217 -0.8957 -0.0796  0.0096
  790MPD2    N111654   1.754   1.583  13.660 -1.0394 -0.3877 -0.0093
  790MPD2    H711655   1.810   1.628  13.732  1.1124  0.6453 -2.3142
  791MPD2     C11656   1.103   1.797  12.535  0.7151 -0.1778 -0.3407
  791MPD2    C111657   1.118   1.665  12.568  0.2594 -0.4618 -0.6907
  791MPD2    C211658   1.037   1.564  12.507 -0.1510  0.3164  0.4118
  791MPD2    C311659   0.957   1.590  12.402 -0.0054  0.0300  0.6992
  791MPD2    C411660   0.950   1.722  12.359  0.0223 -0.3385 -0.2570
  791MPD2    C511661   1.016   1.819  12.430  0.4837 -0.7380 -0.4426
  791MPD2     H11662   1.034   1.464  12.547 -1.0368  0.6439  1.1485
  791MPD2    H111663   0.890   1.758  12.275 -1.0958 -1.8385 -0.0995
  791MPD2    H211664   1.149   1.875  12.595 -0.0852  0.9288 -1.1638
  791MPD2    H311665   1.006   1.921  12.393  0.6319 -0.5236  0.1097
  791MPD2     N11666   0.878   1.488  12.353 -0.4676 -0.3173  0.0660
  791MPD2    H511667   0.896   1.394  12.388 -0.5189 -0.4319 -0.2174
  791MPD2    N111668   1.218   1.635  12.674  0.5670  0.8269  0.0792
  791MPD2    H711669   1.242   1.715  12.731  2.5260 -0.3015  0.8174
  792MPD2     C11670   1.176   1.901  11.330 -0.3652  0.3222  0.4403
  792MPD2    C111671   1.306   1.850  11.325 -0.5585 -0.3879  0.3337
  792MPD2    C211672   1.328   1.731  11.257 -0.0548  0.1123 -0.4648
  792MPD2    C311673   1.222   1.653  11.206  0.4558 -0.0119  0.0148
  792MPD2    C411674   1.095   1.696  11.226  0.3118 -0.6256 -0.0170
  792MPD2    C511675   1.078   1.820  11.289 -0.2961  0.8871 -0.9120
  792MPD2     H11676   1.433   1.712  11.240  0.5742  2.7524  0.4315
  792MPD2    H111677   1.010   1.641  11.189 -0.4805  0.4744  0.1532
  792MPD2    H211678   1.157   2.005  11.354 -0.6499  0.7660 -1.7699
  792MPD2    H311679   0.976   1.857  11.294  0.3334  2.6621 -1.1201
  792MPD2     N11680   1.237   1.541  11.116  0.0262  0.2171 -0.4200
  792MPD2    H511681   1.158   1.491  11.075  0.0225 -0.3917  0.3330
  792MPD2    N111682   1.408   1.945  11.372  0.2234 -0.1279 -0.3610
  792MPD2    H711683   1.373   2.040  11.384  1.1409 -0.1086  2.2156
  793MPD2     C11684   0.875   1.367  10.242  0.4345  0.5269  0.9843
  793MPD2    C111685   1.016   1.384  10.229 -0.3254 -0.3018  0.1717
  793MPD2    C211686   1.090   1.389  10.345  0.4007 -0.2828  0.1386
  793MPD2    C311687   1.034   1.375  10.472  0.1812  0.5611 -0.2749
  793MPD2    C411688   0.897   1.365  10.481  0.8564 -0.7444 -0.7145
  793MPD2    C511689   0.820   1.357  10.368  0.8406  0.0998 -0.3282
  793MPD2     H11690   1.198   1.393  10.338  0.6504  1.0132  4.2087
  793MPD2    H111691   0.842   1.363  10.574  0.4476  0.5092 -0.9244
  793MPD2    H211692   0.808   1.356  10.158  1.8030 -0.6887  0.0561
  793MPD2    H311693   0.713   1.344  10.384  1.0660  0.5492  1.5316
  793MPD2     N11694   1.114   1.364  10.582 -0.1785 -0.2420 -0.0883
  793MPD2    H511695   1.214   1.371  10.565 -0.2897  0.3403 -0.5124
  793MPD2    N111696   1.090   1.409  10.106 -0.5328 -0.3998 -0.3086
  793MPD2    H711697   1.188   1.433  10.116 -0.7242 -0.0023  0.6379
  794MPD2     C11698   1.601   1.666  17.540 -0.6498  0.2005  0.1892
  794MPD2    C111699   1.479   1.615  17.571 -0.2274  0.2325 -0.1353
  794MPD2    C211700   1.383   1.608  17.468 -0.2773  0.0195 -0.0746
  794MPD2    C311701   1.406   1.657  17.341  0.1048 -0.1785  0.0309
  794MPD2    C411702   1.530   1.714  17.320  0.5452  0.7033 -0.8510
  794MPD2    C511703   1.624   1.712  17.414 -0.0735  0.1336 -0.4863
  794MPD2     H11704   1.284   1.575  17.496 -0.5119  0.0945 -0.8181
  794MPD2    H111705   1.556   1.772  17.232 -2.4095  1.4223 -1.2529
  794MPD2    H211706   1.690   1.670  17.603  0.6345 -0.0275 -1.6097
  794MPD2    H311707   1.719   1.753  17.381  0.5331 -0.9749 -0.1381
  794MPD2     N11708   1.315   1.658  17.231  0.0434  0.6140 -0.3695
  794MPD2    H511709   1.345   1.718  17.155 -0.1906  0.7370 -0.3647
  794MPD2    N111710   1.447   1.560  17.694  0.6400 -0.1743 -0.2189
  794MPD2    H711711   1.357   1.514  17.694  1.2186 -1.3192 -0.1432
  795MPD2     C11712   3.999   3.350  12.845  0.9392  0.1697 -0.1834
  795MPD2    C111713   3.952   3.305  12.967  0.4409  0.5749  1.0147
  795MPD2    C211714   4.044   3.244  13.048 -0.6238 -0.3268 -0.0629
  795MPD2    C311715   4.179   3.239  13.018 -0.1173  0.2594  0.0190
  795MPD2    C411716   4.216   3.305  12.899  0.0091 -0.4193  0.4754
  795MPD2    C511717   4.130   3.355  12.813 -0.4557 -0.3878  0.0368
  795MPD2     H11718   4.013   3.200  13.142 -2.9745  1.7678  0.1629
  795MPD2    H111719   4.320   3.321  12.871  0.6533 -2.6635  1.5528
  795MPD2    H211720   3.944   3.415  12.778 -1.0854 -2.8000 -1.3758
  795MPD2    H311721   4.153   3.400  12.717  0.4907 -1.6287 -0.3229
  795MPD2     N11722   4.270   3.176  13.109  0.0622 -0.0196 -0.1169
  795MPD2    H511723   4.235   3.132  13.194  1.4878 -0.7574  0.0804
  795MPD2    N111724   3.820   3.315  13.008  0.1852 -0.7795  0.1449
  795MPD2    H711725   3.796   3.259  13.090  0.0918 -0.1219  0.5659
  796MPD2     C11726   3.440   4.498  15.791  0.3503  0.0017 -0.2199
  796MPD2    C111727   3.544   4.556  15.868 -0.0029 -0.5988  0.6747
  796MPD2    C211728   3.551   4.692  15.865 -0.6152  0.4204 -0.9145
  796MPD2    C311729   3.464   0.051  15.800 -0.6270  0.4789 -0.6258
  796MPD2    C411730   3.376   4.715  15.712  0.4551 -0.5616 -0.5410
  796MPD2    C511731   3.359   4.578  15.717 -0.1614  0.1315 -0.3511
  796MPD2     H11732   3.616   0.016  15.937 -0.2510  0.3952 -1.2258
  796MPD2    H111733   3.312   0.044  15.643 -0.8977 -0.5110  0.7603
  796MPD2    H211734   3.430   4.390  15.787  0.1808  0.1162 -2.9167
  796MPD2    H311735   3.289   4.530  15.650 -1.8145 -0.1147  1.5535
  796MPD2     N11736   3.490   0.190  15.806 -0.1529 -0.5518 -0.4293
  796MPD2    H511737   3.572   0.220  15.858 -1.7562  0.7665  1.3663
  796MPD2    N111738   3.631   4.466  15.935  0.1681  0.4612 -0.2691
  796MPD2    H711739   3.609   4.367  15.927  0.1133  0.4209  0.3654
  797MPD2     C11740   4.536   4.271  17.453  0.7044  0.1108  0.3204
  797MPD2    C111741   4.601   4.390  17.480 -0.0702 -0.1327  0.0449
  797MPD2    C211742   4.556   4.503  17.411 -0.1038  0.2030  0.5518
  797MPD2    C311743   4.451   4.486  17.317  0.2272 -0.2067 -0.1261
  797MPD2    C411744   4.371   4.378  17.308  0.8184 -0.0627 -0.0080
  797MPD2    C511745   4.411   4.269  17.379  0.4052 -0.1288  0.1511
  797MPD2     H11746   4.611   4.597  17.419 -2.2375  1.4946  0.1102
  797MPD2    H111747   4.282   4.364  17.246 -0.0863  0.5494  1.1676
  797MPD2    H211748   4.559   4.179  17.504  0.5491 -0.7362 -1.1398
  797MPD2    H311749   4.357   4.175  17.378 -0.0322  0.1718 -2.8501
  797MPD2     N11750   4.440   4.594  17.224  0.1486 -0.0003 -0.1906
  797MPD2    H511751   4.505   4.670  17.242  0.5222 -0.2890 -0.3170
  797MPD2    N111752   4.715   4.404  17.566 -0.0842  0.0410 -0.0359
  797MPD2    H711753   0.017   4.501  17.580  0.4664 -0.1652  0.3604
  798MPD2     C11754   0.326   0.212  17.185 -0.4322 -0.0477  0.6158
  798MPD2    C111755   0.210   0.143  17.214 -0.7229 -0.5444  0.0614
  798MPD2    C211756   0.204   0.066  17.331  0.2123  0.4555  0.2323
  798MPD2    C311757   0.312   0.058  17.413  0.4528  0.2149 -0.1800
  798MPD2    C411758   0.420   0.137  17.391  0.2815  0.4025 -0.1037
  798MPD2    C511759   0.423   0.217  17.282  0.4814  0.4140 -0.1031
  798MPD2     H11760   0.119   4.724  17.348  1.2618 -0.6802  1.0277
  798MPD2    H111761   0.513   0.124  17.446  1.6355  2.8308 -1.8291
  798MPD2    H211762   0.333   0.263  17.090  2.1151 -0.3913  0.6043
  798MPD2    H311763   0.516   0.267  17.257  1.3846 -0.5160  1.3863
  798MPD2     N11764   0.310   4.676  17.502 -0.0100  0.1927  0.9938
  798MPD2    H511765   0.220   4.630  17.511  0.7698 -1.5350 -0.0397
  798MPD2    N111766   0.110   0.145  17.112 -0.4576  0.2664  0.8450
  798MPD2    H711767   0.136   0.170  17.017  0.5933  0.2769  1.1420
  799MPD2     C11768   3.706   1.012  14.655  0.3847 -0.2716 -0.0797
  799MPD2    C111769   3.571   1.023  14.648  0.3631  0.1440  0.0300
  799MPD2    C211770   3.517   1.139  14.591 -0.0533  0.5101 -0.1494
  799MPD2    C311771   3.599   1.242  14.547 -0.2939  0.1848 -0.6466
  799MPD2    C411772   3.735   1.234  14.570  0.2855  0.3325  0.0059
  799MPD2    C511773   3.785   1.122  14.628  0.8077  0.3597 -0.1987
  799MPD2     H11774   3.411   1.147  14.570 -0.1643  0.5887  0.4269
  799MPD2    H111775   3.808   1.301  14.524 -1.0198  1.5971 -0.2386
  799MPD2    H211776   3.759   0.923  14.687  0.4838 -0.4637 -0.7810
  799MPD2    H311777   3.892   1.110  14.644  1.0411  2.3072 -0.2623
  799MPD2     N11778   3.558   1.359  14.477  1.1607  0.1747  0.9188
  799MPD2    H511779   3.640   1.413  14.453  0.1759  1.0053 -0.5845
  799MPD2    N111780   3.485   0.907  14.667  0.3212 -0.1694  0.6855
  799MPD2    H711781   3.385   0.922  14.657  0.1862 -1.4314  0.1355
  800MPD2     C11782   3.742   2.241  14.372 -0.3029 -0.1432 -0.3688
  800MPD2    C111783   3.866   2.269  14.327 -0.6056  0.0695 -0.0061
  800MPD2    C211784   3.894   2.242  14.193  0.8377 -0.1114  0.3837
  800MPD2    C311785   3.798   2.192  14.113 -0.3179  0.5383 -0.8794
  800MPD2    C411786   3.674   2.167  14.161 -0.7852 -0.5341 -0.5929
  800MPD2    C511787   3.645   2.193  14.286  0.3881  0.4366  0.2911
  800MPD2     H11788   3.991   2.266  14.151  0.7319  0.8246  0.6903
  800MPD2    H111789   3.603   2.122  14.093 -0.7554 -2.7278  0.8512
  800MPD2    H211790   3.713   2.274  14.471  3.7572  1.1349  0.4286
  800MPD2    H311791   3.548   2.162  14.323 -0.7866  0.1159 -3.0187
  800MPD2     N11792   3.838   2.158  13.976 -0.4525  0.1558 -0.8137
  800MPD2    H511793   3.936   2.181  13.962 -0.3771  1.3820  1.6973
  800MPD2    N111794   3.966   2.331  14.407 -0.0655  0.5089 -0.4016
  800MPD2    H711795   3.925   2.380  14.485  0.4480  2.4141 -1.3205
  801MPD2     C11796   3.881   2.985  14.247 -0.2740 -0.3902  0.2739
  801MPD2    C111797   3.854   2.917  14.362 -0.8757 -0.1597  0.1653
  801MPD2    C211798   3.724   2.917  14.405 -0.2911 -0.3835 -0.1575
  801MPD2    C311799   3.625   2.996  14.356 -0.0433 -0.3414 -0.0480
  801MPD2    C411800   3.656   3.070  14.246 -0.2472 -0.7190  0.7872
  801MPD2    C511801   3.784   3.067  14.190  0.2362  0.2572 -0.1357
  801MPD2     H11802   3.710   2.856  14.493  2.0501 -0.5574  0.0899
  801MPD2    H111803   3.582   3.131  14.194  0.3361 -1.6755 -1.1994
  801MPD2    H211804   3.976   2.992  14.195  0.8049  0.4175  2.3281
  801MPD2    H311805   3.800   3.120  14.097 -1.8530  0.3681 -0.4455
  801MPD2     N11806   3.499   2.998  14.407  0.6861 -0.4510 -0.2189
  801MPD2    H511807   3.432   3.057  14.358  0.6198  0.1919  0.6378
  801MPD2    N111808   3.943   2.828  14.426  0.2220 -0.0714  0.1989
  801MPD2    H711809   3.896   2.762  14.486  1.2507  0.8442  1.9961
  802MPD2     C11810   2.844   2.782   0.191 -0.2442 -0.8336  0.1868
  802MPD2    C111811   2.947   2.872   0.138  0.4593  0.6464  0.5918
  802MPD2    C211812   3.029   2.828   0.029  0.5558 -0.2619  0.1277
  802MPD2    C311813   2.999   2.699  17.680  0.1194 -0.4718  0.2082
  802MPD2    C411814   2.894   2.624   0.034 -0.2178 -0.0170 -0.6263
  802MPD2    C511815   2.807   2.669   0.126  0.2497  0.2177  0.1632
  802MPD2     H11816   3.102   2.897  17.683  0.5342 -0.6996 -0.5992
  802MPD2    H111817   2.863   2.524   0.005 -0.5015 -0.5242  1.4600
  802MPD2    H211818   2.773   2.813   0.267  0.7697 -1.2631  1.3118
  802MPD2    H311819   2.722   2.605   0.151  0.5885 -0.5584 -0.7010
  802MPD2     N11820   3.084   2.641  17.586  0.0623 -0.6759  0.2045
  802MPD2    H511821   3.163   2.698  17.560 -0.2897  0.7493  2.2589
  802MPD2    N111822   2.962   3.002   0.186 -0.5815  0.3892  0.0343
  802MPD2    H711823   3.007   3.069   0.125  1.4905  0.5160  1.6946
  803MPD2     C11824   4.477   1.931  11.602 -0.4757  0.7647 -1.2064
  803MPD2    C111825   4.559   1.889  11.704 -0.0244 -0.3097 -0.8639
  803MPD2    C211826   4.523   1.777  11.780 -0.2545  0.6978 -0.1293
  803MPD2    C311827   4.400   1.711  11.753 -0.3234  0.1679  0.1813
  803MPD2    C411828   4.325   1.754  11.637 -0.0191  0.2841  0.6426
  803MPD2    C511829   4.365   1.865  11.572 -0.2044  0.1461 -0.1704
  803MPD2     H11830   4.592   1.754  11.860  1.1187  1.4628 -1.0984
  803MPD2    H111831   4.230   1.711  11.609 -0.6021  1.5206  0.7059
  803MPD2    H211832   4.509   2.015  11.541  0.6698  2.6316  1.9918
  803MPD2    H311833   4.316   1.898  11.481 -1.2379 -1.9306 -0.3625
  803MPD2     N11834   4.346   1.603  11.827  0.2962 -0.5162 -0.2538
  803MPD2    H511835   4.259   1.572  11.785 -0.5754  2.1892 -0.4335
  803MPD2    N111836   4.674   1.959  11.739 -0.5153 -0.4108  0.5620
  803MPD2    H711837   0.001   1.917  11.816  0.5950 -1.4774 -0.7638
  804MPD2     C11838   3.988   3.033  16.957 -0.6190 -0.2991  0.4220
  804MPD2    C111839   4.004   2.973  17.087  0.0520  0.5160 -0.6740
  804MPD2    C211840   4.075   3.043  17.180 -0.1385  0.0832 -0.0718
  804MPD2    C311841   4.117   3.177  17.166 -0.5917 -0.4057  0.1129
  804MPD2    C411842   4.082   3.232  17.040 -0.8211  0.3478  0.3871
  804MPD2    C511843   4.036   3.158  16.939  0.2199 -0.4388  0.2967
  804MPD2     H11844   4.104   3.006  17.278 -1.4620 -1.8007 -0.3910
  804MPD2    H111845   4.105   3.336  17.018 -1.9381  0.5625  0.2435
  804MPD2    H211846   3.929   2.988  16.877  0.7723 -2.0626  0.3957
  804MPD2    H311847   4.023   3.209  16.844 -1.7987 -2.4219 -0.4956
  804MPD2     N11848   4.187   3.239  17.270 -0.4752  0.1093 -0.1449
  804MPD2    H511849   4.191   3.186  17.356 -0.3771  0.0894 -0.1622
  804MPD2    N111850   3.958   2.844  17.115 -0.6053  0.0027  0.2836
  804MPD2    H711851   3.984   2.808  17.207 -0.5929  0.0094  0.2827
  805MPD2     C11852   2.951   1.218  15.618  0.5730  0.1303 -0.0426
  805MPD2    C111853   3.017   1.234  15.498 -0.5477 -0.4202  0.4394
  805MPD2    C211854   3.138   1.301  15.497 -0.0786 -0.5576 -0.2528
  805MPD2    C311855   3.200   1.348  15.608  0.5469  0.1605  0.3752
  805MPD2    C411856   3.128   1.342  15.722  0.8819 -0.5178  0.3743
  805MPD2    C511857   3.008   1.282  15.730 -0.1216 -0.4467 -0.3767
  805MPD2     H11858   3.199   1.295  15.407  1.9927 -0.6823  1.1667
  805MPD2    H111859   3.171   1.377  15.815 -0.4560 -0.8940  1.1371
  805MPD2    H211860   2.855   1.170  15.627 -0.1979  1.5500 -0.8084
  805MPD2    H311861   2.956   1.276  15.826  2.6859  0.7463  1.2110
  805MPD2     N11862   3.336   1.392  15.615  0.0417  0.3662 -0.0198
  805MPD2    H511863   3.393   1.391  15.531 -0.8903 -0.3900 -0.6430
  805MPD2    N111864   2.971   1.175  15.378  0.0621  0.2255  0.0194
  805MPD2    H711865   3.031   1.195  15.299  0.2956  1.1794  0.4332
  806MPD2     C11866   3.346   1.243   1.162  0.1091  0.1551  0.0475
  806MPD2    C111867   3.406   1.147   1.088  0.1063 -0.2450 -0.6897
  806MPD2    C211868   3.376   1.128   0.957  0.2176 -0.3567 -0.0557
  806MPD2    C311869   3.300   1.222   0.896  0.2332  0.8957 -0.2147
  806MPD2    C411870   3.244   1.325   0.969  0.4893  0.1556 -0.5723
  806MPD2    C511871   3.260   1.330   1.103  0.2354  0.2312  0.4563
  806MPD2     H11872   3.421   1.049   0.897  1.7276 -0.2922  0.9887
  806MPD2    H111873   3.179   1.398   0.922  0.3866 -0.6106 -1.6023
  806MPD2    H211874   3.359   1.243   1.269  2.1749  0.5551 -0.1955
  806MPD2    H311875   3.193   1.394   1.160 -0.1129 -1.5395  2.0342
  806MPD2     N11876   3.277   1.220   0.756  0.2829  0.3656  0.1960
  806MPD2    H511877   3.245   1.303   0.708 -0.6474  0.1828  0.4860
  806MPD2    N111878   3.488   1.057   1.164 -0.7772  0.1612 -0.9229
  806MPD2    H711879   3.493   1.080   1.263 -2.3099  0.6121 -0.9557
  807MPD2     C11880   3.608   0.697   1.849 -0.0948  0.1280  0.2758
  807MPD2    C111881   3.580   0.628   1.732  0.1393  0.3038  0.0694
  807MPD2    C211882   3.509   0.507   1.741  0.0586  0.0782 -0.4683
  807MPD2    C311883   3.479   0.448   1.863 -0.3634  0.7067  0.3238
  807MPD2    C411884   3.508   0.524   1.978  0.0439  0.0378  0.3883
  807MPD2    C511885   3.576   0.647   1.971 -0.2128 -0.5110  0.7915
  807MPD2     H11886   3.485   0.450   1.652 -1.0962  1.5360 -1.0814
  807MPD2    H111887   3.472   0.491   2.075  0.0092 -1.6137 -0.1941
  807MPD2    H211888   3.654   0.795   1.846  0.1536 -0.0185 -0.7596
  807MPD2    H311889   3.585   0.698   2.066  2.3779  0.9911 -0.2663
  807MPD2     N11890   3.403   0.327   1.863  0.0228  0.0047  0.5477
  807MPD2    H511891   3.381   0.290   1.771  0.3270 -0.2893  0.5924
  807MPD2    N111892   3.609   0.673   1.599  0.5654  0.7185  0.0186
  807MPD2    H711893   3.596   0.603   1.527  0.7899  1.0669 -0.3528
  808MPD2     C11894   3.242   2.485   8.885 -0.5942 -0.8058 -0.0940
  808MPD2    C111895   3.274   2.501   9.018 -0.2035  0.0300  0.4062
  808MPD2    C211896   3.308   2.630   9.062  0.6514  0.1309  0.1823
  808MPD2    C311897   3.321   2.742   8.977  0.0012 -0.2238 -0.4325
  808MPD2    C411898   3.298   2.720   8.842  0.0525  0.9882  0.0313
  808MPD2    C511899   3.251   2.591   8.800  0.2932  0.4118  0.0137
  808MPD2     H11900   3.322   2.646   9.168 -0.5021 -1.2484  0.5470
  808MPD2    H111901   3.294   2.793   8.762  0.2897 -1.9791 -2.7258
  808MPD2    H211902   3.214   2.391   8.838 -3.2856  0.1055 -0.2639
  808MPD2    H311903   3.218   2.564   8.701  1.0138 -2.2949  0.4976
  808MPD2     N11904   3.358   2.870   9.024 -0.2161 -0.3822  0.4565
  808MPD2    H511905   3.356   2.932   8.943 -0.8345  0.2771  0.9847
  808MPD2    N111906   3.272   2.398   9.116  0.0157  0.4852 -0.5041
  808MPD2    H711907   3.306   2.413   9.210 -1.2379  0.8875 -0.1138
  809MPD2     C11908   3.919   3.226   8.509  0.0407 -0.2807 -0.1624
  809MPD2    C111909   3.978   3.239   8.631 -0.3454  0.5476 -0.1407
  809MPD2    C211910   3.892   3.225   8.748 -0.2986 -0.3994 -0.0712
  809MPD2    C311911   3.754   3.230   8.738 -0.0791  0.1235 -0.1254
  809MPD2    C411912   3.699   3.240   8.609 -0.3420  1.0529 -0.5840
  809MPD2    C511913   3.781   3.234   8.502  0.1619 -0.5913  0.6942
  809MPD2     H11914   3.935   3.201   8.845 -0.2079  1.8419  0.4450
  809MPD2    H111915   3.591   3.235   8.604 -0.2927 -0.8236 -0.0500
  809MPD2    H211916   3.963   3.216   8.410 -0.1142 -0.8800 -0.1744
  809MPD2    H311917   3.731   3.229   8.406  2.5331  0.4815 -0.5849
  809MPD2     N11918   3.665   3.208   8.841  0.0314 -0.1497  0.5842
  809MPD2    H511919   3.571   3.194   8.806 -0.0647 -1.0811  1.2101
  809MPD2    N111920   4.122   3.237   8.650 -0.6445  0.1511 -0.4912
  809MPD2    H711921   4.150   3.206   8.742  1.1933  1.6428 -0.5628
  810MPD2     C11922   3.563   1.993  10.507  0.2364  0.3522  0.1918
  810MPD2    C111923   3.524   1.881  10.570  0.1999  0.1690  0.9056
  810MPD2    C211924   3.470   1.880  10.696  0.2001 -1.2904 -0.3760
  810MPD2    C311925   3.465   2.002  10.764  0.4332  0.3409  0.8357
  810MPD2    C411926   3.501   2.121  10.703  0.0262  0.5394  0.0634
  810MPD2    C511927   3.551   2.113  10.574  0.0492 -0.4752 -1.2016
  810MPD2     H11928   3.426   1.789  10.735 -0.9079 -0.6118 -0.0605
  810MPD2    H111929   3.497   2.216  10.755  1.4271 -0.2579  1.6236
  810MPD2    H211930   3.600   1.996  10.406 -0.6088  1.4676 -0.0943
  810MPD2    H311931   3.576   2.200  10.514  0.2029  0.1025 -0.3080
  810MPD2     N11932   3.412   2.013  10.893  0.0482  0.4460 -0.0673
  810MPD2    H511933   3.407   2.107  10.931  1.3094  0.3568  0.3175
  810MPD2    N111934   3.532   1.764  10.486  0.5356 -0.2660  0.0182
  810MPD2    H711935   3.568   1.779  10.392 -2.5339  2.5858 -0.7380
  811MPD2     C11936   2.925   1.302  10.109  0.0918 -0.1819 -0.6356
  811MPD2    C111937   2.997   1.422  10.122 -0.0282 -0.0414 -0.1639
  811MPD2    C211938   2.942   1.539  10.082 -0.0270  0.1323  0.5001
  811MPD2    C311939   2.810   1.541  10.025  0.2131 -0.5596  0.5968
  811MPD2    C411940   2.736   1.416  10.007 -0.0516  0.9411  0.4544
  811MPD2    C511941   2.797   1.302  10.053  0.8363 -0.1866  0.1408
  811MPD2     H11942   2.995   1.633  10.086  0.8714 -0.4272  1.7469
  811MPD2    H111943   2.650   1.405   9.942  0.8031 -0.0851 -0.4938
  811MPD2    H211944   2.973   1.211  10.142 -1.4099 -1.2246 -1.3172
  811MPD2    H311945   2.758   1.202  10.034 -1.5502  0.6692  0.5783
  811MPD2     N11946   2.759   1.663   9.995  0.2803  0.1014 -0.1359
  811MPD2    H511947   2.779   1.737  10.062  0.7735  0.0405 -0.2156
  811MPD2    N111948   3.126   1.404  10.177 -0.6073  0.0023 -0.0703
  811MPD2    H711949   3.141   1.305  10.193 -3.1020  0.0389  2.5521
  812MPD2     C11950   2.485   1.643  12.306 -0.3625  0.4540  0.0937
  812MPD2    C111951   2.358   1.610  12.340  0.2671 -0.6839 -0.9199
  812MPD2    C211952   2.342   1.504  12.432  0.3836  0.5575 -0.2770
  812MPD2    C311953   2.450   1.420  12.470  0.3552 -0.2571 -0.2610
  812MPD2    C411954   2.574   1.465  12.431 -0.5078 -0.7797  0.3433
  812MPD2    C511955   2.590   1.581  12.362  0.3546  0.1275  0.7556
  812MPD2     H11956   2.243   1.470  12.460  1.1422 -0.8219  0.7930
  812MPD2    H111957   2.659   1.412  12.472 -0.9054 -1.1732  0.6655
  812MPD2    H211958   2.504   1.735  12.252  3.1148 -1.1925 -1.4590
  812MPD2    H311959   2.688   1.609  12.323  0.9463 -0.8923  1.5234
  812MPD2     N11960   2.436   1.309  12.555  0.0312  0.7120 -0.5826
  812MPD2    H511961   2.347   1.290  12.600  0.3155 -1.4064 -0.9092
  812MPD2    N111962   2.252   1.693  12.289  0.0055  0.5072 -1.0413
  812MPD2    H711963   2.269   1.777  12.235 -0.0001  1.2411  0.1182
  813MPD2     C11964   1.247   3.656  12.855  0.1747 -0.0014 -0.0088
  813MPD2    C111965   1.333   3.615  12.951  0.2689 -0.5048 -0.2200
  813MPD2    C211966   1.287   3.572  13.072 -0.3156 -1.1991 -0.1956
  813MPD2    C311967   1.153   3.558  13.090  0.3017  0.3149  0.6234
  813MPD2    C411968   1.070   3.588  12.986 -0.4259 -0.5564 -0.1928
  813MPD2    C511969   1.115   3.646  12.873  0.6716 -0.1839 -0.4318
  813MPD2     H11970   1.355   3.544  13.151  0.3789 -2.8973 -1.4090
  813MPD2    H111971   0.962   3.579  12.992 -0.2835 -2.3990 -0.3171
  813MPD2    H211972   1.286   3.705  12.766  1.6432 -2.6827 -0.8464
  813MPD2    H311973   1.041   3.684  12.804 -0.2917  0.2637  0.8381
  813MPD2     N11974   1.118   3.527  13.218 -0.0746  0.6814  0.4517
  813MPD2    H511975   1.194   3.512  13.283  0.4286 -0.7924 -0.4762
  813MPD2    N111976   1.470   3.660  12.924  0.2311  0.4189 -0.3941
  813MPD2    H711977   1.494   3.709  12.838 -0.9698  0.8857 -0.4753
  814MPD2     C11978   2.255   0.092  12.435 -0.1573  0.1562  0.2658
  814MPD2    C111979   2.270   0.131  12.306 -0.1521  0.3867 -0.8158
  814MPD2    C211980   2.365   0.226  12.282  0.0394  0.2874 -0.4693
  814MPD2    C311981   2.436   0.284  12.385 -0.4591 -0.1611 -0.6527
  814MPD2    C411982   2.414   0.244  12.515 -0.6573 -0.1609  0.7695
  814MPD2    C511983   2.324   0.149  12.532 -0.3940  0.9029 -0.4223
  814MPD2     H11984   2.361   0.260  12.180  0.5090  2.1349  0.1229
  814MPD2    H111985   2.475   0.276  12.599  0.0507  1.0030 -0.1728
  814MPD2    H211986   2.192   0.005  12.452  0.0291  0.0113  0.2102
  814MPD2    H311987   2.313   0.118  12.635  0.8868  0.2515 -0.4847
  814MPD2     N11988   2.527   0.384  12.360 -0.2796 -0.3111  0.1694
  814MPD2    H511989   2.584   0.416  12.438  1.4269  0.9318 -1.5779
  814MPD2    N111990   2.192   0.082  12.200 -0.1738 -0.4862 -0.0667
  814MPD2    H711991   2.214   0.120  12.108  1.8860  0.0114  0.6388
  815MPD2     C11992   2.700   3.500  11.579 -0.1909  0.3394 -0.1022
  815MPD2    C111993   2.701   3.374  11.639  0.0010 -0.5679 -0.3072
  815MPD2    C211994   2.624   3.364  11.754  0.9203  0.5518  0.1589
  815MPD2    C311995   2.541   3.466  11.799 -0.4070  0.1504  0.1089
  815MPD2    C411996   2.543   3.587  11.737  0.1669  0.3889  0.3810
  815MPD2    C511997   2.633   3.604  11.635  0.2149  0.6451  0.6384
  815MPD2     H11998   2.619   3.271  11.809 -1.5604  1.8818  2.1721
  815MPD2    H111999   2.478   3.666  11.774  2.2658  1.1178  2.5439
  815MPD2    H212000   2.767   3.518  11.496 -0.0563  0.8886  0.1252
  815MPD2    H312001   2.636   3.703  11.591  0.0395  0.4677  0.2189
  815MPD2     N12002   2.451   3.418  11.903  0.7269 -0.1223  0.0941
  815MPD2    H512003   2.476   3.328  11.943  0.7428 -0.2416 -0.1856
  815MPD2    N112004   2.778   3.271  11.586 -0.6821  0.3868 -0.4434
  815MPD2    H712005   2.820   3.296  11.498 -0.9340  1.9928 -0.1129
  816MPD2     C12006   2.264   2.312  17.493 -0.7450 -0.2124  0.0149
  816MPD2    C112007   2.268   2.424  17.421 -0.1468 -0.0231  0.0087
  816MPD2    C212008   2.353   2.438  17.312 -0.1475 -0.4405 -0.2574
  816MPD2    C312009   2.428   2.327  17.264 -0.6456 -0.6491 -0.0836
  816MPD2    C412010   2.412   2.212  17.335  0.2335  0.4576  1.1543
  816MPD2    C512011   2.330   2.202  17.443 -0.1962 -0.0731  0.5885
  816MPD2     H12012   2.354   2.536  17.264 -1.2635  1.8873  4.5367
  816MPD2    H112013   2.467   2.124  17.305 -1.8433 -1.2167  2.2408
  816MPD2    H212014   2.217   2.299  17.590 -2.6254  0.6424 -0.7672
  816MPD2    H312015   2.333   2.108  17.498 -1.1479  0.1585  1.0409
  816MPD2     N12016   2.510   2.339  17.148 -0.3378 -0.1820  0.2675
  816MPD2    H512017   2.495   2.426  17.097 -0.2308  0.5635  1.5060
  816MPD2    N112018   2.186   2.535  17.465 -0.6098 -0.1332  0.2829
  816MPD2    H712019   2.148   2.530  17.559  0.0485  0.8209  0.5967
  817MPD2     C12020   1.569   3.955   9.895 -0.0070  0.5333  0.2046
  817MPD2    C112021   1.676   3.985   9.810 -0.0753 -0.1414  0.2030
  817MPD2    C212022   1.682   4.122   9.760 -0.5507  0.6888  0.5156
  817MPD2    C312023   1.593   4.218   9.794  0.5482 -0.6820 -0.2884
  817MPD2    C412024   1.479   4.174   9.870 -0.5742  0.1250  0.5322
  817MPD2    C512025   1.478   4.050   9.933 -0.1969 -0.2240 -0.2909
  817MPD2     H12026   1.754   4.148   9.684 -0.3124 -0.3582  0.3868
  817MPD2    H112027   1.404   4.245   9.902  1.5099  0.9765  3.5988
  817MPD2    H212028   1.549   3.851   9.922 -0.8612  0.9376  1.1552
  817MPD2    H312029   1.400   4.009   9.997  0.9516 -1.3675  0.3726
  817MPD2     N12030   1.616   4.353   9.754 -0.9381  0.0654 -0.1600
  817MPD2    H512031   1.701   4.364   9.700  0.4899  1.3622  2.3996
  817MPD2    N112032   1.768   3.881   9.762  0.1331  0.1039 -0.0046
  817MPD2    H712033   1.833   3.910   9.689 -0.6930 -0.9387 -1.1628
  818MPD2     C12034   0.757   3.699   9.910  0.6145  0.3488  0.1307
  818MPD2    C112035   0.735   3.676  10.045  0.6306 -0.4088  0.1768
  818MPD2    C212036   0.742   3.551  10.094  0.0113 -0.2816 -0.1172
  818MPD2    C312037   0.785   3.449  10.014  0.6126  0.3353 -0.3197
  818MPD2    C412038   0.812   3.474   9.885 -0.2409  0.6076 -0.4728
  818MPD2    C512039   0.799   3.602   9.828 -0.2140  0.3487 -0.8565
  818MPD2     H12040   0.708   3.529  10.195 -0.1952 -0.3004 -0.1911
  818MPD2    H112041   0.853   3.399   9.818 -0.7516  1.9485 -2.2865
  818MPD2    H212042   0.744   3.799   9.870 -0.3916 -0.6899 -2.1244
  818MPD2    H312043   0.823   3.623   9.724 -0.9982 -0.4908 -1.2112
  818MPD2     N12044   0.808   3.318  10.062 -0.2032  0.2691 -1.0100
  818MPD2    H512045   0.845   3.246  10.001  0.3295  1.1775 -1.7644
  818MPD2    N112046   0.679   3.777  10.127  0.1243 -0.0290 -0.3283
  818MPD2    H712047   0.643   3.746  10.217 -0.1677  1.3609  0.0384
  819MPD2     C12048   3.599   0.675  15.506 -0.3688 -0.2543  0.4321
  819MPD2    C112049   3.653   0.550  15.488 -0.0434 -0.4055 -0.6462
  819MPD2    C212050   3.790   0.528  15.513  0.8290  0.3528  0.2371
  819MPD2    C312051   3.871   0.637  15.558 -0.1943 -0.3160  0.6520
  819MPD2    C412052   3.810   0.759  15.582 -0.9068 -0.2908  0.4098
  819MPD2    C512053   3.678   0.780  15.544 -1.0548 -0.2866 -0.0488
  819MPD2     H12054   3.839   0.435  15.485  1.1021  0.3749  0.6408
  819MPD2    H112055   3.873   0.843  15.608 -2.5070  1.7380 -2.2790
  819MPD2    H212056   3.499   0.696  15.470 -0.3655 -2.0127 -0.5881
  819MPD2    H312057   3.637   0.880  15.549 -1.7760 -0.3680 -4.0423
  819MPD2     N12058   4.006   0.616  15.585  0.0633  0.0713  0.2082
  819MPD2    H512059   4.019   0.518  15.608 -1.7556 -0.1100  0.4623
  819MPD2    N112060   3.576   0.458  15.417 -0.0516 -0.1649 -0.5930
  819MPD2    H712061   3.486   0.496  15.391  0.1620 -0.1438 -1.2947
  820MPD2     C12062   2.868   0.473  14.801  0.2112 -0.0263 -0.7233
  820MPD2    C112063   2.953   0.544  14.889 -0.1161 -0.1850 -1.0967
  820MPD2    C212064   3.068   0.482  14.924 -0.1428 -0.2004 -0.6348
  820MPD2    C312065   3.109   0.359  14.885 -0.5435  0.1500 -0.4924
  820MPD2    C412066   3.017   0.286  14.806  0.1818 -0.4430 -0.2577
  820MPD2    C512067   2.901   0.346  14.766 -0.3450 -0.1525  0.0685
  820MPD2     H12068   3.122   0.532  15.004  1.8012  0.6969 -2.5174
  820MPD2    H112069   3.020   0.184  14.771 -0.3534 -0.9943  1.2880
  820MPD2    H212070   2.768   0.511  14.785  0.9238  2.9784  1.8631
  820MPD2    H312071   2.832   0.283  14.713 -0.0271 -0.0898 -0.4222
  820MPD2     N12072   3.224   0.300  14.945  0.3323  0.0866 -0.5031
  820MPD2    H512073   3.235   0.200  14.933 -0.5125  0.0772 -1.1951
  820MPD2    N112074   2.897   0.664  14.945  0.2483  0.1553 -0.2494
  820MPD2    H712075   2.808   0.698  14.910  0.0966  1.5766  1.5408
  821MPD2     C12076   3.633   2.420  13.166  0.4853 -0.1704 -0.5486
  821MPD2    C112077   3.748   2.458  13.238  0.2507  0.3649  0.4009
  821MPD2    C212078   3.826   2.562  13.190  0.2236 -0.6705  0.2920
  821MPD2    C312079   3.795   2.621  13.067 -1.1473  0.2872  0.1826
  821MPD2    C412080   3.686   2.580  12.996  0.0916  0.0209 -0.8303
  821MPD2    C512081   3.601   2.487  13.055 -0.3014  0.6456 -0.6411
  821MPD2     H12082   3.915   2.586  13.248  0.5390 -0.9843 -0.0672
  821MPD2    H112083   3.661   2.626  12.902  2.1853  0.7098 -1.0459
  821MPD2    H212084   3.571   2.337  13.198  0.5162  0.2561  0.6069
  821MPD2    H312085   3.520   2.448  12.995 -1.8794  1.9399  0.6651
  821MPD2     N12086   3.872   2.734  13.016 -0.8584 -0.1840 -0.2467
  821MPD2    H512087   3.875   2.757  12.918 -0.0521  0.1504 -0.1470
  821MPD2    N112088   3.789   2.398  13.355  0.3015 -0.1709  0.0123
  821MPD2    H712089   3.876   2.431  13.394  1.3957 -1.7028 -1.1649
  822MPD2     C12090   0.021   2.387  15.773  0.5441 -0.1666 -0.6978
  822MPD2    C112091   4.707   2.332  15.895 -0.6685  0.3080  0.1801
  822MPD2    C212092   4.626   2.409  15.971 -0.0703  0.0567 -0.2504
  822MPD2    C312093   4.604   2.543  15.954  0.0275 -0.0046 -0.2594
  822MPD2    C412094   4.641   2.597  15.833  0.7350  0.2039  0.5353
  822MPD2    C512095   4.696   2.513  15.742  0.2340 -0.3159 -0.0147
  822MPD2     H12096   4.590   2.364  16.063  0.5245  0.8199  0.3589
  822MPD2    H112097   4.632   2.698  15.795  0.5805  0.5661  1.5432
  822MPD2    H212098   0.086   2.334  15.705 -0.3963  1.1191 -2.5966
  822MPD2    H312099   0.007   2.548  15.645  0.5019  1.2292  0.6358
  822MPD2     N12100   4.549   2.621  16.051 -0.1069 -0.0004  0.5526
  822MPD2    H512101   4.509   2.580  16.135 -0.0257  0.8153  0.9914
  822MPD2    N112102   0.026   2.204  15.934 -0.1817 -0.3659  0.8159
  822MPD2    H712103   0.016   2.178  16.032  0.2441  1.6870  1.3928
  823MPD2     C12104   4.225   2.694  16.820 -0.8212 -1.2732  0.4152
  823MPD2    C112105   4.269   2.631  16.706  0.2607  0.5738  0.4913
  823MPD2    C212106   4.320   2.506  16.718 -0.0597 -0.1188  0.1059
  823MPD2    C312107   4.319   2.440  16.841 -0.1438  0.1566  0.1637
  823MPD2    C412108   4.279   2.505  16.951  0.2177  0.4822 -0.5416
  823MPD2    C512109   4.228   2.629  16.944  0.1481  0.4599  0.6864
  823MPD2     H12110   4.371   2.472  16.629 -0.6793 -0.3794 -0.1564
  823MPD2    H112111   4.287   2.454  17.047  2.3822 -0.6730 -1.3417
  823MPD2    H212112   4.190   2.797  16.815  0.3629 -0.9606 -1.3827
  823MPD2    H312113   4.201   2.674  17.038 -0.4628  1.4631  0.0339
  823MPD2     N12114   4.378   2.318  16.868 -0.0237  0.1200  0.1110
  823MPD2    H512115   4.385   2.283  16.963 -1.6252 -0.5344 -0.0115
  823MPD2    N112116   4.276   2.716  16.588 -0.1210 -0.3459 -0.0532
  823MPD2    H712117   4.249   2.811  16.609  1.3381  0.1330 -0.3814
  824MPD2     C12118   0.118   1.483  15.651 -0.3845 -0.3979  0.3486
  824MPD2    C112119   0.230   1.525  15.721  0.5342 -0.6957  0.1564
  824MPD2    C212120   0.357   1.475  15.695  0.1014 -0.2607 -0.3832
  824MPD2    C312121   0.380   1.393  15.578  0.0435 -0.0164  0.2628
  824MPD2    C412122   0.263   1.359  15.513  0.3754  0.7717 -0.4169
  824MPD2    C512123   0.136   1.396  15.549 -0.2992  0.0491  0.3695
  824MPD2     H12124   0.444   1.514  15.746 -0.3852  0.3335 -0.0171
  824MPD2    H112125   0.270   1.301  15.422 -1.0390 -1.7987  1.1115
  824MPD2    H212126   0.016   1.505  15.680 -0.2526 -0.4010  0.8253
  824MPD2    H312127   0.051   1.373  15.485  0.4818 -0.0469 -0.6408
  824MPD2     N12128   0.505   1.346  15.543  0.3591  0.2400  0.3039
  824MPD2    H512129   0.585   1.374  15.599  0.2036  1.2439  0.0212
  824MPD2    N112130   0.215   1.637  15.811  0.4345  0.0657  0.0039
  824MPD2    H712131   0.118   1.663  15.829  0.5748  1.8689 -1.8871
  825MPD2     C12132   1.314   1.298  15.218  0.5513 -0.2982  0.7940
  825MPD2    C112133   1.209   1.380  15.233 -0.0925  0.2607 -0.4400
  825MPD2    C212134   1.201   1.504  15.170 -0.2848 -1.2186 -0.1331
  825MPD2    C312135   1.292   1.537  15.072 -0.3955  0.4343 -0.6324
  825MPD2    C412136   1.393   1.441  15.045  0.4865 -0.2913 -0.4833
  825MPD2    C512137   1.414   1.331  15.125  0.2971  0.0080  0.7194
  825MPD2     H12138   1.132   1.583  15.197  0.0925 -1.4856  1.6167
  825MPD2    H112139   1.469   1.464  14.970  0.4410 -1.1488 -0.7971
  825MPD2    H212140   1.306   1.205  15.272 -2.7521 -0.2805  0.2788
  825MPD2    H312141   1.499   1.265  15.115  0.4209  0.5999 -2.1425
  825MPD2     N12142   1.285   1.661  15.017  0.1826 -0.4279 -0.2001
  825MPD2    H512143   1.211   1.722  15.051 -0.3165 -1.1653  0.0289
  825MPD2    N112144   1.112   1.336  15.325  0.6005 -0.0898  0.1663
  825MPD2    H712145   1.123   1.245  15.370 -2.9109 -0.5245  0.1520
  826MPD2     C12146   0.256   1.341  13.378  0.2098  0.4034 -0.5363
  826MPD2    C112147   0.323   1.406  13.277 -0.2187  0.1463  0.7239
  826MPD2    C212148   0.276   1.530  13.239  0.0355 -0.3114  0.2818
  826MPD2    C312149   0.191   1.595  13.329 -0.6426 -0.2456  0.1897
  826MPD2    C412150   0.117   1.528  13.421 -1.0621 -0.6389 -0.4218
  826MPD2    C512151   0.151   1.398  13.433 -0.8998  0.5190 -0.0792
  826MPD2     H12152   0.332   1.586  13.166  1.7879 -0.4799  1.4927
  826MPD2    H112153   0.032   1.571  13.474  1.0921  1.5734  1.2343
  826MPD2    H212154   0.272   1.238  13.406  0.6179  0.0211 -2.1502
  826MPD2    H312155   0.095   1.333  13.499  2.5402 -0.1785  2.1535
  826MPD2     N12156   0.168   1.736  13.320 -0.1911 -0.1926  0.3752
  826MPD2    H512157   0.123   1.774  13.402 -0.9447  0.4808 -0.3463
  826MPD2    N112158   0.433   1.341  13.220 -0.3618 -0.7853  0.0405
  826MPD2    H712159   0.472   1.263  13.272  2.0884  0.9794  0.8228
  827MPD2     C12160   1.188   2.711  10.256  0.8561 -0.0373 -0.5921
  827MPD2    C112161   1.153   2.642  10.369  0.4480 -0.2537  0.3644
  827MPD2    C212162   1.037   2.559  10.363 -0.3905 -0.4979  0.4204
  827MPD2    C312163   0.957   2.559  10.248  0.6145  0.4237  0.1362
  827MPD2    C412164   0.990   2.632  10.134 -0.0396 -0.3837 -0.1736
  827MPD2    C512165   1.099   2.711  10.148  0.9148 -0.7233  0.6743
  827MPD2     H12166   1.015   2.498  10.449 -0.4568 -1.3103 -0.1696
  827MPD2    H112167   0.946   2.632  10.035  1.6911  2.5592 -0.9391
  827MPD2    H212168   1.273   2.777  10.260  1.1428 -0.3699 -1.3645
  827MPD2    H312169   1.141   2.775  10.071  0.5065  0.2039  1.2202
  827MPD2     N12170   0.849   2.473  10.244 -0.1977 -0.4287 -0.0404
  827MPD2    H512171   0.839   2.407  10.321  0.1526 -1.1740 -0.6332
  827MPD2    N112172   1.241   2.643  10.479 -0.3256  0.5738 -0.0117
  827MPD2    H712173   1.332   2.689  10.470 -0.0309 -0.2308 -1.0350
  828MPD2     C12174   4.124   2.568  12.790 -0.1380 -0.0177 -0.2741
  828MPD2    C112175   4.150   2.628  12.668  0.6313 -0.0495  0.4706
  828MPD2    C212176   4.277   2.635  12.622 -0.1127 -1.1182 -0.3662
  828MPD2    C312177   4.377   2.558  12.681 -0.0630  0.6925 -0.6718
  828MPD2    C412178   4.353   2.501  12.799 -0.3622  0.0028 -0.3897
  828MPD2    C512179   4.232   2.508  12.855 -0.5211 -0.1577 -0.1918
  828MPD2     H12180   4.297   2.691  12.532  1.0609  2.1335  1.9354
  828MPD2    H112181   4.431   2.443  12.847 -0.4159  0.0051 -0.2987
  828MPD2    H212182   4.024   2.548  12.827 -0.0551  3.2620  1.7345
  828MPD2    H312183   4.215   2.457  12.949 -0.8056  1.4927  0.6402
  828MPD2     N12184   4.504   2.531  12.621 -0.2265  0.1597  0.1256
  828MPD2    H512185   4.559   2.468  12.678  0.3445  1.2167  0.7326
  828MPD2    N112186   4.043   2.685  12.592  0.4458 -0.4393  0.0763
  828MPD2    H712187   4.074   2.731  12.507  0.3588  0.0246  0.2981
  829MPD2     C12188   4.151   2.903  11.770  0.1971 -0.0737  0.1341
  829MPD2    C112189   4.019   2.861  11.769  0.5908 -0.1122  0.2327
  829MPD2    C212190   3.950   2.834  11.887  0.7257  0.6985 -0.6792
  829MPD2    C312191   4.010   2.874  12.005  0.1152  0.1496 -0.3730
  829MPD2    C412192   4.143   2.920  12.003  0.5771  0.2561  0.1087
  829MPD2    C512193   4.209   2.934  11.886 -0.1146  0.0128 -0.2446
  829MPD2     H12194   3.848   2.797  11.890  0.7767  0.7219  1.1514
  829MPD2    H112195   4.187   2.962  12.093 -0.3094  0.1506  0.5891
  829MPD2    H212196   4.210   2.914  11.680  0.7642 -0.5243  0.4478
  829MPD2    H312197   4.309   2.975  11.876 -0.2665 -0.5686 -3.9765
  829MPD2     N12198   3.949   2.852  12.136  0.4692 -0.5506 -0.1564
  829MPD2    H512199   4.007   2.862  12.219  0.2923  0.9983 -0.2216
  829MPD2    N112200   3.979   2.818  11.635  0.0740 -0.0166  0.0328
  829MPD2    H712201   4.036   2.849  11.557  0.2938 -0.2020  0.1184
  830MPD2     C12202   0.207   0.778  15.538  0.3066 -0.1731  0.3878
  830MPD2    C112203   0.092   0.791  15.459 -0.4666 -0.2050  0.2730
  830MPD2    C212204   0.103   0.872  15.349  0.1115 -0.1820  0.6443
  830MPD2    C312205   0.210   0.962  15.332  0.0299 -0.0132 -0.6441
  830MPD2    C412206   0.311   0.954  15.416  0.3307 -0.3000  0.2349
  830MPD2    C512207   0.316   0.858  15.518  0.2263  0.1802 -0.5626
  830MPD2     H12208   0.021   0.866  15.278  2.0966 -0.4279 -1.5924
  830MPD2    H112209   0.402   1.010  15.398  0.1283  0.1974  0.7652
  830MPD2    H212210   0.203   0.706  15.619 -2.6837 -0.9611 -0.4410
  830MPD2    H312211   0.403   0.850  15.583 -0.6508 -3.0987  0.2275
  830MPD2     N12212   0.223   1.052  15.221 -0.7676  0.5003  0.0539
  830MPD2    H512213   0.312   1.094  15.196 -0.2812 -0.8885 -0.5404
  830MPD2    N112214   4.695   0.730  15.513 -0.4993  0.1357 -0.2004
  830MPD2    H712215   4.712   0.676  15.598  0.7617 -2.3306 -2.0099
  831MPD2     C12216   0.034   2.646  16.408  0.6067 -0.1154  0.2711
  831MPD2    C112217   0.067   2.568  16.302  0.4032  1.0353  0.3855
  831MPD2    C212218   0.017   2.435  16.295  0.0617 -0.5910  0.4747
  831MPD2    C312219   4.654   2.386  16.391  1.0071  0.0049 -0.5674
  831MPD2    C412220   4.631   2.468  16.502 -0.0828 -0.0309  0.0339
  831MPD2    C512221   4.694   2.589  16.516 -0.8097 -0.4567  0.3627
  831MPD2     H12222   0.041   2.381  16.204  0.9631 -0.8889  0.8894
  831MPD2    H112223   4.576   2.438  16.591 -2.1615 -0.6545 -1.4486
  831MPD2    H212224   0.072   2.747  16.415 -1.9357  0.8586 -0.0993
  831MPD2    H312225   4.673   2.649  16.604 -0.5203 -2.0662  1.5172
  831MPD2     N12226   4.582   2.264  16.383 -0.3563  0.4457 -0.2288
  831MPD2    H512227   4.514   2.241  16.454 -0.6467 -0.1436 -0.6995
  831MPD2    N112228   0.135   2.611  16.181 -0.0376 -0.1841  0.4262
  831MPD2    H712229   0.131   2.549  16.100  1.2765  0.4988 -0.1629
  832MPD2     C12230   3.063   3.207  17.291  0.1897 -0.0694 -0.3037
  832MPD2    C112231   3.064   3.342  17.306 -0.2372 -0.2972 -0.2230
  832MPD2    C212232   2.967   3.415  17.236  0.1006  0.4965  0.3033
  832MPD2    C312233   2.867   3.359  17.157  0.4561  0.1054  0.6045
  832MPD2    C412234   2.875   3.220  17.139 -0.5814  0.9339  0.4317
  832MPD2    C512235   2.974   3.149  17.204  0.0256  0.3947  0.7788
  832MPD2     H12236   2.955   3.519  17.265  2.2125  1.1722 -1.2038
  832MPD2    H112237   2.804   3.174  17.071 -1.0591 -1.6027  2.6574
  832MPD2    H212238   3.135   3.147  17.345  0.6582  0.0849 -0.7616
  832MPD2    H312239   2.975   3.042  17.188 -1.4385  0.9003 -2.6135
  832MPD2     N12240   2.758   3.426  17.093  0.1513 -0.0342  0.1155
  832MPD2    H512241   2.672   3.379  17.068 -0.6339  1.6200 -0.2918
  832MPD2    N112242   3.164   3.393  17.391 -0.2868  0.7082 -0.0648
  832MPD2    H712243   3.235   3.325  17.418  0.6488  1.7214  0.0279
  833MPD2     C12244   0.474   4.703  12.473  0.0575 -0.8395  0.2341
  833MPD2    C112245   0.597   0.034  12.498  0.1245  0.1351  0.5309
  833MPD2    C212246   0.703   4.682  12.450 -0.8453 -0.6167  0.2150
  833MPD2    C312247   0.686   4.583  12.357  0.2872  0.0776  0.3288
  833MPD2    C412248   0.561   4.532  12.327 -0.3957 -0.6710 -0.4748
  833MPD2    C512249   0.457   4.596  12.384 -0.2500  0.7048  0.3939
  833MPD2     H12250   0.806   4.714  12.462 -0.7362 -0.3704 -1.4036
  833MPD2    H112251   0.547   4.463  12.245  0.2520  0.8124 -1.8388
  833MPD2    H212252   0.381   0.021  12.509 -0.7362  0.0594 -2.7891
  833MPD2    H312253   0.355   4.567  12.360  0.7137 -1.1562 -1.3906
  833MPD2     N12254   0.794   4.534  12.275 -0.0324  0.9736  0.2501
  833MPD2    H512255   0.784   4.468  12.199 -0.1591  0.9824  0.2590
  833MPD2    N112256   0.611   0.164  12.559 -0.0053 -0.4056 -0.1153
  833MPD2    H712257   0.529   0.214  12.590  1.7316  0.5161  2.9038
  834MPD2     C12258   0.863   4.621  11.329 -0.1624  0.3095 -0.0382
  834MPD2    C112259   0.737   4.654  11.386  0.3634 -0.3052 -0.5014
  834MPD2    C212260   0.728   4.690  11.521  0.4024  0.3029  0.5617
  834MPD2    C312261   0.838   4.681  11.598 -0.2049 -0.3814 -0.2666
  834MPD2    C412262   0.962   4.655  11.541 -0.7633  0.7177 -0.7524
  834MPD2    C512263   0.980   4.638  11.407 -0.0516  0.2129 -0.3822
  834MPD2     H12264   0.638   0.003  11.568  2.2812  0.3995  4.1236
  834MPD2    H112265   1.054   4.645  11.598  0.0646 -1.1295 -2.4122
  834MPD2    H212266   0.879   4.599  11.224 -1.9755 -0.2396 -0.1988
  834MPD2    H312267   1.077   4.619  11.362  2.1363  0.1465  4.3887
  834MPD2     N12268   0.833   4.703  11.738  0.4731 -0.0484 -0.1093
  834MPD2    H512269   0.752   0.026  11.778  1.3915  1.1286  0.3537
  834MPD2    N112270   0.625   4.641  11.308 -0.1904  0.5834  0.8585
  834MPD2    H712271   0.646   4.617  11.211 -1.5271  1.6062  0.3168
  835MPD2     C12272   4.253   3.343  10.333 -0.6651  0.1370 -0.1507
  835MPD2    C112273   4.156   3.293  10.417  0.6010  0.3108  0.4264
  835MPD2    C212274   4.172   3.305  10.557 -0.0941  0.2837  0.2333
  835MPD2    C312275   4.294   3.351  10.600  0.4415  0.3693  0.2497
  835MPD2    C412276   4.390   3.386  10.507 -0.5844 -0.0272 -0.4471
  835MPD2    C512277   4.370   3.386  10.370 -0.5105 -0.8529 -0.7577
  835MPD2     H12278   4.092   3.273  10.622  2.3660 -1.9590  2.1292
  835MPD2    H112279   4.487   3.429  10.532 -1.1160  1.4720 -0.9667
  835MPD2    H212280   4.235   3.344  10.226 -0.6176 -1.3671 -0.1635
  835MPD2    H312281   4.444   3.423  10.299 -1.2873  0.7067 -0.7472
  835MPD2     N12282   4.331   3.363  10.736 -0.3678  0.0676  1.0224
  835MPD2    H512283   4.430   3.375  10.755  0.3850 -1.6316 -1.7439
  835MPD2    N112284   4.043   3.245  10.350 -0.4977 -0.3352 -0.4798
  835MPD2    H712285   4.041   3.217  10.252 -0.7116  0.6537 -0.7671
  836MPD2     C12286   3.869   3.015  11.190  0.1811 -0.3587  0.1727
  836MPD2    C112287   3.958   3.091  11.268  0.9049 -0.1113 -0.6437
  836MPD2    C212288   3.918   3.116  11.399 -0.2231  0.2073 -0.6102
  836MPD2    C312289   3.801   3.069  11.457 -0.4896 -0.5183 -0.3689
  836MPD2    C412290   3.713   3.002  11.377  0.1469 -0.0212  0.5754
  836MPD2    C512291   3.752   2.969  11.245  0.1819  0.5092  0.3008
  836MPD2     H12292   3.982   3.175  11.463 -0.6512 -2.8785  2.6318
  836MPD2    H112293   3.613   2.971  11.408 -0.6988  0.4333 -1.6714
  836MPD2    H212294   3.887   2.995  11.085 -0.7613  1.5195 -0.3385
  836MPD2    H312295   3.675   2.932  11.178  1.8848 -2.2235 -0.1097
  836MPD2     N12296   3.762   3.095  11.591 -0.1199 -0.2684  0.1159
  836MPD2    H512297   3.675   3.051  11.621  1.0696 -1.2053  2.1586
  836MPD2    N112298   4.074   3.150  11.205  0.5643  0.0277 -0.1442
  836MPD2    H712299   4.075   3.149  11.104  1.2467  1.1418 -0.1506
  837MPD2     C12300   2.739   2.411  10.215 -0.8034  0.5330 -0.0857
  837MPD2    C112301   2.733   2.388  10.074  0.0672 -0.1241 -0.1343
  837MPD2    C212302   2.725   2.498   9.988 -0.1547  0.1776  0.5793
  837MPD2    C312303   2.706   2.627  10.048 -0.6839  0.9816  0.0164
  837MPD2    C412304   2.698   2.645  10.186  0.2256 -0.2372 -0.4179
  837MPD2    C512305   2.736   2.539  10.267 -0.4037  0.5227 -0.1972
  837MPD2     H12306   2.710   2.490   9.881  2.9050 -0.9888  0.2444
  837MPD2    H112307   2.687   2.738  10.240  0.9292 -0.2813 -0.1883
  837MPD2    H212308   2.751   2.332  10.289 -0.4489 -0.4856 -1.2284
  837MPD2    H312309   2.732   2.560  10.373  0.3023 -1.6445  0.2684
  837MPD2     N12310   2.682   2.736   9.958  0.8024  0.1259  0.6564
  837MPD2    H512311   2.703   2.722   9.860 -0.3298  0.6729  0.3398
  837MPD2    N112312   2.721   2.261  10.024  0.4549 -0.3987 -0.1285
  837MPD2    H712313   2.724   2.257   9.922 -2.4432 -0.3507 -0.2203
  838MPD2     C12314   1.813   1.094  11.885  0.0556  0.5735 -0.3674
  838MPD2    C112315   1.844   0.977  11.944  0.0160  0.0570  0.0883
  838MPD2    C212316   1.743   0.887  11.987 -0.7907 -0.1716 -0.0687
  838MPD2    C312317   1.613   0.911  11.957  0.2339  0.4048 -0.1472
  838MPD2    C412318   1.575   1.027  11.896 -0.3768 -0.0960 -1.0020
  838MPD2    C512319   1.679   1.115  11.870  0.1098 -0.7505 -0.5824
  838MPD2     H12320   1.771   0.787  12.018  1.5089  0.2948 -0.6376
  838MPD2    H112321   1.476   1.068  11.879  0.2724  1.4505 -0.9700
  838MPD2    H212322   1.886   1.169  11.855  0.0385  0.1117 -1.5684
  838MPD2    H312323   1.659   1.217  11.839  2.3941  0.2162  1.1097
  838MPD2     N12324   1.525   0.804  11.979 -0.4504  0.2755 -0.5970
  838MPD2    H512325   1.562   0.718  12.018 -1.8128 -0.4970 -0.9954
  838MPD2    N112326   1.967   0.925  11.954 -0.0549 -0.2864 -0.1691
  838MPD2    H712327   1.972   0.836  12.002  0.1027 -0.0676  0.2138
  839MPD2     C12328   1.789   0.250  12.110  0.3767  0.2879  0.3342
  839MPD2    C112329   1.837   0.262  11.981 -0.2011 -0.8301 -0.3090
  839MPD2    C212330   1.945   0.337  11.952  0.3322 -0.0615  0.0694
  839MPD2    C312331   1.996   0.414  12.051  0.5346 -0.2510  0.3575
  839MPD2    C412332   1.952   0.404  12.184 -0.2948 -0.2308  0.0800
  839MPD2    C512333   1.848   0.320  12.214 -0.6351  1.0309  0.1721
  839MPD2     H12334   1.974   0.354  11.849 -0.1448  1.5686  0.2088
  839MPD2    H112335   1.982   0.465  12.269  2.5022  2.0061 -2.5238
  839MPD2    H212336   1.719   0.169  12.129 -2.7981  1.8188 -5.1225
  839MPD2    H312337   1.816   0.301  12.316  0.7820  0.9443  0.6112
  839MPD2     N12338   2.093   0.521  12.023  0.9914 -0.3223 -0.5471
  839MPD2    H512339   2.114   0.585  12.099  1.6055  0.1238 -1.0794
  839MPD2    N112340   1.786   0.198  11.870 -0.2696  0.3962 -0.0319
  839MPD2    H712341   1.850   0.189  11.792 -1.7261  0.9346 -1.2932
  840MPD2     C12342   1.770   2.888  10.325  0.2936  0.2153  0.2734
  840MPD2    C112343   1.773   2.862  10.461 -0.1680 -0.2441  0.2850
  840MPD2    C212344   1.881   2.926  10.526 -0.1809  0.0368  0.8011
  840MPD2    C312345   1.951   3.029  10.474  0.2035 -0.2561  0.2151
  840MPD2    C412346   1.919   3.072  10.349 -0.6933  0.5112 -0.2176
  840MPD2    C512347   1.847   2.989  10.272 -0.2014  0.3883 -0.5658
  840MPD2     H12348   1.917   2.890  10.622  0.8383  1.2541  0.8700
  840MPD2    H112349   1.983   3.150  10.309 -0.7452  1.1328  0.8883
  840MPD2    H212350   1.710   2.825  10.261  1.1135 -0.3844  0.0994
  840MPD2    H312351   1.848   3.003  10.165 -0.6592  1.5714 -0.4111
  840MPD2     N12352   2.056   3.099  10.530  0.0972  0.4041  0.5526
  840MPD2    H512353   2.097   3.179  10.482  1.0949 -1.5341 -1.8256
  840MPD2    N112354   1.687   2.751  10.519 -0.4681 -0.1648 -0.4996
  840MPD2    H712355   1.609   2.718  10.463 -0.9981  0.4238 -0.0979
  841MPD2     C12356   1.505   2.749  14.658  0.1816 -0.0157 -1.2143
  841MPD2    C112357   1.613   2.670  14.617  0.0274 -0.4850 -1.3329
  841MPD2    C212358   1.726   2.682  14.698  0.1234  0.7192 -0.2179
  841MPD2    C312359   1.740   2.757  14.812 -0.0247 -0.0105  0.1621
  841MPD2    C412360   1.641   2.850  14.839 -0.6934  1.2325 -1.2348
  841MPD2    C512361   1.520   2.837  14.774 -0.3430 -0.0159  0.2221
  841MPD2     H12362   1.814   2.624  14.672 -0.1584 -0.2998  1.0635
  841MPD2    H112363   1.646   2.928  14.915 -2.7198  0.9565 -0.8255
  841MPD2    H212364   1.405   2.744  14.616  0.1756  1.9911 -1.4515
  841MPD2    H312365   1.439   2.903  14.806 -0.5917  0.0145 -0.4770
  841MPD2     N12366   1.862   2.752  14.887  0.1190  0.4846  0.0108
  841MPD2    H512367   1.932   2.683  14.859  0.2756  0.4910  0.3840
  841MPD2    N112368   1.600   2.573  14.515 -0.3118 -0.1036 -0.4583
  841MPD2    H712369   1.666   2.497  14.511  0.5830  0.7037 -1.1177
  842MPD2     C12370   2.483   4.047  17.078  0.2413  0.1207 -0.6455
  842MPD2    C112371   2.387   3.947  17.113  0.5891  0.5416  0.5165
  842MPD2    C212372   2.415   3.855  17.211  0.1549  0.2557  0.3808
  842MPD2    C312373   2.543   3.854  17.265  0.2437  0.3594  0.7263
  842MPD2    C412374   2.633   3.945  17.226 -0.2876  0.1406  0.5176
  842MPD2    C512375   2.605   4.046  17.137  0.8503 -0.2887  0.4043
  842MPD2     H12376   2.352   3.769  17.230  1.1538 -0.7861 -1.0196
  842MPD2    H112377   2.734   3.942  17.265 -0.9726  1.5899  2.4250
  842MPD2    H212378   2.465   4.117  16.997  1.5317 -1.9350 -2.7072
  842MPD2    H312379   2.676   4.120  17.101  1.0701 -0.9224 -0.4613
  842MPD2     N12380   2.595   3.754  17.354  0.3947  0.3076 -0.3368
  842MPD2    H512381   2.696   3.750  17.353  0.3208 -1.9589  0.4863
  842MPD2    N112382   2.280   3.944  17.031 -0.1238  0.1456 -0.5400
  842MPD2    H712383   2.277   4.015  16.959  1.1964  0.2543 -0.4852
  843MPD2     C12384   3.915   4.037  17.425 -0.2074  0.1489  0.4173
  843MPD2    C112385   3.930   4.028  17.565 -0.1916  0.3536  0.2712
  843MPD2    C212386   4.030   4.107  17.623  0.4314  0.1118 -0.8914
  843MPD2    C312387   4.100   4.195  17.550 -0.1072 -0.2286  0.0179
  843MPD2    C412388   4.076   4.204  17.411 -0.8035  0.5376 -0.2738
  843MPD2    C512389   3.987   4.122  17.349  0.6995 -0.1777  0.0060
  843MPD2     H12390   4.051   4.093   0.032  1.7434  1.9729 -0.9025
  843MPD2    H112391   4.125   4.271  17.342  0.0879 -0.3699 -0.5186
  843MPD2    H212392   3.847   3.968  17.377  2.8921 -2.1863 -0.6612
  843MPD2    H312393   3.984   4.118  17.240  1.0613  0.7569 -0.0377
  843MPD2     N12394   4.204   4.272  17.617 -0.1723  0.1575 -0.2354
  843MPD2    H512395   4.236   4.353  17.563  0.2878 -1.0758 -1.8223
  843MPD2    N112396   3.858   3.918  17.628  0.0094 -0.0117  0.7455
  843MPD2    H712397   3.799   3.867  17.562  1.1398 -0.2601 -0.0695
  844MPD2     C12398   2.491   3.438  16.392  0.7264  0.3129  0.2110
  844MPD2    C112399   2.563   3.315  16.401 -0.7004 -0.7954 -0.2404
  844MPD2    C212400   2.667   3.302  16.491 -0.0336  0.6555 -0.3426
  844MPD2    C312401   2.705   3.418  16.567 -0.0458  0.3705 -0.8642
  844MPD2    C412402   2.629   3.529  16.566 -0.3996  0.6487  0.1534
  844MPD2    C512403   2.525   3.540  16.475 -0.8776 -0.4478 -0.4757
  844MPD2     H12404   2.723   3.210  16.499  2.0604  1.9239 -0.4314
  844MPD2    H112405   2.641   3.615  16.630 -1.0588  1.4573 -0.8128
  844MPD2    H212406   2.407   3.460  16.326  0.9145  0.1367 -0.0853
  844MPD2    H312407   2.455   3.623  16.477  1.6338  1.6379  0.5001
  844MPD2     N12408   2.812   3.410  16.658  0.0567 -0.5270 -0.9327
  844MPD2    H512409   2.837   3.316  16.686  0.8998 -0.4524 -1.4425
  844MPD2    N112410   2.547   3.206  16.309 -0.4261  0.2890  0.3288
  844MPD2    H712411   2.617   3.133  16.316 -0.6865 -0.1233 -1.2503
  845MPD2     C12412   3.395   4.169  16.905  0.0279  0.2618  1.0133
  845MPD2    C112413   3.338   4.115  17.017 -0.1238  0.1166 -0.4644
  845MPD2    C212414   3.291   3.983  17.013  0.0958  0.2919  0.3375
  845MPD2    C312415   3.288   3.913  16.897 -0.4219 -0.3906 -0.2713
  845MPD2    C412416   3.326   3.978  16.781 -0.1153 -0.5321  0.6045
  845MPD2    C512417   3.380   4.106  16.787  0.0493 -0.2950  0.1697
  845MPD2     H12418   3.253   3.937  17.103  1.3020 -0.3360  0.5283
  845MPD2    H112419   3.314   3.924  16.688 -0.5871 -1.6566  1.3092
  845MPD2    H212420   3.435   4.269  16.892 -1.3959  0.7674  0.5126
  845MPD2    H312421   3.413   4.159  16.698  1.1311 -1.5444 -0.1745
  845MPD2     N12422   3.234   3.783  16.893  0.8088 -0.0482  0.7604
  845MPD2    H512423   3.196   3.761  16.801 -0.2376 -1.5310  1.5374
  845MPD2    N112424   3.324   4.197  17.127  0.0111  0.5452  0.4087
  845MPD2    H712425   3.356   4.293  17.114  1.8072 -0.2051 -0.6908
  846MPD2     C12426   4.552   4.592  13.431 -0.0222 -0.4952  0.5433
  846MPD2    C112427   4.476   4.705  13.429  0.3668 -0.6561 -0.0588
  846MPD2    C212428   4.410   4.720  13.549 -0.9961 -0.4951  0.9592
  846MPD2    C312429   4.416   4.638  13.663 -0.4903 -0.0739 -0.3370
  846MPD2    C412430   4.498   4.530  13.660  0.4131 -0.2321  0.4108
  846MPD2    C512431   4.566   4.506  13.543 -0.3848 -0.2005  1.1025
  846MPD2     H12432   4.335   0.075  13.544  2.0414  2.2962 -0.7892
  846MPD2    H112433   4.505   4.458  13.740  0.8969 -0.4428  0.1833
  846MPD2    H212434   4.601   4.570  13.337  0.2758  0.6987  0.4179
  846MPD2    H312435   4.611   4.408  13.534 -0.0144  0.1362 -0.6244
  846MPD2     N12436   4.337   4.664  13.774  0.7235 -0.2455  0.3131
  846MPD2    H512437   4.268   0.015  13.770  2.1597  0.9446 -1.8304
  846MPD2    N112438   4.473   0.079  13.328 -0.3665 -0.4257  0.2322
  846MPD2    H712439   4.417   0.163  13.343  0.6455  0.3972 -0.6582
  847MPD2     C12440   4.710   1.156  13.858  0.0145 -0.4593  0.2314
  847MPD2    C112441   4.612   1.126  13.949  0.6370  0.3738  0.2379
  847MPD2    C212442   4.550   1.003  13.932 -0.4912 -0.3500 -0.1629
  847MPD2    C312443   4.575   0.907  13.834 -0.2356  0.6116  0.5686
  847MPD2    C412444   4.681   0.940  13.754 -0.3710  1.0589  0.0972
  847MPD2    C512445   0.015   1.064  13.766  1.1763 -0.2017 -0.1101
  847MPD2     H12446   4.473   0.983  14.006 -1.0930 -0.8354 -0.9302
  847MPD2    H112447   4.719   0.875  13.677 -0.1154  0.8118  0.4301
  847MPD2    H212448   0.048   1.241  13.881  0.6230 -1.2828  1.6591
  847MPD2    H312449   0.088   1.091  13.691  0.5677  0.4512 -0.4666
  847MPD2     N12450   4.515   0.783  13.813  0.3222 -0.3515 -0.3013
  847MPD2    H512451   4.565   0.723  13.748  0.3233  1.7917 -2.2500
  847MPD2    N112452   4.576   1.200  14.061  0.1055 -0.5247  0.2822
  847MPD2    H712453   4.497   1.169  14.117  1.6350 -1.9216  1.6827
  848MPD2     C12454   2.342   3.899  16.553 -0.0366  0.8406 -0.4640
  848MPD2    C112455   2.439   3.922  16.646  0.7078  0.1555  0.3572
  848MPD2    C212456   2.506   4.041  16.644  0.8000  0.9038 -0.5303
  848MPD2    C312457   2.483   4.138  16.545 -0.1853 -0.1413  0.0826
  848MPD2    C412458   2.398   4.105  16.438 -0.1704 -0.6140 -0.5547
  848MPD2    C512459   2.325   3.988  16.448 -0.2441  0.5837  0.0429
  848MPD2     H12460   2.576   4.056  16.725 -2.3567 -2.2497  2.7820
  848MPD2    H112461   2.374   4.173  16.357 -1.1943 -0.3512 -0.0264
  848MPD2    H212462   2.281   3.809  16.549  0.0540  0.6584  2.2274
  848MPD2    H312463   2.252   3.967  16.370 -3.5168 -0.2620  3.3013
  848MPD2     N12464   2.541   4.270  16.549 -0.0577 -0.2590  1.1929
  848MPD2    H512465   2.528   4.310  16.457  0.4195 -1.2350  0.7033
  848MPD2    N112466   2.472   3.829  16.747  0.9964  0.2920  0.4905
  848MPD2    H712467   2.546   3.859  16.809  1.9793 -0.0658 -0.5181
  849MPD2     C12468   1.518   3.815  14.253 -0.2769  0.0423  0.5375
  849MPD2    C112469   1.629   3.798  14.337  0.0649  0.1859 -0.0388
  849MPD2    C212470   1.613   3.797  14.476 -0.5719 -0.1572 -0.5608
  849MPD2    C312471   1.481   3.802  14.525 -0.5135  0.0011  0.3189
  849MPD2    C412472   1.370   3.815  14.442 -0.4933  0.3120  0.3309
  849MPD2    C512473   1.391   3.821  14.304 -0.1456  0.6640  0.1798
  849MPD2     H12474   1.696   3.784  14.543 -0.8850 -0.6388 -0.2634
  849MPD2    H112475   1.267   3.810  14.476 -0.7975 -1.1184 -0.7792
  849MPD2    H212476   1.532   3.811  14.145  0.6010 -1.0812  0.6955
  849MPD2    H312477   1.296   3.833  14.253  1.4170  2.7706 -2.2317
  849MPD2     N12478   1.465   3.782  14.666  0.1875  0.0900 -0.0463
  849MPD2    H512479   1.547   3.758  14.720  0.4909 -0.2714 -0.6551
  849MPD2    N112480   1.750   3.771  14.274 -0.0058 -0.0145  0.3152
  849MPD2    H712481   1.743   3.775  14.173  1.2219  1.6263  0.2886
  850MPD2     C12482   4.277   2.113  14.674  0.0201  0.5448  0.0888
  850MPD2    C112483   4.305   2.146  14.805  0.7002 -0.0548  0.5434
  850MPD2    C212484   4.426   2.211  14.820  0.2642  0.5014 -0.2477
  850MPD2    C312485   4.521   2.230  14.724  0.2414  0.0768  0.5876
  850MPD2    C412486   4.489   2.187  14.596 -0.0559 -0.1478 -0.9599
  850MPD2    C512487   4.363   2.134  14.572  0.0607  0.5016 -0.4825
  850MPD2     H12488   4.450   2.250  14.918  2.4138 -3.1744  0.7098
  850MPD2    H112489   4.557   2.206  14.513 -0.7556  1.4862 -1.1472
  850MPD2    H212490   4.191   2.052  14.650  0.2451  0.2089  0.1342
  850MPD2    H312491   4.320   2.116  14.474  0.5399 -1.2537 -0.3783
  850MPD2     N12492   4.646   2.291  14.743  0.4432 -0.6633 -0.1890
  850MPD2    H512493   4.717   2.279  14.671 -0.3225 -3.1292 -0.5102
  850MPD2    N112494   4.229   2.113  14.914  0.3641 -0.2246  0.7405
  850MPD2    H712495   4.161   2.039  14.896 -0.9681  0.5327  2.6034
  851MPD2     C12496   4.713   1.840  15.454  0.5971 -0.3329  0.1200
  851MPD2    C112497   4.631   1.806  15.350  0.5432  0.0783  0.5177
  851MPD2    C212498   4.673   1.707  15.265 -0.6892 -0.1131 -0.0036
  851MPD2    C312499   0.075   1.645  15.274 -0.4792 -0.1703  0.8010
  851MPD2    C412500   0.165   1.687  15.374 -0.2080 -0.2200  0.5357
  851MPD2    C512501   0.113   1.782  15.461  0.4808 -0.0273  0.0131
  851MPD2     H12502   4.609   1.682  15.182  1.0073  3.6558 -2.4334
  851MPD2    H112503   0.265   1.647  15.384  1.1251  2.6975 -1.0050
  851MPD2    H212504   4.689   1.906  15.537  2.0602 -2.5631  2.3205
  851MPD2    H312505   0.185   1.813  15.536 -0.2884  0.1678  0.6651
  851MPD2     N12506   0.109   1.551  15.180 -0.4600 -0.7655 -0.0830
  851MPD2    H512507   0.037   1.527  15.112 -4.2360 -3.7002  4.9363
  851MPD2    N112508   4.506   1.869  15.350  0.0475 -0.4151  0.3520
  851MPD2    H712509   4.498   1.950  15.410  2.6114  0.1507 -0.0686
  852MPD2     C12510   4.428   4.149   9.797 -0.0965  0.2473 -0.2485
  852MPD2    C112511   4.427   4.204   9.923  0.7021 -0.4870 -0.4704
  852MPD2    C212512   4.531   4.287   9.967  0.1413  0.9241  0.0752
  852MPD2    C312513   4.618   4.336   9.874  1.1130  0.6362  0.4904
  852MPD2    C412514   4.611   4.293   9.745  0.7109  0.8929  0.6449
  852MPD2    C512515   4.521   4.200   9.715  0.6287  0.2897  0.0304
  852MPD2     H12516   4.526   4.330  10.066  0.1670 -0.0792  0.5150
  852MPD2    H112517   4.672   4.325   9.661  1.7721  0.2913  1.1779
  852MPD2    H212518   4.352   4.077   9.768  2.0296 -3.0622  2.3641
  852MPD2    H312519   4.516   4.166   9.612 -1.7391 -0.7403  0.4929
  852MPD2     N12520   4.714   4.426   9.920  0.0370 -0.6384  0.6340
  852MPD2    H512521   4.707   4.466  10.013  1.1730 -0.1061  0.4973
  852MPD2    N112522   4.316   4.159   9.996 -0.8421  0.4517  1.1300
  852MPD2    H712523   4.261   4.082   9.959 -0.5785  1.8337 -2.1185
  853MPD2     C12524   1.892   3.962  12.516  0.7800  0.5650 -0.2914
  853MPD2    C112525   1.790   4.044  12.484 -0.1674 -0.6772  0.0891
  853MPD2    C212526   1.743   4.038  12.352  0.0146 -0.2586  0.1180
  853MPD2    C312527   1.792   3.954  12.259 -0.2213 -0.0545  0.1852
  853MPD2    C412528   1.901   3.874  12.297 -0.2470  0.0204  0.4327
  853MPD2    C512529   1.952   3.878  12.424  0.2072 -0.4229 -0.2061
  853MPD2     H12530   1.655   4.092  12.318  0.1447  0.0809  0.3172
  853MPD2    H112531   1.947   3.798  12.235 -1.2820 -0.1345 -0.1590
  853MPD2    H212532   1.942   3.961  12.612  0.9292 -0.8924 -0.3941
  853MPD2    H312533   2.032   3.815  12.461  1.0883  0.6955 -0.2131
  853MPD2     N12534   1.761   3.964  12.122 -0.7034  0.5713  0.1894
  853MPD2    H512535   1.836   3.920  12.070 -0.8535  0.1953  0.2927
  853MPD2    N112536   1.726   4.117  12.594  0.1194 -0.0357 -0.4233
  853MPD2    H712537   1.749   4.090  12.689 -1.0118 -0.6427 -0.3181
  854MPD2     C12538   3.370   4.563  12.886 -0.4499  0.0498  0.2929
  854MPD2    C112539   3.388   4.478  12.784  0.6180  0.4367  0.0551
  854MPD2    C212540   3.469   4.366  12.796  0.6566  0.5220 -0.0529
  854MPD2    C312541   3.511   4.332  12.922 -0.0319 -0.1882 -0.1120
  854MPD2    C412542   3.480   4.418  13.024 -0.4338  1.0874 -0.1241
  854MPD2    C512543   3.416   4.538  13.010 -0.1224  0.0360 -0.1315
  854MPD2     H12544   3.487   4.295  12.715  0.8967 -0.9118  1.2691
  854MPD2    H112545   3.512   4.390  13.124  2.4614 -1.3541 -1.7201
  854MPD2    H212546   3.305   4.650  12.883  0.6600  0.8472 -0.4878
  854MPD2    H312547   3.397   4.586  13.106 -0.5006  0.0546 -0.2151
  854MPD2     N12548   3.582   4.211  12.938  0.2785 -0.0964 -0.5539
  854MPD2    H512549   3.602   4.154  12.857  0.3403  1.4450 -1.6259
  854MPD2    N112550   3.327   4.509  12.659 -0.5446 -0.1002 -0.2603
  854MPD2    H712551   3.270   4.593  12.661 -1.0335 -0.4379 -0.2147
  855MPD2     C12552   3.057   3.609  13.297  0.5504 -0.4626  0.5487
  855MPD2    C112553   3.179   3.550  13.330  0.0968  0.2405  0.3297
  855MPD2    C212554   3.292   3.592  13.275 -0.3248 -0.8379  0.9271
  855MPD2    C312555   3.283   3.709  13.203  1.0468 -0.5593 -0.4516
  855MPD2    C412556   3.161   3.775  13.176  0.3545 -0.1399  0.2844
  855MPD2    C512557   3.045   3.731  13.227  0.2110 -0.3690  0.4296
  855MPD2     H12558   3.389   3.557  13.309 -0.3310 -1.4403  0.3306
  855MPD2    H112559   3.149   3.865  13.116 -1.4734  0.0338  0.9246
  855MPD2    H212560   2.969   3.576  13.350  1.5010  0.7388  2.8587
  855MPD2    H312561   2.946   3.771  13.211 -0.0323 -1.6592 -1.3269
  855MPD2     N12562   3.401   3.766  13.152 -0.1866 -0.5441  0.1199
  855MPD2    H512563   3.387   3.848  13.094 -0.4030 -0.7654 -0.1440
  855MPD2    N112564   3.200   3.438  13.416  0.3002 -0.3203  0.3012
  855MPD2    H712565   3.290   3.413  13.454  2.5691  1.4678 -3.9508
  856MPD2     C12566   0.837   0.269  14.145  0.0610 -0.1353  0.9754
  856MPD2    C112567   0.863   0.348  14.038  0.8775 -0.3623 -0.6338
  856MPD2    C212568   0.771   0.449  14.004  0.3072 -0.3153  0.6753
  856MPD2    C312569   0.652   0.465  14.069  0.3487 -0.4143  0.1336
  856MPD2    C412570   0.630   0.383  14.179 -0.5144 -1.0912 -0.1041
  856MPD2    C512571   0.722   0.286  14.212  0.6100 -0.3053 -0.1690
  856MPD2     H12572   0.785   0.489  13.905 -1.8303 -1.0618  0.0610
  856MPD2    H112573   0.537   0.400  14.232  1.6531  1.6417  2.8511
  856MPD2    H212574   0.906   0.191  14.178  1.5861  1.3051  1.1946
  856MPD2    H312575   0.692   0.219  14.292  0.5911 -0.5758 -0.4045
  856MPD2     N12576   0.551   0.562  14.038  0.1228  0.3941 -0.1405
  856MPD2    H512577   0.466   0.564  14.093  2.3358  3.3157  3.1947
  856MPD2    N112578   0.969   0.329  13.953 -0.2260 -0.2660  0.3951
  856MPD2    H712579   0.986   0.399  13.881 -1.7706  0.4826  0.7599
  857MPD2     C12580   2.029   2.448  13.100  0.0914  0.4843 -0.3429
  857MPD2    C112581   2.154   2.406  13.147  0.2384 -0.9860  0.2407
  857MPD2    C212582   2.225   2.491  13.238  0.6779 -0.2662  0.1393
  857MPD2    C312583   2.169   2.615  13.269  0.1454  0.0651  0.3753
  857MPD2    C412584   2.046   2.653  13.219 -0.3593 -0.4686  0.3160
  857MPD2    C512585   1.978   2.570  13.129 -0.2806 -0.4626  0.0912
  857MPD2     H12586   2.325   2.466  13.270  0.5253 -0.4823  0.4394
  857MPD2    H112587   2.014   2.755  13.239  0.4803 -0.4627  1.6203
  857MPD2    H212588   1.983   2.386  13.023  0.0316  1.5440 -1.1632
  857MPD2    H312589   1.893   2.612  13.076 -0.5722  0.4683  1.2744
  857MPD2     N12590   2.233   2.716  13.342 -0.1561 -0.8907  0.5460
  857MPD2    H512591   2.189   2.807  13.332  0.3220 -0.8148 -0.9277
  857MPD2    N112592   2.218   2.291  13.096 -0.4947 -0.3965 -0.4687
  857MPD2    H712593   2.315   2.278  13.124 -0.4192  0.1044 -0.5110
  858MPD2     C12594   2.971   1.636  16.474  0.2835 -0.0474  0.5643
  858MPD2    C112595   3.043   1.555  16.556 -0.4682  0.1491  0.1197
  858MPD2    C212596   3.068   1.594  16.686  0.3909  0.7415 -0.8839
  858MPD2    C312597   3.040   1.726  16.733  0.6730  0.3364 -0.5967
  858MPD2    C412598   2.969   1.807  16.640 -0.1896  0.2437  0.3278
  858MPD2    C512599   2.934   1.763  16.512  0.3285 -0.2319 -0.2355
  858MPD2     H12600   3.128   1.525  16.745 -0.0518  1.1556  0.0562
  858MPD2    H112601   2.933   1.905  16.672  0.5711  0.3689  0.7982
  858MPD2    H212602   2.959   1.604  16.371 -1.4758  0.7143  0.5460
  858MPD2    H312603   2.890   1.836  16.445  1.1623 -0.0764 -0.6075
  858MPD2     N12604   3.088   1.783  16.856  0.1193 -0.0018 -0.5263
  858MPD2    H512605   3.048   1.873  16.879  1.2323 -0.0869  1.7967
  858MPD2    N112606   3.096   1.443  16.493  0.0182  0.0179 -0.3421
  858MPD2    H712607   3.059   1.427  16.400 -0.6166 -0.7056  0.0252
  859MPD2     C12608   1.506   3.645  15.623 -0.5287  0.3940 -0.6021
  859MPD2    C112609   1.634   3.593  15.612 -0.1561  0.1865 -0.0675
  859MPD2    C212610   1.686   3.513  15.711  0.6205  0.2998 -0.6989
  859MPD2    C312611   1.597   3.458  15.806  0.1609 -0.3335 -0.6760
  859MPD2    C412612   1.468   3.505  15.813 -0.0732 -0.4710  0.4221
  859MPD2    C512613   1.424   3.595  15.724 -0.3734  0.3941 -1.2082
  859MPD2     H12614   1.782   3.471  15.687 -0.1621 -1.2542 -1.0910
  859MPD2    H112615   1.393   3.457  15.875 -1.3854  0.1482 -0.6804
  859MPD2    H212616   1.471   3.717  15.550  1.4293 -1.1132 -3.0599
  859MPD2    H312617   1.320   3.625  15.721 -0.8556 -1.0261  1.0820
  859MPD2     N12618   1.631   3.354  15.895 -0.0350 -0.2075 -0.4624
  859MPD2    H512619   1.564   3.308  15.955  1.5007 -0.8772  0.7451
  859MPD2    N112620   1.727   3.642  15.519 -0.5766  0.3055 -0.5688
  859MPD2    H712621   1.826   3.617  15.525 -1.1233 -1.9094 -0.8834
  860MPD2     C12622   4.058   4.000  11.350  0.0919 -0.2256 -0.1175
  860MPD2    C112623   4.050   3.903  11.447 -0.2512 -0.2175 -0.4497
  860MPD2    C212624   3.933   3.870  11.506  0.7293  0.2756 -0.5717
  860MPD2    C312625   3.812   3.935  11.475 -0.2321  0.6082  0.0594
  860MPD2    C412626   3.819   4.029  11.378  0.2730 -0.4489  0.4515
  860MPD2    C512627   3.934   4.054  11.313  0.5158  0.0484 -0.3919
  860MPD2     H12628   3.942   3.788  11.576  2.4532 -0.7779 -2.0433
  860MPD2    H112629   3.733   4.079  11.335  1.8883  0.6743 -1.4768
  860MPD2    H212630   4.142   4.022  11.285 -2.0488  1.5460 -2.2840
  860MPD2    H312631   3.930   4.127  11.232  2.4201 -0.1254 -0.6385
  860MPD2     N12632   3.692   3.916  11.552  0.8900  0.3220  0.5143
  860MPD2    H512633   3.619   3.986  11.547  0.4948  0.0597  2.5361
  860MPD2    N112634   4.161   3.835  11.492 -0.5820  0.0299 -0.4233
  860MPD2    H712635   4.146   3.757  11.556  3.2110 -0.5551 -0.2544
  861MPD2     C12636   2.264   1.901  11.178  0.3326  0.7670 -0.0456
  861MPD2    C112637   2.346   2.010  11.197  0.3884  0.6423  0.0048
  861MPD2    C212638   2.295   2.130  11.158 -0.4201 -0.1759 -0.1934
  861MPD2    C312639   2.166   2.147  11.106 -0.3599  0.3402  0.4827
  861MPD2    C412640   2.084   2.036  11.092 -0.4239 -0.7738  0.5993
  861MPD2    C512641   2.136   1.917  11.135  0.4834  0.1490 -0.2558
  861MPD2     H12642   2.373   2.202  11.176 -1.1493  0.5442  0.1135
  861MPD2    H112643   1.985   2.029  11.050 -1.2247 -1.1599  2.5504
  861MPD2    H212644   2.292   1.800  11.207  0.0197  1.0622  1.2604
  861MPD2    H312645   2.064   1.837  11.139 -2.0429  2.5138  1.1733
  861MPD2     N12646   2.118   2.263  11.052 -0.0653  0.4530  0.5975
  861MPD2    H512647   2.024   2.261  11.013 -1.0048 -0.5975  2.9295
  861MPD2    N112648   2.482   2.002  11.249 -0.0225 -0.3229 -0.0632
  861MPD2    H712649   2.531   2.091  11.258 -0.7895  0.0798  0.1392
  862MPD2     C12650   1.944   2.425  10.343 -0.5974  0.0197  1.1960
  862MPD2    C112651   1.945   2.358  10.461 -0.2395 -0.7264  0.9806
  862MPD2    C212652   1.960   2.224  10.456 -0.3160 -0.1479 -0.3000
  862MPD2    C312653   1.972   2.151  10.339  0.3126 -0.1498 -0.0664
  862MPD2    C412654   1.966   2.212  10.222  0.3061 -0.7516 -1.0273
  862MPD2    C512655   1.950   2.348  10.225 -0.4574  0.0885 -0.5849
  862MPD2     H12656   1.970   2.161  10.544 -2.4435 -0.5795 -0.3609
  862MPD2    H112657   1.988   2.156  10.132 -1.5691 -0.0378 -1.9326
  862MPD2    H212658   1.919   2.529  10.326  2.8704  0.5455 -0.7079
  862MPD2    H312659   1.959   2.408  10.135 -2.4136  0.9113 -0.2199
  862MPD2     N12660   1.981   2.009  10.341 -0.9965  0.4022  0.0879
  862MPD2    H512661   1.967   1.967  10.250  2.0708  0.7596 -0.5260
  862MPD2    N112662   1.949   2.409  10.592  0.0188  0.0016 -0.5423
  862MPD2    H712663   1.934   2.342  10.667 -1.4145  0.6402 -0.2665
  863MPD2     C12664   1.207   0.997  16.758 -0.2507  0.5073 -0.9184
  863MPD2    C112665   1.131   0.972  16.868 -0.7137  0.4689 -0.6961
  863MPD2    C212666   1.190   0.970  16.994  0.2848  0.1604 -0.5593
  863MPD2    C312667   1.328   0.964  17.005 -0.3965  0.2452 -0.0530
  863MPD2    C412668   1.409   0.966  16.891 -0.1259  0.6194  0.5361
  863MPD2    C512669   1.349   0.989  16.770 -0.0138  0.2813 -0.2539
  863MPD2     H12670   1.132   0.961  17.085 -0.0183 -0.7634 -0.8426
  863MPD2    H112671   1.516   0.950  16.894 -0.0749  1.3130  2.4286
  863MPD2    H212672   1.158   0.992  16.661 -1.4297 -0.7475 -0.2583
  863MPD2    H312673   1.408   1.005  16.680  0.8249 -2.2534 -0.1609
  863MPD2     N12674   1.392   0.935  17.126 -0.0376  0.1624 -1.2307
  863MPD2    H512675   1.492   0.919  17.121 -0.6022 -3.9328  0.9901
  863MPD2    N112676   0.991   0.958  16.845  0.0527 -0.1702  0.1811
  863MPD2    H712677   0.973   0.933  16.748 -0.0999  0.9719 -0.0762
  864MPD2     C12678   2.151   1.681  17.511 -0.1592  0.2728 -0.5589
  864MPD2    C112679   2.104   1.663  17.382 -0.2336  0.5245 -0.0300
  864MPD2    C212680   2.171   1.730  17.271  0.7331  0.0430  0.5392
  864MPD2    C312681   2.288   1.799  17.297  0.1403  0.2885 -0.6745
  864MPD2    C412682   2.342   1.803  17.423 -0.0458  0.5034 -0.0949
  864MPD2    C512683   2.270   1.748  17.526 -0.8987  0.7601 -0.3583
  864MPD2     H12684   2.140   1.717  17.168 -2.4914  2.6003  1.1706
  864MPD2    H112685   2.446   1.830  17.438  0.5814 -3.1420  2.3619
  864MPD2    H212686   2.093   1.639  17.592 -0.7230  0.8025 -0.6848
  864MPD2    H312687   2.313   1.757  17.625  0.0628  3.5828 -1.0125
  864MPD2     N12688   2.378   1.841  17.187 -0.0004  0.0517 -0.8767
  864MPD2    H512689   2.477   1.856  17.207 -0.5168 -1.6612  2.9922
  864MPD2    N112690   1.995   1.573  17.359 -0.5468 -0.6113  0.5449
  864MPD2    H712691   1.994   1.541  17.262  2.7500 -0.3976  0.4138
  865MPD2     C12692   2.114   2.181  16.298 -0.5476 -0.0258  0.0485
  865MPD2    C112693   2.060   2.083  16.377 -0.7529 -0.3922  0.0404
  865MPD2    C212694   2.135   2.036  16.482 -0.0183  0.5073 -0.2537
  865MPD2    C312695   2.258   2.083  16.503 -0.4471  0.4057  0.1719
  865MPD2    C412696   2.318   2.184  16.424 -0.3656  0.1512 -0.8393
  865MPD2    C512697   2.240   2.236  16.326 -0.2789 -0.2106  0.4418
  865MPD2     H12698   2.102   1.952  16.542  0.1762  0.2459 -0.5124
  865MPD2    H112699   2.414   2.233  16.437  0.2230 -0.7371 -1.8494
  865MPD2    H212700   2.062   2.227  16.215  0.4201  2.0766  0.6023
  865MPD2    H312701   2.266   2.326  16.273 -0.0231 -0.1737  0.6271
  865MPD2     N12702   2.331   2.022  16.607  0.4256 -0.6391 -0.5696
  865MPD2    H512703   2.277   1.957  16.664 -0.5086 -0.9896 -1.8435
  865MPD2    N112704   1.937   2.021  16.343 -0.5441 -0.6262  0.1933
  865MPD2    H712705   1.894   2.033  16.252 -1.2522 -0.7663  0.5043
  866MPD2     C12706   3.427   2.312  11.389 -0.7759 -0.3031 -0.5530
  866MPD2    C112707   3.414   2.319  11.255 -0.4666  0.2396 -0.0236
  866MPD2    C212708   3.298   2.370  11.199  0.6942 -0.2056 -0.1624
  866MPD2    C312709   3.187   2.406  11.286  0.5003  0.4619  0.6647
  866MPD2    C412710   3.202   2.387  11.421  0.0478  0.3390 -0.1693
  866MPD2    C512711   3.316   2.340  11.471 -0.6287  0.2880 -0.1540
  866MPD2     H12712   3.288   2.389  11.093  0.4374  0.5403 -0.0046
  866MPD2    H112713   3.121   2.390  11.494 -1.1921 -0.3264 -1.5056
  866MPD2    H212714   3.505   2.256  11.440  0.6464  1.4141 -0.8521
  866MPD2    H312715   3.318   2.307  11.574  1.0166  3.7523  0.9288
  866MPD2     N12716   3.066   2.458  11.233 -0.3598  0.1239  0.7751
  866MPD2    H512717   2.998   2.497  11.297 -0.9101 -0.2431  0.4139
  866MPD2    N112718   3.529   2.270  11.187 -0.0741 -0.2244 -0.2617
  866MPD2    H712719   3.609   2.239  11.241  0.1476  0.8031  0.0062
  867MPD2     C12720   1.063   2.009  16.476 -0.0323  0.5863  0.4700
  867MPD2    C112721   1.120   2.007  16.603 -0.5532  0.1170 -0.2558
  867MPD2    C212722   1.242   2.077  16.620  0.7439 -0.5621 -0.1822
  867MPD2    C312723   1.301   2.153  16.524  0.0543  0.4041 -0.1325
  867MPD2    C412724   1.244   2.150  16.398  0.2026  0.0690  0.6183
  867MPD2    C512725   1.128   2.080  16.376  0.4726  0.6324  0.0596
  867MPD2     H12726   1.301   2.068  16.711 -0.8928  3.1506  1.2234
  867MPD2    H112727   1.295   2.186  16.309 -0.7171 -2.2190 -0.8357
  867MPD2    H212728   0.971   1.960  16.447 -0.2562  0.8847  0.6675
  867MPD2    H312729   1.089   2.068  16.276  1.4868  0.8613 -0.3662
  867MPD2     N12730   1.412   2.237  16.551  0.7380  0.3367  0.2724
  867MPD2    H512731   1.482   2.234  16.478  1.3389  0.6738  0.8399
  867MPD2    N112732   1.077   1.909  16.701  0.8306 -0.2896  0.3062
  867MPD2    H712733   1.010   1.844  16.661  1.1794  0.0100 -0.7694
  868MPD2     C12734   3.305   1.151  13.069 -0.2794  0.4882 -0.1712
  868MPD2    C112735   3.278   1.053  13.163 -0.1941 -0.1512 -0.5397
  868MPD2    C212736   3.151   1.049  13.224 -0.4170 -0.0134  0.6028
  868MPD2    C312737   3.071   1.166  13.215 -0.2415 -0.1622  0.5171
  868MPD2    C412738   3.108   1.268  13.128 -0.0705 -0.2919  0.4602
  868MPD2    C512739   3.222   1.258  13.050 -0.6295 -0.3031 -0.0329
  868MPD2     H12740   3.113   0.964  13.279  1.0345 -1.5849 -0.8529
  868MPD2    H112741   3.043   1.354  13.115  0.9801  0.3859 -0.2619
  868MPD2    H212742   3.395   1.136  13.011 -0.7963 -0.0302 -0.8360
  868MPD2    H312743   3.244   1.339  12.982 -0.0503 -1.2621 -1.0041
  868MPD2     N12744   2.941   1.161  13.273 -0.0788 -0.3293 -0.3165
  868MPD2    H512745   2.914   1.080  13.327 -1.4395  0.0112 -0.4847
  868MPD2    N112746   3.363   0.943  13.159  0.3939  0.7056 -0.0895
  868MPD2    H712747   3.432   0.959  13.087  2.0780 -1.4273  1.0690
  869MPD2     C12748   3.722   2.934   1.545 -0.1000 -0.2172 -0.4999
  869MPD2    C112749   3.850   2.994   1.565 -0.3443  0.3538  0.3249
  869MPD2    C212750   3.871   3.117   1.504 -0.0682 -0.5910  0.4224
  869MPD2    C312751   3.760   3.171   1.434  0.3455  0.0421 -0.6280
  869MPD2    C412752   3.634   3.113   1.428  0.5640 -0.5329  0.8382
  869MPD2    C512753   3.613   2.990   1.482 -0.8837  0.1710  0.2342
  869MPD2     H12754   3.968   3.163   1.486 -0.1224  0.2425  2.2180
  869MPD2    H112755   3.561   3.162   1.365 -0.7760 -1.8710  1.3383
  869MPD2    H212756   3.702   2.834   1.582 -0.4651  0.7552  1.9760
  869MPD2    H312757   3.519   2.937   1.473 -0.4765 -0.4492 -0.3829
  869MPD2     N12758   3.779   3.286   1.351 -0.3498 -0.4976  0.2076
  869MPD2    H512759   3.701   3.304   1.289  0.8475  0.9129 -0.8589
  869MPD2    N112760   3.951   2.931   1.639  0.3578  0.2970  0.3867
  869MPD2    H712761   3.923   2.843   1.682  0.3935 -0.7510 -1.7078
  870MPD2     C12762   3.344   1.498   1.799 -0.0220 -0.4190 -0.5961
  870MPD2    C112763   3.408   1.617   1.769 -0.7583 -0.1622  0.4597
  870MPD2    C212764   3.340   1.707   1.687  0.4086  0.4989  0.0739
  870MPD2    C312765   3.207   1.691   1.649  0.2736  0.8179  0.3694
  870MPD2    C412766   3.150   1.570   1.683  0.0254 -0.5024 -0.5778
  870MPD2    C512767   3.218   1.474   1.753  0.2205  0.0899  0.1471
  870MPD2     H12768   3.385   1.803   1.665 -0.4286  0.6070 -1.1592
  870MPD2    H112769   3.046   1.557   1.656 -0.1358  1.3865 -0.8224
  870MPD2    H212770   3.396   1.427   1.862 -1.5907  0.1843  1.3941
  870MPD2    H312771   3.173   1.383   1.792 -1.8420  0.2524 -1.8019
  870MPD2     N12772   3.125   1.786   1.584  0.3060  0.3303 -0.2139
  870MPD2    H512773   3.033   1.758   1.550  0.4989 -0.0039 -0.4624
  870MPD2    N112774   3.530   1.634   1.829  0.5283 -0.5340  0.0771
  870MPD2    H712775   3.555   1.565   1.899  1.3164  0.2082  0.5451
  871MPD2     C12776   4.707   1.700  16.434 -0.4897  0.8755 -0.5445
  871MPD2    C112777   4.636   1.657  16.545 -0.0010  0.3169  0.5603
  871MPD2    C212778   4.592   1.525  16.563  0.3578  0.8569  0.1725
  871MPD2    C312779   4.618   1.438  16.465  0.1143 -0.7321  0.0309
  871MPD2    C412780   4.676   1.481  16.341  1.1274 -0.0740  0.5699
  871MPD2    C512781   4.717   1.607  16.332 -0.0260  0.0230  0.1475
  871MPD2     H12782   4.566   1.500  16.665  2.1258  1.3096  0.7390
  871MPD2    H112783   4.701   1.416  16.258 -2.9810 -0.7577 -0.1143
  871MPD2    H212784   0.023   1.800  16.429 -1.7277  1.2092 -3.4745
  871MPD2    H312785   0.041   1.635  16.239 -1.7714  0.7769 -0.5181
  871MPD2     N12786   4.577   1.303  16.493  1.1813  0.4497 -0.3784
  871MPD2    H512787   4.540   1.278  16.584  2.6396 -0.2122  0.0291
  871MPD2    N112788   4.619   1.763  16.641  0.7787  0.0843 -0.7995
  871MPD2    H712789   4.660   1.853  16.618  1.7540 -0.6758 -2.0227
  872MPD2     C12790   0.701   4.155  14.317 -0.1592  0.8691 -0.2611
  872MPD2    C112791   0.656   4.247  14.219 -0.3014  0.1776  0.2905
  872MPD2    C212792   0.524   4.288  14.220 -0.2263 -0.0988 -0.9250
  872MPD2    C312793   0.438   4.232  14.316 -0.1150  0.0342 -0.1836
  872MPD2    C412794   0.486   4.142  14.411  0.0357  0.0116  0.3440
  872MPD2    C512795   0.615   4.105  14.403 -0.4568  0.1039  0.7975
  872MPD2     H12796   0.504   4.364  14.145  0.0723 -0.9587 -1.8779
  872MPD2    H112797   0.431   4.103  14.496  1.3119 -0.6743  0.8570
  872MPD2    H212798   0.800   4.110  14.315 -0.5086  0.0354  1.1329
  872MPD2    H312799   0.649   4.031  14.475  1.0740  0.4523  0.4180
  872MPD2     N12800   0.303   4.264  14.333  0.3193 -0.0245  0.0833
  872MPD2    H512801   0.246   4.207  14.394 -0.2826  0.9717  0.4602
  872MPD2    N112802   0.738   4.313  14.121  0.2812 -0.0575 -0.6322
  872MPD2    H712803   0.697   4.367  14.046  0.4187 -0.9291 -1.3389
  873MPD2     C12804   2.145   4.204   0.781 -0.5472 -0.2523 -0.0709
  873MPD2    C112805   2.169   4.154   0.904 -0.3450  0.2534 -1.0349
  873MPD2    C212806   2.140   4.021   0.946 -0.4658 -0.0990  0.1663
  873MPD2    C312807   2.077   3.944   0.846 -0.0048  0.9568  0.3028
  873MPD2    C412808   2.066   3.991   0.715 -0.8624  0.1905 -0.0576
  873MPD2    C512809   2.095   4.116   0.690 -0.3574  0.4293  0.1853
  873MPD2     H12810   2.147   3.996   1.051  0.9285 -1.1674 -0.1796
  873MPD2    H112811   2.010   3.933   0.643  0.1198 -1.2185  0.3133
  873MPD2    H212812   2.160   4.307   0.750 -1.0603 -0.9394 -2.6065
  873MPD2    H312813   2.073   4.148   0.589 -1.8614 -2.1962 -0.3258
  873MPD2     N12814   2.013   3.830   0.876  0.8037 -0.2466  0.5024
  873MPD2    H512815   1.958   3.786   0.802  0.8480  1.4150 -0.5164
  873MPD2    N112816   2.222   4.256   0.992  0.1431 -0.5439 -0.2271
  873MPD2    H712817   2.232   4.353   0.962  0.2077 -1.1064 -2.0464
  874MPD2     C12818   2.059   4.231  16.310  0.0759  0.6880  0.3574
  874MPD2    C112819   2.091   4.233  16.442 -0.0611 -0.2369  0.1746
  874MPD2    C212820   2.174   4.338  16.482 -0.5660  0.1178 -0.0251
  874MPD2    C312821   2.228   4.425  16.390  0.0453  0.4400 -0.3904
  874MPD2    C412822   2.196   4.413  16.257 -0.6440  0.0205  0.2579
  874MPD2    C512823   2.111   4.317  16.218  0.1063 -0.0394 -0.5325
  874MPD2     H12824   2.196   4.350  16.587  1.6055  2.5000 -0.7466
  874MPD2    H112825   2.233   4.483  16.183  0.4740  0.0693  0.8587
  874MPD2    H212826   2.004   4.150  16.262 -1.6904  2.1786 -0.1262
  874MPD2    H312827   2.080   4.312  16.114  0.9074  1.7265 -0.8565
  874MPD2     N12828   2.319   4.534  16.427 -0.0065  0.0922  0.7021
  874MPD2    H512829   2.375   4.578  16.355 -1.6151  0.5033 -0.3210
  874MPD2    N112830   2.036   4.134  16.525  0.4703 -0.2427  0.4268
  874MPD2    H712831   1.993   4.059  16.472  3.4123 -0.0864 -2.1885
  875MPD2     C12832   2.636   3.002  14.709  0.2483 -0.4364 -0.1653
  875MPD2    C112833   2.610   2.877  14.772 -0.0565 -0.9933 -0.3794
  875MPD2    C212834   2.698   2.831  14.861 -0.1664  0.7806  0.5557
  875MPD2    C312835   2.809   2.905  14.893  0.2273  0.6944 -0.1165
  875MPD2    C412836   2.832   3.029  14.845 -0.5464 -0.1781  1.5871
  875MPD2    C512837   2.740   3.083  14.757  0.4909 -0.0816  0.4849
  875MPD2     H12838   2.684   2.733  14.905 -2.9899  1.3822  0.9797
  875MPD2    H112839   2.906   3.095  14.890  0.7590 -0.3922 -0.2048
  875MPD2    H212840   2.588   3.034  14.618 -0.6956 -0.0573  0.4672
  875MPD2    H312841   2.763   3.183  14.722  0.2392 -1.3353 -3.2860
  875MPD2     N12842   2.892   2.867  15.000  0.1205  0.2137 -0.0314
  875MPD2    H512843   2.975   2.923  15.016  0.2583  0.6438 -2.2994
  875MPD2    N112844   2.499   2.814  14.733 -0.3557  0.3066  0.7749
  875MPD2    H712845   2.450   2.870  14.664  0.2151  0.0405  0.1429
  876MPD2     C12846   1.667   3.796  16.104 -0.1026 -0.9446 -0.4868
  876MPD2    C112847   1.807   3.781  16.108 -0.3902 -0.4829 -0.5281
  876MPD2    C212848   1.866   3.671  16.170  0.6429 -0.3132  0.3530
  876MPD2    C312849   1.792   3.578  16.234  0.0506  0.1667  0.3734
  876MPD2    C412850   1.651   3.601  16.240 -0.4714  0.8451  0.4512
  876MPD2    C512851   1.590   3.707  16.169 -0.2453  0.4420  0.2125
  876MPD2     H12852   1.974   3.666  16.176  0.7263 -1.2123 -2.0681
  876MPD2    H112853   1.593   3.526  16.292  1.4160  1.1281  2.9887
  876MPD2    H212854   1.622   3.879  16.051  1.6753 -0.9666 -2.0466
  876MPD2    H312855   1.483   3.719  16.182 -0.7553 -2.5733 -1.1452
  876MPD2     N12856   1.860   3.468  16.284 -0.2795 -0.2835  0.4048
  876MPD2    H512857   1.958   3.464  16.257 -0.8289 -1.1357 -1.4871
  876MPD2    N112858   1.881   3.888  16.062  0.3811  0.5486 -0.1293
  876MPD2    H712859   1.830   3.970  16.031 -0.5428 -0.0538 -0.2052
  877MPD2     C12860   1.848   4.263  15.435  0.3236  0.3386  0.0596
  877MPD2    C112861   1.982   4.247  15.448  0.4408 -0.6685 -0.1264
  877MPD2    C212862   2.073   4.269  15.347  0.4971 -0.2907 -0.1704
  877MPD2    C312863   2.022   4.292  15.216  0.0278 -0.3164  0.8147
  877MPD2    C412864   1.881   4.298  15.201 -0.7576 -0.3860 -1.0908
  877MPD2    C512865   1.795   4.286  15.311  0.0322  0.3936 -0.8229
  877MPD2     H12866   2.178   4.246  15.359 -0.0827 -2.4127  0.9823
  877MPD2    H112867   1.834   4.317  15.105 -0.2576  0.6800 -1.1204
  877MPD2    H212868   1.775   4.274  15.515 -2.1832 -2.8708 -1.7961
  877MPD2    H312869   1.688   4.302  15.297 -0.1544 -0.0926  0.0304
  877MPD2     N12870   2.095   4.275  15.097 -0.5756 -0.3052 -0.4332
  877MPD2    H512871   2.040   4.259  15.013 -0.3988  1.5727 -0.9083
  877MPD2    N112872   2.036   4.229  15.576  0.0122 -0.3846 -0.4601
  877MPD2    H712873   2.135   4.206  15.574  0.4011  1.1684  1.3444
  878MPD2     C12874   1.560   3.581  13.518 -0.0483 -0.0679 -0.0700
  878MPD2    C112875   1.690   3.618  13.497  0.4582  0.9882  0.5047
  878MPD2    C212876   1.777   3.637  13.605  0.3079  0.4010  0.0390
  878MPD2    C312877   1.733   3.618  13.735  0.2530  0.1503  0.1919
  878MPD2    C412878   1.611   3.553  13.748 -0.2714  0.5539 -0.0590
  878MPD2    C512879   1.518   3.550  13.645  0.3242 -1.0116  0.3844
  878MPD2     H12880   1.876   3.673  13.581  0.1285 -0.7223 -2.4413
  878MPD2    H112881   1.574   3.525  13.845  0.9759 -2.8819 -0.5805
  878MPD2    H212882   1.495   3.575  13.431  1.5986 -1.1924 -1.2206
  878MPD2    H312883   1.420   3.513  13.670  0.0168  1.1532  2.4083
  878MPD2     N12884   1.825   3.613  13.841  0.3072  0.2145  0.0835
  878MPD2    H512885   1.924   3.624  13.822  0.4108 -0.8213  0.0248
  878MPD2    N112886   1.723   3.649  13.360 -0.2190 -0.4687 -0.1600
  878MPD2    H712887   1.653   3.638  13.287  0.2933 -0.6802 -0.6194
  879MPD2     C12888   2.761   4.461  17.253 -0.0906 -0.4208  0.3055
  879MPD2    C112889   2.669   4.539  17.318 -0.5501 -0.2934  0.4814
  879MPD2    C212890   2.548   4.568  17.263 -0.0516  0.1506  1.0106
  879MPD2    C312891   2.514   4.503  17.148 -0.9966 -0.1489 -0.2370
  879MPD2    C412892   2.594   4.406  17.093 -0.2728  0.4286  0.2005
  879MPD2    C512893   2.721   4.391  17.146 -0.0432 -0.3595 -0.3915
  879MPD2     H12894   2.475   4.630  17.313 -1.7509 -1.7995  0.9435
  879MPD2    H112895   2.564   4.353  17.003  2.4327  0.7616 -0.9258
  879MPD2    H212896   2.865   4.454  17.282 -0.2919  0.3933  1.2477
  879MPD2    H312897   2.784   4.335  17.078 -1.1922 -1.3017 -0.6893
  879MPD2     N12898   2.384   4.512  17.081  0.8103  0.8187  0.1121
  879MPD2    H512899   2.356   4.440  17.016  0.5674  0.8119  0.2270
  879MPD2    N112900   2.713   4.593  17.441 -0.0063 -0.0803 -0.4479
  879MPD2    H712901   2.800   4.549  17.469  0.1631  1.3131  1.2188
  880MPD2     C12902   3.292   1.724   0.138  0.2779 -0.2293 -0.0525
  880MPD2    C112903   3.297   1.807   0.251  0.5173  0.2021  0.2029
  880MPD2    C212904   3.380   1.762   0.357 -0.5580  0.1768 -0.1388
  880MPD2    C312905   3.436   1.632   0.352  0.1065  1.0664 -0.8201
  880MPD2    C412906   3.436   1.560   0.232  0.5918 -0.4480  0.0778
  880MPD2    C512907   3.363   1.608   0.127 -0.1033  0.2759  0.2797
  880MPD2     H12908   3.384   1.834   0.438 -1.6806  1.0736 -0.8843
  880MPD2    H112909   3.468   1.457   0.223 -0.0970 -0.6722  0.2061
  880MPD2    H212910   3.257   1.764   0.044  0.2555 -0.0746  0.0230
  880MPD2    H312911   3.366   1.551   0.034 -1.0227  0.1273  0.3430
  880MPD2     N12912   3.495   1.590   0.473  0.3351 -0.3820  0.4582
  880MPD2    H512913   3.500   1.655   0.550  1.3999 -1.0396  0.9513
  880MPD2    N112914   3.226   1.927   0.241  0.1558  0.3820 -0.5426
  880MPD2    H712915   3.175   1.952   0.157  0.3948 -0.4448 -0.9346
  881MPD2     C12916   3.507   2.775  17.523 -0.6534 -0.5200  0.3401
  881MPD2    C112917   3.581   2.655  17.537 -0.5379  0.5941  0.2398
  881MPD2    C212918   3.530   2.557  17.621 -0.4383  0.2626 -0.1967
  881MPD2    C312919   3.426   2.593   0.008  0.4479 -0.0555  0.5012
  881MPD2    C412920   3.382   2.723   0.015  0.0114 -0.5098 -0.6626
  881MPD2    C512921   3.417   2.816  17.619  0.1219 -0.2406 -0.6571
  881MPD2     H12922   3.572   2.458  17.629  0.8586  0.6928 -1.7978
  881MPD2    H112923   3.300   2.746   0.082 -0.9977 -0.5239 -1.8991
  881MPD2    H212924   3.548   2.855  17.462 -0.8435  0.1118  1.0522
  881MPD2    H312925   3.375   2.915  17.608 -0.8849 -0.5704  0.1493
  881MPD2     N12926   3.375   2.499   0.100  0.1316 -0.6049  0.2559
  881MPD2    H512927   3.316   2.536   0.174 -0.8247 -0.5751 -0.5238
  881MPD2    N112928   3.665   2.623  17.431  0.4504 -0.5141  0.1859
  881MPD2    H712929   3.683   2.698  17.366  1.3733 -0.5598  0.3926
  882MPD2     C12930   2.151   3.998  14.294 -0.0613 -0.5527 -0.1419
  882MPD2    C112931   2.084   4.061  14.396  0.1551 -0.1668  0.7100
  882MPD2    C212932   1.963   4.116  14.365  0.0263  0.4507  0.3507
  882MPD2    C312933   1.895   4.105  14.240 -0.2482 -0.2142  0.1852
  882MPD2    C412934   1.976   4.048  14.135  0.0041  0.0365 -0.1983
  882MPD2    C512935   2.098   3.996  14.167 -0.1423 -0.0055 -0.1599
  882MPD2     H12936   1.918   4.157  14.455  1.3948 -2.8459  2.5198
  882MPD2    H112937   1.950   4.051  14.030 -0.5072  1.4228 -0.0413
  882MPD2    H212938   2.250   3.956  14.309  0.3389  1.0237  1.5867
  882MPD2    H312939   2.147   3.926  14.099 -1.4442 -1.3669  0.3101
  882MPD2     N12940   1.771   4.151  14.210  0.2818  0.7901 -0.4688
  882MPD2    H512941   1.729   4.122  14.122  0.4702 -0.1739 -0.2379
  882MPD2    N112942   2.143   4.051  14.524 -0.0460 -0.5610  0.4594
  882MPD2    H712943   2.225   3.992  14.534 -0.8242 -1.5298  1.0436
  883MPD2     C12944   4.518   4.303  16.814 -0.2571 -0.4805 -0.1544
  883MPD2    C112945   4.606   4.346  16.714 -0.4137  0.5906  0.1193
  883MPD2    C212946   4.724   4.414  16.749  0.3751 -0.1017 -0.2977
  883MPD2    C312947   0.041   4.425  16.880 -0.3026 -0.3779  0.3239
  883MPD2    C412948   4.678   4.383  16.980  0.3247 -0.1941 -0.3054
  883MPD2    C512949   4.554   4.332  16.946 -0.6529 -0.2801 -0.0248
  883MPD2     H12950   0.069   4.465  16.683  2.1268 -1.1364  0.7386
  883MPD2    H112951   4.701   4.404  17.084  0.6232 -1.8243 -0.0403
  883MPD2    H212952   4.416   4.271  16.798 -0.9401  0.9675  1.3432
  883MPD2    H312953   4.488   4.300  17.026  0.7225 -1.2675  0.7112
  883MPD2     N12954   0.166   4.479  16.907  1.0257  0.0526  0.1837
  883MPD2    H512955   0.223   4.499  16.826  2.0223  0.3085  0.9404
  883MPD2    N112956   4.586   4.337  16.576  0.1514  0.2257 -0.0846
  883MPD2    H712957   4.665   4.354  16.515 -0.3616 -1.1877 -1.1309
  884MPD2     C12958   1.101   0.181  15.582 -0.0858 -0.5112  0.3505
  884MPD2    C112959   1.145   0.241  15.467 -0.1221  0.0255 -0.2687
  884MPD2    C212960   1.051   0.311  15.392 -0.4226  0.7267 -0.0996
  884MPD2    C312961   0.915   0.312  15.430  0.5005 -0.3992 -0.6358
  884MPD2    C412962   0.878   0.253  15.550 -0.2664 -0.6630  0.6369
  884MPD2    C512963   0.969   0.184  15.619 -0.3104 -0.2295  0.4453
  884MPD2     H12964   1.089   0.353  15.299  0.0274 -2.1580 -1.2040
  884MPD2    H112965   0.774   0.255  15.580  0.1565  2.0875  1.9364
  884MPD2    H212966   1.165   0.125  15.649  1.5896 -1.1814 -1.8366
  884MPD2    H312967   0.930   0.138  15.709  0.3741 -1.1724  0.2495
  884MPD2     N12968   0.829   0.381  15.352  0.3629  0.1301  0.3310
  884MPD2    H512969   0.864   0.443  15.279 -1.1548  0.6750  0.0534
  884MPD2    N112970   1.274   0.229  15.408 -0.4794 -0.3867  0.2598
  884MPD2    H712971   1.292   0.295  15.333  1.7055 -2.4917 -1.0839
  885MPD2     C12972   4.124   0.774   0.162  0.4770 -0.3771 -0.1037
  885MPD2    C112973   4.141   0.652   0.094  0.2177  0.4353  0.7401
  885MPD2    C212974   4.149   0.650  17.646  0.1695  0.4974  0.2277
  885MPD2    C312975   4.141   0.766  17.576  0.0104  0.4994 -1.5189
  885MPD2    C412976   4.113   0.883  17.646 -0.2230 -0.5038  0.5311
  885MPD2    C512977   4.116   0.887   0.085 -0.0791  0.1568  0.1888
  885MPD2     H12978   4.155   0.562  17.583 -1.1430  0.5641  0.0261
  885MPD2    H112979   4.107   0.976  17.590 -0.4377 -0.6974  0.2318
  885MPD2    H212980   4.109   0.791   0.268 -1.4700 -1.5285 -0.1911
  885MPD2    H312981   4.087   0.977   0.138  0.7900 -1.0675  2.7678
  885MPD2     N12982   4.137   0.754  17.435 -0.3121  0.1243 -0.2036
  885MPD2    H512983   4.179   0.667  17.403 -0.5437  0.1727 -0.6291
  885MPD2    N112984   4.123   0.533   0.168 -0.4845  0.4493  0.6593
  885MPD2    H712985   4.116   0.552   0.268 -2.2089 -1.4071  0.9014
  886MPD2     C12986   0.558   3.740  15.244  0.5940  0.0559  0.3551
  886MPD2    C112987   0.689   3.758  15.288  0.1536  1.0859  0.4913
  886MPD2    C212988   0.763   3.857  15.222 -0.2988 -0.2672  0.5962
  886MPD2    C312989   0.713   3.927  15.111 -0.2418  1.1155  0.3934
  886MPD2    C412990   0.579   3.919  15.092 -0.5893 -0.2213 -0.7004
  886MPD2    C512991   0.504   3.828  15.155  0.5071  0.6879  0.1763
  886MPD2     H12992   0.865   3.872  15.253 -0.0398  2.2725 -1.5080
  886MPD2    H112993   0.534   3.971  15.008 -1.7921 -0.4855 -0.2170
  886MPD2    H212994   0.491   3.668  15.290 -0.8966  0.4920 -1.1227
  886MPD2    H312995   0.406   3.812  15.110 -0.4074  0.7109  2.1476
  886MPD2     N12996   0.782   4.026  15.033 -0.2106  0.2124 -0.0644
  886MPD2    H512997   0.723   4.077  14.968  0.0776  0.5676 -0.0435
  886MPD2    N112998   0.736   3.690  15.405  0.0124 -0.1304  0.4115
  886MPD2    H712999   0.828   3.720  15.435 -0.3243  0.2675  1.0394
  887MPD2     C13000   1.217   3.809  15.940  0.0610 -0.4510 -0.5627
  887MPD2    C113001   1.134   3.841  15.827 -0.7228 -0.1155  0.3198
  887MPD2    C213002   1.156   3.960  15.764  0.2505 -0.3912  0.7209
  887MPD2    C313003   1.252   4.047  15.810  0.2758  0.2194 -0.0619
  887MPD2    C413004   1.342   4.006  15.906  0.4368 -0.6161  0.1779
  887MPD2    C513005   1.321   3.887  15.964  0.1844  0.0204 -0.5447
  887MPD2     H13006   1.078   3.992  15.695 -1.4555 -0.2107  2.7185
  887MPD2    H113007   1.421   4.071  15.941 -0.4155 -0.2966  1.5344
  887MPD2    H213008   1.207   3.717  15.996 -0.1572 -0.0493  0.0661
  887MPD2    H313009   1.395   3.859  16.037 -0.3694  0.8754  0.3394
  887MPD2     N13010   1.281   4.175  15.757  0.1955  0.0753 -0.2208
  887MPD2    H513011   1.368   4.224  15.775 -0.8848  1.9702 -0.1945
  887MPD2    N113012   1.027   3.754  15.784 -0.0505 -0.2370 -0.1049
  887MPD2    H713013   0.980   3.766  15.695 -3.1884  0.8725  1.7073
  888MPD2     C13014   3.024   3.785  14.965 -0.3516  0.4373 -0.4791
  888MPD2    C113015   3.110   3.864  15.029  0.2992 -0.2096  0.9783
  888MPD2    C213016   3.167   3.974  14.968 -0.1580  0.6963  0.2050
  888MPD2    C313017   3.115   4.020  14.845 -0.6990  0.1803  0.3397
  888MPD2    C413018   3.024   3.936  14.781 -0.7378  0.5593 -0.1365
  888MPD2    C513019   2.976   3.825  14.847  0.0859  0.2584 -0.6962
  888MPD2     H13020   3.245   4.028  15.021  0.1861  0.3668  0.0302
  888MPD2    H113021   2.979   3.962  14.686  1.6471  1.1473 -1.1199
  888MPD2    H213022   2.970   3.710  15.021 -1.2162  0.4545 -1.2845
  888MPD2    H313023   2.903   3.765  14.795  1.0306 -1.9554  0.5273
  888MPD2     N13024   3.167   4.138  14.782 -0.2710 -0.2349  0.8882
  888MPD2    H513025   3.230   4.196  14.836  2.3697 -1.2154 -1.1388
  888MPD2    N113026   3.150   3.835  15.162  0.1397 -0.2325  0.0608
  888MPD2    H713027   3.206   3.906  15.208 -2.8320  2.2043 -0.0608
  889MPD2     C13028   2.133   3.290  13.140  0.1770 -0.0112 -0.6647
  889MPD2    C113029   2.242   3.299  13.224 -0.7608  0.3518 -0.1683
  889MPD2    C213030   2.302   3.423  13.228  0.7505  0.5061 -0.1198
  889MPD2    C313031   2.250   3.534  13.168 -0.8295  0.1684  0.2897
  889MPD2    C413032   2.133   3.523  13.093 -0.1677 -0.1498  0.4030
  889MPD2    C513033   2.071   3.401  13.084 -0.3811 -0.1303  0.2700
  889MPD2     H13034   2.382   3.439  13.299 -0.0937  1.2168  0.6777
  889MPD2    H113035   2.073   3.601  13.046  0.8045 -0.8746 -2.0258
  889MPD2    H213036   2.078   3.197  13.129 -2.7814  1.8503 -1.5572
  889MPD2    H313037   1.969   3.399  13.048 -0.8198  2.5769  1.3871
  889MPD2     N13038   2.310   3.659  13.205 -0.5071  0.1349 -0.0682
  889MPD2    H513039   2.380   3.659  13.279 -0.4422  1.8548 -0.1497
  889MPD2    N113040   2.296   3.175  13.273  0.3567  0.4941  0.6213
  889MPD2    H713041   2.245   3.088  13.267  1.5838 -0.2825  1.5333
  890MPD2     C13042   1.619   0.464  14.507  0.0736  0.7123  0.0214
  890MPD2    C113043   1.705   0.526  14.602  0.1019  0.4094  0.7364
  890MPD2    C213044   1.769   0.450  14.702  0.3033 -0.3936 -0.7713
  890MPD2    C313045   1.745   0.314  14.707 -0.8980 -0.2560 -0.3761
  890MPD2    C413046   1.658   0.256  14.623 -0.3293 -0.1933 -0.2224
  890MPD2    C513047   1.598   0.331  14.521  0.1499  0.6016  0.4394
  890MPD2     H13048   1.840   0.498  14.769 -1.8489 -0.1754  1.3603
  890MPD2    H113049   1.643   0.149  14.629  0.8552 -0.3286  0.3756
  890MPD2    H213050   1.572   0.511  14.423  0.2685  1.1626  0.1664
  890MPD2    H313051   1.531   0.281  14.451  2.0225 -3.0465  1.2342
  890MPD2     N13052   1.814   0.221  14.792 -0.1886 -0.4541 -0.5686
  890MPD2    H513053   1.782   0.124  14.787 -0.6857 -0.4273  1.9686
  890MPD2    N113054   1.734   0.660  14.574  0.1679 -0.2632  0.2330
  890MPD2    H713055   1.687   0.699  14.493  1.9776  0.1706 -0.6066
  891MPD2     C13056   0.190   3.223  16.815  0.0897  0.1173  0.0421
  891MPD2    C113057   0.149   3.320  16.907  0.4634 -0.6759  0.1205
  891MPD2    C213058   0.222   3.331  17.023 -0.0117 -0.2340  0.1734
  891MPD2    C313059   0.334   3.263  17.059 -0.4095 -0.3625 -1.0407
  891MPD2    C413060   0.376   3.175  16.961 -0.7342  0.5944 -0.2992
  891MPD2    C513061   0.299   3.151  16.851 -0.5618 -0.2294  0.2693
  891MPD2     H13062   0.183   3.409  17.087 -0.3581 -0.3407  0.0921
  891MPD2    H113063   0.465   3.114  16.961 -0.0311  1.6039  0.3669
  891MPD2    H213064   0.125   3.205  16.730  2.1848  1.2925 -1.8138
  891MPD2    H313065   0.332   3.087  16.770  1.6089  2.8587 -1.2654
  891MPD2     N13066   0.398   3.288  17.185  0.4963  0.0348  0.0046
  891MPD2    H513067   0.359   3.355  17.250  1.7780  2.0941 -1.3515
  891MPD2    N113068   0.036   3.392  16.881  0.6527 -0.2652  0.6194
  891MPD2    H713069   4.713   3.370  16.794 -1.7703 -0.1962  1.8995
  892MPD2     C13070   1.200   0.220  14.339  0.0556  1.0272 -1.3245
  892MPD2    C113071   1.139   0.128  14.426  0.2235 -0.5602 -0.0262
  892MPD2    C213072   1.185   4.721  14.421  0.5283  0.1481 -0.5172
  892MPD2    C313073   1.290   4.696  14.339  0.7510 -0.5799 -0.4744
  892MPD2    C413074   1.347   0.060  14.245 -0.0707  0.2896  0.0193
  892MPD2    C513075   1.298   0.187  14.251 -0.4884  0.0327  0.6311
  892MPD2     H13076   1.145   4.653  14.495  1.9627 -1.4293 -1.2007
  892MPD2    H113077   1.422   0.034  14.172 -3.1444 -1.0127 -2.6358
  892MPD2    H213078   1.163   0.321  14.329 -0.2149  1.1240  0.6987
  892MPD2    H313079   1.333   0.270  14.192 -0.4089 -0.8410 -0.5563
  892MPD2     N13080   1.344   4.569  14.335  0.0190  0.6857 -0.4604
  892MPD2    H513081   1.427   4.563  14.276  0.4034  1.0532  0.0374
  892MPD2    N113082   1.031   0.163  14.512 -0.3975 -0.5361 -0.8487
  892MPD2    H713083   0.986   0.089  14.565  1.4694  0.8603  2.7394
  893MPD2     C13084   3.001   1.678   1.972 -0.0860  0.4515 -0.0067
  893MPD2    C113085   3.120   1.733   2.005 -0.4248  0.1925 -0.8549
  893MPD2    C213086   3.197   1.655   2.096  0.0982  0.5961  0.4133
  893MPD2    C313087   3.144   1.544   2.162  0.2683 -0.5841 -0.3867
  893MPD2    C413088   3.016   1.508   2.139  0.0804  0.5740 -0.4591
  893MPD2    C513089   2.947   1.572   2.040  0.0377  0.0928  0.2131
  893MPD2     H13090   3.290   1.700   2.130  1.4357 -0.5892 -1.6557
  893MPD2    H113091   2.970   1.416   2.175 -1.3075  0.8980 -1.4084
  893MPD2    H213092   2.940   1.729   1.898  1.7398  0.9551 -1.1633
  893MPD2    H313093   2.852   1.541   1.998  0.4549  0.8795 -1.3244
  893MPD2     N13094   3.218   1.467   2.261 -0.2314  0.1490  0.4147
  893MPD2    H513095   3.172   1.393   2.312  0.8834 -0.4385  0.5717
  893MPD2    N113096   3.166   1.848   1.938 -0.2910  0.2730  0.1618
  893MPD2    H713097   3.108   1.888   1.865  0.2877 -0.4111 -0.6647
  894MPD2     C13098   0.878   1.038   0.821 -0.1487  0.2193  0.2157
  894MPD2    C113099   0.947   0.960   0.917 -0.1676  0.6098  0.5381
  894MPD2    C213100   1.080   0.990   0.942 -0.6481 -0.7969 -0.1264
  894MPD2    C313101   1.139   1.091   0.882  0.2587  0.0913 -0.4259
  894MPD2    C413102   1.073   1.168   0.789 -0.0531 -0.3356 -0.1014
  894MPD2    C513103   0.940   1.141   0.757  0.6587 -0.3484 -0.4711
  894MPD2     H13104   1.133   0.940   1.022 -0.1179 -0.8029 -0.4821
  894MPD2    H113105   1.117   1.250   0.733 -0.9685  0.8724  0.9852
  894MPD2    H213106   0.775   1.010   0.801 -0.2258 -0.4087  1.4948
  894MPD2    H313107   0.886   1.194   0.679 -3.3726 -2.7736  0.6703
  894MPD2     N13108   1.267   1.130   0.932  0.2980  0.5537 -0.2186
  894MPD2    H513109   1.287   1.086   1.021  0.9505  1.9177  0.3094
  894MPD2    N113110   0.888   0.849   0.988 -0.3772  0.6996  0.1982
  894MPD2    H713111   0.948   0.805   1.057  3.2507  0.4718 -3.0928
  895MPD2     C13112   0.525   4.229  13.557  0.1648 -0.5645 -0.2488
  895MPD2    C113113   0.404   4.172  13.506  0.4103 -0.6989  0.2077
  895MPD2    C213114   0.350   4.070  13.583 -0.0170  0.3106 -0.2187
  895MPD2    C313115   0.413   4.019  13.697  0.1517 -0.0448  0.2529
  895MPD2    C413116   0.526   4.077  13.744  0.5766  0.0472 -0.3212
  895MPD2    C513117   0.578   4.190  13.678  0.2774  0.1411 -1.2488
  895MPD2     H13118   0.269   4.010  13.543  2.1177 -3.8225  1.6222
  895MPD2    H113119   0.577   4.045  13.835  0.2091 -0.4780 -0.3007
  895MPD2    H213120   0.588   4.305  13.513 -0.2439 -1.6980 -2.8263
  895MPD2    H313121   0.666   4.243  13.712  0.3270  0.0170 -1.1845
  895MPD2     N13122   0.342   3.910  13.757  0.2135  0.9257  0.2033
  895MPD2    H513123   0.255   3.882  13.711 -0.1845  0.6388  1.1371
  895MPD2    N113124   0.344   4.206  13.383 -0.5492  0.0058  0.4195
  895MPD2    H713125   0.262   4.156  13.352 -0.4124  0.2133 -0.2799
  896MPD2     C13126   2.986   0.857   2.574 -0.1554 -0.2088  0.7314
  896MPD2    C113127   2.963   0.900   2.449  0.2070 -0.8159 -0.3994
  896MPD2    C213128   2.837   0.935   2.414  0.3304  0.1523  0.2791
  896MPD2    C313129   2.734   0.943   2.509  0.4320 -0.7716  0.4260
  896MPD2    C413130   2.766   0.924   2.641 -0.1275 -0.6373 -0.4677
  896MPD2    C513131   2.889   0.871   2.663 -0.2715 -0.3829 -0.0838
  896MPD2     H13132   2.806   0.946   2.311  1.2050 -2.4786 -0.2570
  896MPD2    H113133   2.698   0.938   2.725 -2.8802 -1.8650 -2.4814
  896MPD2    H213134   3.080   0.823   2.615 -0.5876 -0.0098  1.9008
  896MPD2    H313135   2.912   0.847   2.767 -0.0739  2.3728  0.4995
  896MPD2     N13136   2.614   0.986   2.462  0.1338  0.3504 -0.3829
  896MPD2    H513137   2.602   1.003   2.362  0.7226 -0.0121 -0.5105
  896MPD2    N113138   3.070   0.882   2.362  0.2658  0.5525  0.4931
  896MPD2    H713139   3.152   0.830   2.392  0.3299  0.2912 -0.1507
  897MPD2     C13140   3.494   2.859   9.996  0.0692  0.0085 -0.9805
  897MPD2    C113141   3.452   2.946  10.092 -0.0142 -0.2742  0.3968
  897MPD2    C213142   3.398   2.903  10.213  0.4668  0.3966  0.3650
  897MPD2    C313143   3.373   2.770  10.225  0.1823 -0.1368  0.2907
  897MPD2    C413144   3.427   2.678  10.133 -0.2016  0.2052  0.6836
  897MPD2    C513145   3.493   2.722  10.021 -0.2555 -0.0059  0.0430
  897MPD2     H13146   3.338   2.969  10.274  1.3311  1.0107  0.5627
  897MPD2    H113147   3.409   2.572  10.134 -0.2994  0.1791 -2.3395
  897MPD2    H213148   3.545   2.886   9.904 -0.5679  0.1099 -1.2996
  897MPD2    H313149   3.535   2.659   9.944 -1.5785 -2.3390  1.2398
  897MPD2     N13150   3.318   2.709  10.344 -0.1284 -0.6714 -0.0208
  897MPD2    H513151   3.303   2.608  10.341  2.9178 -1.1380  0.2788
  897MPD2    N113152   3.437   3.083  10.041 -0.4905  0.3661 -0.0474
  897MPD2    H713153   3.457   3.101   9.944 -0.2350  1.2098  0.1603
  898MPD2     C13154   1.323   3.921  17.288 -0.4364  0.0065  0.4849
  898MPD2    C113155   1.264   3.928  17.408  0.6234 -0.1779 -0.1235
  898MPD2    C213156   1.124   3.945  17.409 -1.0515 -0.0095  0.3241
  898MPD2    C313157   1.056   3.968  17.291  0.2894 -0.0734 -0.2162
  898MPD2    C413158   1.120   3.972  17.173 -0.0492 -0.0578 -0.0078
  898MPD2    C513159   1.255   3.954  17.175  0.1808 -0.2893 -0.0019
  898MPD2     H13160   1.074   3.936  17.504  1.0942  1.6802  1.6290
  898MPD2    H113161   1.072   3.992  17.078 -0.3930 -0.9773 -0.0329
  898MPD2    H213162   1.430   3.912  17.278 -0.1123  2.1729  2.0734
  898MPD2    H313163   1.316   3.967  17.086  2.3267 -0.9755  1.3657
  898MPD2     N13164   0.916   3.984  17.301 -0.8097  0.2274  0.3085
  898MPD2    H513165   0.878   3.965  17.393 -3.3244 -0.1685 -0.8257
  898MPD2    N113166   1.332   3.899  17.533 -0.2498  0.1229  0.7558
  898MPD2    H713167   1.282   3.929  17.617 -2.7470 -0.5245 -0.5004
  899MPD2     C13168   1.189   0.405  17.590 -1.1193 -0.2051 -0.0188
  899MPD2    C113169   1.267   0.496  17.661  0.0934  0.1672  0.3879
  899MPD2    C213170   1.269   0.480   0.101  0.6743  0.0587  0.1139
  899MPD2    C313171   1.190   0.385   0.165  0.1242 -0.5067  0.0979
  899MPD2    C413172   1.111   0.298   0.088 -0.2737  0.5626 -0.8260
  899MPD2    C513173   1.107   0.312  17.646  0.0001  0.0677 -0.2240
  899MPD2     H13174   1.340   0.544   0.152  0.5327  1.0076 -0.8991
  899MPD2    H113175   1.057   0.214   0.129 -0.2120 -0.5397 -3.0276
  899MPD2    H213176   1.165   0.415  17.485  1.9942 -1.4003 -0.8451
  899MPD2    H313177   1.061   0.236  17.583  0.3410 -1.2410  1.0908
  899MPD2     N13178   1.184   0.373   0.305  0.3618  0.2319 -0.4770
  899MPD2    H513179   1.111   0.315   0.343  1.0887 -0.3840 -0.0156
  899MPD2    N113180   1.347   0.587  17.585 -0.1381  0.7080  0.8608
  899MPD2    H713181   1.334   0.592  17.484  1.1175  0.4112  0.6785
  900MPD2     C13182   1.710   1.631  12.494 -0.1204 -0.9101 -0.3046
  900MPD2    C113183   1.638   1.518  12.467  0.0222  0.9303 -0.5440
  900MPD2    C213184   1.515   1.531  12.398  0.0816 -0.4465 -0.1293
  900MPD2    C313185   1.476   1.660  12.358  0.2506 -0.8454  0.3151
  900MPD2    C413186   1.549   1.771  12.397 -0.1704  0.3736 -0.6078
  900MPD2    C513187   1.667   1.761  12.464 -1.1096 -0.4001 -0.1057
  900MPD2     H13188   1.458   1.445  12.365  0.2733 -0.7089  0.2191
  900MPD2    H113189   1.521   1.868  12.358  0.8898  1.2236  0.7422
  900MPD2    H213190   1.808   1.630  12.539 -0.4042 -0.4360  0.3126
  900MPD2    H313191   1.731   1.847  12.482 -2.1502  0.5342 -0.8163
  900MPD2     N13192   1.359   1.673  12.277 -0.2587 -0.3652  0.4911
  900MPD2    H513193   1.307   1.589  12.255 -1.0601  0.2553  0.0298
  900MPD2    N113194   1.694   1.395  12.502 -0.2306  0.4752  0.1553
  900MPD2    H713195   1.792   1.391  12.528 -0.3857  0.7664  0.7943
  901MPD2     C13196   1.892   0.492  12.985  0.0979  0.2989  0.5484
  901MPD2    C113197   1.919   0.468  12.850 -0.2699 -0.6706 -0.8238
  901MPD2    C213198   1.870   0.563  12.759  0.4987 -0.3670 -0.0500
  901MPD2    C313199   1.788   0.664  12.789 -0.4696  0.2249 -0.0922
  901MPD2    C413200   1.749   0.675  12.920 -0.0245 -0.4406 -0.2135
  901MPD2    C513201   1.810   0.598  13.020  0.5277  0.3867 -0.5491
  901MPD2     H13202   1.894   0.556  12.653 -0.3200 -1.4957 -0.1572
  901MPD2    H113203   1.684   0.755  12.953 -0.0755 -1.2873  1.7734
  901MPD2    H213204   1.921   0.428  13.067  1.1052  0.8088  0.5830
  901MPD2    H313205   1.789   0.623  13.123  0.3557 -0.6980 -0.3242
  901MPD2     N13206   1.746   0.747  12.683 -0.4105 -0.2447  0.3974
  901MPD2    H513207   1.785   0.732  12.590 -0.7682  1.3838 -0.0154
  901MPD2    N113208   1.990   0.356  12.810 -0.7649 -0.1133 -0.3274
  901MPD2    H713209   1.999   0.286  12.883  0.5874  0.5509  0.1525
  902MPD2     C13210   0.814   4.269  12.643  0.1340  0.5898  0.0759
  902MPD2    C113211   0.708   4.271  12.559  0.1433 -0.3379 -0.4557
  902MPD2    C213212   0.717   4.208  12.436 -0.1720 -0.2336 -0.7567
  902MPD2    C313213   0.843   4.168  12.390  0.0523 -0.6678 -0.5656
  902MPD2    C413214   0.957   4.181  12.469 -0.5656 -0.3035  0.5743
  902MPD2    C513215   0.938   4.226  12.599 -0.5262 -0.0883  0.0131
  902MPD2     H13216   0.625   4.196  12.379 -0.3350  0.7539 -0.7034
  902MPD2    H113217   1.053   4.141  12.440  0.0466 -0.1826  2.4594
  902MPD2    H213218   0.822   4.325  12.736  0.8488  1.1639 -0.3279
  902MPD2    H313219   1.021   4.227  12.669 -1.8741 -2.7279  1.6539
  902MPD2     N13220   0.865   4.097  12.267 -0.0496 -0.1882  0.0328
  902MPD2    H513221   0.952   4.048  12.250 -0.8809 -0.6070 -2.8730
  902MPD2    N113222   0.588   4.309  12.612  0.1963 -0.0889  0.4170
  902MPD2    H713223   0.596   4.351  12.704 -0.1147  2.1233 -0.5758
  903MPD2     C13224   0.521   3.633  11.561  0.1321  0.7444 -0.1367
  903MPD2    C113225   0.472   3.678  11.683  0.4834 -0.1319  0.1849
  903MPD2    C213226   0.338   3.708  11.694 -0.2844  0.1661 -0.0327
  903MPD2    C313227   0.243   3.670  11.587  0.2875 -0.1204 -0.4857
  903MPD2    C413228   0.299   3.628  11.462 -0.4564  0.1304 -0.1652
  903MPD2    C513229   0.438   3.610  11.456  0.4828 -0.5981  0.9192
  903MPD2     H13230   0.291   3.743  11.786 -2.0968  0.5446 -1.1051
  903MPD2    H113231   0.239   3.592  11.379 -2.5948  1.5799  0.7475
  903MPD2    H213232   0.627   3.612  11.560 -0.1584 -0.6058 -2.4001
  903MPD2    H313233   0.486   3.572  11.367 -1.9085 -0.8610 -0.2828
  903MPD2     N13234   0.111   3.697  11.597  0.0851  0.5868 -0.3419
  903MPD2    H513235   0.083   3.750  11.679  0.8919 -0.2780  0.4900
  903MPD2    N113236   0.569   3.710  11.784  0.1832 -0.5344 -0.0318
  903MPD2    H713237   0.666   3.687  11.764  0.5917 -0.5114  1.9065
  904MPD2     C13238   4.266   3.436  14.069  0.6301 -0.4969 -0.4229
  904MPD2    C113239   4.377   3.516  14.037 -0.0298 -0.4967  0.9623
  904MPD2    C213240   4.503   3.492  14.090  0.4857 -0.2049 -0.0803
  904MPD2    C313241   4.524   3.384  14.167 -0.6929 -0.4242 -0.4604
  904MPD2    C413242   4.418   3.305  14.196  0.1602 -0.0050 -0.3456
  904MPD2    C513243   4.293   3.335  14.153 -0.2983 -0.4657 -0.4264
  904MPD2     H13244   4.579   3.562  14.059  1.4167 -1.1326  0.1125
  904MPD2    H113245   4.434   3.222  14.264 -0.9412 -1.7249 -2.1873
  904MPD2    H213246   4.162   3.462  14.052  0.0742 -2.8054 -0.5931
  904MPD2    H313247   4.203   3.278  14.176  0.2892 -0.8729  0.8715
  904MPD2     N13248   4.657   3.345  14.198 -0.0507  0.0268 -0.0604
  904MPD2    H513249   4.662   3.251  14.236 -1.7216 -0.3908 -0.8763
  904MPD2    N113250   4.355   3.630  13.953  0.0654  0.2957  0.5607
  904MPD2    H713251   4.431   3.686  13.917  0.3847 -0.7256 -0.3547
  905MPD2     C13252   4.412   3.539  13.354  0.2824 -0.2869 -0.3043
  905MPD2    C113253   4.390   3.647  13.439  0.7629 -0.4930 -0.0329
  905MPD2    C213254   4.476   3.655  13.553 -0.4016  0.5308 -0.4735
  905MPD2    C313255   4.580   3.566  13.571 -0.4030  1.0189 -0.2592
  905MPD2    C413256   4.599   3.471  13.475 -0.4739  0.1684  0.0278
  905MPD2    C513257   4.520   3.457  13.368  0.7913  0.2917  0.1221
  905MPD2     H13258   4.470   3.734  13.627 -1.3240  1.4419 -1.5216
  905MPD2    H113259   4.672   3.392  13.492 -2.1449 -1.1828  0.8682
  905MPD2    H213260   4.360   3.526  13.260 -2.1615 -2.3367  1.3339
  905MPD2    H313261   4.534   3.376  13.297 -2.3643 -0.7544  0.6896
  905MPD2     N13262   4.685   3.572  13.672  0.0056  0.2637 -0.0013
  905MPD2    H513263   0.046   3.532  13.635 -1.5683 -2.0130 -1.1650
  905MPD2    N113264   4.277   3.724  13.402 -0.1534 -0.6686  0.3973
  905MPD2    H713265   4.230   3.694  13.317  1.9939  1.4495 -1.5286
  906MPD2     C13266   2.470   3.288  11.251 -0.3461  0.3377 -0.2562
  906MPD2    C113267   2.405   3.184  11.179  0.5345  0.9754  0.3124
  906MPD2    C213268   2.393   3.068  11.244  0.0255 -0.9649 -0.6892
  906MPD2    C313269   2.435   3.049  11.376  0.4559 -0.2618 -0.1958
  906MPD2    C413270   2.480   3.157  11.451 -0.1652 -0.2656 -0.6882
  906MPD2    C513271   2.491   3.277  11.387  0.6663  0.4956 -0.1817
  906MPD2     H13272   2.354   2.984  11.189 -0.2331 -1.6449  0.5354
  906MPD2    H113273   2.507   3.146  11.555 -0.1834 -0.6800 -0.7252
  906MPD2    H213274   2.489   3.382  11.200  1.8576 -0.2616 -0.5385
  906MPD2    H313275   2.513   3.365  11.447  2.3672  1.9976 -2.9675
  906MPD2     N13276   2.415   2.926  11.443 -0.6183 -0.2700 -0.2901
  906MPD2    H513277   2.396   2.940  11.542 -0.4747 -2.1504  0.0072
  906MPD2    N113278   2.377   3.180  11.041 -0.0131 -0.2368  0.4943
  906MPD2    H713279   2.341   3.096  10.998  1.0709  0.0548 -0.9736
  907MPD2     C13280   1.270   2.214  15.387 -0.3005  0.0836  0.2284
  907MPD2    C113281   1.392   2.166  15.332  0.3772  0.8249  0.0474
  907MPD2    C213282   1.497   2.164  15.411  0.2503 -0.1684 -0.4902
  907MPD2    C313283   1.498   2.230  15.532  0.2127 -1.2201 -0.0050
  907MPD2    C413284   1.376   2.265  15.594  0.0602 -0.2745  0.1819
  907MPD2    C513285   1.266   2.262  15.511  0.1772 -0.1623  0.5858
  907MPD2     H13286   1.591   2.133  15.367  1.7699  0.6959  2.1505
  907MPD2    H113287   1.372   2.304  15.695  0.4545 -2.3887  1.0204
  907MPD2    H213288   1.177   2.203  15.332 -0.6330 -0.4312  0.8949
  907MPD2    H313289   1.170   2.282  15.556 -0.7144 -2.4392 -0.2758
  907MPD2     N13290   1.621   2.238  15.597  0.1944 -0.4075  0.5385
  907MPD2    H513291   1.698   2.203  15.541  1.3313 -0.7123  2.3063
  907MPD2    N113292   1.400   2.129  15.199  0.6749 -1.2466  0.0443
  907MPD2    H713293   1.491   2.089  15.178  2.8022  2.3176  2.6357
  908MPD2     C13294   3.136   3.189   9.234  0.8622 -0.5386 -0.2189
  908MPD2    C113295   3.112   3.087   9.323 -0.9933 -0.8159  0.2533
  908MPD2    C213296   3.123   3.121   9.460  0.4678  0.1273 -0.1696
  908MPD2    C313297   3.169   3.243   9.508 -0.0687  0.6395 -0.9089
  908MPD2    C413298   3.200   3.338   9.415 -0.0851 -0.2074  0.1218
  908MPD2    C513299   3.186   3.303   9.280  0.6551 -0.3618  0.2401
  908MPD2     H13300   3.101   3.038   9.526 -0.3350 -0.4436 -1.1501
  908MPD2    H113301   3.236   3.437   9.444  0.2418 -0.4186  0.4364
  908MPD2    H213302   3.124   3.179   9.126 -4.2719  0.9091  0.2150
  908MPD2    H313303   3.200   3.381   9.206  0.3361  0.9411  1.5566
  908MPD2     N13304   3.173   3.267   9.648 -0.3301  0.4079 -0.0524
  908MPD2    H513305   3.148   3.187   9.704 -2.0677 -0.5293 -2.1439
  908MPD2    N113306   3.066   2.956   9.281 -0.2338 -0.0175  0.1350
  908MPD2    H713307   3.080   2.880   9.347 -0.4359 -1.2600 -1.2582
  909MPD2     C13308   4.280   1.271  11.696 -0.0179  0.1784  0.4206
  909MPD2    C113309   4.186   1.356  11.644  0.1255  0.0049  0.5128
  909MPD2    C213310   4.057   1.338  11.689 -0.1884  0.3333 -0.3462
  909MPD2    C313311   4.029   1.246  11.786  0.2796 -0.4127 -0.0049
  909MPD2    C413312   4.133   1.162  11.825  0.0176 -0.1034 -0.1236
  909MPD2    C513313   4.258   1.179  11.791  0.6263  0.2170  0.0969
  909MPD2     H13314   3.981   1.397  11.640  2.1702  2.3193 -1.6337
  909MPD2    H113315   4.114   1.088  11.902  0.6688 -1.7122 -1.5431
  909MPD2    H213316   4.385   1.282  11.668 -0.2876  1.1997 -0.1958
  909MPD2    H313317   4.341   1.119  11.827 -1.7190 -3.2349 -0.2553
  909MPD2     N13318   3.907   1.218  11.840 -1.0202  0.4856 -0.0327
  909MPD2    H513319   3.915   1.150  11.915 -1.6377  0.1645 -0.2636
  909MPD2    N113320   4.208   1.434  11.527 -0.0965 -0.0861 -0.2564
  909MPD2    H713321   4.127   1.487  11.496  0.9262  1.0205 -1.0913
  910MPD2     C13322   0.328   3.167  15.996  0.4218 -0.1191 -0.0876
  910MPD2    C113323   0.411   3.130  15.898 -0.6391  0.9034 -0.5390
  910MPD2    C213324   0.403   3.201  15.776  0.5561  0.0177  1.1331
  910MPD2    C313325   0.302   3.300  15.761  0.1562  0.0918  0.6950
  910MPD2    C413326   0.226   3.332  15.866 -0.5588 -0.7374  0.2663
  910MPD2    C513327   0.241   3.271  15.983  0.4120 -0.7565 -0.6572
  910MPD2     H13328   0.459   3.172  15.688 -0.2035 -0.7648  0.8971
  910MPD2    H113329   0.151   3.411  15.861  1.2206  0.9618  0.0727
  910MPD2    H213330   0.330   3.116  16.092  3.6286 -0.6521 -0.4469
  910MPD2    H313331   0.178   3.299  16.067 -1.3545 -0.0584 -2.2305
  910MPD2     N13332   0.273   3.366  15.640 -0.4551  1.1892 -0.1419
  910MPD2    H513333   0.200   3.435  15.653  1.0961  2.2229  2.9950
  910MPD2    N113334   0.508   3.019  15.901 -0.2914 -0.2965  0.5875
  910MPD2    H713335   0.554   2.999  15.812  1.9409  1.9086  1.2626
  911MPD2     C13336   3.151   3.407  16.263 -0.0818  0.7198 -0.2845
  911MPD2    C113337   3.163   3.476  16.387  0.5729 -0.1593 -0.3677
  911MPD2    C213338   3.076   3.581  16.419  0.2557  0.2547  0.0394
  911MPD2    C313339   2.980   3.610  16.321  0.3065  0.2937  0.5657
  911MPD2    C413340   2.955   3.527  16.206 -0.4278 -0.2610  0.0725
  911MPD2    C513341   3.051   3.430  16.180  0.4907 -0.2303  0.0024
  911MPD2     H13342   3.082   3.642  16.508 -0.9753 -1.2095  1.1250
  911MPD2    H113343   2.878   3.548  16.133 -0.2702  2.7000  0.7706
  911MPD2    H213344   3.225   3.333  16.235 -0.5803  0.3243 -0.5600
  911MPD2    H313345   3.045   3.370  16.090 -1.0411  0.3358 -0.2708
  911MPD2     N13346   2.888   3.717  16.337  0.5242 -0.3305 -0.2849
  911MPD2    H513347   2.810   3.722  16.273 -0.0765 -1.3586  0.3753
  911MPD2    N113348   3.271   3.440  16.475 -0.0830  0.2652 -0.3835
  911MPD2    H713349   3.310   3.348  16.459 -2.3048 -1.0196  1.4939
  912MPD2     C13350   2.826   3.726  15.876  0.7624  0.0443  0.2933
  912MPD2    C113351   2.726   3.702  15.971  1.0294 -0.0621  0.4816
  912MPD2    C213352   2.675   3.575  15.977  0.9434 -0.5619  0.3470
  912MPD2    C313353   2.734   3.467  15.910 -0.7113 -0.0097  0.3519
  912MPD2    C413354   2.833   3.492  15.826  0.2370  0.0246 -0.0626
  912MPD2    C513355   2.872   3.623  15.809 -1.1304 -0.6227  0.1127
  912MPD2     H13356   2.595   3.548  16.045  2.0583 -1.1117  1.4535
  912MPD2    H113357   2.881   3.419  15.762 -0.9784 -0.2796 -0.6230
  912MPD2    H213358   2.864   3.824  15.850 -1.1831 -0.0431 -2.9674
  912MPD2    H313359   2.949   3.645  15.736 -1.9567  2.2988  0.0977
  912MPD2     N13360   2.680   3.340  15.928  0.3185 -0.2550 -0.5798
  912MPD2    H513361   2.599   3.332  15.988 -0.5696  1.4840 -1.5227
  912MPD2    N113362   2.680   3.816  16.039 -1.0771 -0.2865  0.1089
  912MPD2    H713363   2.729   3.902  16.014  0.4299 -1.9532 -2.7127
  913MPD2     C13364   3.415   4.644  10.351 -0.0858 -0.0552 -0.0014
  913MPD2    C113365   3.506   4.697  10.440  0.0412 -0.3430 -0.2282
  913MPD2    C213366   3.602   0.050  10.386  0.1631 -0.4203 -0.4724
  913MPD2    C313367   3.605   0.078  10.249  0.1884 -0.8493  0.2237
  913MPD2    C413368   3.519   0.018  10.161 -0.4551 -0.1215 -0.7662
  913MPD2    C513369   3.419   4.657  10.213 -0.0843  0.2077 -0.5109
  913MPD2     H13370   3.666   0.099  10.459 -1.9439 -0.9532  1.7485
  913MPD2    H113371   3.520   0.037  10.054 -2.0189  1.0553 -0.5799
  913MPD2    H213372   3.333   4.582  10.386 -2.2037  2.8470  0.1370
  913MPD2    H313373   3.335   4.615  10.158 -0.5410  0.4462  0.0020
  913MPD2     N13374   3.710   0.154  10.193  0.9565  0.0425 -0.3169
  913MPD2    H513375   3.723   0.148  10.093  2.0650 -0.4076 -0.1449
  913MPD2    N113376   3.505   4.660  10.576  0.0553  0.5291 -0.1464
  913MPD2    H713377   3.444   4.582  10.597 -0.0487  0.8398  0.7216
  914MPD2     C13378   1.339   0.032  12.263  0.3352 -0.7452  0.1340
  914MPD2    C113379   1.401   0.156  12.266 -0.6551  0.6554 -0.4132
  914MPD2    C213380   1.533   0.154  12.322 -0.6036  0.4947 -0.2526
  914MPD2    C313381   1.581   0.043  12.380  0.1781  0.0573 -0.2206
  914MPD2    C413382   1.514   4.644  12.374 -0.4442 -0.3672 -0.7161
  914MPD2    C513383   1.390   4.643  12.324 -0.5901 -0.4230 -0.0358
  914MPD2     H13384   1.597   0.241  12.321  0.6929 -0.4392  2.0625
  914MPD2    H113385   1.552   4.550  12.412  1.4383 -0.4202 -2.7306
  914MPD2    H213386   1.235   0.030  12.232  1.4095 -3.0003 -3.2821
  914MPD2    H313387   1.333   4.550  12.320 -1.7111  0.2587  0.1185
  914MPD2     N13388   1.703   0.055  12.448  0.2141  0.2961 -0.3390
  914MPD2    H513389   1.725   0.149  12.478 -1.2107  0.1258  1.2040
  914MPD2    N113390   1.344   0.266  12.191 -0.5750  0.0115  0.5442
  914MPD2    H713391   1.257   0.250  12.140  0.1368 -0.3096 -0.5692
  915MPD2     C13392   4.340   0.168  15.863 -0.4160  0.2852  0.4199
  915MPD2    C113393   4.222   0.214  15.811 -0.9555 -0.5182  0.7362
  915MPD2    C213394   4.128   0.273  15.896  0.6039  0.4885 -1.1062
  915MPD2    C313395   4.162   0.291  16.029 -0.0286  0.2195 -0.0397
  915MPD2    C413396   4.279   0.233  16.078  0.0027 -0.4513 -0.3083
  915MPD2    C513397   4.370   0.182  15.991  0.4256 -0.0824 -0.2154
  915MPD2     H13398   4.039   0.320  15.856 -0.9329 -2.3398 -1.0258
  915MPD2    H113399   4.308   0.251  16.181 -0.6013  1.2315 -0.4306
  915MPD2    H213400   4.414   0.106  15.812 -0.3132  0.3520  0.4876
  915MPD2    H313401   4.472   0.155  16.018  0.9951  1.5339 -0.7401
  915MPD2     N13402   4.081   0.372  16.108 -0.2298 -0.0691 -1.3418
  915MPD2    H513403   4.010   0.426  16.058 -0.8872 -1.0020 -1.4130
  915MPD2    N113404   4.200   0.192  15.669  0.0112  0.2337  0.0419
  915MPD2    H713405   4.265   0.132  15.619  1.7317  2.0689  0.0783
  916MPD2     C13406   2.148   3.239  15.879 -0.4128 -0.5085 -0.2288
  916MPD2    C113407   2.164   3.140  15.968 -1.1029 -1.2018 -0.6742
  916MPD2    C213408   2.215   3.021  15.918  0.0888  0.1502 -0.8389
  916MPD2    C313409   2.265   2.999  15.794 -0.3307 -0.1410  0.0916
  916MPD2    C413410   2.236   3.098  15.702 -0.3716  0.5005  0.1634
  916MPD2    C513411   2.197   3.219  15.745  0.1210  0.1428 -0.0915
  916MPD2     H13412   2.220   2.940  15.990  1.0016  0.1749 -0.8799
  916MPD2    H113413   2.263   3.094  15.597  2.9247  1.0566  0.9698
  916MPD2    H213414   2.108   3.336  15.906  0.9142  0.2523 -0.9933
  916MPD2    H313415   2.200   3.300  15.673  2.1384  0.2951  0.1790
  916MPD2     N13416   2.309   2.868  15.760  0.0842 -0.0350 -0.5437
  916MPD2    H513417   2.319   2.804  15.838  0.6673 -0.4017 -0.9268
  916MPD2    N113418   2.139   3.164  16.100  0.0503  0.0680 -0.1676
  916MPD2    H713419   2.106   3.257  16.123 -2.3999 -0.7929 -0.2741
  917MPD2     C13420   3.281   0.693  11.312  0.0867  0.7352 -0.1657
  917MPD2    C113421   3.144   0.703  11.297 -0.2264  0.2332 -0.8042
  917MPD2    C213422   3.093   0.805  11.217 -0.2715  0.8232  0.3336
  917MPD2    C313423   3.189   0.889  11.148 -0.0008  0.2530 -0.9524
  917MPD2    C413424   3.321   0.856  11.161  0.6302  0.5136 -0.0584
  917MPD2    C513425   3.372   0.764  11.251  0.1389  0.1717 -0.0602
  917MPD2     H13426   2.985   0.817  11.222 -0.4032 -0.8037  1.2118
  917MPD2    H113427   3.396   0.903  11.098  0.2576  1.3584  0.1253
  917MPD2    H213428   3.309   0.623  11.391  3.2098  4.0076  1.6577
  917MPD2    H313429   3.479   0.748  11.263  0.0533 -0.3155  0.0445
  917MPD2     N13430   3.151   0.997  11.062 -0.1672  0.2791  0.4299
  917MPD2    H513431   3.229   1.048  11.022 -0.2573  2.2890  2.8019
  917MPD2    N113432   3.058   0.609  11.377  0.0211  0.3250 -0.0358
  917MPD2    H713433   3.110   0.576  11.458  0.3508  4.0433  1.2733
  918MPD2     C13434   3.114   1.007  12.115 -0.2428 -0.1040 -0.1976
  918MPD2    C113435   3.194   0.938  12.024 -0.3139  0.5427 -0.5552
  918MPD2    C213436   3.139   0.871  11.913 -0.2150 -0.4798  0.8798
  918MPD2    C313437   2.999   0.869  11.910  0.4962  0.4863  0.2918
  918MPD2    C413438   2.920   0.956  11.986  0.0103  0.0855 -0.8288
  918MPD2    C513439   2.982   1.017  12.096 -0.1794 -0.1764 -0.4496
  918MPD2     H13440   3.205   0.814  11.849 -0.5025  0.2372 -0.0467
  918MPD2    H113441   2.814   0.964  11.969 -0.0416 -0.4898 -0.7756
  918MPD2    H213442   3.149   1.045  12.210 -1.2399 -0.3977  0.2917
  918MPD2    H313443   2.925   1.078  12.165 -1.6792 -1.0867 -0.8800
  918MPD2     N13444   2.941   0.787  11.806  0.2324 -0.5006  0.4026
  918MPD2    H513445   3.001   0.752  11.732 -0.0206 -1.3299  0.5827
  918MPD2    N113446   3.331   0.910  12.052 -0.2533 -0.2250  0.1003
  918MPD2    H713447   3.383   0.838  12.001 -0.7661  0.1031 -0.8781
  919MPD2     C13448   3.050   4.504  11.779  0.3778 -0.0830 -0.1796
  919MPD2    C113449   2.994   4.389  11.734 -0.2842  0.1240 -0.3873
  919MPD2    C213450   2.976   4.366  11.602  0.0186  0.2075  0.1938
  919MPD2    C313451   2.996   4.466  11.512 -0.1616  0.0036 -0.4338
  919MPD2    C413452   3.060   4.579  11.552 -0.2982 -0.4007  0.6620
  919MPD2    C513453   3.087   4.598  11.684  0.2540 -0.1177 -0.5244
  919MPD2     H13454   2.931   4.271  11.577 -0.3155  0.0292  1.4737
  919MPD2    H113455   3.104   4.649  11.481 -0.6097 -1.4898 -0.6247
  919MPD2    H213456   3.076   4.520  11.883  0.8682  1.3138 -0.5276
  919MPD2    H313457   3.156   4.674  11.717 -0.0436 -0.9632  2.0513
  919MPD2     N13458   2.975   4.457  11.378  0.6316  0.3097 -0.1151
  919MPD2    H513459   3.018   4.534  11.328  2.3131 -0.3806  0.2533
  919MPD2    N113460   2.955   4.288  11.827  0.2874  0.2555 -0.1811
  919MPD2    H713461   2.924   4.202  11.783  1.2930 -0.4062  0.4092
  920MPD2     C13462   3.390   0.264  10.734 -0.2027 -0.2086  0.2348
  920MPD2    C113463   3.305   0.201  10.646 -0.1031 -0.7500 -0.6840
  920MPD2    C213464   3.220   0.100  10.697  0.4449  0.2309 -0.0254
  920MPD2    C313465   3.199   0.079  10.832 -0.1030 -0.3107 -0.4822
  920MPD2    C413466   3.280   0.152  10.917  0.6815  0.5231 -0.2119
  920MPD2    C513467   3.377   0.237  10.868  0.4861 -0.7129  0.6779
  920MPD2     H13468   3.166   0.054  10.616 -0.9122 -0.4681  1.2603
  920MPD2    H113469   3.288   0.137  11.024  1.8614  1.6068 -0.1460
  920MPD2    H213470   3.465   0.332  10.696  0.9580 -1.2846  0.5979
  920MPD2    H313471   3.432   0.301  10.936  0.0762 -2.2420  2.4436
  920MPD2     N13472   3.102   4.701  10.869  0.2809 -0.5515 -0.2236
  920MPD2    H513473   3.028   4.677  10.804  0.4063 -1.1604 -0.1403
  920MPD2    N113474   3.306   0.222  10.514  0.0241  0.0338  0.4427
  920MPD2    H713475   3.246   0.164  10.457 -0.4194  1.4600 -0.5492
  921MPD2     C13476   4.001   3.775  17.065  0.7133 -0.0711  0.1468
  921MPD2    C113477   4.026   3.681  16.958  1.0004  0.6002 -0.1314
  921MPD2    C213478   3.921   3.610  16.899 -0.8414 -0.8159  0.8997
  921MPD2    C313479   3.791   3.621  16.951 -0.0958  0.0672 -0.3147
  921MPD2    C413480   3.768   3.718  17.041 -0.3231 -0.2169 -0.7121
  921MPD2    C513481   3.867   3.792  17.103 -0.1570 -0.6120  0.3333
  921MPD2     H13482   3.928   3.535  16.821  2.0052  0.2004  0.1972
  921MPD2    H113483   3.666   3.722  17.078  0.1876  2.0423  0.4770
  921MPD2    H213484   4.075   3.833  17.119  0.1316 -1.3689  2.3749
  921MPD2    H313485   3.847   3.854  17.190 -1.3990  0.8172 -0.9669
  921MPD2     N13486   3.681   3.548  16.902  0.0172 -0.2385 -0.7591
  921MPD2    H513487   3.588   3.577  16.931  1.5230  0.4729  3.3163
  921MPD2    N113488   4.156   3.652  16.912 -0.4905 -0.1948  0.5757
  921MPD2    H713489   4.160   3.580  16.841  2.8170 -2.0362  2.6224
  922MPD2     C13490   0.499   1.231  16.889  0.2249  0.2044  0.2100
  922MPD2    C113491   0.479   1.329  16.987  0.0790 -0.5719 -0.2861
  922MPD2    C213492   0.384   1.308  17.089  0.6306 -0.4802  0.5334
  922MPD2    C313493   0.325   1.183  17.106 -0.7404  0.5077  0.6205
  922MPD2    C413494   0.347   1.084  17.007 -0.0788 -0.1215  0.3825
  922MPD2    C513495   0.419   1.116  16.889  0.4518 -0.1444  0.3664
  922MPD2     H13496   0.374   1.387  17.163 -0.8557  1.7480 -2.0477
  922MPD2    H113497   0.292   0.990  17.003  1.3746 -1.0403  1.7173
  922MPD2    H213498   0.550   1.262  16.798  0.7105 -0.0922  0.3770
  922MPD2    H313499   0.423   1.053  16.801 -2.5317 -0.4361  0.4332
  922MPD2     N13500   0.236   1.166  17.215 -0.5738 -0.2748 -0.4294
  922MPD2    H513501   0.241   1.246  17.278 -1.0840 -0.6205  0.0565
  922MPD2    N113502   0.544   1.459  16.993  0.0294 -0.5194 -0.6229
  922MPD2    H713503   0.536   1.518  17.075  4.0156  0.6012 -1.0702
  923MPD2     C13504   0.548   3.128   9.288 -0.3880  0.1088  0.7142
  923MPD2    C113505   0.603   3.207   9.384  0.2558 -0.2859 -0.1288
  923MPD2    C213506   0.735   3.187   9.416  0.3552 -0.4716  0.5437
  923MPD2    C313507   0.817   3.104   9.343  0.6293 -0.3433  0.2701
  923MPD2    C413508   0.760   3.021   9.250 -0.0165  0.2621  0.2628
  923MPD2    C513509   0.622   3.030   9.228  0.3977 -0.1006 -0.7161
  923MPD2     H13510   0.789   3.251   9.486  1.1589 -0.1149 -0.4036
  923MPD2    H113511   0.815   2.972   9.171  1.9845  1.1291  1.1027
  923MPD2    H213512   0.443   3.134   9.261 -0.2532 -4.2942 -0.7845
  923MPD2    H313513   0.570   2.963   9.161  2.8385 -0.7863 -1.9522
  923MPD2     N13514   0.959   3.083   9.365 -0.0932 -0.1049  0.1854
  923MPD2    H513515   1.005   3.013   9.307  1.0792  1.5094 -0.8296
  923MPD2    N113516   0.514   3.300   9.449  0.0128  1.3176 -0.2393
  923MPD2    H713517   0.422   3.301   9.406  0.4856 -0.2802 -1.2981
  924MPD2     C13518   1.595   1.734  15.216  0.0739  0.8372 -0.3828
  924MPD2    C113519   1.542   1.744  15.342 -0.1372  0.1086 -0.0086
  924MPD2    C213520   1.626   1.794  15.439  0.1959  0.0973 -0.1569
  924MPD2    C313521   1.746   1.854  15.414  0.1874 -0.0638  0.3553
  924MPD2    C413522   1.796   1.857  15.285  0.4282 -1.1654 -0.3633
  924MPD2    C513523   1.722   1.788  15.191 -0.3991  0.3134  0.2728
  924MPD2     H13524   1.587   1.794  15.540  0.2497  0.4389 -0.1369
  924MPD2    H113525   1.890   1.898  15.249 -0.4890  0.7333 -0.6147
  924MPD2    H213526   1.557   1.684  15.128  1.2191 -0.2594 -0.2591
  924MPD2    H313527   1.756   1.780  15.088  2.1763  3.2167  0.8916
  924MPD2     N13528   1.819   1.931  15.512 -0.6406  0.5276 -0.1992
  924MPD2    H513529   1.901   1.980  15.476  0.3605 -1.6181 -0.8316
  924MPD2    N113530   1.407   1.701  15.369  0.6064 -0.0576  0.3096
  924MPD2    H713531   1.339   1.686  15.296  0.4099 -0.0176  0.4854
  925MPD2     C13532   4.705   4.693  14.848  0.8336  0.1885 -0.5462
  925MPD2    C113533   0.031   4.568  14.819 -0.4135  0.6262 -0.0106
  925MPD2    C213534   0.100   4.495  14.918 -0.2210 -0.4651 -0.2503
  925MPD2    C313535   0.112   4.541  15.050  0.5884 -0.0152  0.6940
  925MPD2    C413536   0.056   4.663  15.076  0.8223 -1.4160  0.7400
  925MPD2    C513537   0.002   0.017  14.975  0.9009  0.1801  0.6110
  925MPD2     H13538   0.152   4.402  14.895 -2.3662 -2.2391  2.0280
  925MPD2    H113539   0.041   4.702  15.177 -0.6501 -2.4196  0.8944
  925MPD2    H213540   4.670   0.043  14.776 -0.6606  0.6143  0.6185
  925MPD2    H313541   4.701   0.118  15.006 -0.4795  0.1460 -0.3506
  925MPD2     N13542   0.175   4.475  15.157  0.0554  0.0875  0.4611
  925MPD2    H513543   0.163   4.529  15.243 -2.6702 -1.4285  1.0563
  925MPD2    N113544   0.021   4.508  14.687  0.4769 -0.1053 -0.0596
  925MPD2    H713545   0.066   4.417  14.679  0.5310  0.0389 -1.5091
  926MPD2     C13546   2.918   2.187  13.727 -0.0292 -0.6999 -0.6115
  926MPD2    C113547   2.851   2.309  13.717  0.3399 -0.8371 -0.6464
  926MPD2    C213548   2.853   2.374  13.598  0.4688 -0.1411 -0.1571
  926MPD2    C313549   2.952   2.345  13.508 -0.3210  0.3696 -0.2551
  926MPD2    C413550   3.045   2.245  13.532 -0.0147  0.9302 -0.1106
  926MPD2    C513551   3.026   2.165  13.646  0.8420 -0.1190 -0.0403
  926MPD2     H13552   2.789   2.461  13.590  1.0021  0.2085 -0.6469
  926MPD2    H113553   3.123   2.208  13.466  0.7049  0.5982  0.9214
  926MPD2    H213554   2.887   2.130  13.814 -2.4205  0.9748 -0.3683
  926MPD2    H313555   3.087   2.076  13.654 -1.2384 -1.7098 -1.9078
  926MPD2     N13556   2.966   2.423  13.388 -0.2546  0.0904  0.8259
  926MPD2    H513557   3.048   2.398  13.332 -0.9744  1.0673 -0.6663
  926MPD2    N113558   2.766   2.364  13.812  1.1888  0.4230  0.0630
  926MPD2    H713559   2.709   2.444  13.785 -0.9806 -0.6985  1.3208
  927MPD2     C13560   3.056   0.053   0.497 -0.5630  0.6096 -0.0778
  927MPD2    C113561   3.163   0.134   0.502  0.3676 -0.7996 -0.4255
  927MPD2    C213562   3.266   0.133   0.398 -0.4481  0.6536  0.3382
  927MPD2    C313563   3.244   0.047   0.289  0.4635  0.0526 -0.2755
  927MPD2    C413564   3.132   4.687   0.292  0.1589 -0.2663  0.7622
  927MPD2    C513565   3.045   4.689   0.395 -0.9402  0.0424  0.3300
  927MPD2     H13566   3.356   0.193   0.390  0.9407 -1.7466 -2.1361
  927MPD2    H113567   3.114   4.617   0.211  2.2631  1.2256 -1.0013
  927MPD2    H213568   2.980   0.051   0.575  1.0433  1.3860  1.4990
  927MPD2    H313569   2.966   4.615   0.403 -0.7807 -0.4342 -2.6238
  927MPD2     N13570   3.325   0.051   0.176  0.0940 -0.5413  0.3554
  927MPD2    H513571   3.393   0.126   0.177 -1.1586  0.6126 -1.0363
  927MPD2    N113572   3.174   0.217   0.614  0.2980  0.0559 -0.6451
  927MPD2    H713573   3.100   0.208   0.683 -0.3968  0.2547 -1.3610
  928MPD2     C13574   0.798   3.768   0.747  0.0796 -0.2401 -0.4275
  928MPD2    C113575   0.841   3.642   0.778 -0.0956 -0.6434 -0.4835
  928MPD2    C213576   0.972   3.601   0.748  0.1807  0.2145 -0.5382
  928MPD2    C313577   1.064   3.687   0.692 -0.1549  0.2112 -0.0907
  928MPD2    C413578   1.019   3.819   0.672 -0.1261 -0.2761  0.2862
  928MPD2    C513579   0.889   3.860   0.698 -0.0586 -0.0633  0.4150
  928MPD2     H13580   1.018   3.509   0.783  0.5711  1.0275  1.0547
  928MPD2    H113581   1.098   3.884   0.635 -0.3526 -1.5942 -2.5483
  928MPD2    H213582   0.700   3.796   0.782 -0.9389 -3.1200 -0.9313
  928MPD2    H313583   0.870   3.966   0.686  1.3698  0.0411 -1.0418
  928MPD2     N13584   1.201   3.658   0.666 -0.3325 -0.3158  0.6241
  928MPD2    H513585   1.264   3.738   0.655  0.1655 -1.0815 -2.0287
  928MPD2    N113586   0.754   3.560   0.854 -0.3787  0.0845 -0.1160
  928MPD2    H713587   0.668   3.598   0.892 -0.1193 -1.1070  1.6626
  929MPD2     C13588   1.467   2.976  10.739 -0.1324  0.0374  0.2503
  929MPD2    C113589   1.344   2.935  10.781  0.5800  0.3287  0.3292
  929MPD2    C213590   1.239   2.931  10.692  0.4524  0.4881 -0.0133
  929MPD2    C313591   1.253   2.971  10.558  0.1696  0.1927 -0.3945
  929MPD2    C413592   1.381   3.005  10.514 -0.8104 -0.2486 -0.5580
  929MPD2    C513593   1.484   3.002  10.605  0.1643 -0.4197  0.7953
  929MPD2     H13594   1.148   2.882  10.726  1.3030 -1.3859 -0.4479
  929MPD2    H113595   1.404   3.033  10.412  2.2253 -2.8323 -0.5735
  929MPD2    H213596   1.564   2.964  10.785 -0.0913  2.6266  0.8377
  929MPD2    H313597   1.583   3.033  10.576 -0.0432  1.3411  1.9375
  929MPD2     N13598   1.148   2.989  10.465  0.1035 -0.3436 -0.2267
  929MPD2    H513599   1.173   3.017  10.371 -0.7399 -1.1002 -0.6847
  929MPD2    N113600   1.321   2.905  10.918 -0.6627 -0.2761 -0.4535
  929MPD2    H713601   1.401   2.911  10.980 -1.0931 -1.5538  0.2180
  930MPD2     C13602   3.550   1.088  14.222 -0.3910 -0.4399  0.2525
  930MPD2    C113603   3.454   1.141  14.132  0.5702 -0.9348  0.3866
  930MPD2    C213604   3.319   1.093  14.128  0.6338  0.0254 -0.1756
  930MPD2    C313605   3.291   0.981  14.211  0.3806  0.2583  0.4200
  930MPD2    C413606   3.390   0.925  14.287 -0.1324 -0.0788  0.0733
  930MPD2    C513607   3.514   0.978  14.295  0.6113  0.0897 -0.4330
  930MPD2     H13608   3.239   1.120  14.060  0.5823 -0.9778 -0.5208
  930MPD2    H113609   3.367   0.837  14.347  0.6417 -0.9196 -0.8642
  930MPD2    H213610   3.652   1.124  14.217 -0.2816 -0.7006  0.6815
  930MPD2    H313611   3.587   0.926  14.356  0.9104 -0.1169 -0.9689
  930MPD2     N13612   3.172   0.906  14.205  0.2186 -0.2646  0.0154
  930MPD2    H513613   3.156   0.814  14.245  1.4370 -0.0927  0.8998
  930MPD2    N113614   3.510   1.226  14.037  0.2397 -0.2330 -0.2498
  930MPD2    H713615   3.606   1.251  14.059  0.6255 -1.4273 -0.5581
  931MPD2     C13616   3.685   0.144   1.172  0.4632  0.4095  0.5364
  931MPD2    C113617   3.551   0.154   1.196  0.3946 -0.2005  0.2108
  931MPD2    C213618   3.497   0.081   1.302 -0.6022 -0.5340 -0.0692
  931MPD2    C313619   3.580   0.007   1.385 -0.3552  0.1895 -0.4939
  931MPD2    C413620   3.723   0.014   1.369  0.3964 -0.2695 -0.2071
  931MPD2    C513621   3.771   0.088   1.264 -0.0954  0.6586 -0.5692
  931MPD2     H13622   3.393   0.050   1.298 -0.5226 -0.6270 -1.3292
  931MPD2    H113623   3.793   4.691   1.437  0.4875  3.1961  2.0767
  931MPD2    H213624   3.726   0.194   1.085  0.1775  0.2591  0.3153
  931MPD2    H313625   3.878   0.087   1.247  0.2605  1.0046  1.7113
  931MPD2     N13626   3.539   4.660   1.491  0.4245  0.4717 -0.0612
  931MPD2    H513627   3.616   4.611   1.536  1.1928  1.5224 -0.2501
  931MPD2    N113628   3.463   0.223   1.110  0.1880  0.2904 -0.3218
  931MPD2    H713629   3.519   0.260   1.034  0.1547 -0.8094 -0.8808
  932MPD2     C13630   0.177   3.975  11.212 -0.3148 -0.2958  0.9234
  932MPD2    C113631   0.280   4.044  11.148 -0.1789 -0.3868  0.3189
  932MPD2    C213632   0.384   3.974  11.085  0.0171 -0.7670  0.3844
  932MPD2    C313633   0.383   3.832  11.102 -0.4565 -0.1784  0.2429
  932MPD2    C413634   0.276   3.772  11.168  1.1610  0.0693 -1.0377
  932MPD2    C513635   0.173   3.841  11.222  0.0426  0.3565  0.1573
  932MPD2     H13636   0.461   4.027  11.029  1.3116  0.4111  3.3111
  932MPD2    H113637   0.272   3.664  11.177  1.5789  0.1376 -0.0158
  932MPD2    H213638   0.091   4.029  11.252 -0.5456 -0.9185  1.2643
  932MPD2    H313639   0.090   3.784  11.261  0.7542 -0.8839 -0.1426
  932MPD2     N13640   0.493   3.755  11.060  0.3061  0.6937 -1.0852
  932MPD2    H513641   0.490   3.656  11.083 -0.8392  1.0293  0.2388
  932MPD2    N113642   0.275   4.183  11.136  0.3148  0.0199 -0.5107
  932MPD2    H713643   0.331   4.224  11.062  0.9055 -1.2200 -0.7555
  933MPD2     C13644   0.155   3.628   1.397  0.5104  0.4298 -0.0764
  933MPD2    C113645   0.269   3.664   1.323 -0.4251  0.2998 -0.0614
  933MPD2    C213646   0.308   3.796   1.316 -0.0359 -0.4558  0.2633
  933MPD2    C313647   0.225   3.894   1.371  0.1509 -0.0710  0.0494
  933MPD2    C413648   0.126   3.855   1.458 -0.2685 -0.1951 -0.2886
  933MPD2    C513649   0.093   3.724   1.469  0.1376  0.0161 -0.4967
  933MPD2     H13650   0.399   3.820   1.263  1.5593 -2.1758  2.2637
  933MPD2    H113651   0.073   3.924   1.523  0.6347  0.7796 -0.5911
  933MPD2    H213652   0.134   3.522   1.394 -3.0854  1.0981  1.1479
  933MPD2    H313653   0.004   3.703   1.528  2.3022 -2.0330  2.0508
  933MPD2     N13654   0.263   4.032   1.355  0.5982 -0.0720  0.3640
  933MPD2    H513655   0.351   4.042   1.307 -0.8023  0.0544 -2.1660
  933MPD2    N113656   0.336   3.553   1.260 -0.4875  0.3301 -0.2206
  933MPD2    H713657   0.307   3.460   1.290  0.6416  0.4720  1.3315
  934MPD2     C13658   1.874   0.909   2.515 -0.2883  0.9385  0.1111
  934MPD2    C113659   1.953   0.814   2.472 -0.2365 -0.2520  0.6820
  934MPD2    C213660   1.944   0.770   2.334 -0.3829  0.2605 -0.1404
  934MPD2    C313661   1.858   0.828   2.246 -0.1936 -0.5677 -0.2589
  934MPD2    C413662   1.777   0.930   2.297 -0.2907 -0.2791 -0.3385
  934MPD2    C513663   1.782   0.972   2.431 -0.7413  0.0937 -0.0772
  934MPD2     H13664   2.012   0.690   2.306 -0.7620 -0.7870  1.9206
  934MPD2    H113665   1.701   0.980   2.237  0.4737  0.3273 -0.8032
  934MPD2    H213666   1.876   0.943   2.618  0.1175  1.2550  0.0010
  934MPD2    H313667   1.713   1.046   2.470  0.1399  1.6294 -1.4181
  934MPD2     N13668   1.859   0.815   2.102  0.2426  0.0447 -0.4902
  934MPD2    H513669   1.784   0.870   2.062  0.5358  1.5709  1.0364
  934MPD2    N113670   2.056   0.759   2.555  0.3145 -0.0004  0.0604
  934MPD2    H713671   2.118   0.692   2.511  0.5592  0.5320 -0.4254
  935MPD2     C13672   2.397   0.212   1.488  0.0669  0.0787  0.2765
  935MPD2    C113673   2.309   0.275   1.405 -0.4898  0.3804 -0.3932
  935MPD2    C213674   2.224   0.372   1.453  0.5441  0.5993 -0.4218
  935MPD2    C313675   2.231   0.417   1.587 -0.2358 -1.0299 -0.0057
  935MPD2    C413676   2.328   0.359   1.667  0.2214  0.5019  0.0324
  935MPD2    C513677   2.408   0.264   1.619 -0.2827  0.5088  0.2841
  935MPD2     H13678   2.142   0.406   1.390  0.7564 -1.2746 -1.7036
  935MPD2    H113679   2.335   0.375   1.774 -0.4592 -0.0975  0.1623
  935MPD2    H213680   2.463   0.132   1.457  0.9476  1.4159 -1.2658
  935MPD2    H313681   2.479   0.233   1.694 -0.5922 -0.2079  0.2816
  935MPD2     N13682   2.141   0.509   1.655 -0.1751 -1.0366  0.0044
  935MPD2    H513683   2.160   0.531   1.752 -3.0465 -0.3032  0.4221
  935MPD2    N113684   2.291   0.244   1.268  0.4233  0.1182  0.0893
  935MPD2    H713685   2.226   0.307   1.222 -2.8720 -2.5391  1.1596
  936MPD2     C13686   0.394   3.357  12.328  0.0265  0.4054  0.5903
  936MPD2    C113687   0.495   3.278  12.379 -0.1714  0.0279  0.0447
  936MPD2    C213688   0.630   3.327  12.370 -0.5332 -0.0008 -0.6848
  936MPD2    C313689   0.661   3.456  12.327 -0.4734 -1.3023  0.2484
  936MPD2    C413690   0.552   3.525  12.265 -0.0822  0.5223  0.6885
  936MPD2    C513691   0.421   3.477  12.265 -0.1984 -0.0345 -0.2656
  936MPD2     H13692   0.709   3.271  12.420  0.7472  1.9230 -0.5710
  936MPD2    H113693   0.564   3.627  12.232  3.2631 -0.0808 -0.0326
  936MPD2    H213694   0.292   3.321  12.338  1.0998 -2.2787  1.7689
  936MPD2    H313695   0.339   3.536  12.226 -0.9696 -1.0917 -0.2668
  936MPD2     N13696   0.790   3.499  12.344 -0.2329 -0.1031  0.5236
  936MPD2    H513697   0.849   3.432  12.394 -0.9728 -0.1023  1.3907
  936MPD2    N113698   0.482   3.155  12.439  0.0711 -0.0395 -0.8360
  936MPD2    H713699   0.561   3.098  12.467 -1.4934 -1.1926  1.1845
  937MPD2     C13700   3.310   3.661  11.774 -0.6661  0.5970 -0.1376
  937MPD2    C113701   3.287   3.800  11.761  0.3237  0.1642  0.6347
  937MPD2    C213702   3.294   3.846  11.631 -0.6071  0.1865 -0.5924
  937MPD2    C313703   3.340   3.767  11.524 -0.4613 -0.1400  0.3422
  937MPD2    C413704   3.383   3.638  11.552 -0.2397  1.0972 -0.5004
  937MPD2    C513705   3.364   3.587  11.677 -0.3464  0.2947  0.3384
  937MPD2     H13706   3.255   3.942  11.601 -3.4304 -0.2962  1.5198
  937MPD2    H113707   3.414   3.572  11.472 -1.4621  2.0506 -1.7655
  937MPD2    H213708   3.283   3.614  11.868  0.1927  1.2445  0.4325
  937MPD2    H313709   3.386   3.483  11.699 -0.1734  0.2167 -0.1945
  937MPD2     N13710   3.326   3.815  11.394  0.7384 -0.3774  0.0016
  937MPD2    H513711   3.287   3.908  11.387  1.8531  0.2558  2.0550
  937MPD2    N113712   3.218   3.879  11.851  0.2884  0.9390  0.0318
  937MPD2    H713713   3.194   3.971  11.816 -0.2796  0.6695 -0.2976
  938MPD2     C13714   1.705   1.146   1.022  0.3409  0.0491 -0.5521
  938MPD2    C113715   1.706   1.100   1.156 -0.7101 -0.6579 -0.9504
  938MPD2    C213716   1.652   0.971   1.169  0.1520  0.1141 -0.6906
  938MPD2    C313717   1.578   0.913   1.063  0.1234 -0.0091  0.1504
  938MPD2    C413718   1.569   0.974   0.944 -0.3392  0.1429  0.2121
  938MPD2    C513719   1.632   1.086   0.928 -0.5072 -0.1542  0.4340
  938MPD2     H13720   1.647   0.928   1.268  0.9192 -0.7001 -1.0005
  938MPD2    H113721   1.513   0.930   0.863  1.7767  0.2406 -1.3125
  938MPD2    H213722   1.764   1.233   0.995  1.1753 -0.5462 -0.6161
  938MPD2    H313723   1.621   1.133   0.831 -1.5343 -1.4745 -0.0940
  938MPD2     N13724   1.512   0.787   1.071 -0.3751  0.6659  0.9874
  938MPD2    H513725   1.460   0.755   0.990  1.7991  1.6208 -0.7707
  938MPD2    N113726   1.762   1.174   1.265 -0.3424  0.2666  1.0859
  938MPD2    H713727   1.771   1.117   1.349 -0.3957  1.2834  1.7862
  939MPD2     C13728   2.508   1.308   1.166  0.6023  0.1049  0.3439
  939MPD2    C113729   2.523   1.445   1.151  0.7439 -1.0419  0.9457
  939MPD2    C213730   2.556   1.497   1.024  0.6761  0.2201 -0.6268
  939MPD2    C313731   2.562   1.405   0.921  0.8088 -0.3901  0.4376
  939MPD2    C413732   2.562   1.267   0.940 -0.2681  0.0835  0.1621
  939MPD2    C513733   2.536   1.223   1.065 -0.5306 -0.4689 -0.1852
  939MPD2     H13734   2.557   1.605   1.009  2.6800  0.4387  1.2455
  939MPD2    H113735   2.587   1.193   0.865  0.3814 -0.3972  0.8554
  939MPD2    H213736   2.494   1.278   1.269  0.6443  1.5297  0.7609
  939MPD2    H313737   2.535   1.118   1.093 -0.3865 -0.1988  0.8343
  939MPD2     N13738   2.569   1.461   0.794 -0.3034 -0.3456 -0.5160
  939MPD2    H513739   2.561   1.561   0.784  0.5338 -0.2380 -0.0669
  939MPD2    N113740   2.499   1.525   1.262  0.3002 -0.2012 -0.0304
  939MPD2    H713741   2.471   1.482   1.349 -0.5972  0.6980  0.1288
  940MPD2     C13742   0.836   2.531  12.807 -0.2534 -0.9810 -0.1705
  940MPD2    C113743   0.942   2.571  12.896  0.2480  0.2282  0.3097
  940MPD2    C213744   1.032   2.654  12.841  0.4609 -0.8554  0.2735
  940MPD2    C313745   1.034   2.692  12.711 -0.1818 -0.5308  0.1908
  940MPD2    C413746   0.932   2.648  12.631 -0.5806 -0.6060  0.1161
  940MPD2    C513747   0.834   2.569  12.681 -0.3627  0.3710  0.5119
  940MPD2     H13748   1.103   2.696  12.912  2.1274 -1.0369 -1.2841
  940MPD2    H113749   0.915   2.675  12.527 -1.1092 -0.2991  0.2806
  940MPD2    H213750   0.750   2.474  12.842 -1.7612  2.2565  1.4523
  940MPD2    H313751   0.750   2.545  12.617 -0.2364 -0.0045  0.4882
  940MPD2     N13752   1.121   2.779  12.647 -0.3257 -0.6438  0.4572
  940MPD2    H513753   1.089   2.809  12.556  2.7111  0.2456 -0.3192
  940MPD2    N113754   0.932   2.545  13.036 -0.8964  0.1628 -0.4047
  940MPD2    H713755   1.017   2.562  13.088 -1.6251 -0.3884  0.9573
  941MPD2     C13756   0.205   1.685   9.652 -0.1159 -0.5545 -0.5461
  941MPD2    C113757   0.334   1.655   9.695 -0.0309 -0.6748 -0.6771
  941MPD2    C213758   0.349   1.552   9.781 -0.1817 -0.0797  0.1249
  941MPD2    C313759   0.240   1.476   9.817  0.0670 -0.1463  0.6947
  941MPD2    C413760   0.112   1.509   9.779 -0.9194  0.3111  0.0298
  941MPD2    C513761   0.095   1.621   9.708 -0.0209 -0.7808  0.0881
  941MPD2     H13762   0.451   1.537   9.814  0.8844 -0.6365 -3.4331
  941MPD2    H113763   0.030   1.448   9.816 -0.8996 -1.1486 -2.3244
  941MPD2    H213764   0.178   1.782   9.611  2.5956  0.7208  0.6806
  941MPD2    H313765   4.716   1.644   9.683  0.1341  0.6508  0.8138
  941MPD2     N13766   0.251   1.361   9.894  0.5939 -0.5602  0.2347
  941MPD2    H513767   0.173   1.298   9.913 -0.7648  1.3269  0.8494
  941MPD2    N113768   0.444   1.736   9.660  0.1483 -0.4644 -0.1805
  941MPD2    H713769   0.532   1.703   9.696  0.7383  0.2042 -1.0004
  942MPD2     C13770   3.730   3.788   9.142 -0.4951  0.2314  0.5744
  942MPD2    C113771   3.785   3.815   9.259 -0.7200 -0.1919  0.9811
  942MPD2    C213772   3.868   3.724   9.313  0.2887 -0.0930  0.0810
  942MPD2    C313773   3.904   3.610   9.241 -0.3419 -0.5054 -0.4073
  942MPD2    C413774   3.850   3.584   9.115  0.7390  0.0782  0.0165
  942MPD2    C513775   3.764   3.675   9.064 -0.3040  0.8143 -0.1800
  942MPD2     H13776   3.889   3.738   9.418 -2.0089  3.1559  0.1145
  942MPD2    H113777   3.882   3.499   9.055  0.0011  0.3552 -0.7828
  942MPD2    H213778   3.665   3.861   9.096  0.4075 -1.3933 -3.2810
  942MPD2    H313779   3.731   3.666   8.961  2.5546  0.0894 -1.0376
  942MPD2     N13780   3.996   3.519   9.295  0.1824  0.0825 -0.2752
  942MPD2    H513781   4.006   3.438   9.235  0.6428 -1.0493  1.3091
  942MPD2    N113782   3.761   3.925   9.343 -0.2206 -0.1245 -0.1963
  942MPD2    H713783   3.805   3.925   9.435 -1.0649  1.9491  0.2157
  943MPD2     C13784   4.571   1.577   9.996  0.5315  0.4775  0.0279
  943MPD2    C113785   4.496   1.493  10.075  0.3775  0.0529  0.3730
  943MPD2    C213786   4.355   1.504  10.073  0.1303  0.2417  0.2723
  943MPD2    C313787   4.289   1.600  10.002  0.1813 -0.3670  0.5164
  943MPD2    C413788   4.370   1.684   9.936 -0.2107 -0.4767 -0.6414
  943MPD2    C513789   4.507   1.675   9.931  0.1041 -0.5484 -0.0738
  943MPD2     H13790   4.292   1.431  10.123  1.9847 -0.5757  1.4204
  943MPD2    H113791   4.323   1.758   9.873 -1.8001 -0.7808  0.1900
  943MPD2    H213792   4.678   1.585  10.013  0.6284 -0.7134  0.0177
  943MPD2    H313793   4.557   1.753   9.876 -1.4127  0.5113  0.0545
  943MPD2     N13794   4.147   1.615   9.995 -0.3116 -0.7288  0.1928
  943MPD2    H513795   4.116   1.700   9.949  2.9506 -0.5469 -1.6036
  943MPD2    N113796   4.548   1.383  10.143 -0.3427  0.0442  0.1007
  943MPD2    H713797   4.483   1.316  10.184 -0.6448  1.9021  2.6128
  944MPD2     C13798   4.067   0.205  10.685  0.1963  0.7408  0.0133
  944MPD2    C113799   4.168   0.265  10.760  0.2713 -0.4244 -0.7277
  944MPD2    C213800   4.160   0.257  10.893 -0.1155 -0.8439  0.8213
  944MPD2    C313801   4.060   0.188  10.963 -0.3119 -0.5187 -0.1031
  944MPD2    C413802   3.962   0.131  10.884  0.1187 -0.2590 -0.5545
  944MPD2    C513803   3.970   0.134  10.751 -0.5415  1.1402  0.0206
  944MPD2     H13804   4.244   0.290  10.953  0.6735 -0.8950 -0.2496
  944MPD2    H113805   3.876   0.080  10.925  1.7459 -2.5666  0.0231
  944MPD2    H213806   4.079   0.210  10.578  2.9822 -0.4461  0.2741
  944MPD2    H313807   3.893   0.086  10.691  0.1519  0.9991 -0.7671
  944MPD2     N13808   4.039   0.195  11.104  0.4897  0.0598  0.1744
  944MPD2    H513809   4.066   0.276  11.158  0.2230 -0.8109  1.6221
  944MPD2    N113810   4.274   0.310  10.682 -0.6523 -0.1170 -0.1755
  944MPD2    H713811   4.272   0.281  10.584 -0.2989  0.4329 -0.3431
    1TCq1    O113812   2.266   0.936  14.528 -0.3177  0.0186  0.0599
    1TCq1    C113813   2.270   1.060  14.492 -0.4722  0.3394 -0.3385
    1TCq1    O213814   2.186   1.125  14.428  0.4919  0.3813  0.3794
    1TCq1    C213815   2.392   1.114  14.551  0.0152  0.0980  0.2967
    1TCq1    C313816   2.495   1.033  14.590 -0.6023 -0.0087  0.4952
    1TCq1    C413817   2.589   1.095  14.666  0.2193  0.2971  0.2142
    1TCq1    C513818   2.579   1.226  14.708 -0.1662  0.4151 -0.0851
    1TCq1    C613819   2.482   1.301  14.663 -0.3391  0.5943  0.6862
    1TCq1    C713820   2.381   1.246  14.588 -0.1688 -0.6359 -0.1722
    1TCq1    C813821   2.455   1.431  14.722  0.0838 -0.0302  0.2459
    1TCq1    O413822   2.542   1.470  14.795  0.0341  0.2245  0.9437
    1TCq1    C913823   2.714   1.021  14.674 -0.0869 -0.0414  0.1550
    1TCq1    O513824   2.717   0.910  14.616  0.8738 -0.3262 -0.3274
    1TCq1    O613825   2.816   1.073  14.731  0.6835 -0.2369 -0.1984
    1TCq1    H113826   2.337   0.911  14.591  0.4731  2.5612  0.1863
    1TCq1    H213827   2.502   0.931  14.552  0.1408  0.0890  0.3704
    1TCq1    H313828   2.671   1.268  14.746  0.6537  0.1959 -1.8051
    1TCq1    H413829   2.299   1.300  14.542 -0.7258  0.3925  2.0130
    2MPD2     C13830   2.242   1.870  14.824 -0.2987 -0.9297  0.6710
    2MPD2    C113831   2.189   1.828  14.705 -0.5909 -0.7419  0.0330
    2MPD2    C213832   2.234   1.711  14.649 -0.8788 -0.0852  0.6151
    2MPD2    C313833   2.321   1.626  14.723  0.1749  0.7892  0.2758
    2MPD2    C413834   2.360   1.667  14.850  0.4004 -0.5354  0.1087
    2MPD2    C513835   2.325   1.789  14.893 -0.7846 -0.2990  0.1379
    2MPD2     H13836   2.204   1.677  14.551  1.9600 -0.5193 -0.0936
    2MPD2    H113837   2.425   1.611  14.917  0.0099 -1.8845 -0.6223
    2MPD2    H213838   2.218   1.968  14.863 -1.3066  0.6288 -3.8795
    2MPD2    H313839   2.354   1.814  14.994 -1.1394  2.3567 -0.4318
    2MPD2     N13840   2.356   1.503  14.664  0.7297 -0.8150 -0.5262
    2MPD2    H513841   2.320   1.473  14.574 -0.3492  1.9553 -1.0341
    2MPD2    N113842   2.098   1.916  14.643  0.1386  0.0290 -0.1807
    2MPD2    H713843   2.097   2.008  14.685  0.1643  0.0129 -0.1446
    3TMC2    C113844   1.965   2.002  14.472  0.1632 -0.7019  0.9323
    3TMC2    C213845   1.969   2.123  14.535 -0.7885 -0.7620 -0.6369
    3TMC2    C313846   1.955   2.234  14.453 -0.8173 -0.2163  0.0086
    3TMC2    C413847   1.947   1.992  14.339  0.3156  0.9202  0.3508
    3TMC2    C513848   1.938   2.102  14.261 -0.1701  0.4183  0.7610
    3TMC2    C613849   1.940   2.226  14.321 -0.3638  0.1634 -0.6652
    3TMC2     C13850   2.021   1.886  14.529 -0.1422  0.3565  0.0463
    3TMC2     O13851   2.012   1.778  14.476  0.1675  0.2073  0.2117
    3TMC2     H13852   1.952   2.137  14.642  2.2734 -1.0190 -0.1281
    3TMC2    H113853   1.962   1.895  14.294  0.2826  1.9055 -1.7846
    3TMC2    H213854   1.943   2.317  14.263 -0.0347  0.6122  0.0659
    3TMC2    C713855   1.912   2.086  14.117 -0.0406  0.7237  0.4712
    3TMC2    C813856   1.925   2.359  14.515  0.1197 -0.4083  0.4210
    3TMC2    O113857   1.903   1.974  14.067  0.4248  0.5154  0.5182
    3TMC2    O213858   1.850   2.438  14.457  0.2775  0.3381 -0.0942
    3TMC2    O513859   2.019   2.391  14.606 -0.7065 -0.5460  0.1463
    3TMC2    H513860   2.088   2.322  14.596  0.8390  0.9962  0.1244
    4MPD2     C13861   0.972   3.267  13.628  0.7363 -0.3574 -0.7483
    4MPD2    C113862   0.960   3.162  13.537  0.3093  0.4953  0.0365
    4MPD2    C213863   1.080   3.086  13.516  0.8437 -0.1371  0.1365
    4MPD2    C313864   1.192   3.107  13.592 -0.0014  0.0398  0.5255
    4MPD2    C413865   1.188   3.207  13.691 -0.3656 -0.2584  0.1354
    4MPD2    C513866   1.078   3.288  13.705  0.3371  0.4653  0.1026
    4MPD2     H13867   1.089   3.015  13.435  0.0354  1.8560 -1.6956
    4MPD2    H113868   1.275   3.230  13.752 -0.7972  0.4312  0.4984
    4MPD2    H213869   0.884   3.327  13.647  0.6592 -1.3182  1.9896
    4MPD2    H313870   1.071   3.367  13.779 -0.0875  0.0806  0.4766
    4MPD2     N13871   1.297   3.010  13.575  0.1104 -0.1386 -0.2395
    4MPD2    H513872   1.275   2.939  13.506 -2.7441  0.3723  0.1388
    4MPD2    N113873   0.842   3.145  13.463 -0.1072 -0.0887 -0.3011
    4MPD2    H713874   0.762   3.201  13.490 -0.1016 -0.4322  0.4105
    5TCq2    C113875   1.400   2.985  13.656  0.1999 -0.4473  0.4605
    5TCq2    O213876   1.425   3.035  13.764  0.7987  0.1780  0.3346
    5TCq2    C213877   1.474   2.865  13.617 -0.3895  0.2940 -0.4104
    5TCq2    C313878   1.465   2.818  13.484  0.1638 -0.6304 -0.2396
    5TCq2    C413879   1.462   2.679  13.474  0.4864 -0.0033 -0.0700
    5TCq2    C513880   1.493   2.592  13.574  0.1722  0.5738 -0.0477
    5TCq2    C613881   1.518   2.648  13.696  0.4301 -0.6602  0.0260
    5TCq2    C713882   1.503   2.787  13.721 -0.0500  0.7289  0.3325
    5TCq2    C813883   1.597   2.565  13.793 -0.3283  0.3332  0.1148
    5TCq2    O413884   1.630   2.605  13.904 -0.0085 -0.0910  0.2424
    5TCq2    C913885   1.451   2.623  13.340 -0.6526  0.1770 -0.5963
    5TCq2    O513886   1.485   2.503  13.327  0.5357  0.1439 -0.1784
    5TCq2    O613887   1.407   2.706  13.249  0.3219 -0.5220  0.4943
    5TCq2    H213888   1.454   2.887  13.401 -0.5557 -1.7078 -1.0423
    5TCq2    H313889   1.478   2.486  13.555  3.3894  0.0176  0.5590
    5TCq2    H413890   1.524   2.833  13.816 -1.2207  1.6571  0.1443
    6MPD1     C13891   0.652   0.071  13.179 -0.6985 -0.2577 -0.4560
    6MPD1    C113892   0.749   0.025  13.092  0.6983  0.1410 -0.1234
    6MPD1    C213893   0.797   4.620  13.107 -0.0357 -0.1576  0.7797
    6MPD1    C313894   0.743   4.531  13.194 -0.1309  0.6703 -0.0826
    6MPD1    C413895   0.641   4.580  13.272 -0.2055 -0.3075 -0.7734
    6MPD1    C513896   0.598   4.707  13.271 -0.0434  0.3416 -0.0960
    6MPD1     H13897   0.876   4.585  13.041 -0.2504 -1.7843  1.3775
    6MPD1    H113898   0.569   4.521  13.328 -2.6483  0.1452 -3.4817
    6MPD1    H213899   0.618   0.173  13.167 -0.0917  0.3668  3.0437
    6MPD1    H313900   0.510   0.010  13.329  0.1662 -0.7637  0.7290
    6MPD1     N13901   0.771   4.395  13.206 -0.6465  0.1996  0.1775
    6MPD1    H513902   0.710   4.340  13.266  0.1821 -1.2119 -0.2752
    6MPD1    N113903   0.832   0.125  13.032  1.1759  0.2436 -0.1839
    6MPD1    H613904   0.894   0.090  12.960  0.2050 -0.8444 -0.4804
    6MPD1    H713905   0.767   0.198  13.002 -0.4889 -1.7817 -1.5345
    7MPD2     C13906   0.518   3.905  13.269 -0.8920 -0.4396 -0.8136
    7MPD2    C113907   0.577   3.828  13.364 -0.5521 -0.4290  0.2592
    7MPD2    C213908   0.558   3.691  13.368 -0.1595  0.1670 -0.6045
    7MPD2    C313909   0.471   3.630  13.275 -0.2749  0.2767 -0.1583
    7MPD2    C413910   0.403   3.711  13.186 -0.2145 -0.2471  1.4580
    7MPD2    C513911   0.430   3.845  13.177 -0.0789 -0.3325  0.5162
    7MPD2     H13912   0.608   3.643  13.451  0.1585  1.9049  0.2220
    7MPD2    H113913   0.321   3.674  13.125  0.5970  0.7814 -0.2201
    7MPD2    H213914   0.537   4.011  13.268  0.9956 -0.7509  0.9817
    7MPD2    H313915   0.380   3.900  13.099  0.6715 -0.2662  0.0820
    7MPD2     N13916   0.457   3.486  13.265 -0.4295 -0.5770 -0.0703
    7MPD2    H513917   0.409   3.456  13.181 -2.7946 -2.1123  1.8092
    7MPD2    N113918   0.664   3.878  13.461 -0.0252  0.0873  0.6620
    7MPD2    H713919   0.667   3.835  13.552 -1.7778 -0.1520  0.6057
    8TMC3    C113920   0.510   3.261  13.302  0.0967  0.5560  0.1846
    8TMC3    C213921   0.588   3.178  13.383 -0.2564  0.3524  0.0463
    8TMC3    C313922   0.676   3.093  13.313 -0.1406  0.3077 -0.0352
    8TMC3    C413923   0.487   3.222  13.173  0.3538  0.0135 -0.0587
    8TMC3    C513924   0.558   3.127  13.114 -0.6915  0.2905 -0.2484
    8TMC3    C613925   0.660   3.067  13.180  0.1090 -0.5235 -0.3175
    8TMC3     C13926   0.499   3.397  13.354 -0.3388  0.5535 -0.2146
    8TMC3     O13927   0.551   3.414  13.461 -0.4124 -0.1980  0.1921
    8TMC3     H13928   0.609   3.201  13.487 -1.7725  2.9430 -0.2172
    8TMC3    H113929   0.425   3.274  13.101  0.0295  1.1010  1.0047
    8TMC3    H213930   0.744   3.027  13.125  2.7746  1.8363  2.0299
    8TMC3    C713931   0.595   3.185  12.981  0.2918  0.1191  0.3487
    8TMC3    C813932   0.802   3.049  13.374 -0.4651  0.0182 -0.2267
    8TMC3    O113933   0.514   3.161  12.891  0.0043 -0.0172  0.6805
    8TMC3    O213934   0.874   2.965  13.322 -0.1433  0.5381  0.5242
    9TMC3    C113935   0.867   4.180  13.160 -0.2416 -0.2781  0.0584
    9TMC3    C213936   0.875   4.094  13.053 -0.3273  0.5374 -0.1464
    9TMC3    C313937   0.844   3.965  13.086 -0.2255  0.1502 -0.5087
    9TMC3    C413938   0.831   4.146  13.289  0.2112 -0.0214  0.2248
    9TMC3    C513939   0.788   4.018  13.306 -0.0301 -0.1322 -0.2375
    9TMC3    C613940   0.815   3.928  13.215 -0.0631  0.0422 -0.7906
    9TMC3     C13941   0.862   4.321  13.140  0.1356 -0.7165 -0.1536
    9TMC3     O13942   0.925   4.356  13.043 -0.4996  0.5848 -0.0406
    9TMC3     H13943   0.902   4.127  12.954  1.7434  0.0487  0.2583
    9TMC3    H113944   0.815   4.212  13.374  1.4267  1.0449 -0.3784
    9TMC3    H213945   0.785   3.828  13.244 -1.0886  0.2321 -1.1925
    9TMC3    C713946   0.765   3.977  13.442 -0.4764  0.0023 -0.2726
    9TMC3    C813947   0.799   3.882  12.977  0.1537 -0.6372  0.2340
    9TMC3    O113948   0.850   4.021  13.522  0.3337  0.0031 -0.0422
    9TMC3    O213949   0.781   3.928  12.863  0.2640 -0.5329 -0.5987
   10MPD2     C13950   0.621   3.424  12.795  0.3863 -0.7057 -0.0589
   10MPD2    C113951   0.664   3.414  12.922 -0.1550  0.1214  0.0605
   10MPD2    C213952   0.714   3.527  12.980  0.1697  0.2888  0.3893
   10MPD2    C313953   0.734   3.651  12.919  0.0492 -0.2184  0.1636
   10MPD2    C413954   0.698   3.663  12.786  0.4424  1.0841 -0.0809
   10MPD2    C513955   0.642   3.551  12.728 -0.1448 -1.0204  0.1769
   10MPD2     H13956   0.737   3.519  13.085 -0.3958  0.3443  0.5159
   10MPD2    H113957   0.702   3.755  12.729  0.0416  1.6498  0.8111
   10MPD2    H213958   0.584   3.340  12.738 -0.1857 -0.7771  0.4129
   10MPD2    H313959   0.616   3.554  12.623  0.1332  1.9767  0.2144
   10MPD2     N13960   0.785   3.748  13.005  0.9678 -0.0463  0.4327
   10MPD2    H513961   0.807   3.717  13.099 -3.4558  2.6276  2.3465
   10MPD2    N113962   0.661   3.304  13.006 -0.4771  0.4654  0.0173
   10MPD2    H713963   0.727   3.302  13.082  0.9848 -0.0604 -1.2674
   11MPD2     C13964   1.850   2.132  13.825  0.9016  0.1037 -0.1690
   11MPD2    C113965   1.822   2.220  13.924 -0.1248  0.0467 -0.5007
   11MPD2    C213966   1.747   2.327  13.899  0.2940 -0.6267  0.2654
   11MPD2    C313967   1.701   2.346  13.775 -0.0613 -0.3672 -0.4285
   11MPD2    C413968   1.712   2.249  13.680  0.1969 -0.6921  0.5191
   11MPD2    C513969   1.792   2.143  13.702  0.6462 -0.6065  0.7694
   11MPD2     H13970   1.732   2.401  13.976  3.0034 -0.1551  0.3403
   11MPD2    H113971   1.678   2.265  13.578 -2.0980 -3.7993  0.8387
   11MPD2    H213972   1.929   2.057  13.828 -0.3628 -1.2460 -0.6623
   11MPD2    H313973   1.814   2.068  13.628 -0.4464  1.7885 -2.0015
   11MPD2     N13974   1.621   2.449  13.732 -0.5681 -0.4470 -0.0030
   11MPD2    H513975   1.582   2.440  13.638  1.6675 -0.3848 -0.9399
   11MPD2    N113976   1.862   2.203  14.061  0.3176 -0.0732  0.1995
   11MPD2    H713977   1.859   2.284  14.121  0.3518  0.8579 -1.0479
    1MPD1     C13978   4.113   3.701  17.609  0.0563  0.5129  0.2718
    1MPD1    C113979   4.202   3.803  17.639  0.6819 -0.5178  0.8380
    1MPD1    C213980   4.288   3.848  17.541  0.5404 -0.1973 -0.4537
    1MPD1    C313981   4.284   3.798  17.417 -0.5371  0.2726 -0.5009
    1MPD1    C413982   4.181   3.710  17.381  0.2106  1.4082  0.8445
    1MPD1    C513983   4.099   3.663  17.482  0.1402 -0.2879  0.4083
    1MPD1     H13984   4.352   3.931  17.570 -1.3154  1.4119 -0.9090
    1MPD1    H113985   4.178   3.667  17.281  2.0416 -0.0651  1.4179
    1MPD1    H213986   4.044   3.665  17.686  2.3432 -0.9317  1.6625
    1MPD1    H313987   4.025   3.587  17.461  0.4234  0.1613 -2.1567
    1MPD1     N13988   4.374   3.849  17.322 -1.1204 -0.1733 -0.0936
    1MPD1    H513989   4.361   3.822  17.225 -1.0720 -1.3670  0.2230
    1MPD1    N113990   4.209   3.844   0.073 -0.5274  0.2677  0.3941
    1MPD1    H613991   4.257   3.932   0.091 -0.8358  1.0537 -2.7153
    1MPD1    H713992   4.115   3.867   0.105 -1.0730 -0.4958 -0.6779
    2MPD1     C13993   0.610   3.732  17.394  0.5389  0.4945 -1.0143
    2MPD1    C113994   0.529   3.804  17.487  0.5914  0.6471 -0.3420
    2MPD1    C213995   0.406   3.835  17.431 -0.1962 -0.6677 -0.5770
    2MPD1    C313996   0.363   3.798  17.300 -1.3536 -0.1657  0.3477
    2MPD1    C413997   0.440   3.716  17.218  0.0950 -0.2839 -0.3196
    2MPD1    C513998   0.560   3.697  17.270 -0.2363  1.2735 -0.4447
    2MPD1     H13999   0.333   3.903  17.474  0.9942  0.6430 -0.6455
    2MPD1    H114000   0.430   3.690  17.113  0.0478 -0.8275 -0.1762
    2MPD1    H214001   0.713   3.702  17.407  0.9462  1.7927 -1.2983
    2MPD1    H314002   0.621   3.630  17.209 -0.5369 -0.3113  0.9915
    2MPD1     N14003   0.234   3.842  17.253  0.4449  0.6274  0.3667
    2MPD1    H514004   0.192   3.901  17.324  2.3697  3.0902 -0.5389
    2MPD1    N114005   0.567   3.837  17.614 -0.4858 -0.6746  0.0038
    2MPD1    H614006   0.556   3.752  17.668 -1.1158 -0.8898 -0.4595
    2MPD1    H714007   0.668   3.848  17.616 -0.7375  1.2512  1.8019
    3TMC3    C114008   0.042   3.879  17.121 -0.1271 -0.9542  0.2946
    3TMC3    C214009   4.715   3.913  17.002  0.0615 -0.5733  0.2457
    3TMC3    C314010   4.584   3.960  17.001  0.1066 -0.6316  0.5287
    3TMC3    C414011   4.696   3.873  17.236 -0.3980  0.4312  0.4246
    3TMC3    C514012   4.574   3.930  17.239 -0.2996 -0.1214 -0.2171
    3TMC3    C614013   4.512   3.971  17.124  0.0243  0.6902 -0.2269
    3TMC3     C14014   0.175   3.819  17.133 -0.0238 -0.3166  0.3344
    3TMC3     O14015   0.227   3.765  17.035  0.2856 -0.4786  0.0898
    3TMC3     H14016   0.051   3.904  16.912 -0.7535  0.1309 -0.3670
    3TMC3    H114017   0.017   3.848  17.332  0.7428  0.7986 -0.0183
    3TMC3    H214018   4.412   4.011  17.136 -2.1276 -4.5365 -0.4342
    3TMC3    C714019   4.497   3.899  17.358 -0.0831  0.4909 -0.4412
    3TMC3    C814020   4.516   3.973  16.875 -0.1866  0.5742  0.1879
    3TMC3    O114021   4.556   3.898  17.466 -0.0962  0.1463 -0.2195
    3TMC3    O214022   4.395   3.994  16.882  0.8153 -0.3142 -0.4726
    4MPD1     C14023   4.466   3.883  16.373 -0.8233 -0.5504  1.1181
    4MPD1    C114024   4.588   3.833  16.414 -0.2782 -0.4543  0.3204
    4MPD1    C214025   4.626   3.845  16.548 -0.6602  0.8302  0.8324
    4MPD1    C314026   4.536   3.896  16.640  0.4612 -0.0639  0.3975
    4MPD1    C414027   4.414   3.936  16.604 -0.4298  0.3381  0.9614
    4MPD1    C514028   4.390   3.940  16.471  0.9909  0.2517  0.5486
    4MPD1     H14029   0.002   3.817  16.580 -0.2851  0.6538 -0.4665
    4MPD1    H114030   4.338   3.967  16.675  0.5140  3.5424  0.5551
    4MPD1    H214031   4.432   3.869  16.271  0.2074 -1.4597  0.8940
    4MPD1    H314032   4.292   3.980  16.448 -0.7893 -3.3913  1.8081
    4MPD1     N14033   4.582   3.912  16.773 -0.5765  0.2787 -0.7419
    4MPD1    H514034   4.676   3.877  16.787 -0.5636  0.0271 -1.4481
    4MPD1    N114035   4.682   3.775  16.321  0.1523  0.3641 -0.7122
    4MPD1    H614036   4.643   3.715  16.249  0.2570  2.1529 -2.2471
    4MPD1    H714037   0.034   3.730  16.371 -2.3060 -1.9642  0.9042
    1TCq1    O114038   1.576   3.873  11.493  0.1491 -0.0804 -0.1932
    1TCq1    C114039   1.440   3.873  11.512 -0.3318 -0.1685 -0.3156
    1TCq1    O214040   1.385   3.876  11.624  0.4199  0.2162 -0.2003
    1TCq1    C214041   1.354   3.898  11.393 -0.5557 -0.4570  0.7972
    1TCq1    C314042   1.412   3.904  11.264  0.0824  0.0900 -0.1783
    1TCq1    C414043   1.321   3.886  11.164 -0.0531 -0.2180  0.0612
    1TCq1    C514044   1.187   3.912  11.178 -0.3372  0.7760  0.2273
    1TCq1    C614045   1.134   3.919  11.309 -0.0041  0.0843 -0.2607
    1TCq1    C714046   1.216   3.907  11.420  0.3052  0.1197  0.2900
    1TCq1    C814047   0.999   3.966  11.332 -0.1395  0.7316 -0.0388
    1TCq1    O414048   0.950   3.958  11.444  0.1419  0.6032 -0.2200
    1TCq1    C914049   1.366   3.898  11.034  0.1490  0.9666 -0.4045
    1TCq1    O514050   1.479   3.951  11.020  0.4238 -1.0465 -0.0332
    1TCq1    O614051   1.295   3.853  10.943 -0.0241 -0.2554 -0.4515
    1TCq1    H114052   1.613   3.886  11.403  1.9970  1.7153  0.8271
    1TCq1    H214053   1.517   3.890  11.239  0.2120 -0.9538  0.9518
    1TCq1    H314054   1.119   3.918  11.093  1.6668  1.3677 -1.3376
    1TCq1    H414055   1.177   3.891  11.520 -1.0429  2.0143  0.0619
    2MPD1     C14056   0.598   4.260  11.156 -0.4130 -0.4119 -0.0927
    2MPD1    C114057   0.662   4.197  11.047 -0.5263 -0.6092 -0.1876
    2MPD1    C214058   0.775   4.122  11.071  0.0847 -0.6124  0.2325
    2MPD1    C314059   0.823   4.091  11.194  1.3207 -0.0821  0.1644
    2MPD1    C414060   0.757   4.153  11.301  0.5425  0.1350 -0.3315
    2MPD1    C514061   0.647   4.231  11.280  0.0265 -0.2818  0.1550
    2MPD1     H14062   0.841   4.099  10.988 -0.8140 -1.3492 -0.2744
    2MPD1    H114063   0.795   4.155  11.402  1.8640 -1.0370 -0.8012
    2MPD1    H214064   0.517   4.331  11.143 -1.1883 -1.3820 -0.6449
    2MPD1    H314065   0.606   4.286  11.363 -1.3212 -2.8915  1.1915
    2MPD1     N14066   0.947   4.016  11.215 -0.2379 -0.0620 -0.0945
    2MPD1    H514067   1.006   4.009  11.134  1.1299  0.7049  0.8268
    2MPD1    N114068   0.638   4.251  10.921 -0.2058 -1.0547 -0.2452
    2MPD1    H614069   0.665   4.192  10.842 -1.1125 -1.2747 -0.3939
    2MPD1    H714070   0.545   4.291  10.908  0.4753  0.9516  1.0184
    1TCq1    O114071   1.013   0.312   1.433 -0.0496 -0.2346  0.0552
    1TCq1    C114072   1.109   0.226   1.380  0.0011 -0.2971  0.2899
    1TCq1    O214073   1.167   0.235   1.271  0.1464  0.2875  0.1284
    1TCq1    C214074   1.142   0.124   1.481 -0.2440 -0.4249 -0.9637
    1TCq1    C314075   1.104   0.140   1.613  0.0231 -0.0891 -0.3274
    1TCq1    C414076   1.158   0.049   1.700  0.3076 -0.1144 -0.8167
    1TCq1    C514077   1.239   4.672   1.650 -0.0167 -0.4127 -0.0245
    1TCq1    C614078   1.261   4.656   1.518 -0.2960 -0.5512 -0.0033
    1TCq1    C714079   1.214   0.026   1.429 -0.3963  0.0021 -0.2911
    1TCq1    C814080   1.354   4.560   1.466  0.0721 -0.2626  0.0600
    1TCq1    O414081   1.364   4.552   1.341 -0.0112  0.1826  0.0508
    1TCq1    C914082   1.184   0.094   1.833 -0.0949 -0.5411  0.4647
    1TCq1    O514083   1.264   0.029   1.903 -0.3357  0.1071  0.0215
    1TCq1    O614084   1.151   0.213   1.858  0.2470  0.1361 -0.1701
    1TCq1    H114085   0.952   0.264   1.493  0.9753 -1.7244 -0.1165
    1TCq1    H214086   1.082   0.239   1.651  1.8800  0.8585 -1.7399
    1TCq1    H314087   1.291   4.616   1.727 -1.0300 -0.4596  0.6353
    1TCq1    H414088   1.248   0.032   1.326 -0.1175  1.5877 -0.1100
    2MPD1     C14089   1.659   4.159   1.532  0.5346 -0.1301 -0.7219
    2MPD1    C114090   1.632   4.207   1.655 -0.2361 -0.1578  0.9265
    2MPD1    C214091   1.551   4.322   1.664 -0.0402 -0.2141  0.5435
    2MPD1    C314092   1.488   4.372   1.557  0.3484  1.0352  0.3062
    2MPD1    C414093   1.509   4.314   1.430 -0.2768 -0.2491 -0.0254
    2MPD1    C514094   1.599   4.211   1.418 -0.2855  0.6637  0.0009
    2MPD1     H14095   1.530   4.367   1.760 -0.4786  1.4028 -0.3141
    2MPD1    H114096   1.465   4.349   1.337 -1.8775 -1.1003  0.4138
    2MPD1    H214097   1.720   4.071   1.514 -1.0129 -1.1377 -1.1115
    2MPD1    H314098   1.620   4.168   1.321  2.4993  3.7162 -0.7603
    2MPD1     N14099   1.405   4.484   1.570 -0.5099 -0.1758 -0.2516
    2MPD1    H514100   1.380   4.511   1.665  0.3845  1.0731 -0.3715
    2MPD1    N114101   1.707   4.170   1.766  0.1268 -0.3558  0.0735
    2MPD1    H614102   1.654   4.172   1.853  3.7317 -0.6930  2.3134
    2MPD1    H714103   1.759   4.082   1.761 -0.4441 -0.5865 -1.9345
    1MPD1     C14104   1.693   2.779  12.092  0.6240 -0.1095 -0.2398
    1MPD1    C114105   1.665   2.905  12.140  0.3085 -0.6063 -0.2085
    1MPD1    C214106   1.766   2.971  12.199  0.0397  0.3630 -0.6147
    1MPD1    C314107   1.902   2.928  12.191  0.0064 -0.2104  0.1187
    1MPD1    C414108   1.930   2.816  12.116  0.3902 -0.7711  0.5313
    1MPD1    C514109   1.823   2.742  12.077  0.7655  0.4150  0.1358
    1MPD1     H14110   1.732   3.052  12.263 -0.7713 -0.1879 -0.3423
    1MPD1    H114111   2.018   2.754  12.119  0.1247 -1.2357 -1.2929
    1MPD1    H214112   1.618   2.712  12.051 -1.8027  0.9090  2.5691
    1MPD1    H314113   1.852   2.641  12.050 -2.0765  0.2014 -2.1002
    1MPD1     N14114   2.003   3.007  12.257 -0.0014 -0.1221  0.0021
    1MPD1    H514115   1.969   3.082  12.317  1.1733  0.6927 -0.3369
    1MPD1    N114116   1.537   2.935  12.173 -0.2815  0.4783  0.6881
    1MPD1    H614117   1.474   2.903  12.100 -0.0652  1.0184  0.2621
    1MPD1    H714118   1.530   3.035  12.192 -4.0730 -0.1690  2.6507
    2MPD1     C14119   2.289   4.367  11.268  0.0273 -0.1663  0.2548
    2MPD1    C114120   2.353   4.388  11.143 -0.1501 -0.0357 -0.0934
    2MPD1    C214121   2.425   4.280  11.091  0.1781 -0.4249  0.4790
    2MPD1    C314122   2.470   4.183  11.178 -0.2039  0.0644 -0.8139
    2MPD1    C414123   2.430   4.183  11.312  0.5469  0.0347 -0.6992
    2MPD1    C514124   2.340   4.275  11.363 -0.2982  0.3027  0.1565
    2MPD1     H14125   2.466   4.286  10.991 -0.6173 -0.0136  0.1764
    2MPD1    H114126   2.464   4.105  11.380  1.0838 -0.0380 -1.0465
    2MPD1    H214127   2.209   4.433  11.300  0.8765  1.3883 -0.8704
    2MPD1    H314128   2.308   4.266  11.466 -1.9402  0.1885 -0.3572
    2MPD1     N14129   2.555   4.084  11.130 -0.0661 -0.7619  0.2996
    2MPD1    H514130   2.588   4.009  11.190 -1.3213 -3.1294 -1.9827
    2MPD1    N114131   2.310   4.494  11.063 -0.2952 -0.1003 -0.2901
    2MPD1    H614132   2.303   4.587  11.105  1.7732 -0.0075 -0.1530
    2MPD1    H714133   2.362   4.507  10.977  0.9487 -0.4978  0.4146
    3MPD1     C14134   2.394   3.567  10.306  0.6305 -0.5067 -0.3488
    3MPD1    C114135   2.318   3.641  10.385  0.3168  0.3920  0.5072
    3MPD1    C214136   2.370   3.670  10.511  0.4538 -0.2011  0.4430
    3MPD1    C314137   2.497   3.637  10.544  0.5812  0.5109 -0.1629
    3MPD1    C414138   2.580   3.577  10.453  0.4448  1.0926  0.0997
    3MPD1    C514139   2.522   3.534  10.341  0.8464  0.1191 -0.3418
    3MPD1     H14140   2.306   3.709  10.590  0.1210 -0.1551  0.1507
    3MPD1    H114141   2.685   3.556  10.474 -0.2238 -1.1300  1.1968
    3MPD1    H214142   2.360   3.525  10.212 -0.4473  1.4561 -0.8319
    3MPD1    H314143   2.582   3.472  10.276 -1.1140 -1.3618 -0.7424
    3MPD1     N14144   2.541   3.688  10.669 -0.1553 -0.2156 -0.1368
    3MPD1    H514145   2.470   3.742  10.717  0.6050  0.1019  0.6505
    3MPD1    N114146   2.187   3.674  10.352  0.1995  0.3908  0.6332
    3MPD1    H614147   2.164   3.760  10.402 -1.7358  0.4650 -0.4168
    3MPD1    H714148   2.172   3.692  10.253 -0.0806  1.6157  0.8949
    4MPD2     C14149   2.358   3.658  12.257  0.1257  0.2458 -0.0212
    4MPD2    C114150   2.430   3.545  12.278  0.2395 -0.6036  0.0659
    4MPD2    C214151   2.560   3.546  12.232  0.1260 -0.0079  0.3512
    4MPD2    C314152   2.612   3.656  12.156 -0.4553  0.2271 -0.1546
    4MPD2    C414153   2.540   3.768  12.143 -0.4951  0.1621 -0.1292
    4MPD2    C514154   2.412   3.768  12.203  0.1675  0.7697 -0.0463
    4MPD2     H14155   2.616   3.454  12.243  1.4613  0.9266  1.2283
    4MPD2    H114156   2.566   3.853  12.081 -2.3378  0.3796 -0.5980
    4MPD2    H214157   2.259   3.670  12.298 -0.3128 -1.0272 -0.6938
    4MPD2    H314158   2.348   3.853  12.183 -0.9174  0.2789  1.3001
    4MPD2     N14159   2.742   3.654  12.099  0.2891  0.1442  0.0471
    4MPD2    H514160   2.762   3.732  12.038 -0.3963 -0.5300 -1.0277
    4MPD2    N114161   2.383   3.429  12.336 -0.0368  0.0966 -0.4964
    4MPD2    H714162   2.459   3.363  12.351 -0.4122 -1.0470 -3.6338
    5TMC3    C114163   2.255   3.266  12.444 -0.4133  0.3055 -0.6274
    5TMC3    C214164   2.174   3.175  12.390 -0.3748  0.1244 -0.2238
    5TMC3    C314165   2.217   3.051  12.360 -0.4093  0.2938  0.5428
    5TMC3    C414166   2.384   3.225  12.483 -0.5195 -0.0205 -0.5476
    5TMC3    C514167   2.425   3.096  12.453 -0.5661  0.2917 -1.2021
    5TMC3    C614168   2.338   3.005  12.392 -0.0956  0.0726  0.6225
    5TMC3     C14169   2.256   3.398  12.387  0.2718 -0.5869  0.6635
    5TMC3     O14170   2.155   3.462  12.374 -0.6634  0.1762 -0.5470
    5TMC3     H14171   2.083   3.224  12.355 -1.4892 -0.2885  2.1146
    5TMC3    H114172   2.431   3.284  12.562 -0.2302  1.1496 -1.6000
    5TMC3    H214173   2.356   2.899  12.379  1.0295  0.3724 -0.2364
    5TMC3    C714174   2.560   3.104  12.400  0.1204  0.7221 -0.0577
    5TMC3    C814175   2.141   2.968  12.264 -0.2253 -0.6358 -1.3234
    5TMC3    O114176   2.610   3.219  12.401  0.2302 -0.1258  0.3694
    5TMC3    O214177   2.197   2.874  12.216 -0.1393  0.6847 -0.0169
    6TMC3    C114178   2.662   3.939  10.976  0.2153  0.8761 -0.2514
    6TMC3    C214179   2.639   3.862  10.870  0.2518 -0.3508 -0.3195
    6TMC3    C314180   2.688   3.733  10.856 -0.3509  0.2551 -0.1580
    6TMC3    C414181   2.739   3.893  11.082 -0.8208  0.6464 -0.5540
    6TMC3    C514182   2.794   3.767  11.063  0.1549  0.9472 -0.1470
    6TMC3    C614183   2.770   3.681  10.954 -0.6692 -0.1029 -0.6404
    6TMC3     C14184   2.577   4.058  10.996 -0.2210 -0.0619 -0.6645
    6TMC3     O14185   2.517   4.095  10.895 -0.2068 -0.0554  0.0190
    6TMC3     H14186   2.568   3.901  10.798  0.1376 -0.3218 -0.1901
    6TMC3    H114187   2.766   3.954  11.168  0.3655 -2.1585  1.0688
    6TMC3    H214188   2.807   3.581  10.933 -0.3601  0.3156 -2.1087
    6TMC3    C714189   2.872   3.710  11.174 -0.1694  0.1482  0.0369
    6TMC3    C814190   2.654   3.645  10.735  0.3827 -0.1808  0.4333
    6TMC3    O114191   2.890   3.777  11.278 -0.3505  0.5526  0.0906
    6TMC3    O214192   2.733   3.559  10.686 -0.1315  0.0384 -0.1008
    7MPD2     C14193   2.931   2.984  12.061  0.6301  0.2577  0.1727
    7MPD2    C114194   2.886   3.103  12.116 -0.5896  0.1557 -0.3269
    7MPD2    C214195   2.775   3.106  12.191  0.9270 -0.0768 -0.6950
    7MPD2    C314196   2.716   2.990  12.237  0.2111  0.2345  1.1870
    7MPD2    C414197   2.751   2.875  12.171 -0.5614  0.3002  0.0249
    7MPD2    C514198   2.854   2.868  12.082  0.0638  0.5152  0.1044
    7MPD2     H14199   2.754   3.204  12.233 -2.2005  0.1612 -2.7805
    7MPD2    H114200   2.711   2.777  12.197 -2.2113  0.2954 -2.4333
    7MPD2    H214201   3.014   2.979  11.992  0.3702 -0.1003 -0.1122
    7MPD2    H314202   2.878   2.781  12.023 -0.2910  0.5399 -0.0796
    7MPD2     N14203   2.611   2.992  12.336  0.0315  0.1787 -0.9242
    7MPD2    H514204   2.564   2.902  12.340  0.0881  0.1020 -2.1690
    7MPD2    N114205   2.950   3.229  12.082 -0.1404 -0.1553 -0.1639
    7MPD2    H714206   2.908   3.311  12.124  2.4143  0.0778  1.8768
    8TMC3    C114207   3.108   3.389  12.001 -0.1862  0.3119  0.7380
    8TMC3    C214208   3.101   3.408  11.862 -0.7036 -0.1503 -0.5926
    8TMC3    C314209   3.008   3.510  11.825 -0.2808 -0.0765 -0.1579
    8TMC3    C414210   3.042   3.463  12.090  0.6092 -0.4083 -1.0720
    8TMC3    C514211   2.956   3.563  12.050 -0.3683 -0.5133 -0.8738
    8TMC3    C614212   2.937   3.589  11.915 -0.2113  0.3793  0.7516
    8TMC3     C14213   3.076   3.250  12.021 -0.3026  0.3583  0.1794
    8TMC3     O14214   3.137   3.174  11.947 -0.4996 -0.2653  0.0476
    8TMC3     H14215   3.176   3.357  11.801 -0.8738 -0.9064 -0.1739
    8TMC3    H114216   3.068   3.451  12.195  0.0956 -3.4809 -1.2979
    8TMC3    H214217   2.863   3.656  11.875  0.1695  0.6930  0.5700
    8TMC3    C714218   2.842   3.564  12.135  0.1118  0.3853 -0.3124
    8TMC3    C814219   3.007   3.554  11.691 -0.5166 -0.4485 -0.0144
    8TMC3    O114220   2.844   3.466  12.203  0.2621  0.1838  0.5759
    8TMC3    O214221   2.966   3.661  11.660  0.1098 -0.1597  0.3260
    9MPD2     C14222   3.068   3.300  11.420  0.8459  0.2716 -0.0557
    9MPD2    C114223   3.039   3.430  11.468  0.3510 -0.6641 -0.6525
    9MPD2    C214224   2.997   3.531  11.380  0.2734  0.1950 -0.3616
    9MPD2    C314225   2.975   3.501  11.245 -0.1867  1.1054  0.3200
    9MPD2    C414226   3.005   3.371  11.206  0.9686 -0.0750  0.6812
    9MPD2    C514227   3.050   3.272  11.291 -0.3000  0.2560  0.4025
    9MPD2     H14228   2.963   3.624  11.425 -2.6631 -0.1137 -1.9484
    9MPD2    H114229   3.000   3.334  11.104 -0.0658 -0.9514  1.0445
    9MPD2    H214230   3.123   3.228  11.480  0.3034  1.4491  1.8885
    9MPD2    H314231   3.080   3.173  11.257  1.6229  2.0829 -3.2214
    9MPD2     N14232   2.904   3.582  11.149  0.3549  0.4011 -0.3647
    9MPD2    H514233   2.855   3.530  11.078  0.8973  0.9260 -1.1203
    9MPD2    N114234   3.052   3.447  11.607  0.1229  0.4177 -0.2941
    9MPD2    H714235   3.066   3.361  11.659 -0.2365 -0.2680 -1.3203
    1MPD1     C14236   2.149   3.436  16.575  0.0366  0.7739  0.0639
    1MPD1    C114237   2.181   3.327  16.646 -0.3289  0.3929  0.4465
    1MPD1    C214238   2.084   3.267  16.725  0.0445  0.2437  0.2812
    1MPD1    C314239   1.958   3.339  16.738 -0.7599 -0.4371  0.1475
    1MPD1    C414240   1.941   3.472  16.684 -0.7831  0.2548  0.1906
    1MPD1    C514241   2.039   3.507  16.596 -0.5356 -0.6809  0.5534
    1MPD1     H14242   2.095   3.174  16.781 -0.2268  0.8682  1.3729
    1MPD1    H114243   1.858   3.541  16.692 -0.3063  0.9974 -1.3296
    1MPD1    H214244   2.232   3.474  16.517 -0.4904  1.7783 -0.0207
    1MPD1    H314245   2.031   3.601  16.542  0.8224 -2.2909 -2.4665
    1MPD1     N14246   1.852   3.287  16.817  0.3190 -0.5859  0.2271
    1MPD1    H514247   1.758   3.325  16.812  0.8657  0.6999 -0.5049
    1MPD1    N114248   2.311   3.258  16.628  0.3425 -0.3063 -0.9812
    1MPD1    H614249   2.386   3.317  16.591  0.4744  0.0212 -0.1962
    1MPD1    H714250   2.347   3.202  16.705 -0.7609 -0.6395 -0.7090
    2MPD1     C14251   1.663   2.441  17.356  0.3875 -0.1437 -0.0473
    2MPD1    C114252   1.775   2.482  17.289  0.1697 -0.0097 -0.5476
    2MPD1    C214253   1.765   2.598  17.214 -0.2508  0.6265 -0.0479
    2MPD1    C314254   1.651   2.679  17.206  0.2216 -0.1903 -0.8088
    2MPD1    C414255   1.540   2.623  17.282  0.2293  0.2879 -0.3970
    2MPD1    C514256   1.547   2.511  17.356 -0.4677 -0.2524  0.5048
    2MPD1     H14257   1.847   2.634  17.153  0.3605 -0.7945 -0.0775
    2MPD1    H114258   1.443   2.672  17.276  0.1779  0.4644  1.8553
    2MPD1    H214259   1.666   2.357  17.424  0.3108 -0.4414 -0.4141
    2MPD1    H314260   1.464   2.466  17.409 -0.6261  0.7184  1.0758
    2MPD1     N14261   1.641   2.801  17.132  0.0782 -0.5422  0.0145
    2MPD1    H514262   1.727   2.840  17.093 -0.1115  1.9575  2.1248
    2MPD1    N114263   1.893   2.414  17.311  0.3173  0.0045  0.3643
    2MPD1    H614264   1.879   2.314  17.322 -1.8294  0.5198  2.4812
    2MPD1    H714265   1.962   2.430  17.239 -1.1361 -0.7572 -1.2072
    3TCq2    C114266   1.524   2.865  17.094 -0.3331  0.3898 -0.8301
    3TCq2    O214267   1.404   2.838  17.115  0.0851 -0.2911  0.4558
    3TCq2    C214268   1.550   2.972  17.011  0.4224 -0.5254 -0.1272
    3TCq2    C314269   1.456   3.012  16.918 -0.1496  0.2124  1.0281
    3TCq2    C414270   1.484   3.102  16.825  0.5612  0.2028 -0.1549
    3TCq2    C514271   1.606   3.165  16.824  0.0458 -0.5169 -0.0052
    3TCq2    C614272   1.706   3.128  16.915  0.0122  1.0440  0.5209
    3TCq2    C714273   1.677   3.027  17.007 -0.0988  0.1599 -0.2030
    3TCq2    C814274   1.847   3.167  16.886 -0.7389 -0.9129  0.3164
    3TCq2    O414275   1.931   3.092  16.929  0.1282 -0.1657 -0.1058
    3TCq2    C914276   1.400   3.136  16.718 -0.2296  0.1592 -0.8728
    3TCq2    O514277   1.278   3.109  16.742 -0.1096  0.2782  0.0264
    3TCq2    O614278   1.439   3.158  16.601  0.0576 -0.4107 -0.1880
    3TCq2    H214279   1.354   2.975  16.917 -0.3167  0.7147 -0.1497
    3TCq2    H314280   1.627   3.235  16.743 -2.8979 -1.6638 -1.7528
    3TCq2    H414281   1.755   3.006  17.078 -0.6470  2.5767  1.1178
    1TCq1    O114282   0.011   1.856  12.015  0.1327 -0.1585 -0.4527
    1TCq1    C114283   0.104   1.759  12.034  0.6213 -0.6314  0.1159
    1TCq1    O214284   0.203   1.746  11.960  0.2143  1.0634  0.4786
    1TCq1    C214285   0.118   1.738  12.177  0.0639  0.0054 -0.6650
    1TCq1    C314286   0.006   1.750  12.256 -0.5191 -0.1429 -0.3416
    1TCq1    C414287   0.031   1.740  12.397 -0.3367  0.5205  0.5538
    1TCq1    C514288   0.158   1.730  12.451 -0.2710  0.0202  0.0400
    1TCq1    C614289   0.261   1.719  12.367  0.2128 -0.4657  0.2393
    1TCq1    C714290   0.244   1.733  12.226 -0.0090  0.0881 -0.4066
    1TCq1    C814291   0.397   1.727  12.413  0.0274  0.6226  0.5578
    1TCq1    O414292   0.480   1.753  12.328  0.2388  0.6210  0.0849
    1TCq1    C914293   4.640   1.740  12.484  0.0152  0.2335 -0.3541
    1TCq1    O514294   4.531   1.708  12.423  0.3250 -0.3874 -0.2783
    1TCq1    O614295   4.662   1.724  12.608 -0.2497 -0.0572 -0.0336
    1TCq1    H114296   4.675   1.848  12.093 -1.1612 -0.5068 -1.4819
    1TCq1    H214297   4.630   1.748  12.215  0.1263 -0.1276 -1.9210
    1TCq1    H314298   0.169   1.751  12.557  0.5030 -2.3906  0.4486
    1TCq1    H414299   0.324   1.730  12.153  0.9204  0.0343  0.6073
    2MPD2     C14300   0.646   1.768  12.563  0.0320  0.2897 -0.1714
    2MPD2    C114301   0.523   1.733  12.617 -0.4192 -0.2363  0.4523
    2MPD2    C214302   0.511   1.710  12.754 -0.0087  0.6699 -0.4163
    2MPD2    C314303   0.615   1.733  12.839  0.0835  0.5009 -0.5779
    2MPD2    C414304   0.734   1.771  12.786 -0.0199  0.6868  0.3877
    2MPD2    C514305   0.750   1.775  12.652 -0.1820 -0.9275 -0.5649
    2MPD2     H14306   0.413   1.686  12.793 -0.1495 -2.3087 -2.5683
    2MPD2    H114307   0.830   1.778  12.836 -1.1727  2.7442  2.2813
    2MPD2    H214308   0.672   1.783  12.459  3.1409  0.1680  0.6036
    2MPD2    H314309   0.853   1.778  12.619  0.1446 -1.0754  0.4417
    2MPD2     N14310   0.592   1.720  12.982 -0.2580  0.8105  0.1458
    2MPD2    H514311   0.500   1.717  13.023 -0.4142  1.7918 -0.1295
    2MPD2    N114312   0.401   1.713  12.548  0.0781  0.3559 -0.3798
    2MPD2    H714313   0.312   1.693  12.592  0.3105  0.6498  0.2233
    3TCq1    O114314   0.588   1.392  13.497 -0.0102  0.4788 -0.3084
    3TCq1    C114315   0.713   1.405  13.446  0.2845 -0.4818 -0.0928
    3TCq1    O214316   0.771   1.316  13.390  0.5285  0.6674 -0.1781
    3TCq1    C214317   0.720   1.545  13.406  0.1568 -0.0153  0.3393
    3TCq1    C314318   0.642   1.631  13.477  0.3972  0.5794 -0.1373
    3TCq1    C414319   0.569   1.719  13.408  0.7517 -0.1837  0.3397
    3TCq1    C514320   0.582   1.740  13.271  0.0638 -0.1201 -1.0269
    3TCq1    C614321   0.655   1.649  13.200 -0.2764  0.1238 -0.4361
    3TCq1    C714322   0.730   1.559  13.271  0.2555  0.0609  0.0501
    3TCq1    C814323   0.696   1.685  13.065 -1.0619  0.7917 -0.5767
    3TCq1    O414324   0.805   1.642  13.032 -0.0543 -0.0194  0.0139
    3TCq1    C914325   0.491   1.817  13.473 -0.4879  0.0266 -0.1914
    3TCq1    O514326   0.446   1.786  13.586 -0.4475 -0.0235  0.0563
    3TCq1    O614327   0.511   1.933  13.432 -0.2051 -0.5804 -0.2115
    3TCq1    H114328   0.544   1.476  13.522  1.0450  0.8664  0.2344
    3TCq1    H214329   0.648   1.641  13.585  0.2229  0.0999 -0.0813
    3TCq1    H314330   0.526   1.822  13.226  1.3717  1.7654  0.7891
    3TCq1    H414331   0.774   1.473  13.221  0.3646  0.7162 -0.9709
    1MPD2     C14332   4.348   3.392  15.184  0.1809  0.4652 -0.3636
    1MPD2    C114333   4.300   3.269  15.139  0.5112  0.5466 -0.5547
    1MPD2    C214334   4.381   3.156  15.137  0.5239  0.0438  0.1261
    1MPD2    C314335   4.515   3.173  15.168  0.0916 -0.1489 -0.1211
    1MPD2    C414336   4.560   3.300  15.189 -0.2662 -0.1089 -0.1444
    1MPD2    C514337   4.478   3.409  15.217 -0.4932 -0.6090 -0.2529
    1MPD2     H14338   4.359   3.057  15.099 -0.9994  0.4472 -0.0216
    1MPD2    H114339   4.666   3.315  15.203 -0.3054 -0.1929  0.2343
    1MPD2    H214340   4.284   3.480  15.189 -1.5492 -0.8087 -0.1008
    1MPD2    H314341   4.520   3.504  15.248  0.6668 -0.7438 -1.3884
    1MPD2     N14342   4.592   3.054  15.158 -0.2667  0.5107  0.0153
    1MPD2    H514343   4.539   2.968  15.149  0.5376  0.0749 -0.5602
    1MPD2    N114344   4.174   3.259  15.084 -0.5489 -0.0463 -0.2442
    1MPD2    H714345   4.122   3.346  15.076 -0.4367  0.0723  0.2864
    2TMC3    C114346   3.975   3.170  14.986  0.2399  0.0439  0.3120
    2TMC3    C214347   3.900   3.057  14.985 -0.4477  0.1150  0.4375
    2TMC3    C314348   3.850   3.011  14.866  0.0621  0.4079 -0.0761
    2TMC3    C414349   3.969   3.255  14.873 -0.9984 -0.4169  0.3779
    2TMC3    C514350   3.897   3.212  14.764 -0.4016 -0.1736 -0.0649
    2TMC3    C614351   3.837   3.092  14.754  0.0233 -0.1592 -0.1022
    2TMC3     C14352   4.105   3.144  15.052 -0.0261  0.6619 -0.0592
    2TMC3     O14353   4.137   3.029  15.084 -0.5388 -0.4101 -0.5591
    2TMC3     H14354   3.898   2.986  15.068  1.7643 -0.9823 -0.4700
    2TMC3    H114355   4.040   3.336  14.860  0.1974 -1.2680  1.5120
    2TMC3    H214356   3.780   3.063  14.666 -1.6610  2.5148  0.1157
    2TMC3    C714357   3.898   3.293  14.642 -0.0354 -0.3981 -0.6439
    2TMC3    C814358   3.909   2.885  14.829  0.3329 -0.6482 -0.3185
    2TMC3    O114359   3.889   3.232  14.537  0.3465  0.0918  0.1538
    2TMC3    O214360   3.864   2.837  14.729 -0.9370 -0.0337  0.5491
    3TCq1    O114361   4.516   4.239  14.601 -0.1395  0.2524  0.4489
    3TCq1    C114362   4.462   4.228  14.724  0.4001 -0.5975 -0.6939
    3TCq1    O214363   4.528   4.216  14.828 -0.2670  0.1894  0.1779
    3TCq1    C214364   4.323   4.180  14.722 -0.8637 -0.5844  0.1051
    3TCq1    C314365   4.271   4.167  14.851  0.5579 -0.6849  0.6798
    3TCq1    C414366   4.142   4.109  14.852 -0.5302  0.1642  0.0061
    3TCq1    C514367   4.079   4.075  14.740 -0.5031 -0.1867 -0.1653
    3TCq1    C614368   4.146   4.081  14.619 -0.2415 -0.3423 -0.5150
    3TCq1    C714369   4.266   4.141  14.605 -0.2841 -0.4455  0.5317
    3TCq1    C814370   4.104   3.986  14.516 -0.1040 -0.3741  0.3398
    3TCq1    O414371   4.147   4.000  14.403  0.3797 -0.2584 -0.1383
    3TCq1    C914372   4.090   4.073  14.979 -1.3143 -0.1584 -0.6410
    3TCq1    O514373   4.167   4.103  15.077  0.0482  0.4196 -0.5902
    3TCq1    O614374   3.968   4.045  14.993 -0.6804  0.5323  0.3182
    3TCq1    H114375   4.464   4.240  14.518  0.6172  0.7658 -0.0188
    3TCq1    H214376   4.318   4.205  14.940 -1.8168  0.3929  1.4838
    3TCq1    H314377   3.980   4.033  14.747 -0.0739 -1.2668 -0.6367
    3TCq1    H414378   4.309   4.150  14.506  1.1387 -0.7038  1.1163
    4MPD2     C14379   4.000   3.732  14.393  0.3193 -0.2977  0.1078
    4MPD2    C114380   4.022   3.749  14.528  0.7430 -0.5895 -0.7393
    4MPD2    C214381   4.012   3.642  14.609 -0.3555  0.3032 -0.3575
    4MPD2    C314382   3.965   3.519  14.567 -0.3005  0.0634  0.2856
    4MPD2    C414383   3.937   3.499  14.427 -0.2022  0.0078  0.9902
    4MPD2    C514384   3.967   3.603  14.345  0.4884  0.0134 -0.1692
    4MPD2     H14385   4.031   3.654  14.715 -0.7953 -0.9184 -0.1494
    4MPD2    H114386   3.894   3.415  14.375  2.0029  0.0126 -0.8472
    4MPD2    H214387   4.009   3.821  14.332  0.6181 -0.6186 -0.3214
    4MPD2    H314388   3.943   3.585  14.240 -1.0503 -0.1746  0.2214
    4MPD2     N14389   3.929   3.427  14.664  0.0714 -0.0611 -0.2206
    4MPD2    H514390   3.935   3.455  14.762 -0.5401 -1.9210  0.3521
    4MPD2    N114391   4.060   3.875  14.582  0.5015 -0.1165 -1.0068
    4MPD2    H714392   4.064   3.881  14.683  2.4196  2.6254 -1.2547
    5TMC2    C114393   4.647   2.741  15.094 -0.6348 -0.2792  0.4134
    5TMC2    C214394   0.008   2.724  14.990  0.4790 -0.0922  0.2538
    5TMC2    C314395   0.131   2.789  14.999 -0.4009 -0.2118  0.6392
    5TMC2    C414396   4.674   2.832  15.195 -0.5546  0.3566  0.1572
    5TMC2    C514397   0.055   2.916  15.177  0.3018  1.3138 -0.2131
    5TMC2    C614398   0.154   2.888  15.086  0.0283 -0.4381 -0.4326
    5TMC2     C14399   4.507   2.744  15.060  0.1393  0.3813 -0.5064
    5TMC2     O14400   4.439   2.834  15.117  0.5976 -0.2198 -0.1397
    5TMC2     H14401   4.704   2.672  14.899 -2.5746  2.5159 -0.3012
    5TMC2    H114402   4.593   2.844  15.266 -1.0620 -0.3071 -0.3157
    5TMC2    H214403   0.230   2.964  15.071 -0.6275  0.9030  2.9597
    5TMC2    C714404   0.006   3.048  15.158 -0.1434  0.3692  0.0477
    5TMC2    C814405   0.218   2.781  14.891 -0.6780 -0.8267  0.1025
    5TMC2    O114406   0.086   3.140  15.174  0.0889  0.8008 -0.1633
    5TMC2    O214407   0.176   2.726  14.789 -0.2324  0.1782  0.0245
    5TMC2    O514408   0.344   2.774  14.935 -0.3403  0.2801 -0.0672
    5TMC2    H514409   0.365   2.794  15.029 -0.0906 -0.8296  0.1098
    6MPD2     C14410   4.077   2.635  14.792 -0.2831  0.2742  0.3379
    6MPD2    C114411   4.108   2.742  14.875 -0.6896  0.3565  0.1658
    6MPD2    C214412   4.230   2.740  14.945  0.2161 -0.0502  0.3899
    6MPD2    C314413   4.325   2.645  14.922  0.2028  0.8062  0.0567
    6MPD2    C414414   4.297   2.548  14.829  0.2592  0.3784 -0.3766
    6MPD2    C514415   4.172   2.534  14.775  0.4649 -0.3819  0.0943
    6MPD2     H14416   4.238   2.813  15.025  0.6614  0.4227 -0.0813
    6MPD2    H114417   4.380   2.483  14.802  1.1981  1.2726  0.3336
    6MPD2    H214418   3.983   2.628  14.738 -0.4013 -2.1496  0.8654
    6MPD2    H314419   4.145   2.457  14.703 -0.3025  1.9463 -2.1050
    6MPD2     N14420   4.461   2.652  14.976 -0.7543 -0.2896 -0.9809
    6MPD2    H514421   4.526   2.577  14.952  1.5906  0.6331  2.5335
    6MPD2    N114422   4.023   2.852  14.898 -0.6519  0.3547  0.3400
    6MPD2    H714423   4.063   2.925  14.955 -0.8881  1.2235 -0.6064
  945NH3     N114424   2.670   1.864  12.502  0.1025 -0.2855 -0.2549
  945NH3     H214425   2.657   1.887  12.405  1.1877  0.5449 -0.1985
  945NH3     H314426   2.589   1.810  12.532  0.7366 -1.3937 -0.5329
  945NH3     H414427   2.653   1.951  12.551  0.3293  0.6303 -1.8236
  946SOD     NA14428   3.613   2.332  11.820 -0.3318  0.1249  0.2526
  947SOD     NA14429   4.544   3.486  14.752  0.1576  0.3952  0.1888
  948SOD     NA14430   1.263   1.046  11.691 -0.1713  0.2812 -0.0543
  949SOD     NA14431   0.079   2.913  10.969  0.1802  0.2520 -0.4041
  950SOD     NA14432   4.065   1.160  15.191  0.0851  0.2613  0.2398
  951SOD     NA14433   1.487   3.324  16.466 -0.0517  0.6723  0.3298
  952SOD     NA14434   1.523   2.547  12.508 -0.2446 -0.3337  0.6713
  953SOD     NA14435   3.454   1.607  10.865 -0.0768 -0.0872  0.2566
  954SOD     NA14436   1.356   1.210  13.977 -0.2583  0.0384 -0.2781
  955SOD     NA14437   0.988   3.767  14.690 -0.0545 -0.1418  0.3750
  956SOD     NA14438   2.077   0.627  16.938 -0.3322 -0.5660 -0.2619
  957SOD     NA14439   3.382   3.263  10.697  0.0666  0.2249  0.4301
  958SOD     NA14440   2.022   0.347   6.642 -0.1809 -0.3587 -0.1028
  959SOD     NA14441   2.927   0.499  13.357 -0.1147 -0.0727  0.0938
  960SOD     NA14442   2.609   1.901   1.101  0.5815 -0.0063  0.0229
  961SOD     NA14443   0.741   3.677   2.879 -0.2650 -0.1669  0.1660
  962SOD     NA14444   1.918   1.603  14.376 -0.1721 -0.2505 -0.0132
  963SOD     NA14445   0.087   1.203   0.613  0.1943 -0.3223  0.1658
  964SOD     NA14446   1.154   1.209  12.658  0.0583  0.0708 -0.5437
  965SOD     NA14447   1.691   4.269   8.623  0.4008 -0.1195  0.3628
  966SOD     NA14448   2.623   2.761  15.258 -0.5377  0.1237 -0.2881
  967SOD     NA14449   1.919   4.472   1.946  0.2929  0.6578 -0.5345
  968SOD     NA14450   2.849   0.356  16.626 -0.1912  0.1211 -0.4351
  969SOD     NA14451   0.212   0.821  10.621  0.3486 -0.1649  0.2148
  970SOD     NA14452   4.415   3.340  11.667 -0.6335 -0.4321 -0.4535
  971SOD     NA14453   3.030   1.056  14.726 -0.1463 -0.0378  0.2873
  972SOD     NA14454   1.076   4.023  10.596 -0.3295  0.4287  0.0357
  973SOD     NA14455   4.534   1.279   8.610  0.1947  0.2868 -0.3369
  974SOD     NA14456   0.751   2.093  11.811  0.2641  0.0749 -0.0574
  975SOD     NA14457   3.154   3.038   8.117  0.0841  0.5319 -0.0532
  976SOD     NA14458   1.309   3.666  10.837 -0.2099  0.3893 -0.2632
  977SOD     NA14459   0.416   0.312  10.668  0.0838 -0.0582  0.0773
  978SOD     NA14460   0.928   3.360   6.710  0.1851 -0.3727  0.1134
  979SOD     NA14461   3.926   0.940  13.880  0.0897  0.3388 -0.2030
  980SOD     NA14462   1.455   1.206  14.258  0.0782 -0.4718 -0.3042
  981SOD     NA14463   1.870   1.551   0.124  0.1191  0.0315  0.2629
  982SOD     NA14464   2.089   4.375   0.175 -0.0653  0.2508  0.6406
  983SOD     NA14465   1.357   3.057  16.407 -0.5639  0.1072  0.4955
  984SOD     NA14466   0.568   2.548  11.003  0.3433  0.6547  0.2168
  985SOD     NA14467   3.067   1.496  12.576  0.1881 -0.0500 -0.1309
  986SOD     NA14468   0.336   3.667   2.923  0.1249 -0.0153 -0.3074
  987SOD     NA14469   1.826   1.877   1.786  0.3004 -0.4417 -0.1715
  988SOD     NA14470   0.348   1.341  10.926  0.1193  0.0197  0.7317
  989SOD     NA14471   1.255   0.662   1.929  0.3030 -0.1225  0.0439
  990SOD     NA14472   4.156   1.648   2.394 -0.5730 -0.3237  0.4793
  991SOD     NA14473   0.258   4.232  11.966 -0.2262 -0.4508 -0.3604
  992SOD     NA14474   4.499   3.820  15.588 -0.1177 -0.2630  0.0316
  993SOD     NA14475   0.256   1.225   3.170  0.4197 -0.2368  0.2577
  994SOD     NA14476   0.631   1.820  11.815  0.3409  0.1790  0.3291
  995SOD     NA14477   4.575   2.839  13.769 -0.4654  0.3839  0.2773
  996SOD     NA14478   0.529   1.535  11.660  0.2511 -0.1027  0.0771
  997SOD     NA14479   0.388   1.118  10.665  0.2553  0.1083  0.5630
  998SOD     NA14480   2.861   0.370   1.743  0.3071 -0.1018  0.3198
  999SOD     NA14481   1.204   0.720   6.203  0.1122 -0.1223 -0.2429
 1000SOD     NA14482   2.465   1.330   1.834  0.2969 -0.0482 -0.0742
 1001SOD     NA14483   2.323   1.988   2.120  0.2619 -0.1311  0.4805
 1002SOD     NA14484   1.347   2.255  13.280  0.2035  0.3916 -0.2269
 1003SOD     NA14485   1.553   2.742  13.073 -0.5131  0.2805  0.0343
 1004SOD     NA14486   3.958   2.236  10.452 -0.0930 -0.1615  0.2661
 1005SOD     NA14487   4.458   1.618  12.628 -0.1135  0.3977 -0.2136
 1006SOD     NA14488   4.143   3.931   8.640  0.1259  0.0651  0.1156
 1007SOD     NA14489   2.857   0.145   1.483 -0.0638  0.7262 -0.1677
 1008SOD     NA14490   1.542   2.764  16.361  0.3952  0.3173  0.0607
 1009SOD     NA14491   0.637   2.532   0.824 -0.2773 -0.7418 -0.2258
 1010SOD     NA14492   1.057   3.629   6.093  0.2653  0.3620 -0.0593
 1011SOD     NA14493   4.409   2.423   3.598 -0.0661 -0.0442  0.2401
 1012SOL     OW14494   3.605   3.479   3.057 -0.7740  0.1585 -0.0544
 1012SOL    HW114495   3.699   3.499   3.052 -0.6292 -0.2344  1.1576
 1012SOL    HW214496   3.589   3.470   2.963  0.9711 -0.2042 -0.3274
 1013SOL     OW14497   3.514   2.447   8.462  0.4429  0.0589 -0.1666
 1013SOL    HW114498   3.601   2.467   8.426  1.1327  0.8589  1.9569
 1013SOL    HW214499   3.541   2.470   8.551  0.3395 -1.8692  0.3597
 1014SOL     OW14500   1.504   4.312   4.816  0.5289 -0.8212 -0.3770
 1014SOL    HW114501   1.459   4.343   4.895  0.6305 -0.4936 -0.4458
 1014SOL    HW214502   1.587   4.344   4.852 -0.7395  0.4543  1.4525
 1015SOL     OW14503   3.427   3.456   6.122  0.1505 -0.3527  0.2045
 1015SOL    HW114504   3.446   3.374   6.169  0.7081 -0.5382 -0.3422
 1015SOL    HW214505   3.334   3.450   6.100  0.3904 -4.6815  0.2462
 1016SOL     OW14506   2.440   1.206  11.290  0.4146 -0.2283  0.5597
 1016SOL    HW114507   2.485   1.267  11.350 -1.8137  0.4747  1.5136
 1016SOL    HW214508   2.505   1.195  11.220 -0.8187 -0.0491 -0.6015
 1017SOL     OW14509   1.912   1.969   3.021 -0.6332  0.0662  0.1382
 1017SOL    HW114510   1.888   1.879   3.040  1.6408 -0.1891  1.8498
 1017SOL    HW214511   1.925   1.968   2.926  2.3378  1.6009  0.5279
 1018SOL     OW14512   0.865   2.814   7.374  0.6788 -0.4671  0.2985
 1018SOL    HW114513   0.928   2.870   7.419 -0.3300 -0.0454  1.1683
 1018SOL    HW214514   0.810   2.800   7.451  0.0555  1.2920  0.1547
 1019SOL     OW14515   3.824   3.955   7.114 -0.0977  0.9116  0.2146
 1019SOL    HW114516   3.777   3.952   7.031  0.0175 -1.1482  0.2267
 1019SOL    HW214517   3.766   3.906   7.172 -0.0109  1.2177  0.5599
 1020SOL     OW14518   4.208   1.654   7.818 -0.0978 -0.0740  0.1707
 1020SOL    HW114519   4.183   1.746   7.832  0.0052  0.3055 -2.0750
 1020SOL    HW214520   4.150   1.602   7.872 -0.2586 -1.0040 -0.9010
 1021SOL     OW14521   3.598   1.247  16.223 -0.4386  0.3052 -0.3829
 1021SOL    HW114522   3.687   1.222  16.247 -0.8330  0.4675  1.2791
 1021SOL    HW214523   3.551   1.181  16.275  0.4557  0.0792  0.1308
 1022SOL     OW14524   2.789   3.817   1.834  0.3135  0.0355  0.0954
 1022SOL    HW114525   2.785   3.763   1.755 -1.5073 -0.0939  0.2789
 1022SOL    HW214526   2.853   3.883   1.807  0.5100 -0.2583 -0.1523
 1023SOL     OW14527   0.983   3.935   5.105  0.1624 -0.2521  0.1207
 1023SOL    HW114528   0.999   4.029   5.112 -1.7041  0.0078  1.0251
 1023SOL    HW214529   0.889   3.926   5.122  0.5583 -1.5467  1.6718
 1024SOL     OW14530   4.159   2.182   9.028  0.9415 -0.5226 -0.1725
 1024SOL    HW114531   4.159   2.275   9.053 -2.8490 -0.6437  0.1797
 1024SOL    HW214532   4.254   2.169   9.019  1.5095  1.3297  3.1896
 1025SOL     OW14533   1.156   1.904   5.973  0.3154  0.0336 -0.2227
 1025SOL    HW114534   1.075   1.909   6.023 -0.1152  0.7915 -0.9887
 1025SOL    HW214535   1.215   1.955   6.029  1.5223 -1.0905 -0.4852
 1026SOL     OW14536   3.817   2.854  15.346 -0.3562  0.1856  0.0244
 1026SOL    HW114537   3.820   2.885  15.437 -1.9875  2.1761 -0.5928
 1026SOL    HW214538   3.907   2.823  15.339  0.1618  1.5348  0.6351
 1027SOL     OW14539   3.525   3.635   2.445 -0.3718  0.0038  1.0518
 1027SOL    HW114540   3.560   3.686   2.519  2.9233 -1.0269  0.1900
 1027SOL    HW214541   3.542   3.700   2.376  1.3222  0.0156  1.4938
 1028SOL     OW14542   2.332   2.936  16.642 -0.5555 -0.5109 -0.0194
 1028SOL    HW114543   2.357   3.013  16.590 -3.8178 -0.4257 -1.4390
 1028SOL    HW214544   2.238   2.947  16.655 -0.3310 -0.3974  1.4988
 1029SOL     OW14545   0.955   3.761   6.273  0.2165  1.0157  0.5247
 1029SOL    HW114546   0.915   3.697   6.331 -0.6359  0.4895 -0.6595
 1029SOL    HW214547   0.964   3.829   6.340  0.2010 -0.0795  1.6520
 1030SOL     OW14548   4.161   1.274   2.226 -0.6929 -0.2031  0.0844
 1030SOL    HW114549   4.110   1.315   2.296 -1.3147 -2.1622  0.7622
 1030SOL    HW214550   4.106   1.200   2.202 -1.8031 -0.0767  2.2682
 1031SOL     OW14551   0.669   2.720   0.677  0.2953 -0.4689 -0.5575
 1031SOL    HW114552   0.599   2.785   0.664  0.6293  0.2285  1.1186
 1031SOL    HW214553   0.730   2.763   0.619  1.0111  0.5020  0.9158
 1032SOL     OW14554   2.384   2.231   7.439 -0.9659 -0.1249  0.2647
 1032SOL    HW114555   2.324   2.208   7.509 -0.0810 -0.7634  0.8092
 1032SOL    HW214556   2.421   2.147   7.411  0.8009  0.6431  0.2758
 1033SOL     OW14557   0.404   2.162  11.296  0.2889 -0.1591  0.6199
 1033SOL    HW114558   0.439   2.145  11.383  0.0822 -4.0345 -0.0488
 1033SOL    HW214559   0.308   2.162  11.307  0.2521  1.1560  0.2322
 1034SOL     OW14560   2.230   0.078   4.977 -0.3166  0.1877  0.2862
 1034SOL    HW114561   2.155   0.133   4.999 -0.2940  1.0916 -1.9629
 1034SOL    HW214562   2.187   0.014   4.921  1.6325  0.8574 -1.9901
 1035SOL     OW14563   1.510   1.101  12.945  0.2663  0.1594 -0.3623
 1035SOL    HW114564   1.582   1.161  12.926  1.1182  0.1138  2.6270
 1035SOL    HW214565   1.552   1.021  12.976 -0.5450  0.0065  0.3357
 1036SOL     OW14566   1.549   2.148   4.559 -0.3983 -0.7643 -0.7931
 1036SOL    HW114567   1.639   2.166   4.534 -0.2109  0.3495  0.7012
 1036SOL    HW214568   1.551   2.052   4.561  0.3503 -0.7441 -0.6332
 1037SOL     OW14569   4.652   1.365   0.692 -0.4414  0.1480 -0.0540
 1037SOL    HW114570   4.628   1.454   0.715 -1.4319 -0.5279  1.5530
 1037SOL    HW214571   4.565   1.339   0.659  0.0490 -0.9444 -0.4890
 1038SOL     OW14572   0.331   1.181   6.157 -0.3000  0.0104  0.0928
 1038SOL    HW114573   0.259   1.142   6.207  0.6862 -0.6285  1.0026
 1038SOL    HW214574   0.341   1.260   6.211  1.4731 -1.9186  2.5800
 1039SOL     OW14575   1.654   0.668   6.078 -0.3908 -0.3539 -0.4391
 1039SOL    HW114576   1.720   0.599   6.072  0.3100  0.3138 -0.3545
 1039SOL    HW214577   1.590   0.630   6.018 -0.1419 -0.3003 -0.7388
 1040SOL     OW14578   2.927   0.029   9.663 -0.5510 -0.0144  0.1829
 1040SOL    HW114579   2.977   0.102   9.628 -0.6653  1.1007  2.3212
 1040SOL    HW214580   2.841   0.063   9.688 -1.2584 -0.2739 -1.8973
 1041SOL     OW14581   4.637   0.557   3.116 -0.1382 -0.2144  0.4789
 1041SOL    HW114582   4.662   0.584   3.205  1.1015  1.8200 -0.4979
 1041SOL    HW214583   4.569   0.619   3.090  0.7794 -0.4691 -2.4700
 1042SOL     OW14584   0.978   2.853   2.682 -0.2230 -0.4136  0.5227
 1042SOL    HW114585   1.053   2.905   2.653  0.3493 -0.4318  1.9293
 1042SOL    HW214586   0.927   2.874   2.605 -0.0850  0.4357  0.6514
 1043SOL     OW14587   1.927   2.550   4.488  0.2944  0.0186  0.2079
 1043SOL    HW114588   1.897   2.553   4.397  0.1926  1.1865  0.2820
 1043SOL    HW214589   1.896   2.466   4.522  2.1476 -0.7365  0.0831
 1044SOL     OW14590   2.778   3.731   1.594  0.4857 -0.0501  0.2580
 1044SOL    HW114591   2.701   3.708   1.541  0.5502 -0.2774  0.2662
 1044SOL    HW214592   2.809   3.818   1.566  0.2072  0.0546  0.2715
 1045SOL     OW14593   0.573   1.966   7.530 -0.3861  0.6364 -0.0278
 1045SOL    HW114594   0.498   1.907   7.529 -0.2643  0.4684  0.9699
 1045SOL    HW214595   0.586   1.959   7.624  1.5050 -2.7581 -0.5334
 1046SOL     OW14596   3.786   2.197   7.994 -0.6626 -0.1037  0.1153
 1046SOL    HW114597   3.824   2.148   7.921  0.9259  1.4128 -0.0626
 1046SOL    HW214598   3.837   2.278   7.983 -1.3835  0.4077  0.5667
 1047SOL     OW14599   0.847   0.066   2.749 -0.3980  0.3992 -0.2731
 1047SOL    HW114600   0.782   0.024   2.693 -0.4973  0.0974  0.0677
 1047SOL    HW214601   0.879   4.713   2.796 -1.0445 -0.7573 -1.7106
 1048SOL     OW14602   3.880   2.008  16.407  0.2203 -0.2311  0.0209
 1048SOL    HW114603   3.956   2.066  16.414 -0.3666  0.4579  0.6405
 1048SOL    HW214604   3.892   1.963  16.323  0.0497  0.2524 -0.2637
 1049SOL     OW14605   3.520   2.421   1.577 -0.7630  0.0315  0.0258
 1049SOL    HW114606   3.560   2.431   1.663 -0.7314  1.6556 -0.1784
 1049SOL    HW214607   3.598   2.392   1.529 -0.7926  0.7798 -0.4634
 1050SOL     OW14608   0.040   3.915   7.102 -0.5232  0.3931 -0.0524
 1050SOL    HW114609   0.020   3.830   7.062  1.8496  0.4409 -1.3340
 1050SOL    HW214610   4.673   3.945   7.109  0.2182  1.8719  3.2623
 1051SOL     OW14611   1.644   3.995   8.989  0.0564  0.1224 -0.1922
 1051SOL    HW114612   1.685   3.917   9.027 -1.0200 -0.2021  0.2994
 1051SOL    HW214613   1.576   3.966   8.929  0.0625 -0.4693  0.0924
 1052SOL     OW14614   3.968   4.491   6.535 -0.2307  0.2005 -0.5272
 1052SOL    HW114615   4.027   4.516   6.606  1.7845 -0.4694 -1.9674
 1052SOL    HW214616   3.915   4.433   6.589 -0.4553  0.0756 -0.8792
 1053SOL     OW14617   2.815   0.873   8.155  0.1310 -0.1911 -0.1703
 1053SOL    HW114618   2.772   0.803   8.204 -1.9373  1.1969 -0.0075
 1053SOL    HW214619   2.904   0.868   8.191  0.0835 -0.2206 -0.0592
 1054SOL     OW14620   2.754   3.941   9.342 -0.0215 -0.0106  0.3645
 1054SOL    HW114621   2.819   3.894   9.289  0.7077  1.8026 -0.3501
 1054SOL    HW214622   2.734   3.870   9.403  1.3946 -1.5825 -1.0173
 1055SOL     OW14623   2.150   3.437   6.737  0.0305  0.4269 -0.2612
 1055SOL    HW114624   2.163   3.356   6.786 -2.1717  0.3669  0.2548
 1055SOL    HW214625   2.065   3.460   6.774 -2.0848 -1.0268 -4.2196
 1056SOL     OW14626   2.839   4.084   8.305 -0.5986 -1.0134  0.3444
 1056SOL    HW114627   2.927   4.067   8.271 -0.4785  1.3079 -0.5486
 1056SOL    HW214628   2.859   4.162   8.356 -0.6333 -1.6454  1.3083
 1057SOL     OW14629   2.781   2.766   5.894  0.2597  0.0865  0.1788
 1057SOL    HW114630   2.787   2.787   5.801 -1.4517 -1.3880 -0.2623
 1057SOL    HW214631   2.694   2.728   5.888  1.0874 -1.8796  0.7207
 1058SOL     OW14632   2.055   3.604   5.043 -0.0487  0.1794 -0.1174
 1058SOL    HW114633   2.057   3.565   4.955 -0.2656  2.1833 -1.0120
 1058SOL    HW214634   2.131   3.660   5.033 -0.6563  0.7243 -1.7906
 1059SOL     OW14635   2.226   0.178   2.858  0.2791  0.2061  0.3650
 1059SOL    HW114636   2.213   0.097   2.808  0.1422  0.0632  0.6353
 1059SOL    HW214637   2.316   0.171   2.889  0.5898  0.3911 -0.4805
 1060SOL     OW14638   2.505   0.039   5.582 -0.1687  0.0988 -0.2166
 1060SOL    HW114639   2.520   0.132   5.565  1.5857 -0.2625 -0.6368
 1060SOL    HW214640   2.549   0.037   5.667 -1.4136  3.1913  0.4676
 1061SOL     OW14641   1.303   1.139   8.133  0.0357  0.0662  0.1734
 1061SOL    HW114642   1.373   1.102   8.078 -0.4208 -0.8788  0.2379
 1061SOL    HW214643   1.275   1.073   8.195 -0.2604  0.9528  0.9774
 1062SOL     OW14644   3.542   0.078   7.215  0.3294  0.3850 -0.4422
 1062SOL    HW114645   3.510   0.066   7.126 -1.5983  0.9207  0.1793
 1062SOL    HW214646   3.455   0.078   7.254  0.2997 -0.4971 -0.5160
 1063SOL     OW14647   3.896   4.420   8.989  0.1997 -0.0037  0.2462
 1063SOL    HW114648   3.972   4.441   9.044 -0.0127 -0.6714  0.8067
 1063SOL    HW214649   3.924   4.329   8.978 -1.5234 -0.8724  3.1696
 1064SOL     OW14650   4.084   2.252   6.157 -0.4043 -0.5329  0.1220
 1064SOL    HW114651   4.120   2.334   6.190 -0.1929  0.3128 -2.2505
 1064SOL    HW214652   4.132   2.186   6.207  1.7347  1.7145  1.0319
 1065SOL     OW14653   4.605   0.320   5.921 -0.0510  0.0310 -0.3126
 1065SOL    HW114654   4.624   0.412   5.899  0.6391  0.1893  0.9546
 1065SOL    HW214655   4.611   0.288   5.831 -1.6227  0.5247 -0.6011
 1066SOL     OW14656   0.524   1.270   1.296 -0.0402  0.3092  0.1829
 1066SOL    HW114657   0.452   1.242   1.239  0.6598 -1.1088 -0.0133
 1066SOL    HW214658   0.591   1.229   1.241 -2.8857 -2.4608 -1.2222
 1067SOL     OW14659   4.418   0.792   4.946  0.2538  0.4838 -0.3885
 1067SOL    HW114660   4.444   0.767   5.035 -0.3377 -3.9401 -1.4613
 1067SOL    HW214661   4.446   0.883   4.949  0.2645  0.5169 -1.4252
 1068SOL     OW14662   2.979   0.537   8.245 -0.0367 -0.2989  0.6060
 1068SOL    HW114663   2.992   0.443   8.254  1.8748  0.1392  2.3193
 1068SOL    HW214664   3.030   0.575   8.316 -0.9631 -0.3296  1.2928
 1069SOL     OW14665   0.818   2.747   8.137  0.1145 -0.9853 -0.5573
 1069SOL    HW114666   0.840   2.689   8.210 -3.7275  0.0251  1.4081
 1069SOL    HW214667   0.757   2.698   8.082 -1.0289 -2.3198  1.8894
 1070SOL     OW14668   0.294   4.585   7.971  0.2940 -0.4229  0.1227
 1070SOL    HW114669   0.204   4.581   8.003 -0.4753  0.9349 -1.8410
 1070SOL    HW214670   0.286   4.568   7.877  0.3515  1.7401 -0.2835
 1071SOL     OW14671   1.860   3.207   6.699 -0.1567 -0.8080  0.3628
 1071SOL    HW114672   1.866   3.172   6.787 -2.1517 -2.1295 -0.0347
 1071SOL    HW214673   1.854   3.301   6.716  2.6342 -0.3920 -0.9005
 1072SOL     OW14674   1.417   1.144   4.254  0.3942 -0.1037  0.7064
 1072SOL    HW114675   1.363   1.066   4.268  1.5189 -0.6173  2.1675
 1072SOL    HW214676   1.357   1.212   4.285  2.5272  1.4160  1.5365
 1073SOL     OW14677   1.564   4.667  13.239 -0.5465  0.1316  0.3670
 1073SOL    HW114678   1.476   4.688  13.209 -0.3914 -0.1055 -0.2617
 1073SOL    HW214679   1.609   4.663  13.155  0.2218 -0.8153  0.8071
 1074SOL     OW14680   1.938   1.695  16.704  0.7233  0.0584  0.7710
 1074SOL    HW114681   1.933   1.777  16.655  1.0560 -0.3043  0.1316
 1074SOL    HW214682   1.912   1.723  16.792 -0.5251 -0.9491  0.7286
 1075SOL     OW14683   0.768   4.592   8.019 -0.3808  0.1954  0.2536
 1075SOL    HW114684   0.781   4.623   8.109 -0.2612 -1.4091  0.7830
 1075SOL    HW214685   0.785   4.499   8.036 -0.4729  0.9754  4.5898
 1076SOL     OW14686   1.255   4.712   2.956 -0.4373 -0.2830  0.2083
 1076SOL    HW114687   1.246   0.076   2.992  3.5037  0.8563 -1.5307
 1076SOL    HW214688   1.329   4.680   3.008  0.9967  2.0552 -0.3691
 1077SOL     OW14689   4.339   4.038   5.541 -0.0154 -0.1896  0.0587
 1077SOL    HW114690   4.389   3.973   5.491  1.0582  0.1688  0.6706
 1077SOL    HW214691   4.368   4.117   5.496  1.4501  0.0851  1.5019
 1078SOL     OW14692   4.096   3.852  12.589  0.3612 -0.8447  0.1227
 1078SOL    HW114693   4.076   3.854  12.496 -3.2387  2.4733  0.9943
 1078SOL    HW214694   4.125   3.762  12.603 -0.1870 -0.9910  0.3225
 1079SOL     OW14695   3.806   0.589  17.266 -0.1755  0.0775 -0.2736
 1079SOL    HW114696   3.721   0.627  17.287  0.1482  0.9775 -0.5937
 1079SOL    HW214697   3.864   0.656  17.300  1.6685 -1.8049  0.2715
 1080SOL     OW14698   1.175   3.442  14.493 -1.3351 -0.0281  0.3119
 1080SOL    HW114699   1.177   3.347  14.499 -0.0383  0.0405  0.9297
 1080SOL    HW214700   1.261   3.470  14.462 -0.8282  0.1401  1.9086
 1081SOL     OW14701   0.032   3.811   6.694 -0.1121  0.6215  0.1236
 1081SOL    HW114702   4.714   3.823   6.609 -0.4262 -1.8546 -0.0686
 1081SOL    HW214703   0.127   3.811   6.682 -0.4044 -0.8732 -2.1425
 1082SOL     OW14704   4.323   1.836  10.768  0.3522  0.3670 -0.0261
 1082SOL    HW114705   4.324   1.762  10.707  3.9717  0.6687 -0.3386
 1082SOL    HW214706   4.314   1.905  10.703 -2.4547  0.0947  0.0993
 1083SOL     OW14707   4.190   3.943   2.634 -0.0445 -0.0153 -0.1808
 1083SOL    HW114708   4.201   3.996   2.714  2.2728 -1.4909  0.4800
 1083SOL    HW214709   4.231   3.998   2.568  0.7458 -0.0467  0.2754
 1084SOL     OW14710   4.202   3.678   3.676 -0.6298 -0.4911  0.6468
 1084SOL    HW114711   4.262   3.747   3.648 -0.4761 -0.5866  0.7353
 1084SOL    HW214712   4.193   3.696   3.770  1.4840  1.5134  0.4545
 1085SOL     OW14713   2.201   1.252   8.357  0.3588 -0.3516  0.1626
 1085SOL    HW114714   2.110   1.271   8.377  0.3024 -0.5268  0.0689
 1085SOL    HW214715   2.239   1.203   8.430 -0.5123  0.3601  1.0989
 1086SOL     OW14716   1.945   4.416   0.354 -0.0417  0.2833  0.0197
 1086SOL    HW114717   1.947   4.446   0.445  1.2442 -0.6101  0.2785
 1086SOL    HW214718   1.850   4.418   0.344 -0.0882  0.5865  0.5085
 1087SOL     OW14719   4.682   2.634   2.382  0.9360 -0.8990 -0.2994
 1087SOL    HW114720   0.052   2.648   2.395  0.2532  3.7803 -0.3630
 1087SOL    HW214721   4.670   2.633   2.287 -0.5367  0.2450 -0.1403
 1088SOL     OW14722   2.922   2.864   5.144  0.2598 -0.3492  0.3736
 1088SOL    HW114723   2.866   2.898   5.214  0.7377  1.2867 -0.0348
 1088SOL    HW214724   2.880   2.894   5.063  0.2751 -3.1665 -0.6706
 1089SOL     OW14725   2.470   0.438   5.117  0.3434  0.2372  0.2826
 1089SOL    HW114726   2.465   0.387   5.198 -2.5564 -0.0276 -0.0519
 1089SOL    HW214727   2.376   0.454   5.108  0.4359  0.1812 -0.7960
 1090SOL     OW14728   0.741   0.292   0.501  0.0307 -0.0233 -0.5985
 1090SOL    HW114729   0.662   0.239   0.492 -1.0686  1.5505 -0.2437
 1090SOL    HW214730   0.707   0.374   0.465  1.8689  0.9761 -0.0308
 1091SOL     OW14731   1.019   3.618   2.464 -0.4683 -0.1048  0.1018
 1091SOL    HW114732   1.104   3.655   2.489 -0.9085  0.2848  1.0171
 1091SOL    HW214733   1.018   3.534   2.509  0.1699 -0.7034 -0.9983
 1092SOL     OW14734   3.107   4.263   5.275  0.1656  0.2203  0.2792
 1092SOL    HW114735   3.156   4.330   5.227  2.7405 -0.2437  2.2710
 1092SOL    HW214736   3.117   4.295   5.364 -0.8789 -1.7420  1.0977
 1093SOL     OW14737   3.092   3.983   4.443  0.1155 -0.2983  0.1675
 1093SOL    HW114738   3.021   3.927   4.413  0.3818  0.1993 -1.4091
 1093SOL    HW214739   3.173   3.955   4.402  0.2746  0.2802  0.0865
 1094SOL     OW14740   3.108   0.344  13.348 -0.1603 -0.4720  0.0430
 1094SOL    HW114741   3.065   0.285  13.410 -0.2720 -1.1702 -0.6922
 1094SOL    HW214742   3.201   0.338  13.369 -0.0716 -0.8963 -0.4731
 1095SOL     OW14743   2.039   2.029   6.801  0.2285  0.5018  0.0073
 1095SOL    HW114744   2.130   2.054   6.785  0.8418 -1.3722  0.5054
 1095SOL    HW214745   1.991   2.103   6.764  1.4246  0.0884 -2.4058
 1096SOL     OW14746   2.169   4.620   2.786 -0.0441 -0.7087  0.0954
 1096SOL    HW114747   2.090   4.651   2.830  0.6244  0.9918  0.0906
 1096SOL    HW214748   2.135   4.546   2.736  0.0809 -0.0047 -1.0343
 1097SOL     OW14749   2.475   4.478   7.636  0.0019  0.0206  0.3472
 1097SOL    HW114750   2.469   4.511   7.546  0.5123 -1.2906 -0.1783
 1097SOL    HW214751   2.558   4.513   7.666  0.4471 -0.4141 -0.3787
 1098SOL     OW14752   0.269   2.615   6.061 -0.4686 -0.0959  0.0543
 1098SOL    HW114753   0.185   2.584   6.026 -0.3552 -1.5255  1.0376
 1098SOL    HW214754   0.321   2.534   6.057  0.4885  0.6112 -1.8065
 1099SOL     OW14755   3.460   0.167   6.303  0.5091  0.2954 -0.3228
 1099SOL    HW114756   3.415   0.188   6.221  1.4038  1.3764 -0.5254
 1099SOL    HW214757   3.509   0.247   6.321  1.3013  0.4230 -3.0329
 1100SOL     OW14758   3.858   2.604   9.645 -0.2996  0.4901  0.1884
 1100SOL    HW114759   3.934   2.557   9.678  0.5975  0.8641 -1.3545
 1100SOL    HW214760   3.895   2.643   9.566 -2.6852 -2.0024 -2.1495
 1101SOL     OW14761   1.487   4.238   6.516 -0.0008 -0.2570 -0.1655
 1101SOL    HW114762   1.444   4.179   6.454 -1.1636 -0.2673  0.6593
 1101SOL    HW214763   1.516   4.175   6.582 -1.1483 -0.0023  0.5707
 1102SOL     OW14764   2.228   0.771   6.644  0.0156 -0.0010  0.0626
 1102SOL    HW114765   2.312   0.728   6.662 -0.6903 -1.4105  0.0418
 1102SOL    HW214766   2.254   0.833   6.576  1.1751 -0.3479  0.1853
 1103SOL     OW14767   3.190   1.599   8.357  0.3674 -0.2149 -0.0766
 1103SOL    HW114768   3.247   1.528   8.387  2.0092  0.8659 -0.6529
 1103SOL    HW214769   3.135   1.554   8.293  1.6056 -1.5359 -0.2314
 1104SOL     OW14770   2.825   2.300   9.738 -0.3455 -0.2700  0.3440
 1104SOL    HW114771   2.881   2.377   9.724 -0.8289  0.1333  0.6101
 1104SOL    HW214772   2.888   2.243   9.781  0.1921 -0.2426 -0.4079
 1105SOL     OW14773   0.183   0.156   6.758  0.7541  0.5338  0.0341
 1105SOL    HW114774   0.171   0.149   6.663  0.7646 -0.4993  0.1037
 1105SOL    HW214775   0.090   0.160   6.781  0.3909 -2.1041 -0.9495
 1106SOL     OW14776   1.348   0.167  17.350  0.5381  0.3798 -0.3346
 1106SOL    HW114777   1.270   0.123  17.383  1.3603 -0.2071  0.8134
 1106SOL    HW214778   1.353   0.113  17.271  1.0108  0.6137 -0.4632
 1107SOL     OW14779   1.753   2.594  10.017 -0.3156  1.1726  0.4994
 1107SOL    HW114780   1.665   2.576  10.050 -0.6836  0.7842 -0.7057
 1107SOL    HW214781   1.738   2.652   9.943  1.0160  1.1407  0.2002
 1108SOL     OW14782   2.818   4.277   4.451 -0.0178 -0.2663 -0.1146
 1108SOL    HW114783   2.782   4.277   4.363 -1.9778 -0.0562  0.6921
 1108SOL    HW214784   2.880   4.350   4.458 -0.5483  0.3825 -2.2300
 1109SOL     OW14785   4.100   3.158  16.506  0.0836  0.7246 -0.3622
 1109SOL    HW114786   4.050   3.119  16.435  0.5500 -0.3929 -0.0775
 1109SOL    HW214787   4.053   3.239  16.525 -0.4016  0.4060 -0.2215
 1110SOL     OW14788   3.129   2.999  16.694 -0.0530  0.7521 -0.1277
 1110SOL    HW114789   3.133   3.066  16.762  0.2125 -0.5530  1.1197
 1110SOL    HW214790   3.213   2.953  16.693  0.4402  1.6555 -0.1626
 1111SOL     OW14791   0.575   1.121   4.986 -0.2875  0.2325 -0.2396
 1111SOL    HW114792   0.667   1.115   5.009 -0.5101  1.8421  1.0908
 1111SOL    HW214793   0.561   1.038   4.941  0.1399 -0.1838  0.3971
 1112SOL     OW14794   2.586   4.072   7.069  0.2798  0.0947 -0.0121
 1112SOL    HW114795   2.626   3.988   7.046 -0.1703 -0.2519  0.4931
 1112SOL    HW214796   2.638   4.106   7.142  2.0646  0.7283 -1.5557
 1113SOL     OW14797   3.049   1.288   7.570 -0.0534  0.3123  0.5916
 1113SOL    HW114798   3.119   1.225   7.588 -0.7232 -0.5295  0.2666
 1113SOL    HW214799   2.998   1.241   7.504  0.5107 -1.6226  1.5428
 1114SOL     OW14800   0.085   0.456   4.748  0.2742  0.0329  0.7998
 1114SOL    HW114801   4.718   0.430   4.731 -0.5882  1.3089  3.5463
 1114SOL    HW214802   0.130   0.430   4.667 -2.3385  0.9404 -0.9325
 1115SOL     OW14803   4.071   3.677   3.163 -0.1676 -0.2459 -0.4253
 1115SOL    HW114804   4.161   3.646   3.165 -0.3776 -0.7109  2.4440
 1115SOL    HW214805   4.072   3.743   3.233 -0.4463  0.5187 -1.1453
 1116SOL     OW14806   2.600   0.948   3.528  0.6718  0.2881 -0.3302
 1116SOL    HW114807   2.514   0.916   3.556 -0.7091  4.1873 -0.1683
 1116SOL    HW214808   2.649   0.889   3.584 -2.1065 -2.8901 -1.2529
 1117SOL     OW14809   3.090   4.486   6.691  0.2326 -0.4000 -0.0386
 1117SOL    HW114810   3.034   4.409   6.693  1.1857 -1.0268  2.2754
 1117SOL    HW214811   3.077   4.520   6.602 -0.8097  1.2322  0.7344
 1118SOL     OW14812   2.687   0.260   5.530  0.2205  0.2075  0.3139
 1118SOL    HW114813   2.750   0.188   5.527 -0.4987 -0.4117  0.0565
 1118SOL    HW214814   2.744   0.329   5.497 -1.0200  1.6985  1.3388
 1119SOL     OW14815   0.837   2.158   2.458 -0.0971  0.3244 -0.5214
 1119SOL    HW114816   0.778   2.099   2.506 -0.7110  0.7243 -0.7812
 1119SOL    HW214817   0.895   2.185   2.529 -0.8997  2.2061 -0.5970
 1120SOL     OW14818   3.219   4.106   5.683 -0.5200 -0.0404  0.4124
 1120SOL    HW114819   3.128   4.129   5.700 -1.3442 -1.9648 -1.5430
 1120SOL    HW214820   3.263   4.191   5.678 -2.4170  0.8512 -1.0201
 1121SOL     OW14821   0.615   3.820   7.234 -0.5277  0.2891  0.4715
 1121SOL    HW114822   0.521   3.829   7.214 -0.4902 -0.0977  0.1255
 1121SOL    HW214823   0.632   3.739   7.186 -0.5102  1.1908 -1.0416
 1122SOL     OW14824   2.314   1.250   8.071 -0.5852 -0.3329  0.6362
 1122SOL    HW114825   2.280   1.321   8.126  2.3837 -0.1525  2.2169
 1122SOL    HW214826   2.403   1.236   8.104 -0.1536  0.8936 -0.0276
 1123SOL     OW14827   3.510   2.595  16.916 -0.3210  0.1402  0.1427
 1123SOL    HW114828   3.425   2.551  16.926  1.8084 -3.8315  0.7880
 1123SOL    HW214829   3.518   2.641  17.000 -2.2850  1.7965 -0.5611
 1124SOL     OW14830   1.975   0.480   4.372 -0.4670  0.6229 -0.4774
 1124SOL    HW114831   1.956   0.413   4.437 -0.3209 -0.1155 -1.1874
 1124SOL    HW214832   2.044   0.532   4.414  0.0442  0.3352 -0.9545
 1125SOL     OW14833   4.669   2.116   4.513  0.1792  0.2408 -0.0597
 1125SOL    HW114834   0.036   2.092   4.494  0.1568  0.7068 -0.7729
 1125SOL    HW214835   4.649   2.043   4.571 -1.3242 -0.1478 -1.0517
 1126SOL     OW14836   4.641   3.711  12.338 -0.2363 -0.1455  0.4798
 1126SOL    HW114837   4.634   3.788  12.280  1.0419 -1.2818 -1.2107
 1126SOL    HW214838   4.680   3.647  12.279 -0.4885  0.3046 -0.1814
 1127SOL     OW14839   2.704   1.384   6.154  0.0524 -0.7553  0.5785
 1127SOL    HW114840   2.673   1.338   6.232 -0.4399  1.3824  1.6362
 1127SOL    HW214841   2.629   1.377   6.094  0.3468 -0.1292  0.1389
 1128SOL     OW14842   3.667   0.943   7.817  0.1639 -0.1621  0.5187
 1128SOL    HW114843   3.620   0.915   7.739  1.2570 -1.0414  0.1771
 1128SOL    HW214844   3.604   0.934   7.889  1.6983  1.3690  2.0663
 1129SOL     OW14845   3.868   2.001   9.893 -0.1652 -0.4081 -0.4806
 1129SOL    HW114846   3.958   1.974   9.909  0.0091  0.4158 -0.0818
 1129SOL    HW214847   3.848   1.934   9.827  3.1204 -2.2145  0.3609
 1130SOL     OW14848   3.032   0.561   2.816  0.0702 -0.3620  0.1704
 1130SOL    HW114849   2.938   0.568   2.835 -0.0344  0.2837 -0.6103
 1130SOL    HW214850   3.037   0.482   2.763  0.5121 -0.7634  0.8257
 1131SOL     OW14851   3.807   1.870   5.248  0.5290  0.4503 -0.0123
 1131SOL    HW114852   3.732   1.816   5.223  2.0804 -2.6899  1.9757
 1131SOL    HW214853   3.856   1.884   5.168 -0.0711  1.2489 -0.2366
 1132SOL     OW14854   0.005   0.808   4.063  0.1562  0.0543  0.6222
 1132SOL    HW114855   0.074   0.811   3.998 -0.7211 -0.4289 -0.3295
 1132SOL    HW214856   0.030   0.732   4.115 -1.2216 -0.5787  0.3770
 1133SOL     OW14857   3.555   2.996  13.984  0.0917  0.2178 -0.5036
 1133SOL    HW114858   3.539   2.924  14.045 -1.1013  0.6947 -0.2535
 1133SOL    HW214859   3.468   3.020  13.951 -0.2153  0.0675  0.1956
 1134SOL     OW14860   0.770   2.417   7.261  0.0112 -0.5113 -0.1223
 1134SOL    HW114861   0.680   2.407   7.230  0.5043  1.4276 -2.1764
 1134SOL    HW214862   0.802   2.327   7.257  1.0014 -0.0412 -2.6778
 1135SOL     OW14863   1.871   2.275  17.664  0.5303 -0.2401  0.1130
 1135SOL    HW114864   1.962   2.274  17.692 -0.0757 -0.5913  2.0830
 1135SOL    HW214865   1.848   2.183  17.654  1.6155 -0.2329 -2.4671
 1136SOL     OW14866   4.059   1.952   9.112  0.4961 -0.6577 -0.2798
 1136SOL    HW114867   4.094   2.041   9.107  1.7646 -1.3192 -3.0616
 1136SOL    HW214868   4.007   1.968   9.190  2.1653 -0.9742  0.8876
 1137SOL     OW14869   2.995   4.250   5.704  0.0217 -0.1199  0.0631
 1137SOL    HW114870   3.000   4.346   5.697 -1.0846  0.0236  1.1861
 1137SOL    HW214871   2.956   4.249   5.791 -0.0078  1.9897  0.0833
 1138SOL     OW14872   4.415   2.692   4.344 -0.2968 -0.2421 -0.0650
 1138SOL    HW114873   4.428   2.663   4.253  1.3698  0.9342 -0.2011
 1138SOL    HW214874   4.502   2.732   4.354 -0.7728  0.4451  1.2560
 1139SOL     OW14875   1.236   4.365   3.842  0.2243 -0.0916  0.2287
 1139SOL    HW114876   1.260   4.345   3.932  1.6907 -0.6460 -0.2858
 1139SOL    HW214877   1.157   4.414   3.865  0.0577  0.4886 -1.6078
 1140SOL     OW14878   0.454   4.369   2.547 -0.5862 -0.0466 -0.4817
 1140SOL    HW114879   0.446   4.282   2.585 -0.6480  0.0851 -0.1909
 1140SOL    HW214880   0.540   4.395   2.579  0.0889 -0.8190 -1.7137
 1141SOL     OW14881   1.449   2.162   8.939  0.1790 -0.3450  0.5040
 1141SOL    HW114882   1.496   2.157   9.022  1.3335 -1.5360 -0.2200
 1141SOL    HW214883   1.509   2.105   8.891  1.7656  2.7087 -1.0788
 1142SOL     OW14884   3.783   1.277  10.410 -0.2007 -0.8328 -0.5631
 1142SOL    HW114885   3.736   1.311  10.334 -1.4926  0.0188  0.6332
 1142SOL    HW214886   3.851   1.226  10.365 -0.9834 -2.7301  0.4346
 1143SOL     OW14887   0.061   2.835  11.691 -0.5574  0.2123  0.2923
 1143SOL    HW114888   4.694   2.866  11.681 -0.1807  1.2270  0.0001
 1143SOL    HW214889   0.063   2.834  11.787  1.4554 -0.9175  0.2359
 1144SOL     OW14890   3.700   1.033   3.740 -0.3582  0.1705  0.0720
 1144SOL    HW114891   3.738   0.950   3.768 -1.9084 -0.4217  0.4421
 1144SOL    HW214892   3.732   1.035   3.650  1.8893 -2.1258  0.8487
 1145SOL     OW14893   0.022   2.852  10.754 -0.2989  0.0423 -0.1551
 1145SOL    HW114894   4.681   2.808  10.698 -0.5624  0.9417 -0.5574
 1145SOL    HW214895   0.108   2.851  10.713 -0.3199  1.2867 -0.2397
 1146SOL     OW14896   1.425   2.567   7.911  0.0900  0.1556 -0.0025
 1146SOL    HW114897   1.397   2.653   7.879 -0.9875 -0.9198 -1.9282
 1146SOL    HW214898   1.428   2.580   8.006 -1.3815 -1.3655  0.2419
 1147SOL     OW14899   3.425   1.997   7.730 -0.2730 -0.6944 -0.2625
 1147SOL    HW114900   3.485   1.928   7.703  0.1435 -0.1349 -0.7631
 1147SOL    HW214901   3.352   1.939   7.750 -0.9623 -0.8748 -3.2398
 1148SOL     OW14902   0.279   0.672  16.316  0.0693 -0.2733 -0.2799
 1148SOL    HW114903   0.258   0.764  16.300 -0.3714 -0.5350 -1.2541
 1148SOL    HW214904   0.196   0.668  16.364 -0.6055 -0.1932 -1.4398
 1149SOL     OW14905   1.187   4.614   9.871 -0.2604 -0.0689 -0.6190
 1149SOL    HW114906   1.123   4.554   9.909  0.4014  0.1419  0.8075
 1149SOL    HW214907   1.252   4.548   9.848  1.1338 -0.0001  3.2012
 1150SOL     OW14908   4.314   1.857   8.660 -0.5678  0.1337 -0.9208
 1150SOL    HW114909   4.273   1.867   8.745  1.4584 -0.4463  0.1465
 1150SOL    HW214910   4.300   1.763   8.644 -0.7885 -0.2189  1.3413
 1151SOL     OW14911   0.802   0.470   2.041  0.8168 -0.0362  0.0142
 1151SOL    HW114912   0.821   0.548   1.989 -2.3012 -0.3144 -1.5588
 1151SOL    HW214913   0.819   0.396   1.983 -1.4439 -0.4018 -0.1785
 1152SOL     OW14914   0.128   2.384   7.491  0.1718 -0.4719 -0.2972
 1152SOL    HW114915   0.056   2.430   7.447 -0.6385 -1.3222  0.1308
 1152SOL    HW214916   0.095   2.373   7.580 -0.9427 -0.7780 -0.7423
 1153SOL     OW14917   0.508   2.077  10.985 -0.3006 -0.3917 -0.9534
 1153SOL    HW114918   0.592   2.033  10.976  0.5175  0.8366  0.6516
 1153SOL    HW214919   0.497   2.081  11.079 -0.7877  2.0505 -1.1111
 1154SOL     OW14920   4.688   4.073   7.748  0.3512  0.3102 -0.3286
 1154SOL    HW114921   4.652   4.155   7.713  0.5999  0.6828  0.2866
 1154SOL    HW214922   4.640   4.013   7.691  0.7185 -1.3482  1.1293
 1155SOL     OW14923   1.907   4.287   7.543  0.4924 -0.5025  0.3385
 1155SOL    HW114924   1.981   4.227   7.552  0.9771  0.3784  2.0381
 1155SOL    HW214925   1.837   4.244   7.593 -0.0781  0.9175  0.7579
 1156SOL     OW14926   2.101   4.353   2.686 -0.1084  0.1287 -0.5438
 1156SOL    HW114927   2.157   4.282   2.653  2.7829  0.1852  4.3289
 1156SOL    HW214928   2.143   4.351   2.772  2.3409  1.9209 -1.6906
 1157SOL     OW14929   2.455   0.126   3.704  0.3365  0.3044 -0.2447
 1157SOL    HW114930   2.502   0.061   3.652 -1.3342 -0.4647 -0.7873
 1157SOL    HW214931   2.496   0.207   3.676  2.6290 -0.9250 -0.4350
 1158SOL     OW14932   3.490   3.503   8.818 -0.7362 -0.1683 -0.5585
 1158SOL    HW114933   3.413   3.497   8.762 -0.5951 -0.4755 -0.7228
 1158SOL    HW214934   3.552   3.549   8.761 -1.3412  0.3007 -0.8323
 1159SOL     OW14935   1.249   2.203  10.361 -0.4575 -0.8490  0.2540
 1159SOL    HW114936   1.264   2.279  10.305  0.3679 -0.0124  1.5926
 1159SOL    HW214937   1.286   2.130  10.312 -0.4234  0.2853 -1.4155
 1160SOL     OW14938   0.118   1.416   1.010  0.0704  0.1474 -0.3484
 1160SOL    HW114939   0.183   1.483   1.030 -0.4090  0.8884 -1.2483
 1160SOL    HW214940   0.035   1.464   1.007  0.4027  0.9149  2.5819
 1161SOL     OW14941   3.185   2.016  12.451 -0.0315 -0.0136  0.3951
 1161SOL    HW114942   3.253   1.952  12.472 -0.2874 -0.2845  0.3945
 1161SOL    HW214943   3.213   2.041  12.363 -2.9052  1.9850  0.0429
 1162SOL     OW14944   3.481   2.918  16.277 -0.0300 -0.2044 -0.4906
 1162SOL    HW114945   3.487   2.985  16.345 -1.1928 -2.2172  1.5995
 1162SOL    HW214946   3.557   2.865  16.300  0.5353  1.1027  0.6706
 1163SOL     OW14947   3.235   2.153  10.274 -0.5846 -0.2269 -0.2163
 1163SOL    HW114948   3.208   2.161  10.365 -0.0097  1.2066 -0.1650
 1163SOL    HW214949   3.245   2.059  10.258  2.2001  0.3419 -1.7792
 1164SOL     OW14950   1.444   2.708  16.151  0.8079 -0.1894  0.9124
 1164SOL    HW114951   1.378   2.639  16.147 -2.2977  2.8010  0.5961
 1164SOL    HW214952   1.492   2.676  16.075 -0.0467  0.3749  0.1418
 1165SOL     OW14953   2.453   1.965  12.283  0.4050  0.5845  0.5302
 1165SOL    HW114954   2.500   1.959  12.200 -0.3834 -1.6088  0.2213
 1165SOL    HW214955   2.446   2.059  12.298 -2.0092  0.5559 -0.4054
 1166SOL     OW14956   3.324   3.746   4.670  0.3451  0.0522  0.5461
 1166SOL    HW114957   3.357   3.658   4.687  0.4445  0.1688  0.9708
 1166SOL    HW214958   3.254   3.755   4.735 -0.5085  0.8132 -0.4946
 1167SOL     OW14959   1.592   3.614   5.003 -0.1394 -0.0344  0.3667
 1167SOL    HW114960   1.580   3.672   4.928  0.1915 -1.7576 -1.0114
 1167SOL    HW214961   1.669   3.656   5.042 -0.1814  0.4730 -0.1045
 1168SOL     OW14962   3.164   0.778  10.563  0.8063 -0.0476  0.3475
 1168SOL    HW114963   3.094   0.766  10.627  0.3999  1.0904  0.1238
 1168SOL    HW214964   3.108   0.769  10.487 -0.8996 -3.5894  2.0407
 1169SOL     OW14965   1.357   3.248   7.922 -0.1089 -0.3358  0.1632
 1169SOL    HW114966   1.417   3.203   7.982  1.6274  1.7215 -0.0288
 1169SOL    HW214967   1.376   3.333   7.962 -1.4869 -0.7249  1.6598
 1170SOL     OW14968   2.849   4.115   4.673 -0.1236  0.1092  0.1985
 1170SOL    HW114969   2.838   4.183   4.607 -0.1354 -1.5037 -1.4708
 1170SOL    HW214970   2.893   4.047   4.623 -0.4961 -0.4097  0.5763
 1171SOL     OW14971   4.647   1.741   6.894  0.0644 -0.6629 -0.1216
 1171SOL    HW114972   4.598   1.796   6.834 -0.7681 -1.0721  0.1702
 1171SOL    HW214973   4.721   1.800   6.908 -0.1710 -0.7453  1.5659
 1172SOL     OW14974   0.979   2.241   9.811  0.5417  0.0489  0.3000
 1172SOL    HW114975   1.018   2.154   9.819  0.2420 -0.2147 -1.0447
 1172SOL    HW214976   0.900   2.213   9.765 -0.9265  0.7212  2.4376
 1173SOL     OW14977   2.518   3.512   3.781  0.5402  0.1579  0.3821
 1173SOL    HW114978   2.522   3.422   3.812  1.9564  0.4356  0.9863
 1173SOL    HW214979   2.425   3.519   3.758  1.0029 -1.3812 -1.9190
 1174SOL     OW14980   1.834   4.409  10.542 -0.2784  0.1140 -0.5107
 1174SOL    HW114981   1.802   4.403  10.632 -0.6081 -0.2743 -0.6552
 1174SOL    HW214982   1.808   4.325  10.504  0.2513 -0.7020  0.9237
 1175SOL     OW14983   3.746   4.478   4.175  0.1041  0.1533 -0.0884
 1175SOL    HW114984   3.799   4.403   4.202 -1.8887 -1.0120  0.5539
 1175SOL    HW214985   3.695   4.507   4.250  0.9909  2.8784 -0.5562
 1176SOL     OW14986   1.140   0.576   4.715 -0.0971 -0.6733 -0.5372
 1176SOL    HW114987   1.093   0.498   4.686 -2.8414  0.0911  1.8006
 1176SOL    HW214988   1.135   0.555   4.808 -0.4215 -1.7394 -0.8029
 1177SOL     OW14989   3.698   2.825   4.866 -0.1113 -0.2954  0.7221
 1177SOL    HW114990   3.759   2.861   4.930  2.6694 -1.1008 -1.5034
 1177SOL    HW214991   3.614   2.809   4.910 -1.2331 -1.4933 -1.8794
 1178SOL     OW14992   3.757   1.172   7.710 -0.6670 -0.1454 -0.3855
 1178SOL    HW114993   3.847   1.140   7.700 -0.9872 -0.6904 -1.4792
 1178SOL    HW214994   3.720   1.087   7.735  0.2858 -0.2324  0.7409
 1179SOL     OW14995   4.106   1.112   4.714 -0.4136  0.0454 -0.0941
 1179SOL    HW114996   4.151   1.186   4.753 -1.5763  0.9126 -0.3843
 1179SOL    HW214997   4.164   1.105   4.638 -1.5369  1.1512 -1.0485
 1180SOL     OW14998   2.287   0.958   0.111  0.6013 -0.5155 -0.5800
 1180SOL    HW114999   2.243   0.875   0.090 -0.1477 -0.3967  0.5354
 1180SOL    HW215000   2.209   1.014   0.114 -0.2565 -1.7324 -0.2869
 1181SOL     OW15001   3.675   1.970   2.750  0.0411  0.1610 -0.0111
 1181SOL    HW115002   3.603   1.918   2.786  0.1080 -0.1485 -0.3259
 1181SOL    HW215003   3.680   1.926   2.665  1.8822  1.1813 -0.4274
 1182SOL     OW15004   3.787   1.709   0.409 -0.2265  0.3066  0.0620
 1182SOL    HW115005   3.864   1.654   0.426  0.4449  0.3124 -2.9131
 1182SOL    HW215006   3.833   1.780   0.365 -0.5535 -0.1303 -0.9841
 1183SOL     OW15007   2.351   0.697   6.962  0.0737  0.2443  0.0381
 1183SOL    HW115008   2.411   0.656   7.024  0.5652  0.0691 -0.5541
 1183SOL    HW215009   2.398   0.705   6.879 -0.7145 -1.1241 -0.5445
 1184SOL     OW15010   0.643   2.057  17.668  0.1250  0.0424 -0.5021
 1184SOL    HW115011   0.615   1.971   0.002 -0.5539  0.9656  1.4921
 1184SOL    HW215012   0.550   2.080  17.663  0.2170  0.7242  0.8308
 1185SOL     OW15013   0.425   1.362  11.567  0.1129  0.1292  0.3635
 1185SOL    HW115014   0.413   1.321  11.481 -2.1585  0.9483  0.2746
 1185SOL    HW215015   0.415   1.281  11.617  0.1454  0.4780  0.9280
 1186SOL     OW15016   3.853   4.522   6.083 -0.1823 -0.4805  0.1494
 1186SOL    HW115017   3.898   4.595   6.041  0.8172 -0.8421  0.5922
 1186SOL    HW215018   3.923   4.485   6.137  1.6350 -0.8499 -2.4839
 1187SOL     OW15019   1.845   0.875   6.174 -0.3879  0.3811  0.0660
 1187SOL    HW115020   1.796   0.807   6.127 -0.8254  0.1788  0.8258
 1187SOL    HW215021   1.862   0.836   6.260 -1.0988 -0.9746 -0.4061
 1188SOL     OW15022   1.838   2.905   4.804 -0.9959  0.5808 -0.0034
 1188SOL    HW115023   1.772   2.849   4.762 -1.4052 -0.6195  2.2614
 1188SOL    HW215024   1.849   2.963   4.729 -1.1572 -0.6586 -1.0018
 1189SOL     OW15025   0.376   2.606   2.804  0.1938  0.4719 -0.1524
 1189SOL    HW115026   0.367   2.604   2.899  0.4101 -1.2387 -0.1628
 1189SOL    HW215027   0.301   2.659   2.777  0.3180  0.7185 -0.0100
 1190SOL     OW15028   4.198   0.428   8.237  0.2275 -0.2584  0.8324
 1190SOL    HW115029   4.123   0.396   8.287 -0.7659 -0.2312 -0.6259
 1190SOL    HW215030   4.152   0.487   8.176  0.1407 -1.7345 -0.5353
 1191SOL     OW15031   1.891   1.170   7.194 -0.0507 -0.0253 -0.1576
 1191SOL    HW115032   1.798   1.165   7.216 -0.3617  0.8077 -1.2830
 1191SOL    HW215033   1.876   1.176   7.100  0.1492  2.0358 -0.0483
 1192SOL     OW15034   3.236   0.390   3.191 -0.2109 -0.1799 -0.3500
 1192SOL    HW115035   3.180   0.315   3.173 -0.3970 -0.4151  1.1803
 1192SOL    HW215036   3.193   0.464   3.149 -0.0734  0.0237 -0.1300
 1193SOL     OW15037   2.121   2.447  16.054  0.0335  0.1574  0.0501
 1193SOL    HW115038   2.206   2.430  16.013  0.3853  1.5065  0.2368
 1193SOL    HW215039   2.143   2.513  16.120  0.7886 -1.8347  1.7829
 1194SOL     OW15040   3.364   2.570   2.021  0.4478 -0.2073 -0.4957
 1194SOL    HW115041   3.379   2.659   2.053  1.4833 -0.3756 -0.4986
 1194SOL    HW215042   3.317   2.530   2.094 -0.3411  0.6759 -0.5204
 1195SOL     OW15043   3.784   2.686  15.802 -0.2497  0.4309  0.3380
 1195SOL    HW115044   3.730   2.620  15.844  0.3736 -0.7953 -0.8076
 1195SOL    HW215045   3.837   2.731  15.868  2.7801 -0.6323 -1.4048
 1196SOL     OW15046   1.457   2.226   0.641  0.4231 -0.0509  0.4502
 1196SOL    HW115047   1.449   2.216   0.546 -0.3034 -1.7706  0.6958
 1196SOL    HW215048   1.512   2.303   0.627 -0.2265  0.2170 -0.6526
 1197SOL     OW15049   0.587   1.600  15.236 -0.3022 -0.4444  0.3100
 1197SOL    HW115050   0.514   1.541  15.254 -0.2781 -0.6161 -0.1553
 1197SOL    HW215051   0.542   1.683  15.255 -1.6222 -0.8843 -0.8685
 1198SOL     OW15052   1.377   2.969  15.952  0.2287 -0.0443  0.4250
 1198SOL    HW115053   1.448   2.938  15.897 -0.3943 -0.3488 -0.2098
 1198SOL    HW215054   1.310   2.904  15.930  1.5104  0.0133 -3.6322
 1199SOL     OW15055   2.092   4.498  15.914  0.0003 -0.0712  0.4950
 1199SOL    HW115056   2.148   4.495  15.837 -1.9120  1.8699 -0.9759
 1199SOL    HW215057   2.111   4.586  15.946  0.8255 -0.7492  1.8886
 1200SOL     OW15058   0.476   3.750   8.033 -0.0214  0.5625  0.0049
 1200SOL    HW115059   0.463   3.658   8.007  0.0025  0.4965  0.2342
 1200SOL    HW215060   0.539   3.750   8.104 -1.1281 -1.3097  0.9852
 1201SOL     OW15061   1.204   4.711   8.677  0.0487  0.3380 -0.4255
 1201SOL    HW115062   1.231   0.017   8.590  0.7284  1.1218  0.0580
 1201SOL    HW215063   1.275   0.016   8.734 -1.3181  0.6222  1.1536
 1202SOL     OW15064   1.297   3.918  15.087 -0.0740 -0.3696  0.0107
 1202SOL    HW115065   1.267   3.864  15.160 -1.0833  0.5222  0.2555
 1202SOL    HW215066   1.374   3.956  15.130  0.5293 -1.4623 -0.1131
 1203SOL     OW15067   4.423   3.461   3.824 -0.2169  0.0888 -0.1791
 1203SOL    HW115068   4.440   3.466   3.730  0.3890 -0.1241 -0.0830
 1203SOL    HW215069   4.496   3.402   3.842 -0.9929 -0.9231 -0.3642
 1204SOL     OW15070   3.461   3.930  12.301 -0.2128  0.3568  0.0471
 1204SOL    HW115071   3.394   3.979  12.253  0.4865  0.2558 -1.0288
 1204SOL    HW215072   3.459   3.968  12.389 -1.2256  0.6600 -0.1072
 1205SOL     OW15073   0.736   3.373  16.125 -0.4208  0.0010 -0.7829
 1205SOL    HW115074   0.671   3.444  16.133  0.6791  1.0146 -0.7979
 1205SOL    HW215075   0.783   3.374  16.208  1.1776 -1.8106 -1.6735
 1206SOL     OW15076   3.400   4.360   6.807  0.3779 -0.4687  0.3907
 1206SOL    HW115077   3.353   4.389   6.885  0.0503 -1.0453  0.4146
 1206SOL    HW215078   3.330   4.303   6.774 -0.3651 -0.4192  1.8652
 1207SOL     OW15079   3.256   4.488   5.200  0.3589  0.4177 -0.8808
 1207SOL    HW115080   3.295   4.572   5.225 -0.5824  0.8936 -1.0136
 1207SOL    HW215081   3.336   4.437   5.184  1.3456  1.8909 -0.6560
 1208SOL     OW15082   3.221   1.947   3.308  0.8672  0.4182  0.0281
 1208SOL    HW115083   3.130   1.928   3.331  0.8854  0.1502 -0.1159
 1208SOL    HW215084   3.236   1.876   3.246  0.1215  0.3775 -0.1108
 1209SOL     OW15085   2.250   0.625  12.238 -0.2416  0.0368  0.5492
 1209SOL    HW115086   2.294   0.540  12.247 -3.3496 -1.7767 -1.5366
 1209SOL    HW215087   2.285   0.665  12.318  0.6928  2.7086 -1.2027
 1210SOL     OW15088   0.199   2.190   7.000 -0.3890 -0.5142 -0.3847
 1210SOL    HW115089   0.290   2.213   7.019 -0.9810  0.3771  1.3371
 1210SOL    HW215090   0.177   2.249   6.928 -1.6747 -1.9727 -1.1693
 1211SOL     OW15091   2.810   2.801   0.903  0.6602 -0.2783  0.0822
 1211SOL    HW115092   2.900   2.829   0.916  0.0823  1.1662  1.0303
 1211SOL    HW215093   2.821   2.719   0.856 -0.8044 -0.3537 -0.1560
 1212SOL     OW15094   4.198   0.823   9.574  0.2296  0.7810 -0.7530
 1212SOL    HW115095   4.230   0.795   9.660  0.3013  0.5380 -0.8594
 1212SOL    HW215096   4.163   0.737   9.551  0.2476  0.1589  1.5044
 1213SOL     OW15097   0.994   4.629  16.910  0.0322 -0.0054 -0.3000
 1213SOL    HW115098   0.909   4.642  16.869 -1.9638  0.1698  3.9138
 1213SOL    HW215099   1.057   4.661  16.846 -0.6407  0.5716 -0.6727
 1214SOL     OW15100   1.738   2.777  15.282 -0.0314  0.7566  0.2662
 1214SOL    HW115101   1.766   2.793  15.192 -0.4715  2.6123  0.4645
 1214SOL    HW215102   1.703   2.688  15.269  2.4586  0.2190 -2.8825
 1215SOL     OW15103   4.662   0.106   2.711 -0.6277 -0.0537 -0.1706
 1215SOL    HW115104   0.017   0.052   2.698  0.3384  1.3887 -0.2440
 1215SOL    HW215105   4.687   0.198   2.703 -0.4739 -0.2206 -1.5519
 1216SOL     OW15106   4.631   2.172  13.023 -0.0349  0.4265 -0.1005
 1216SOL    HW115107   4.639   2.076  13.026 -0.1209  0.4208 -0.0466
 1216SOL    HW215108   4.720   2.196  12.999  0.6281 -1.3061  0.6268
 1217SOL     OW15109   0.843   4.676   9.154 -0.6615  0.5472  0.1794
 1217SOL    HW115110   0.760   4.656   9.111  0.8940 -1.9866 -1.6674
 1217SOL    HW215111   0.847   0.037   9.110  1.7145  0.2436 -0.1953
 1218SOL     OW15112   1.115   1.041  15.210 -0.3364 -0.5837  0.4991
 1218SOL    HW115113   1.083   1.096  15.139  0.2009  0.9317  1.4466
 1218SOL    HW215114   1.163   0.976  15.157 -0.8917  0.9081 -1.8088
 1219SOL     OW15115   3.190   1.994  12.741 -0.2911  0.0277  0.0508
 1219SOL    HW115116   3.098   2.007  12.764 -0.3508 -1.7123  0.8098
 1219SOL    HW215117   3.194   2.020  12.649  1.6862 -3.5689 -0.8778
 1220SOL     OW15118   0.089   2.006   1.082  0.3029 -0.0896 -0.5591
 1220SOL    HW115119   0.097   2.022   1.176 -0.2594  0.5127 -0.6102
 1220SOL    HW215120   0.162   1.945   1.073  1.5105  1.5102 -1.5849
 1221SOL     OW15121   0.567   4.616  11.984 -0.5920  0.0099 -0.3699
 1221SOL    HW115122   0.539   4.621  11.893  0.3532 -1.5672 -0.7614
 1221SOL    HW215123   0.609   4.530  11.990 -0.2560  0.3955  2.6506
 1222SOL     OW15124   2.323   3.701   2.504 -0.0293 -0.0415 -0.1665
 1222SOL    HW115125   2.404   3.745   2.477  0.3200 -1.0557 -0.7519
 1222SOL    HW215126   2.359   3.614   2.520 -0.0814 -0.4131 -2.0806
 1223SOL     OW15127   3.629   3.996   7.990 -0.4469  0.2089  0.0738
 1223SOL    HW115128   3.656   3.929   8.052  0.8858  0.7731  0.1174
 1223SOL    HW215129   3.594   3.945   7.917  1.1395 -0.2439 -0.3803
 1224SOL     OW15130   2.039   1.726   8.138  0.0860 -0.3832  0.4013
 1224SOL    HW115131   2.006   1.729   8.048  1.2419  0.5411  0.0090
 1224SOL    HW215132   2.019   1.813   8.174 -3.0857 -1.9765  2.4551
 1225SOL     OW15133   1.879   0.267  14.388  0.5489 -0.1028  0.2327
 1225SOL    HW115134   1.797   0.304  14.420  0.1218 -1.2834  0.4974
 1225SOL    HW215135   1.844   0.192  14.340 -0.8953  0.2494  0.7293
 1226SOL     OW15136   3.014   1.480  12.092  0.3806 -0.0333  0.0552
 1226SOL    HW115137   2.921   1.485  12.073  0.7322  4.3577 -0.5129
 1226SOL    HW215138   3.052   1.411  12.038  0.3121  0.4472 -0.6006
 1227SOL     OW15139   0.909   1.528   1.741  0.3932  0.1801  0.1572
 1227SOL    HW115140   0.944   1.528   1.652 -0.1688  0.4301 -0.0620
 1227SOL    HW215141   0.839   1.465   1.728  2.0571 -1.3360 -1.3671
 1228SOL     OW15142   1.186   4.460  17.529 -0.4002  0.0665 -0.4630
 1228SOL    HW115143   1.242   4.382  17.527 -0.5870 -0.1363  3.0429
 1228SOL    HW215144   1.118   4.435  17.466 -2.2483 -1.5641  2.1479
 1229SOL     OW15145   2.938   3.697   1.378 -0.3764 -0.2623 -0.3758
 1229SOL    HW115146   2.984   3.619   1.411 -1.4024 -0.8812 -0.4311
 1229SOL    HW215147   2.850   3.664   1.365 -0.7614 -0.0993  1.7237
 1230SOL     OW15148   0.084   0.692   9.806  0.9002  0.2949 -0.4870
 1230SOL    HW115149   4.714   0.712   9.811  0.8880  0.2491 -0.5293
 1230SOL    HW215150   0.114   0.718   9.893 -0.0944  0.8422 -0.3113
 1231SOL     OW15151   3.399   1.628   6.941  0.1426 -0.5542 -0.0896
 1231SOL    HW115152   3.385   1.605   7.033 -0.0580  0.2765  0.0900
 1231SOL    HW215153   3.327   1.574   6.908  0.4177 -1.3110  0.5425
 1232SOL     OW15154   4.113   3.422   2.617 -0.1491  0.1525  0.5270
 1232SOL    HW115155   4.121   3.444   2.524 -1.9522 -0.1692  0.2927
 1232SOL    HW215156   4.082   3.503   2.657 -1.9117 -0.7374  0.9486
 1233SOL     OW15157   2.484   3.244   6.641 -0.1281 -0.1248  0.0926
 1233SOL    HW115158   2.487   3.339   6.655 -0.0083 -0.0975 -0.1065
 1233SOL    HW215159   2.578   3.228   6.631 -0.0989  1.4050 -2.1284
 1234SOL     OW15160   3.394   0.117  16.097 -0.0551 -0.5186 -0.0954
 1234SOL    HW115161   3.460   0.144  16.161 -0.3512  1.0491 -0.4489
 1234SOL    HW215162   3.414   0.025  16.084 -2.3848 -0.8328 -1.3600
 1235SOL     OW15163   1.669   2.000   8.846 -0.5764  0.2313  0.7659
 1235SOL    HW115164   1.615   1.927   8.813  2.6619 -0.4853 -2.9755
 1235SOL    HW215165   1.699   1.946   8.919 -0.1421 -1.0613 -0.3700
 1236SOL     OW15166   0.601   1.188  17.331 -0.0356 -0.5214 -0.0658
 1236SOL    HW115167   0.609   1.095  17.354 -0.3036  0.1161  2.6596
 1236SOL    HW215168   0.629   1.186  17.240  0.1705  2.1657 -0.0496
 1237SOL     OW15169   3.345   4.481  16.159  0.4797 -0.1941 -0.0797
 1237SOL    HW115170   3.371   4.392  16.136  1.0505 -0.6238  2.2246
 1237SOL    HW215171   3.279   4.488  16.090 -0.9179 -0.7515  1.1929
 1238SOL     OW15172   1.179   3.807  10.540 -0.7367  0.1704  0.2458
 1238SOL    HW115173   1.141   3.738  10.594  1.9052 -2.1006 -0.8076
 1238SOL    HW215174   1.267   3.770  10.535 -0.5132  0.5902  0.9616
 1239SOL     OW15175   0.074   0.151   0.141 -0.0262 -0.0246  0.1761
 1239SOL    HW115176   0.141   0.122   0.202  0.7820  0.0237 -0.6842
 1239SOL    HW215177   4.722   0.139   0.198 -1.5711 -0.9495 -2.0785
 1240SOL     OW15178   1.149   0.615   3.318 -0.1240 -0.5248  0.3663
 1240SOL    HW115179   1.089   0.610   3.243 -1.0971 -1.6365  1.2367
 1240SOL    HW215180   1.199   0.534   3.308 -1.7068 -1.1735 -2.4365
 1241SOL     OW15181   3.412   0.773   6.974  0.0024 -0.1167 -0.8875
 1241SOL    HW115182   3.392   0.849   7.028  3.3568 -0.3118  0.6160
 1241SOL    HW215183   3.494   0.803   6.935  0.7383 -0.6181  0.2872
 1242SOL     OW15184   0.301   2.698   1.557  0.2037  0.1216 -0.0468
 1242SOL    HW115185   0.214   2.663   1.539  0.2912 -0.8760  1.4309
 1242SOL    HW215186   0.345   2.670   1.477  2.3948  0.6957  0.9569
 1243SOL     OW15187   4.621   0.803  11.297  0.1373 -0.1623 -0.2656
 1243SOL    HW115188   4.584   0.819  11.211  1.5241 -0.3564 -0.8911
 1243SOL    HW215189   4.639   0.891  11.329 -0.5190  0.9377 -2.9462
 1244SOL     OW15190   3.246   1.520   3.991  0.1185 -0.1282 -0.2393
 1244SOL    HW115191   3.233   1.426   4.001 -2.1943  0.2181  0.0280
 1244SOL    HW215192   3.317   1.528   4.055  2.3117  0.6982 -2.7864
 1245SOL     OW15193   4.344   2.444  16.184 -0.4043  0.1361 -0.0390
 1245SOL    HW115194   4.306   2.475  16.265  1.2075 -1.7217  1.4291
 1245SOL    HW215195   4.294   2.363  16.170  0.7458 -0.7697  1.1113
 1246SOL     OW15196   1.126   3.909   3.815  0.3493  0.1356  0.3744
 1246SOL    HW115197   1.142   3.910   3.910 -1.2926 -0.0177  0.6563
 1246SOL    HW215198   1.195   3.967   3.785  1.6021 -2.2423 -1.3401
 1247SOL     OW15199   2.649   4.205  12.783 -0.3242  0.2885  0.2185
 1247SOL    HW115200   2.737   4.175  12.760 -0.4158 -0.1245  0.3997
 1247SOL    HW215201   2.611   4.201  12.695  0.9471 -0.3636 -0.2991
 1248SOL     OW15202   1.972   1.851  11.694  0.3451  0.0340 -0.2390
 1248SOL    HW115203   1.980   1.897  11.611 -1.7862 -0.2637 -0.6180
 1248SOL    HW215204   1.898   1.795  11.668 -0.6680 -0.3695  3.5314
 1249SOL     OW15205   4.222   3.814  14.219 -0.1369  0.2123  0.2288
 1249SOL    HW115206   4.230   3.886  14.281  0.7469 -0.6905  1.1600
 1249SOL    HW215207   4.130   3.810  14.193  0.5650 -0.0954 -2.2083
 1250SOL     OW15208   2.791   2.257   7.645 -0.1505 -0.0376  0.3542
 1250SOL    HW115209   2.799   2.239   7.739 -0.5956  0.1618  0.4334
 1250SOL    HW215210   2.695   2.255   7.647 -0.2048  1.9099 -0.0895
 1251SOL     OW15211   0.298   3.473   4.212  0.4309 -0.2681 -0.4652
 1251SOL    HW115212   0.298   3.381   4.185 -1.7504 -1.2468  2.8843
 1251SOL    HW215213   0.304   3.473   4.307  1.1278  2.0535 -0.5170
 1252SOL     OW15214   2.716   4.338   9.072  0.4503 -0.1228  0.4007
 1252SOL    HW115215   2.700   4.419   9.024  2.3250  0.4306  0.7248
 1252SOL    HW215216   2.811   4.336   9.068  0.3780  0.1785 -1.3646
 1253SOL     OW15217   2.693   3.310  14.476 -0.0709  0.3330 -0.1473
 1253SOL    HW115218   2.729   3.350  14.555  0.2045 -1.4355  0.6242
 1253SOL    HW215219   2.768   3.254  14.455  1.1571  1.9617 -0.1688
 1254SOL     OW15220   4.351   3.731   3.127 -0.3349 -0.1653 -0.2101
 1254SOL    HW115221   4.424   3.792   3.141  1.9368 -3.4755  2.3935
 1254SOL    HW215222   4.340   3.729   3.032 -4.7436 -1.0406  0.3199
 1255SOL     OW15223   4.243   2.102   0.862  0.1829  0.2226 -0.4414
 1255SOL    HW115224   4.177   2.169   0.845  2.7307  2.6091 -0.9022
 1255SOL    HW215225   4.190   2.023   0.853 -0.7301  0.8440 -0.4811
 1256SOL     OW15226   1.667   2.317   7.051 -0.0982 -0.2698 -0.0817
 1256SOL    HW115227   1.571   2.315   7.053 -0.1725  0.7138 -2.3181
 1256SOL    HW215228   1.694   2.276   7.133  1.9215 -2.4465 -1.8497
 1257SOL     OW15229   3.209   2.400   2.501 -0.3738  0.3250 -0.6544
 1257SOL    HW115230   3.122   2.409   2.542  0.4856  1.2913  0.9464
 1257SOL    HW215231   3.213   2.305   2.518 -2.0175  0.3098 -0.3415
 1258SOL     OW15232   0.410   2.573   0.850  0.8483 -0.2417 -0.2539
 1258SOL    HW115233   0.337   2.514   0.868  0.0437  0.9229  0.3464
 1258SOL    HW215234   0.366   2.658   0.851 -0.9427 -1.1767  0.2863
 1259SOL     OW15235   4.655   0.471  17.513 -0.1972  0.3573  1.0740
 1259SOL    HW115236   4.690   0.555  17.481  1.0404 -0.9578 -1.0406
 1259SOL    HW215237   0.015   0.448  17.555  0.6165 -0.8838 -1.2488
 1260SOL     OW15238   3.740   1.790   3.178 -0.4479  0.3515  0.3871
 1260SOL    HW115239   3.773   1.700   3.177 -0.4469  0.3761 -1.4619
 1260SOL    HW215240   3.663   1.780   3.234 -0.4588  1.0658  0.4989
 1261SOL     OW15241   3.063   0.975   3.183 -0.5270  0.5645  0.5436
 1261SOL    HW115242   2.987   0.917   3.173 -0.1853 -0.1357  1.9808
 1261SOL    HW215243   3.128   0.940   3.122 -2.2069 -2.4151  0.4380
 1262SOL     OW15244   4.512   2.169  15.552 -0.0233  0.7067  0.6182
 1262SOL    HW115245   4.504   2.264  15.565  0.4106  1.2057 -2.6933
 1262SOL    HW215246   4.588   2.165  15.494 -0.8886  0.5741 -0.5075
 1263SOL     OW15247   2.101   1.610  11.074  0.1386  0.1280  0.1204
 1263SOL    HW115248   2.029   1.548  11.088  0.5950 -0.4546 -0.1096
 1263SOL    HW215249   2.180   1.562  11.100  1.3106  1.6096 -0.7329
 1264SOL     OW15250   3.068   3.664   0.522  0.5594 -0.1903  0.6749
 1264SOL    HW115251   3.102   3.746   0.557  1.6661 -0.6607  0.6970
 1264SOL    HW215252   3.125   3.598   0.560  2.2101 -0.3864 -2.1603
 1265SOL     OW15253   4.353   3.390   0.552 -0.0886  0.3316 -0.3616
 1265SOL    HW115254   4.375   3.482   0.533 -1.7223  1.0789  1.3972
 1265SOL    HW215255   4.274   3.361   0.506 -0.3689  0.0909  0.2813
 1266SOL     OW15256   4.287   2.582   7.853 -0.5474  0.5051  0.0240
 1266SOL    HW115257   4.271   2.524   7.778  1.3801  3.0538 -2.3590
 1266SOL    HW215258   4.237   2.660   7.831  0.7645  1.5491  0.7498
 1267SOL     OW15259   0.331   1.682   3.974 -0.1050  0.3843  0.1696
 1267SOL    HW115260   0.369   1.746   4.035  1.6755 -0.2203 -0.2870
 1267SOL    HW215261   0.245   1.721   3.961 -0.0132  1.0234  1.4328
 1268SOL     OW15262   2.383   4.658   8.213  0.3850 -0.3353 -0.6122
 1268SOL    HW115263   2.409   4.689   8.126 -0.2229  1.5346 -0.1362
 1268SOL    HW215264   2.457   4.682   8.268 -0.9715  0.7459  0.7505
 1269SOL     OW15265   4.215   1.205   3.475  0.3281 -0.2330  0.2287
 1269SOL    HW115266   4.180   1.130   3.427 -0.8289  1.4178 -1.5039
 1269SOL    HW215267   4.174   1.189   3.560 -3.5075  0.0412 -1.5968
 1270SOL     OW15268   4.405   4.492   3.147 -0.4477 -0.6782  0.2758
 1270SOL    HW115269   4.393   4.586   3.133  2.4552 -0.4994 -0.9674
 1270SOL    HW215270   4.485   4.473   3.098  0.7956  2.0734  1.2055
 1271SOL     OW15271   0.295   3.276  12.766 -0.2797  0.2270 -0.2842
 1271SOL    HW115272   0.321   3.285  12.674  0.5774 -2.4588 -0.3091
 1271SOL    HW215273   0.372   3.235  12.805 -1.5955 -0.2606  1.7907
 1272SOL     OW15274   4.467   2.838   8.429 -0.2704 -0.0516  0.2832
 1272SOL    HW115275   4.489   2.836   8.522 -0.5891 -0.2479  0.3582
 1272SOL    HW215276   4.488   2.746   8.410 -0.2562 -0.0408  0.2484
 1273SOL     OW15277   0.755   2.519   4.669  0.4276 -0.5639  0.1670
 1273SOL    HW115278   0.687   2.477   4.722  0.8058  1.0433  1.9067
 1273SOL    HW215279   0.737   2.470   4.589 -4.2045 -0.3631  1.1172
 1274SOL     OW15280   0.996   0.794   8.130  0.1368  0.4037 -0.3147
 1274SOL    HW115281   1.052   0.717   8.118 -0.5731  0.1214 -1.7925
 1274SOL    HW215282   1.063   0.855   8.161  0.0386 -1.0407  2.6800
 1275SOL     OW15283   0.806   0.778   7.930  0.0384  0.1353 -0.5096
 1275SOL    HW115284   0.860   0.780   8.009  1.6130 -1.4504 -1.5487
 1275SOL    HW215285   0.716   0.763   7.957 -0.2297  2.8913  0.1308
 1276SOL     OW15286   3.390   2.367  16.307  0.5162  0.3945 -0.1271
 1276SOL    HW115287   3.299   2.371  16.279  0.1357 -1.7367  0.8708
 1276SOL    HW215288   3.415   2.360  16.214  2.0599  1.6176  0.1845
 1277SOL     OW15289   4.367   1.129   0.907  0.3659  0.9000 -1.1191
 1277SOL    HW115290   4.448   1.179   0.917  0.3982  1.0090 -1.9248
 1277SOL    HW215291   4.316   1.185   0.965  0.3109 -0.6649  0.3430
 1278SOL     OW15292   3.169   4.552   8.719 -0.5596  0.6046 -0.1533
 1278SOL    HW115293   3.189   4.460   8.707 -1.8046  0.2160  0.7781
 1278SOL    HW215294   3.240   4.574   8.780 -0.4587 -0.9969  0.2953
 1279SOL     OW15295   2.782   2.384   2.573 -0.1401  0.9079  0.2522
 1279SOL    HW115296   2.856   2.372   2.632  0.3251 -0.1426 -0.5384
 1279SOL    HW215297   2.717   2.426   2.629 -0.6171  0.4017  0.0908
 1280SOL     OW15298   0.528   0.176   5.979  0.3790 -0.2532 -0.1834
 1280SOL    HW115299   0.488   0.210   5.899 -0.8663  0.4535  0.7323
 1280SOL    HW215300   0.485   0.091   5.984  0.2517 -0.0969  1.4929
 1281SOL     OW15301   2.006   0.270   7.125  0.1461 -0.3113 -0.1743
 1281SOL    HW115302   1.968   0.327   7.191  0.8013  0.6150 -0.6019
 1281SOL    HW215303   1.975   0.183   7.151 -2.0426 -0.1536 -2.2873
 1282SOL     OW15304   2.190   2.294   6.089  0.2913 -0.2234  0.1586
 1282SOL    HW115305   2.175   2.202   6.066 -2.2151  0.2555 -0.1411
 1282SOL    HW215306   2.271   2.277   6.138  1.0017  0.8061 -0.6730
 1283SOL     OW15307   4.080   3.645  11.737  0.2978 -0.4056  1.0078
 1283SOL    HW115308   4.092   3.590  11.660  0.8510  1.3510 -0.1520
 1283SOL    HW215309   4.001   3.617  11.784 -0.5025 -0.4539 -0.3982
 1284SOL     OW15310   1.811   4.070   5.804 -0.2345  0.3978  0.0987
 1284SOL    HW115311   1.719   4.081   5.781 -0.2661  3.0132  1.4929
 1284SOL    HW215312   1.864   4.130   5.752  0.3555 -0.6357 -0.5067
 1285SOL     OW15313   3.435   1.186   1.753 -0.0527  0.5132  0.2629
 1285SOL    HW115314   3.418   1.136   1.833  1.9938 -0.5430  0.0553
 1285SOL    HW215315   3.389   1.126   1.694 -0.9921  0.7966  0.7072
 1286SOL     OW15316   2.885   2.351  15.265 -0.4698  0.3781 -0.2301
 1286SOL    HW115317   2.810   2.341  15.206  0.3739  0.1521 -1.2747
 1286SOL    HW215318   2.947   2.286  15.232  0.1699  0.9695 -0.1910
 1287SOL     OW15319   1.916   2.786   5.185 -0.0265 -0.1639 -0.4994
 1287SOL    HW115320   1.994   2.733   5.203  0.1415 -0.7849 -2.9559
 1287SOL    HW215321   1.892   2.803   5.276 -0.0626 -0.2816 -0.4861
 1288SOL     OW15322   0.344   0.979  11.995  0.0972 -0.1221  0.0499
 1288SOL    HW115323   0.356   0.914  11.926 -0.5804 -1.1405  0.8909
 1288SOL    HW215324   0.396   0.954  12.071 -0.2388 -0.3075  0.2196
 1289SOL     OW15325   4.445   0.273   7.650  0.3610  0.5433 -0.6448
 1289SOL    HW115326   4.454   0.239   7.561  1.6234  1.6811 -0.9569
 1289SOL    HW215327   4.535   0.297   7.674 -0.2137 -0.4272  2.5121
 1290SOL     OW15328   4.356   0.643  11.706  0.2623 -0.1062 -0.1019
 1290SOL    HW115329   4.392   0.730  11.724  0.7718  0.0013 -1.6687
 1290SOL    HW215330   4.412   0.602  11.640 -0.4813 -1.4589  0.1199
 1291SOL     OW15331   4.030   3.915   8.201 -0.4479  0.4615 -0.0106
 1291SOL    HW115332   4.118   3.907   8.164  0.3861 -0.9660  2.2819
 1291SOL    HW215333   4.014   4.008   8.186  1.0485  0.6591 -0.3393
 1292SOL     OW15334   0.834   0.545   4.558 -0.0692  0.8434 -0.6830
 1292SOL    HW115335   0.819   0.458   4.520 -0.5033  0.0557  1.2992
 1292SOL    HW215336   0.790   0.543   4.643 -0.9117  0.5167 -1.1386
 1293SOL     OW15337   3.800   4.360  16.737  0.5276 -0.0316 -0.4656
 1293SOL    HW115338   3.782   4.397  16.823  1.1906 -0.5213 -0.1179
 1293SOL    HW215339   3.891   4.335  16.751  0.4539 -0.6432 -1.0824
 1294SOL     OW15340   3.334   2.507   5.502  0.0184  0.1677  1.0057
 1294SOL    HW115341   3.384   2.431   5.470  1.1149  0.5862  1.7206
 1294SOL    HW215342   3.363   2.580   5.447 -0.0398 -0.6671 -0.1413
 1295SOL     OW15343   0.812   1.467  11.169 -0.2945 -0.1115 -0.6526
 1295SOL    HW115344   0.775   1.443  11.254  0.4860 -2.7500 -1.0669
 1295SOL    HW215345   0.779   1.556  11.178 -1.8947 -0.8785  1.2250
 1296SOL     OW15346   2.001   3.051   0.988  0.1675  0.4449  0.4765
 1296SOL    HW115347   2.021   2.966   1.027  1.4239  0.1899 -0.7253
 1296SOL    HW215348   2.056   3.115   1.033 -0.9685 -0.3263  2.9756
 1297SOL     OW15349   3.960   2.679   4.235  0.0781  0.3433 -0.6118
 1297SOL    HW115350   3.878   2.711   4.196 -1.0109 -0.4723  1.0017
 1297SOL    HW215351   4.019   2.746   4.201  0.4186 -0.9469 -2.5895
 1298SOL     OW15352   1.700   1.965   6.299 -0.3022  0.2850 -0.3397
 1298SOL    HW115353   1.749   1.895   6.341 -0.5077  0.4522  0.1749
 1298SOL    HW215354   1.619   1.917   6.279 -0.7503  0.8190  0.2003
 1299SOL     OW15355   1.823   3.124   4.636 -0.3200 -0.6571 -0.1939
 1299SOL    HW115356   1.842   3.215   4.659  3.3723 -1.3675 -0.4649
 1299SOL    HW215357   1.844   3.120   4.543  1.7764 -1.3500  0.3088
 1300SOL     OW15358   3.963   2.153  11.926 -0.1275 -0.0138 -0.5893
 1300SOL    HW115359   3.996   2.110  12.004  0.0161  0.0020 -0.6412
 1300SOL    HW215360   3.937   2.238  11.961  0.8352  1.0090 -2.3507
 1301SOL     OW15361   1.739   1.457  14.456  0.1808 -0.1239 -0.2514
 1301SOL    HW115362   1.725   1.414  14.372 -0.6898  0.0337 -0.1923
 1301SOL    HW215363   1.649   1.472  14.486  0.7026 -0.2613  1.3863
 1302SOL     OW15364   4.597   2.933   0.277 -0.1522 -0.7352 -0.5222
 1302SOL    HW115365   4.602   2.881   0.197 -0.5054  1.5928 -2.0452
 1302SOL    HW215366   4.686   2.963   0.297 -1.3047  0.2416  3.1173
 1303SOL     OW15367   2.012   2.513   8.358  0.0844 -0.2821 -0.3736
 1303SOL    HW115368   2.071   2.467   8.417  0.0050 -0.9528 -0.8237
 1303SOL    HW215369   2.077   2.552   8.299 -0.3181 -0.4356 -0.9222
 1304SOL     OW15370   1.894   3.094  12.570  0.0459  0.3711 -0.0877
 1304SOL    HW115371   1.924   3.135  12.652 -0.7843 -0.1197  0.4646
 1304SOL    HW215372   1.806   3.127  12.587  0.2762  0.4640  0.9296
 1305SOL     OW15373   4.009   1.936   0.806  0.2319  0.1210 -0.0808
 1305SOL    HW115374   3.929   1.965   0.849  0.3766  1.3412 -0.6316
 1305SOL    HW215375   3.986   1.845   0.787  0.5865  0.2518 -1.1878
 1306SOL     OW15376   1.831   1.018  15.870 -0.3374 -0.1197  0.3175
 1306SOL    HW115377   1.784   0.936  15.877  0.1444 -0.4939 -0.7912
 1306SOL    HW215378   1.917   1.000  15.909  0.0064  0.8912  0.0386
 1307SOL     OW15379   3.098   0.109  16.096 -0.4242 -0.4048  0.3302
 1307SOL    HW115380   3.175   0.165  16.084 -2.4691  1.6714 -3.2453
 1307SOL    HW215381   3.120   0.060  16.017  0.9402 -0.3248  0.6541
 1308SOL     OW15382   2.446   2.296   1.740  0.4906  0.1052 -0.3546
 1308SOL    HW115383   2.385   2.232   1.704 -0.0980 -0.1691  1.1351
 1308SOL    HW215384   2.400   2.318   1.820 -2.2476  0.2158 -1.9554
 1309SOL     OW15385   3.912   4.373   4.553  0.3612  0.6344 -0.0546
 1309SOL    HW115386   3.896   4.333   4.467 -0.8998 -0.3984  0.6613
 1309SOL    HW215387   4.006   4.358   4.557  0.4178  0.7499 -0.8120
 1310SOL     OW15388   3.766   1.820   3.847  0.2438 -0.3098  0.2248
 1310SOL    HW115389   3.839   1.781   3.799  0.1973  0.2069 -0.2603
 1310SOL    HW215390   3.694   1.834   3.785 -1.3634  2.4776  2.7253
 1311SOL     OW15391   2.986   3.886  11.536 -0.0994 -0.2706 -0.8882
 1311SOL    HW115392   2.991   3.797  11.572  1.1470  1.2419  2.6405
 1311SOL    HW215393   2.987   3.855  11.445  0.7033  0.2661 -1.0658
 1312SOL     OW15394   1.036   4.136  14.441  0.2478  0.6713 -0.1032
 1312SOL    HW115395   1.107   4.175  14.492 -1.0387  1.4026  1.1460
 1312SOL    HW215396   1.012   4.203  14.377 -0.1489  0.8740  0.2519
 1313SOL     OW15397   1.564   2.647   0.866  0.6713  0.4855 -0.0952
 1313SOL    HW115398   1.646   2.636   0.914  1.3753  0.7865 -1.2211
 1313SOL    HW215399   1.503   2.602   0.924  1.3886  1.4748  1.4220
 1314SOL     OW15400   4.486   2.454   7.447  0.7018  0.2525 -0.4205
 1314SOL    HW115401   4.504   2.487   7.359  0.4521  0.2067 -0.4878
 1314SOL    HW215402   4.529   2.369   7.439 -0.4263 -0.3060 -0.6213
 1315SOL     OW15403   1.275   1.029   6.608 -0.1632  0.1566  0.1655
 1315SOL    HW115404   1.256   1.101   6.668  0.0234  1.1840 -0.9927
 1315SOL    HW215405   1.183   1.013   6.586 -0.6675  1.8183  1.1067
 1316SOL     OW15406   1.259   0.099   0.620  0.2100 -0.1259 -0.3013
 1316SOL    HW115407   1.310   0.108   0.539 -0.7013 -0.6918 -0.9422
 1316SOL    HW215408   1.184   0.043   0.599 -0.1042  0.0964  0.2429
 1317SOL     OW15409   2.589   4.481  11.318  0.5020  0.5280  0.3232
 1317SOL    HW115410   2.556   4.397  11.287 -0.4350  0.6414  1.0062
 1317SOL    HW215411   2.567   4.481  11.411 -1.5308  2.0072 -0.1506
 1318SOL     OW15412   0.369   4.647   4.136  0.0299  0.1839 -0.6965
 1318SOL    HW115413   0.314   0.001   4.132  0.1754  0.1175 -3.5782
 1318SOL    HW215414   0.356   4.602   4.053  0.2990 -0.0684 -0.6004
 1319SOL     OW15415   2.414   2.537   2.222 -0.0591 -0.0666 -0.2103
 1319SOL    HW115416   2.339   2.561   2.277 -0.2138 -0.0521 -0.4247
 1319SOL    HW215417   2.448   2.453   2.252 -1.8410 -0.0659  1.8472
 1320SOL     OW15418   1.165   2.842   1.128  0.8952  0.1245 -0.0653
 1320SOL    HW115419   1.148   2.802   1.042  1.6879 -1.6765  0.6229
 1320SOL    HW215420   1.147   2.933   1.105 -1.5242  0.0799  1.5626
 1321SOL     OW15421   0.085   3.234   3.663 -0.4333  0.0615  0.4211
 1321SOL    HW115422   0.172   3.227   3.703 -0.4476  1.1928  0.6278
 1321SOL    HW215423   0.102   3.289   3.587  1.6837 -2.2183 -0.7594
 1322SOL     OW15424   3.731   2.686   8.067  0.1707 -0.2779 -0.2691
 1322SOL    HW115425   3.798   2.690   7.999 -1.2467  0.0126 -1.6540
 1322SOL    HW215426   3.778   2.640   8.136 -0.3728  0.4906  0.6218
 1323SOL     OW15427   4.298   1.151  10.081  0.2663 -0.4474 -0.3695
 1323SOL    HW115428   4.212   1.145  10.123 -0.0622  1.6741 -0.7183
 1323SOL    HW215429   4.343   1.200  10.150  0.0808  0.3815 -0.8409
 1324SOL     OW15430   4.134   3.511   7.705  0.4162  0.3738 -1.0820
 1324SOL    HW115431   4.188   3.536   7.779  1.1737 -2.4667 -0.6703
 1324SOL    HW215432   4.044   3.510   7.739  0.7089  1.0584 -0.2841
 1325SOL     OW15433   0.874   1.145   5.033 -0.0159  0.2226 -0.1857
 1325SOL    HW115434   0.935   1.145   4.959  0.9077  0.0720  0.5663
 1325SOL    HW215435   0.860   1.231   5.071  3.3072  0.7022 -0.0429
 1326SOL     OW15436   0.964   0.145   7.191 -0.3544  0.0073  0.4122
 1326SOL    HW115437   0.929   0.059   7.165  1.0530  0.1747 -2.0632
 1326SOL    HW215438   0.952   0.202   7.115 -0.7860 -0.7383 -0.0883
 1327SOL     OW15439   0.797   0.116   3.032 -0.3897  0.2497 -0.2875
 1327SOL    HW115440   0.804   0.129   2.938 -0.1230  1.0078 -0.1637
 1327SOL    HW215441   0.763   0.027   3.036 -0.2348  0.2771  1.9061
 1328SOL     OW15442   0.374   2.561   9.905 -0.2870  0.2159 -0.1770
 1328SOL    HW115443   0.427   2.504   9.850  0.7460  2.3500 -1.3936
 1328SOL    HW215444   0.353   2.499   9.975 -3.3071  0.0862 -1.1882
 1329SOL     OW15445   3.805   1.576   9.117 -0.0701  0.5527 -0.0733
 1329SOL    HW115446   3.743   1.515   9.077  0.7600 -0.4595  0.1627
 1329SOL    HW215447   3.760   1.660   9.123  1.0831  1.1968 -0.6425
 1330SOL     OW15448   2.613   1.430   3.045 -0.0733  0.8901 -0.0864
 1330SOL    HW115449   2.615   1.362   2.978  4.4425 -0.7878  1.7277
 1330SOL    HW215450   2.610   1.509   2.991  2.0253 -0.2037 -1.8052
 1331SOL     OW15451   4.227   1.286   4.175  0.1576 -0.8332 -0.3491
 1331SOL    HW115452   4.189   1.373   4.161  2.1268 -0.2147 -1.7174
 1331SOL    HW215453   4.212   1.253   4.087 -2.7223 -0.0341 -0.1548
 1332SOL     OW15454   4.121   0.611   1.918  0.2986 -0.3748  0.2028
 1332SOL    HW115455   4.034   0.641   1.943  0.9836 -0.8472  3.2446
 1332SOL    HW215456   4.176   0.681   1.954  2.0813 -1.5725 -0.1457
 1333SOL     OW15457   0.421   1.814   8.127 -0.9203  0.0333 -0.1037
 1333SOL    HW115458   0.462   1.741   8.079  1.8804  1.7359 -0.3454
 1333SOL    HW215459   0.491   1.879   8.115 -0.2523 -1.0145 -2.0219
 1334SOL     OW15460   0.771   1.166  11.616  0.4762 -0.3943  0.3496
 1334SOL    HW115461   0.738   1.250  11.651  2.4048  0.1576  0.8142
 1334SOL    HW215462   0.699   1.104  11.627  0.9035 -0.6859  1.5095
 1335SOL     OW15463   3.648   2.062   4.613  0.4221 -0.5939 -0.1958
 1335SOL    HW115464   3.682   2.013   4.688  3.2289  0.5400 -0.7224
 1335SOL    HW215465   3.728   2.100   4.577  1.5446 -1.3355  1.5154
 1336SOL     OW15466   0.935   0.621   3.758  0.0587  0.2386 -0.2052
 1336SOL    HW115467   0.890   0.551   3.711  0.3848  1.2596 -2.0390
 1336SOL    HW215468   1.008   0.643   3.701  0.0341 -2.2403 -1.2133
 1337SOL     OW15469   3.922   2.383   7.860  0.2067  0.2496 -0.2837
 1337SOL    HW115470   3.910   2.477   7.852 -3.3975 -0.0277  2.0442
 1337SOL    HW215471   4.015   2.369   7.841  0.3718 -0.0896  0.7407
 1338SOL     OW15472   4.448   2.363   8.400  0.0429  0.0962 -0.4242
 1338SOL    HW115473   4.380   2.403   8.345 -1.0113 -3.2227 -1.5776
 1338SOL    HW215474   4.399   2.283   8.422 -1.5308  1.5914  1.5456
 1339SOL     OW15475   3.509   2.662  16.102 -0.0784  0.5075  0.0133
 1339SOL    HW115476   3.571   2.628  16.037  1.9042  2.2890  0.9848
 1339SOL    HW215477   3.570   2.676  16.174 -0.4727  1.1947  0.2118
 1340SOL     OW15478   0.807   3.671   7.832 -0.2453  0.3444  0.0958
 1340SOL    HW115479   0.826   3.589   7.877 -1.4312  0.0871  0.1196
 1340SOL    HW215480   0.721   3.657   7.792  0.7529  2.1062 -2.6411
 1341SOL     OW15481   4.610   3.969   0.027 -0.2232 -0.0684  0.1719
 1341SOL    HW115482   4.563   3.950  17.644  2.5873  2.1362 -2.0198
 1341SOL    HW215483   4.664   4.037  17.683 -2.8801  1.4988 -0.7491
 1342SOL     OW15484   4.338   1.369   8.025 -0.7196  0.2563 -0.1738
 1342SOL    HW115485   4.410   1.348   7.965 -1.8032  1.2799 -1.8172
 1342SOL    HW215486   4.265   1.327   7.980  1.7728 -2.7271 -1.4221
 1343SOL     OW15487   3.796   3.938   7.522 -0.2380  0.2150 -0.6442
 1343SOL    HW115488   3.888   3.944   7.493  0.1908  1.5695  1.0154
 1343SOL    HW215489   3.761   4.026   7.535 -1.3772 -0.3114 -0.2420
 1344SOL     OW15490   0.677   1.250   4.623 -0.1468  0.5268 -0.3173
 1344SOL    HW115491   0.634   1.194   4.558  1.9729 -0.5695 -0.7723
 1344SOL    HW215492   0.728   1.185   4.671  0.7751 -0.0741 -2.0995
 1345SOL     OW15493   1.889   1.315   9.263 -0.3383 -0.2097  0.0334
 1345SOL    HW115494   1.811   1.367   9.280 -0.2707 -0.4909  1.2097
 1345SOL    HW215495   1.935   1.306   9.347  0.8352 -0.9979 -0.6894
 1346SOL     OW15496   4.556   2.801  11.992 -0.2840  0.1112  0.1596
 1346SOL    HW115497   4.518   2.758  11.915 -0.2123 -0.4936  0.4611
 1346SOL    HW215498   4.647   2.812  11.966  0.4374 -1.0293  2.2513
 1347SOL     OW15499   4.483   0.100   8.072  0.3285  0.2613 -0.3396
 1347SOL    HW115500   4.443   0.056   8.147  1.2465  0.5058  0.3084
 1347SOL    HW215501   4.423   0.086   8.000  0.4821  0.9760 -0.6071
 1348SOL     OW15502   4.385   3.230  11.866  0.1508  0.1233 -0.3989
 1348SOL    HW115503   4.305   3.253  11.911  0.0276 -0.9843 -0.0508
 1348SOL    HW215504   4.446   3.192  11.929  0.9924  1.3855 -0.4438
 1349SOL     OW15505   3.040   4.415   4.637 -0.2173 -0.0594 -0.5151
 1349SOL    HW115506   3.050   4.320   4.633 -0.1452 -0.0362 -0.8664
 1349SOL    HW215507   3.069   4.428   4.728  0.6222  0.0415 -0.7977
 1350SOL     OW15508   4.356   1.126  14.204 -0.2004  0.1006  0.1318
 1350SOL    HW115509   4.341   1.037  14.236  0.3529  0.4291  1.3050
 1350SOL    HW215510   4.272   1.170  14.212 -0.0597  0.0202  1.9558
 1351SOL     OW15511   2.399   2.942  17.512  0.4181  0.3698  0.0703
 1351SOL    HW115512   2.380   2.925  17.604 -0.8379  1.6374  0.0332
 1351SOL    HW215513   2.389   3.038  17.515 -2.4179  0.0917 -0.7118
 1352SOL     OW15514   1.151   3.495   5.939 -0.5395 -0.2472 -0.2190
 1352SOL    HW115515   1.123   3.407   5.967 -1.1542  0.5875  1.7761
 1352SOL    HW215516   1.128   3.488   5.847 -1.7230  0.2444  0.0398
 1353SOL     OW15517   0.371   0.528   2.162 -0.0813 -0.0620 -0.0313
 1353SOL    HW115518   0.348   0.576   2.082  1.6354  1.7029  0.5422
 1353SOL    HW215519   0.336   0.442   2.140 -1.1775  0.3536  0.0529
 1354SOL     OW15520   2.653   2.965   2.357  0.4511  0.1980  0.0406
 1354SOL    HW115521   2.582   3.027   2.374  2.1125  2.1987 -0.3160
 1354SOL    HW215522   2.619   2.941   2.270 -2.0158 -1.0968  1.3448
 1355SOL     OW15523   3.255   1.544   4.831 -0.0031  0.4513 -0.4950
 1355SOL    HW115524   3.291   1.483   4.895 -1.3695 -0.4534 -0.5980
 1355SOL    HW215525   3.170   1.573   4.864 -0.4683  0.5675 -1.7964
 1356SOL     OW15526   2.204   2.581   2.418 -0.2520 -0.0338  0.1343
 1356SOL    HW115527   2.108   2.576   2.411 -0.0952 -0.9534 -1.2592
 1356SOL    HW215528   2.214   2.676   2.418 -1.9132  0.1463  2.9593
 1357SOL     OW15529   0.944   1.402   5.540 -0.1039 -0.4186  0.2875
 1357SOL    HW115530   0.948   1.311   5.570  2.4390 -0.4408 -0.0960
 1357SOL    HW215531   0.940   1.453   5.621  0.0238  1.3531 -0.8207
 1358SOL     OW15532   1.447   2.444   1.790 -0.0888  0.2383  0.7970
 1358SOL    HW115533   1.456   2.387   1.713 -2.6461 -0.9148  1.3387
 1358SOL    HW215534   1.355   2.472   1.788  0.0589  0.7168  0.7200
 1359SOL     OW15535   4.279   1.088  11.169  0.4810 -0.6071 -0.1006
 1359SOL    HW115536   4.237   1.015  11.123  0.5259 -1.9998  2.0553
 1359SOL    HW215537   4.233   1.083  11.253  1.7758  0.3340  0.6484
 1360SOL     OW15538   4.380   2.193   6.091  0.0188  0.6646  0.3443
 1360SOL    HW115539   4.305   2.250   6.076 -0.5990 -0.5694 -1.1607
 1360SOL    HW215540   4.374   2.121   6.029 -1.3414  0.7661  0.3689
 1361SOL     OW15541   3.116   0.157  11.892 -0.1594 -0.9047 -0.0305
 1361SOL    HW115542   3.184   0.201  11.943  0.1355  0.0217 -1.2130
 1361SOL    HW215543   3.042   0.151  11.951 -1.3605  0.9871 -1.3558
 1362SOL     OW15544   0.969   1.394  17.571 -0.2238  0.7044  0.1062
 1362SOL    HW115545   0.934   1.380  17.483  0.5856  0.4599 -0.1755
 1362SOL    HW215546   0.953   1.488  17.562  0.9730  0.7133 -1.9817
 1363SOL     OW15547   3.454   2.171  16.070 -0.3204 -0.0875  0.2018
 1363SOL    HW115548   3.485   2.084  16.097 -2.5842 -0.6469  1.0548
 1363SOL    HW215549   3.450   2.161  15.975 -0.6699 -0.2530  0.2309
 1364SOL     OW15550   3.514   4.133  15.531  0.2290 -0.1671  0.5425
 1364SOL    HW115551   3.524   4.046  15.493  1.3531  0.2111  0.0090
 1364SOL    HW215552   3.579   4.176  15.476 -0.5328  0.2978  0.0079
 1365SOL     OW15553   1.762   2.678  16.348 -0.3057  0.5032  0.1294
 1365SOL    HW115554   1.820   2.678  16.272  0.1493  0.4690  0.4766
 1365SOL    HW215555   1.763   2.585  16.374  0.7032  1.3435  3.1253
 1366SOL     OW15556   4.429   1.984   7.476 -0.9452  0.1498 -0.0002
 1366SOL    HW115557   4.414   1.901   7.431 -2.7032  1.6539 -2.2021
 1366SOL    HW215558   4.353   1.990   7.534 -0.6867  1.0552  0.2413
 1367SOL     OW15559   1.492   0.385  11.795  0.2744  0.3692 -0.3172
 1367SOL    HW115560   1.561   0.450  11.803  0.6115 -0.1004  0.5758
 1367SOL    HW215561   1.521   0.321  11.860 -0.0564  0.0700 -0.4614
 1368SOL     OW15562   1.117   1.089   2.284 -0.1430 -0.0014 -0.8171
 1368SOL    HW115563   1.035   1.051   2.318 -0.2505  0.8040 -0.1904
 1368SOL    HW215564   1.091   1.181   2.280 -2.0460 -0.5543 -1.1857
 1369SOL     OW15565   4.249   3.123   0.593  0.3321  0.3372  0.2125
 1369SOL    HW115566   4.281   3.196   0.647  0.3982  0.0088  0.6108
 1369SOL    HW215567   4.162   3.157   0.572  0.2977  1.1106  1.5867
 1370SOL     OW15568   2.458   3.124  16.866 -0.8069 -0.6630  0.0191
 1370SOL    HW115569   2.479   3.132  16.959  0.4875  0.1757 -0.3530
 1370SOL    HW215570   2.396   3.051  16.863 -1.4333 -0.1621  0.9282
 1371SOL     OW15571   4.376   1.773   6.083  0.5789 -0.3335 -0.2404
 1371SOL    HW115572   4.424   1.692   6.068  0.4657 -0.4917  0.2502
 1371SOL    HW215573   4.362   1.772   6.178 -0.2755 -4.2921 -0.3991
 1372SOL     OW15574   3.588   1.133  13.420  0.1630 -1.0257  0.0395
 1372SOL    HW115575   3.635   1.182  13.352 -0.7767 -1.3327 -0.8388
 1372SOL    HW215576   3.647   1.058  13.429  1.1617 -0.6076 -3.0451
 1373SOL     OW15577   1.023   2.720  11.928  0.8136  0.6796 -0.0008
 1373SOL    HW115578   0.958   2.776  11.886  0.0748  0.7191  1.1957
 1373SOL    HW215579   1.042   2.781  11.999 -1.1617 -0.3140  1.3822
 1374SOL     OW15580   0.444   1.889  15.584  0.1350  0.1867 -0.0836
 1374SOL    HW115581   0.430   1.807  15.632 -0.7138  0.7160  0.5828
 1374SOL    HW215582   0.513   1.935  15.632 -0.4220 -0.2648  1.1514
 1375SOL     OW15583   4.110   3.604   8.858 -0.0820 -0.0702 -0.2528
 1375SOL    HW115584   4.180   3.624   8.920 -1.2497  0.8562  0.7728
 1375SOL    HW215585   4.069   3.527   8.897 -1.0150  0.4962 -0.0984
 1376SOL     OW15586   0.880   2.990   3.257 -0.1926 -0.5328 -0.7379
 1376SOL    HW115587   0.846   2.929   3.192 -0.7755 -1.2173  0.2080
 1376SOL    HW215588   0.832   3.071   3.239  2.0846  1.1677  0.7775
 1377SOL     OW15589   3.197   0.325   8.538  0.2064 -0.0820 -0.6649
 1377SOL    HW115590   3.261   0.381   8.582 -0.6063 -0.3201  0.8086
 1377SOL    HW215591   3.109   0.355   8.557  0.1558 -0.4942 -0.2411
 1378SOL     OW15592   1.887   3.227   9.391  0.1390 -0.1082  0.2039
 1378SOL    HW115593   1.795   3.253   9.389 -0.0649 -0.8750 -0.3270
 1378SOL    HW215594   1.874   3.148   9.338 -0.3175  1.1529 -1.5656
 1379SOL     OW15595   2.936   0.439   0.268  0.3975 -0.2561 -0.1685
 1379SOL    HW115596   2.959   0.488   0.347 -1.2883  1.6477 -0.8469
 1379SOL    HW215597   2.878   0.503   0.226  1.0482 -0.1762 -0.9478
 1380SOL     OW15598   0.750   2.708   4.418 -0.3978 -0.3046 -0.1304
 1380SOL    HW115599   0.807   2.781   4.440 -0.4551 -0.4160  0.4069
 1380SOL    HW215600   0.741   2.674   4.508  0.7893 -1.2407 -0.3661
 1381SOL     OW15601   3.116   1.207   7.945 -0.5465 -0.0519 -0.0230
 1381SOL    HW115602   3.025   1.188   7.966 -0.5946  1.1950  0.8981
 1381SOL    HW215603   3.128   1.134   7.883 -1.5443 -1.9595  2.0476
 1382SOL     OW15604   1.576   2.888  11.043 -0.3328 -0.8905 -0.0213
 1382SOL    HW115605   1.594   2.851  11.129  0.2000  0.3046  0.3771
 1382SOL    HW215606   1.662   2.925  11.025 -0.7692  0.0047 -0.2928
 1383SOL     OW15607   3.064   4.583   1.420  0.5045  0.6116  0.2890
 1383SOL    HW115608   3.022   4.624   1.496  0.5612 -2.1728  1.8189
 1383SOL    HW215609   3.157   4.602   1.433  0.6722  0.3649 -0.5478
 1384SOL     OW15610   0.396   0.252   5.728 -0.2275  0.5465  0.8096
 1384SOL    HW115611   0.371   0.335   5.768 -1.5434  0.6025 -0.1316
 1384SOL    HW215612   0.352   0.239   5.644  1.5293  2.0750 -0.3242
 1385SOL     OW15613   2.600   0.778   8.349 -0.0367 -0.3634 -0.2940
 1385SOL    HW115614   2.535   0.818   8.407  0.6861 -1.7129  1.4212
 1385SOL    HW215615   2.679   0.783   8.403 -0.9591 -2.1771  1.2157
 1386SOL     OW15616   2.829   0.503   3.834 -0.0790 -0.1302  0.0941
 1386SOL    HW115617   2.818   0.474   3.744 -0.7946 -0.5735  0.3171
 1386SOL    HW215618   2.817   0.419   3.878 -1.7691 -0.0277 -0.1546
 1387SOL     OW15619   2.983   2.136  16.080  0.1233 -0.1380  0.4174
 1387SOL    HW115620   3.036   2.207  16.114  0.8137 -0.4173 -0.0735
 1387SOL    HW215621   3.003   2.129  15.986 -1.2579 -0.4206  0.1433
 1388SOL     OW15622   4.670   4.239  15.351 -0.0209 -0.4340  0.8133
 1388SOL    HW115623   0.012   4.173  15.375  0.6458  0.7395  2.2630
 1388SOL    HW215624   4.677   4.210  15.260 -3.1135 -0.5002  0.6120
 1389SOL     OW15625   3.162   1.364   6.222 -0.1309  0.4833  0.5459
 1389SOL    HW115626   3.238   1.367   6.281  0.3064 -0.5431  0.0268
 1389SOL    HW215627   3.140   1.457   6.221  1.8125  0.9290 -0.2263
 1390SOL     OW15628   0.813   1.291   1.641 -0.0551  0.3360  0.1942
 1390SOL    HW115629   0.727   1.285   1.599 -0.3471 -0.2258  0.8770
 1390SOL    HW215630   0.834   1.198   1.657 -3.9217 -0.1751  2.1281
 1391SOL     OW15631   3.526   2.547  14.500  0.5847 -0.4227 -0.7887
 1391SOL    HW115632   3.474   2.624  14.478  0.5457  0.1374  1.2072
 1391SOL    HW215633   3.456   2.483  14.488 -0.6847  0.3110  2.7576
 1392SOL     OW15634   3.435   4.245   8.952  0.5413 -0.4097 -0.6653
 1392SOL    HW115635   3.434   4.288   9.037  0.6566  1.8529 -1.8133
 1392SOL    HW215636   3.528   4.222   8.944  1.8041  3.9834  1.2053
 1393SOL     OW15637   0.452   4.686   4.608  0.1292  0.0813 -0.4242
 1393SOL    HW115638   0.470   0.010   4.689  0.1472  2.2277 -1.6939
 1393SOL    HW215639   0.449   0.030   4.541  0.3932  0.1373 -0.3817
 1394SOL     OW15640   2.627   4.099   4.817  0.1797 -0.5813 -0.1081
 1394SOL    HW115641   2.670   4.078   4.899 -0.1746 -0.1044  0.1945
 1394SOL    HW215642   2.701   4.118   4.760  1.0847  0.2943  1.3760
 1395SOL     OW15643   1.079   4.520   0.157 -0.3404  0.1039  0.1602
 1395SOL    HW115644   1.129   4.514   0.239 -0.2016  0.6644  0.1188
 1395SOL    HW215645   0.994   4.551   0.189  0.4885 -0.3343  2.7827
 1396SOL     OW15646   4.197   3.586  13.042 -0.2181 -0.9223 -0.0352
 1396SOL    HW115647   4.214   3.502  13.085  0.3671 -0.4744  0.6136
 1396SOL    HW215648   4.102   3.575  13.042 -0.2648 -0.4454 -1.7280
 1397SOL     OW15649   2.030   1.147  15.213 -0.1508 -0.2927 -0.1783
 1397SOL    HW115650   2.073   1.186  15.137 -0.2000  0.1064 -0.0001
 1397SOL    HW215651   2.074   1.061  15.212  0.3918 -0.0284  0.7467
 1398SOL     OW15652   1.875   4.014   2.606 -0.2760 -0.5091 -0.3578
 1398SOL    HW115653   1.921   4.032   2.688 -1.3605 -2.8348  0.7464
 1398SOL    HW215654   1.945   4.013   2.541  0.0607 -0.2524  0.0018
 1399SOL     OW15655   0.332   4.006   6.125  0.1506 -0.3632 -0.0704
 1399SOL    HW115656   0.238   3.992   6.120  0.0241  0.8819 -1.0723
 1399SOL    HW215657   0.356   4.033   6.036  0.7576 -1.5274 -0.2660
 1400SOL     OW15658   2.084   3.288   5.009 -0.3105 -0.1730  0.6521
 1400SOL    HW115659   2.039   3.322   5.086  0.5644 -0.0388  1.1100
 1400SOL    HW215660   2.086   3.193   5.021 -1.0423 -0.5886 -2.4677
 1401SOL     OW15661   3.695   4.723   6.621 -0.5422  0.0103 -0.3606
 1401SOL    HW115662   3.676   4.636   6.656 -2.1464 -0.2511 -1.9024
 1401SOL    HW215663   3.674   0.057   6.694 -1.0863 -0.5873 -0.0447
 1402SOL     OW15664   0.171   0.269   2.964  0.1784  0.3162  0.0099
 1402SOL    HW115665   0.201   0.179   2.982  2.2595  0.6542 -1.7572
 1402SOL    HW215666   0.094   0.279   3.020  0.1215  0.1859 -0.0458
 1403SOL     OW15667   3.290   3.702   8.312  0.3522  0.3094 -0.3569
 1403SOL    HW115668   3.357   3.770   8.301  0.3919  0.2450 -0.5067
 1403SOL    HW215669   3.336   3.635   8.363  4.7192  3.7067  0.2155
 1404SOL     OW15670   1.732   2.175   8.311 -0.3752  0.2134  0.2575
 1404SOL    HW115671   1.734   2.268   8.288 -1.6968  0.0996 -0.2727
 1404SOL    HW215672   1.644   2.170   8.348  0.2093  0.0309  1.6543
 1405SOL     OW15673   0.559   3.634   4.350  0.6301 -0.6357 -0.0327
 1405SOL    HW115674   0.571   3.729   4.361  2.4775 -0.6250 -2.2345
 1405SOL    HW215675   0.540   3.628   4.257  0.9730 -1.1146 -0.0700
 1406SOL     OW15676   2.174   1.554   2.724  0.5010 -0.0787 -0.8112
 1406SOL    HW115677   2.184   1.482   2.788  1.0128 -0.4072 -1.2547
 1406SOL    HW215678   2.085   1.583   2.741 -0.3660 -2.7806 -0.6610
 1407SOL     OW15679   1.208   4.659  15.325 -0.4981  0.2798 -0.4369
 1407SOL    HW115680   1.255   0.008  15.367 -1.0021  0.6197 -0.4727
 1407SOL    HW215681   1.266   4.587  15.351  0.6631  2.2062  2.4199
 1408SOL     OW15682   1.339   0.756   4.620  0.0293 -0.4169  0.4523
 1408SOL    HW115683   1.391   0.754   4.701  0.6218  0.7069  0.1020
 1408SOL    HW215684   1.272   0.691   4.639 -1.3497  0.8348 -0.1911
 1409SOL     OW15685   3.429   1.855   8.035 -0.2669 -0.0449  0.5488
 1409SOL    HW115686   3.394   1.883   7.951  0.4240  0.9499  0.5947
 1409SOL    HW215687   3.513   1.898   8.053 -0.4304  0.4679  0.0958
 1410SOL     OW15688   0.631   1.945  15.885  0.1329 -0.1503 -0.2455
 1410SOL    HW115689   0.667   1.891  15.955 -0.6974  0.2927  0.5222
 1410SOL    HW215690   0.639   1.881  15.815  3.0090 -1.2308  1.0612
 1411SOL     OW15691   1.103   1.372   5.298 -0.3650 -0.2204 -0.1428
 1411SOL    HW115692   1.143   1.456   5.323 -1.5331  1.1722 -3.0370
 1411SOL    HW215693   1.045   1.367   5.374 -0.2786  1.5082  0.0340
 1412SOL     OW15694   1.465   0.970   0.476  0.7054  0.4951  0.0995
 1412SOL    HW115695   1.517   0.892   0.495 -1.2342 -0.6178  0.8640
 1412SOL    HW215696   1.432   0.962   0.386  0.8854  0.1301  0.0653
 1413SOL     OW15697   4.090   3.914   0.630 -0.2345  0.0685  0.5733
 1413SOL    HW115698   4.046   3.925   0.546  0.5294  0.5586  0.2360
 1413SOL    HW215699   4.019   3.860   0.665 -0.5881  0.6198  0.7067
 1414SOL     OW15700   3.381   2.060   4.060 -0.0583  0.1739  0.3273
 1414SOL    HW115701   3.436   2.137   4.073 -0.4944  0.9288 -2.4410
 1414SOL    HW215702   3.316   2.075   4.129 -1.6042 -1.0857 -0.8677
 1415SOL     OW15703   4.137   0.578   9.432 -0.4895 -0.4367 -0.7413
 1415SOL    HW115704   4.073   0.611   9.369  1.1239  0.9126 -1.6948
 1415SOL    HW215705   4.197   0.526   9.378  1.5265  1.5296 -0.3806
 1416SOL     OW15706   0.393   4.500   8.352 -0.0538  0.3702 -0.0602
 1416SOL    HW115707   0.398   4.443   8.275  3.0293  0.3798  0.1194
 1416SOL    HW215708   0.378   4.440   8.425  2.2558 -1.2527 -0.9049
 1417SOL     OW15709   4.670   0.564   6.338  0.0305 -0.1686  0.2132
 1417SOL    HW115710   4.591   0.566   6.284  0.8984 -1.2627 -1.0904
 1417SOL    HW215711   4.666   0.637   6.399  1.0324  1.0668 -1.2031
 1418SOL     OW15712   1.073   2.267  17.522 -0.0485  0.1306 -0.1860
 1418SOL    HW115713   1.050   2.331  17.590 -0.1394  1.3816 -1.3906
 1418SOL    HW215714   0.990   2.226  17.497 -0.0641 -1.4796  2.6005
 1419SOL     OW15715   4.382   2.866   2.207 -0.8839  0.0768 -0.0882
 1419SOL    HW115716   4.439   2.862   2.131 -1.9179 -1.3580 -0.7732
 1419SOL    HW215717   4.346   2.955   2.211 -0.6599  0.0953  1.5594
 1420SOL     OW15718   2.086   4.654   8.178 -0.3125 -0.3639  0.4866
 1420SOL    HW115719   2.180   4.673   8.184 -0.4479  0.8726 -1.3465
 1420SOL    HW215720   2.091   4.559   8.187 -0.2079 -0.3735  0.3229
 1421SOL     OW15721   0.594   2.115   9.913 -0.2363  0.0672  0.2768
 1421SOL    HW115722   0.651   2.050   9.955  0.3753  0.9091  0.7319
 1421SOL    HW215723   0.511   2.068   9.926 -0.8002  0.4073 -2.1079
 1422SOL     OW15724   1.734   0.409   3.632 -0.0706 -0.1594 -0.4651
 1422SOL    HW115725   1.686   0.484   3.667 -0.3291  0.0577 -1.2805
 1422SOL    HW215726   1.816   0.459   3.636  0.1973 -0.7647  1.4955
 1423SOL     OW15727   0.240   0.882   0.514 -0.4192  0.3029 -0.1011
 1423SOL    HW115728   0.176   0.873   0.444 -1.3798  1.1166  0.6710
 1423SOL    HW215729   0.198   0.840   0.589  1.8010  0.3343  1.1889
 1424SOL     OW15730   0.355   1.384   7.313 -0.0242 -0.4459 -0.2359
 1424SOL    HW115731   0.329   1.401   7.223  0.6055  2.9722  0.2241
 1424SOL    HW215732   0.416   1.312   7.298 -1.3927 -1.6708  0.1200
 1425SOL     OW15733   0.786   0.073  13.841  0.3749 -0.1660 -0.1341
 1425SOL    HW115734   0.714   0.061  13.903  0.1236  0.9078 -0.2211
 1425SOL    HW215735   0.860   0.076  13.902  0.2202 -1.5348  0.1140
 1426SOL     OW15736   0.903   1.821   2.884  0.1591 -0.2120 -0.6596
 1426SOL    HW115737   0.854   1.881   2.941 -1.6927  1.6688 -4.1948
 1426SOL    HW215738   0.986   1.866   2.864  0.5858 -1.2026 -1.0804
 1427SOL     OW15739   2.447   1.664  16.232 -0.1529  0.5081  0.4879
 1427SOL    HW115740   2.484   1.751  16.248  0.8438 -0.2131  1.9670
 1427SOL    HW215741   2.417   1.671  16.141 -0.2257 -0.6557  0.4177
 1428SOL     OW15742   3.052   0.712   6.099  0.3504  0.2512 -0.8974
 1428SOL    HW115743   3.031   0.786   6.157 -1.7492 -2.5019  1.8263
 1428SOL    HW215744   3.146   0.706   6.119 -0.3116  1.7922  2.6920
 1429SOL     OW15745   4.431   1.287   4.401 -0.2640 -0.6867 -0.2205
 1429SOL    HW115746   4.498   1.320   4.341 -0.2285  2.2920  1.4852
 1429SOL    HW215747   4.366   1.261   4.335  2.1426 -1.1784 -2.3752
 1430SOL     OW15748   1.483   4.047  15.567  0.0061 -0.6815  0.6922
 1430SOL    HW115749   1.545   3.992  15.615  0.9345 -1.1674 -1.0484
 1430SOL    HW215750   1.398   4.018  15.599 -1.0249 -1.0448 -2.3105
 1431SOL     OW15751   3.113   2.930   7.078  0.0504  0.0218 -0.1277
 1431SOL    HW115752   3.110   2.951   6.985  0.6511 -0.5426 -0.2695
 1431SOL    HW215753   3.029   2.885   7.087  0.6670 -0.9132  0.9228
 1432SOL     OW15754   1.240   1.766  10.825  0.0831 -0.0263  0.0782
 1432SOL    HW115755   1.148   1.741  10.828  0.2949 -0.7499  0.3465
 1432SOL    HW215756   1.277   1.685  10.860 -2.8772 -0.7993  1.3529
 1433SOL     OW15757   3.559   1.342   6.164 -0.0899  0.0706 -0.2768
 1433SOL    HW115758   3.576   1.393   6.085 -0.0625 -0.2153 -0.4578
 1433SOL    HW215759   3.480   1.294   6.139 -0.6877  0.2960  1.1318
 1434SOL     OW15760   4.500   3.860  12.539 -0.0001  0.1239  0.2439
 1434SOL    HW115761   4.569   3.894  12.596 -0.0919  1.4081 -0.4251
 1434SOL    HW215762   4.556   3.818  12.473 -0.2130  1.9207 -1.0648
 1435SOL     OW15763   1.898   4.462  14.872  0.2835  0.2049  0.3938
 1435SOL    HW115764   1.984   4.504  14.873 -0.3495  1.5327 -1.8396
 1435SOL    HW215765   1.884   4.444  14.780 -0.7390 -0.2588  0.6412
 1436SOL     OW15766   0.959   0.036   6.043  0.0366  0.2281  0.2064
 1436SOL    HW115767   0.914   0.080   6.115 -0.9369  0.8622 -0.7920
 1436SOL    HW215768   0.915   4.675   6.052 -1.1289  0.8315  0.0811
 1437SOL     OW15769   1.756   2.122  12.899 -0.2165 -0.2676  0.1658
 1437SOL    HW115770   1.813   2.128  12.975 -0.2891 -0.8813  0.2686
 1437SOL    HW215771   1.747   2.213  12.873  2.3617 -0.0596  0.0028
 1438SOL     OW15772   4.326   4.201   5.925  0.0453 -0.4092 -0.1597
 1438SOL    HW115773   4.392   4.262   5.959  0.4684 -1.3159  0.6394
 1438SOL    HW215774   4.316   4.152   6.007 -1.4762  2.0968  1.1837
 1439SOL     OW15775   3.251   1.059  17.579  0.2703  0.8583 -0.0911
 1439SOL    HW115776   3.183   0.998  17.608  2.2725 -0.6012  1.4586
 1439SOL    HW215777   3.227   1.058  17.486  0.3597 -0.7374 -0.1031
 1440SOL     OW15778   0.591   3.533   5.673 -0.1732 -0.0923 -0.1237
 1440SOL    HW115779   0.683   3.538   5.699 -0.0819 -0.8738 -0.2855
 1440SOL    HW215780   0.599   3.538   5.578 -1.6706  0.5734 -0.2212
 1441SOL     OW15781   3.275   2.459  16.883 -0.1861  0.0498  0.2066
 1441SOL    HW115782   3.269   2.380  16.938 -0.2188  0.5899  0.9845
 1441SOL    HW215783   3.340   2.428  16.820  0.0806 -0.7314  0.8643
 1442SOL     OW15784   4.470   4.030   6.585  0.7418 -0.3884  0.4882
 1442SOL    HW115785   4.380   4.003   6.566  0.8562  0.3824 -1.1663
 1442SOL    HW215786   4.452   4.095   6.653 -0.0575 -1.0621  0.9235
 1443SOL     OW15787   4.082   3.680   2.702 -0.1516  0.3774 -0.4040
 1443SOL    HW115788   3.990   3.694   2.727 -0.5874  0.1152 -1.8639
 1443SOL    HW215789   4.100   3.770   2.678  1.5139 -0.5011 -2.3972
 1444SOL     OW15790   2.013   0.255   5.086  0.7186  0.3349 -0.2311
 1444SOL    HW115791   1.927   0.281   5.119  0.2942 -0.1756 -0.9335
 1444SOL    HW215792   2.068   0.329   5.112 -0.4244  1.0707  0.1039
 1445SOL     OW15793   3.085   2.359   5.197 -0.2958 -0.3163 -0.2769
 1445SOL    HW115794   3.047   2.319   5.275  0.8765 -0.8902  0.0054
 1445SOL    HW215795   3.124   2.278   5.162 -0.9837 -1.3135  1.2329
 1446SOL     OW15796   0.824   1.423   5.110  0.1781  0.5118 -0.1594
 1446SOL    HW115797   0.808   1.435   5.203  0.4512 -0.0758 -0.0340
 1446SOL    HW215798   0.746   1.463   5.072 -0.8166  0.1730  1.5209
 1447SOL     OW15799   3.151   1.553   5.701  0.4709 -0.4714 -0.0069
 1447SOL    HW115800   3.131   1.566   5.793 -1.5338 -0.1110 -0.4894
 1447SOL    HW215801   3.184   1.639   5.676 -1.6256  0.9228  2.1474
 1448SOL     OW15802   3.383   2.276  13.547 -0.3928 -0.0212 -0.1638
 1448SOL    HW115803   3.360   2.347  13.487 -3.2093  0.1845  1.2119
 1448SOL    HW215804   3.472   2.257  13.515 -1.1319 -2.4308 -0.8118
 1449SOL     OW15805   0.473   0.552   5.797 -0.1657 -0.0964  0.2262
 1449SOL    HW115806   0.492   0.644   5.781 -1.1697  0.3113  1.3587
 1449SOL    HW215807   0.381   0.549   5.770  0.1476 -1.2450 -0.7207
 1450SOL     OW15808   4.656   4.151  15.078  0.2218  0.1726 -0.2941
 1450SOL    HW115809   4.605   4.148  14.998 -1.1728 -2.9245  0.7369
 1450SOL    HW215810   0.024   4.145  15.051  0.2472 -0.1282 -0.1389
 1451SOL     OW15811   3.083   4.046   8.211 -0.3285 -0.5498  0.3237
 1451SOL    HW115812   3.157   4.021   8.156 -2.0330 -1.3774 -1.6094
 1451SOL    HW215813   3.112   4.135   8.234  1.3247 -0.7319 -1.0653
 1452SOL     OW15814   4.143   1.331  15.036  0.5948  0.4969  0.0789
 1452SOL    HW115815   4.075   1.366  14.978 -1.8878 -1.1655  1.9615
 1452SOL    HW215816   4.195   1.292  14.966  1.3206 -0.2574  1.0356
 1453SOL     OW15817   2.446   0.531   5.897 -0.2708 -0.3165 -0.8514
 1453SOL    HW115818   2.355   0.553   5.878 -0.9476 -1.3687  1.2324
 1453SOL    HW215819   2.432   0.443   5.932  0.7283 -1.3681 -3.0761
 1454SOL     OW15820   4.432   3.880   5.343 -0.7882 -0.0750 -0.0059
 1454SOL    HW115821   4.435   3.914   5.254  2.5403  0.4525  0.3124
 1454SOL    HW215822   4.520   3.844   5.349 -0.5989  0.4899  0.5699
 1455SOL     OW15823   3.635   3.967   6.562  0.5692 -0.2787  0.1452
 1455SOL    HW115824   3.675   3.960   6.648  0.0424 -0.3291  0.3877
 1455SOL    HW215825   3.604   4.058   6.558 -0.6317 -0.7232 -0.7040
 1456SOL     OW15826   4.687   4.165  13.489  0.2352  0.0172  0.1332
 1456SOL    HW115827   0.013   4.242  13.517 -0.3972  0.0744  1.0824
 1456SOL    HW215828   4.623   4.205  13.431  1.2936  2.9318  0.9529
 1457SOL     OW15829   2.420   0.905  17.058 -0.2752 -0.2719 -0.8051
 1457SOL    HW115830   2.338   0.858  17.047 -0.2873 -0.8502  1.8815
 1457SOL    HW215831   2.481   0.832  17.060 -2.2943 -1.9764 -1.7143
 1458SOL     OW15832   3.987   0.623   6.951 -0.1415 -0.0705  0.6429
 1458SOL    HW115833   3.959   0.690   7.013 -0.1029 -0.9430  1.5973
 1458SOL    HW215834   3.957   0.544   6.996 -0.2576 -0.9106 -0.8976
 1459SOL     OW15835   3.751   4.453   5.372 -0.0404 -0.0120  0.3379
 1459SOL    HW115836   3.802   4.391   5.320  1.5679  0.3849  1.4400
 1459SOL    HW215837   3.786   4.415   5.453 -1.1717 -0.7164  0.5058
 1460SOL     OW15838   1.951   2.899   8.371 -0.1015  0.3371  0.5852
 1460SOL    HW115839   2.014   2.938   8.431  1.5808  1.4715 -1.9044
 1460SOL    HW215840   1.892   2.975   8.372  0.7568  1.0203 -0.8367
 1461SOL     OW15841   1.678   2.725   7.767  0.2877  0.5323 -0.5812
 1461SOL    HW115842   1.674   2.751   7.675  2.2525  0.4051 -0.6914
 1461SOL    HW215843   1.590   2.744   7.800  0.0921 -0.2422 -0.6555
 1462SOL     OW15844   1.069   2.954  15.415 -0.4253 -0.2044 -0.4234
 1462SOL    HW115845   1.088   2.863  15.392  0.1434  0.2450 -1.7756
 1462SOL    HW215846   0.981   2.932  15.447 -1.7100  0.9255 -3.1177
 1463SOL     OW15847   4.415   2.036   6.387 -0.5987 -0.3299 -0.2273
 1463SOL    HW115848   4.323   2.048   6.366 -0.4908 -0.1759 -0.6151
 1463SOL    HW215849   4.424   1.942   6.373  0.4917 -0.4376  1.1228
 1464SOL     OW15850   1.718   4.209  16.676  0.0550 -0.5568 -0.8882
 1464SOL    HW115851   1.774   4.235  16.749  2.3994 -2.7463 -1.8712
 1464SOL    HW215852   1.627   4.226  16.699  0.1712  0.6961 -1.3683
 1465SOL     OW15853   2.840   1.338   3.220 -0.3446 -0.4761  0.0459
 1465SOL    HW115854   2.762   1.382   3.185  0.4124  0.0318 -1.0158
 1465SOL    HW215855   2.829   1.245   3.199  1.3547  0.0016 -2.9395
 1466SOL     OW15856   4.010   4.240   5.807  0.1348  0.0504 -0.2628
 1466SOL    HW115857   4.022   4.157   5.763 -1.6811 -0.0345 -0.6165
 1466SOL    HW215858   4.019   4.209   5.897 -1.5898 -0.4871 -0.2800
 1467SOL     OW15859   2.563   2.041   5.928  0.2367  0.2908  0.0043
 1467SOL    HW115860   2.468   2.048   5.938  0.1728 -0.9847  0.2198
 1467SOL    HW215861   2.592   2.077   6.011  3.7929  1.4573 -1.7439
 1468SOL     OW15862   4.418   2.835   1.055 -0.6454  0.2988 -0.4285
 1468SOL    HW115863   4.416   2.836   0.959 -3.3088 -1.6516 -0.3830
 1468SOL    HW215864   4.441   2.745   1.077 -2.6685  0.2402  1.4280
 1469SOL     OW15865   1.602   3.644  10.523 -0.2469 -0.1640  0.1558
 1469SOL    HW115866   1.640   3.661  10.610 -1.3096 -0.9867  0.7810
 1469SOL    HW215867   1.637   3.721  10.478  1.5074 -1.3373 -0.4419
 1470SOL     OW15868   4.018   2.541  10.708 -0.1085  0.1902  0.5059
 1470SOL    HW115869   3.965   2.603  10.659 -0.0026  0.5778  0.8854
 1470SOL    HW215870   3.975   2.459  10.683 -1.1161  0.9781 -0.3335
 1471SOL     OW15871   4.050   4.696   7.696 -0.0594 -0.0456 -0.4224
 1471SOL    HW115872   3.989   0.025   7.748 -1.3556 -0.3863 -1.5975
 1471SOL    HW215873   4.074   0.024   7.619  0.6601 -0.4593 -0.4775
 1472SOL     OW15874   1.738   4.625   4.206  0.3410  0.1653  0.4305
 1472SOL    HW115875   1.789   4.670   4.138 -1.4869  0.8063 -0.5026
 1472SOL    HW215876   1.760   4.532   4.192 -0.6564 -0.0535  0.3359
 1473SOL     OW15877   2.837   0.069   7.133 -0.4578  0.4026  0.0043
 1473SOL    HW115878   2.812   0.127   7.062  0.2717  0.9645  0.2142
 1473SOL    HW215879   2.930   0.048   7.117 -0.3222  0.5232  0.6356
 1474SOL     OW15880   1.341   2.356  12.802 -0.3032  0.4093 -0.1544
 1474SOL    HW115881   1.266   2.309  12.764  0.7816 -1.9424  0.6380
 1474SOL    HW215882   1.401   2.371  12.730 -1.0393  3.1148 -0.2126
 1475SOL     OW15883   3.963   3.759  14.044 -0.1996 -0.0694  0.4307
 1475SOL    HW115884   3.930   3.824  13.982  0.6072 -2.0718 -2.0792
 1475SOL    HW215885   4.010   3.704  13.982 -2.8883  0.2435 -1.8570
 1476SOL     OW15886   2.198   0.543  11.150  0.1311 -0.0887  0.7978
 1476SOL    HW115887   2.264   0.492  11.102  0.5302 -0.3561  1.6245
 1476SOL    HW215888   2.237   0.550  11.238 -0.1144  0.8525  0.8352
 1477SOL     OW15889   2.280   2.845   6.451 -0.1207 -0.2212  0.1095
 1477SOL    HW115890   2.298   2.939   6.446 -1.4638  0.0252 -0.2637
 1477SOL    HW215891   2.233   2.846   6.534 -0.7981 -3.3805 -0.2460
 1478SOL     OW15892   1.051   0.329   6.479 -0.3004  0.4652 -0.2793
 1478SOL    HW115893   0.967   0.376   6.481 -1.3454 -1.3509 -0.5673
 1478SOL    HW215894   1.110   0.389   6.435 -0.2538  0.0723 -0.7573
 1479SOL     OW15895   3.051   4.303   3.576 -0.1956 -0.3759 -0.1151
 1479SOL    HW115896   2.960   4.280   3.590 -0.2390 -0.6531 -0.8437
 1479SOL    HW215897   3.044   4.394   3.548 -0.8880 -0.5381 -0.4520
 1480SOL     OW15898   1.852   2.564   7.591 -0.0283 -0.7806  0.1933
 1480SOL    HW115899   1.863   2.477   7.631  1.7411 -0.7012 -0.1074
 1480SOL    HW215900   1.783   2.599   7.647  2.0867  2.3189  0.8699
 1481SOL     OW15901   2.492   1.941   8.304  0.7031 -0.5664 -0.3146
 1481SOL    HW115902   2.506   1.850   8.279  4.4266  0.4206 -1.7428
 1481SOL    HW215903   2.566   1.964   8.361 -1.0137 -1.2242  2.1894
 1482SOL     OW15904   0.749   1.383  10.914 -0.3192  0.4536 -0.2972
 1482SOL    HW115905   0.781   1.410  11.000 -0.7483 -0.1686  0.0657
 1482SOL    HW215906   0.827   1.356  10.866 -0.1682 -0.5266  0.4743
 1483SOL     OW15907   2.770   1.358   7.659  0.1164 -0.1319 -0.1152
 1483SOL    HW115908   2.858   1.341   7.627  0.1458 -0.0964 -0.0533
 1483SOL    HW215909   2.723   1.362   7.575  0.3287  4.0418 -0.0531
 1484SOL     OW15910   0.163   3.937   4.032 -0.1054 -0.2240 -0.6933
 1484SOL    HW115911   0.132   3.862   4.083 -1.8951  1.5323  0.8042
 1484SOL    HW215912   0.210   3.984   4.101  0.2233  0.6267 -1.4996
 1485SOL     OW15913   3.669   4.394   6.325  0.2457 -0.2758  0.0994
 1485SOL    HW115914   3.627   4.480   6.317 -0.8503 -0.7801  0.4929
 1485SOL    HW215915   3.731   4.395   6.252 -0.0314 -1.3592 -0.1459
 1486SOL     OW15916   2.958   3.846   7.389 -0.5079 -0.2983 -0.3512
 1486SOL    HW115917   2.883   3.788   7.372 -2.4803  2.7011 -1.8388
 1486SOL    HW215918   2.937   3.862   7.481  0.5441  1.7275 -0.4643
 1487SOL     OW15919   1.712   2.368  11.930  0.0534  0.0393 -0.3755
 1487SOL    HW115920   1.644   2.430  11.902  0.9782  0.3977 -1.8010
 1487SOL    HW215921   1.695   2.371  12.024 -0.3188  1.6203 -0.4783
 1488SOL     OW15922   2.550   2.613   6.620 -0.3623  0.5358 -0.6146
 1488SOL    HW115923   2.464   2.575   6.639 -0.5382  0.7272 -1.0100
 1488SOL    HW215924   2.586   2.625   6.708  1.0029  1.2311 -1.2714
 1489SOL     OW15925   1.613   3.506   7.027  0.7804  0.1085 -0.3703
 1489SOL    HW115926   1.543   3.571   7.033 -0.4624 -1.0547 -2.3597
 1489SOL    HW215927   1.662   3.539   7.102  2.1136 -0.3756 -1.0162
 1490SOL     OW15928   1.850   3.027   3.255  0.1897  0.6271 -0.8065
 1490SOL    HW115929   1.883   2.998   3.170  0.7535 -1.4154  0.1158
 1490SOL    HW215930   1.770   2.976   3.270  1.1095 -0.8115 -0.7505
 1491SOL     OW15931   1.930   0.738  12.206  0.0660 -0.5114 -0.3309
 1491SOL    HW115932   1.885   0.674  12.261  0.7546  2.3252  3.5047
 1491SOL    HW215933   1.993   0.783  12.263 -2.3898  0.7564  1.3914
 1492SOL     OW15934   0.731   1.665   4.240 -0.3522  0.5102  0.2951
 1492SOL    HW115935   0.707   1.757   4.246 -0.5608  0.4325  0.6596
 1492SOL    HW215936   0.825   1.674   4.224 -0.3153 -1.5533 -0.6810
 1493SOL     OW15937   2.952   1.754   6.774  0.3307  0.1526 -0.0747
 1493SOL    HW115938   2.945   1.803   6.856 -1.6534 -0.6752  0.2482
 1493SOL    HW215939   2.902   1.676   6.797 -2.3604  2.1352  0.8776
 1494SOL     OW15940   4.090   0.645   1.453 -0.3083 -0.0495 -0.7066
 1494SOL    HW115941   4.015   0.603   1.410 -0.3339 -0.2899 -0.4340
 1494SOL    HW215942   4.155   0.654   1.384 -0.7060  0.7574 -0.9699
 1495SOL     OW15943   4.405   1.763   6.363  0.5126 -0.0081  0.1271
 1495SOL    HW115944   4.382   1.715   6.443  0.2074 -1.7762 -1.0391
 1495SOL    HW215945   4.500   1.756   6.358  0.3032 -2.2683 -0.7679
 1496SOL     OW15946   1.904   4.595  13.142  0.4389 -0.2529 -0.5004
 1496SOL    HW115947   1.858   4.546  13.209 -0.2553  1.7770  0.5245
 1496SOL    HW215948   1.837   4.598  13.075 -1.2549  3.5126  1.3390
 1497SOL     OW15949   1.144   0.610   6.692  0.1693  0.1726 -0.9459
 1497SOL    HW115950   1.055   0.609   6.726  0.5739 -3.5338  0.0220
 1497SOL    HW215951   1.170   0.519   6.703  2.6819  0.8085 -1.4829
 1498SOL     OW15952   4.451   3.584   6.004  0.0423 -0.0975  0.3079
 1498SOL    HW115953   4.535   3.557   5.969 -0.2254  1.2640 -1.3480
 1498SOL    HW215954   4.407   3.596   5.920 -0.9520  1.2008  1.0166
 1499SOL     OW15955   0.300   2.439   4.391  0.0055 -0.4325  0.3484
 1499SOL    HW115956   0.212   2.401   4.386 -1.0130  2.0411 -0.3621
 1499SOL    HW215957   0.340   2.449   4.305 -0.3398 -0.4317  0.1887
 1500SOL     OW15958   1.953   0.662   9.181  0.0629 -0.6374  0.1808
 1500SOL    HW115959   1.993   0.585   9.141  0.9122  0.1882 -0.5512
 1500SOL    HW215960   1.864   0.633   9.201 -0.2766  1.3701  1.6224
 1501SOL     OW15961   0.125   0.723   7.757 -0.1361 -0.0622  0.1809
 1501SOL    HW115962   0.170   0.792   7.805  0.4580 -0.3176 -0.0012
 1501SOL    HW215963   0.060   0.698   7.822  0.9727 -1.5958  0.7093
 1502SOL     OW15964   3.748   2.092  10.133  0.2850 -0.6216  0.1472
 1502SOL    HW115965   3.827   2.083  10.081  0.7686 -3.1144  1.3320
 1502SOL    HW215966   3.685   2.104  10.061  1.3500  1.4338 -0.4228
 1503SOL     OW15967   4.138   3.226   4.536 -0.2646  0.8971 -0.2776
 1503SOL    HW115968   4.124   3.203   4.628  0.2867 -0.4223 -0.5217
 1503SOL    HW215969   4.049   3.237   4.501 -0.2651  1.2420 -0.1691
 1504SOL     OW15970   0.598   3.444   2.620 -0.3592  0.2138 -0.3440
 1504SOL    HW115971   0.553   3.431   2.536  1.4217 -1.8471 -0.9814
 1504SOL    HW215972   0.629   3.355   2.636 -1.2500  0.1861  1.2948
 1505SOL     OW15973   4.304   3.589   2.890  0.2154  0.6092 -0.4293
 1505SOL    HW115974   4.210   3.597   2.870 -0.3003  2.3743  2.6420
 1505SOL    HW215975   4.348   3.614   2.809 -0.9389  0.1073 -1.2095
 1506SOL     OW15976   4.680   2.536   5.106  0.0667  0.2184 -0.1241
 1506SOL    HW115977   4.643   2.526   5.193 -0.0234 -0.3013 -0.2206
 1506SOL    HW215978   4.602   2.533   5.050  0.4567  0.7837 -0.7166
 1507SOL     OW15979   0.468   3.111  14.839  0.1809  0.5428  0.0384
 1507SOL    HW115980   0.520   3.035  14.815 -0.1896  0.8302 -1.7067
 1507SOL    HW215981   0.479   3.167  14.762 -0.9879 -0.5017 -0.8931
 1508SOL     OW15982   3.616   4.228  13.693 -0.0694 -0.0160 -0.3855
 1508SOL    HW115983   3.567   4.310  13.684  0.6800  0.2352 -2.4010
 1508SOL    HW215984   3.630   4.207  13.600 -0.3519  0.1765 -0.4698
 1509SOL     OW15985   0.606   1.420   9.611  0.0535  0.2448  0.5441
 1509SOL    HW115986   0.652   1.478   9.671 -2.1130  0.8367  1.6359
 1509SOL    HW215987   0.677   1.356   9.609 -2.1308 -2.1481 -0.3450
 1510SOL     OW15988   3.885   0.878  12.725  0.3389 -0.1127  0.0304
 1510SOL    HW115989   3.823   0.884  12.652 -1.4715  2.7705  1.7837
 1510SOL    HW215990   3.829   0.838  12.791  1.7385 -1.4725  0.4031
 1511SOL     OW15991   3.682   2.441   6.223 -0.3658  0.0673 -0.3326
 1511SOL    HW115992   3.698   2.486   6.306 -0.6303  0.1131 -0.3060
 1511SOL    HW215993   3.629   2.369   6.258 -1.1685  0.8539  0.0809
 1512SOL     OW15994   0.587   3.207   6.629 -0.0967  0.0546 -0.3409
 1512SOL    HW115995   0.569   3.197   6.722 -2.4522  0.2181 -0.7805
 1512SOL    HW215996   0.497   3.212   6.596 -0.0449  2.6766 -0.0851
 1513SOL     OW15997   2.624   1.564   3.517  0.0709 -0.8586  0.4114
 1513SOL    HW115998   2.696   1.543   3.576  0.0168 -0.9641  0.4384
 1513SOL    HW215999   2.619   1.660   3.520 -2.6016 -1.0264  0.9899
 1514SOL     OW16000   0.350   0.670   5.293 -0.0361  0.1443  0.1400
 1514SOL    HW116001   0.273   0.672   5.349 -0.4029  0.6921 -0.3816
 1514SOL    HW216002   0.352   0.577   5.271 -0.1821  0.4672 -1.2296
 1515SOL     OW16003   1.520   1.846   2.700 -0.0842 -0.1864 -0.0212
 1515SOL    HW116004   1.444   1.788   2.694  1.0329 -1.6842  0.3232
 1515SOL    HW216005   1.481   1.910   2.759  0.5444 -0.8237  1.0878
 1516SOL     OW16006   3.874   2.012   5.023  0.4092  0.0019  0.3003
 1516SOL    HW116007   3.791   2.059   5.020 -0.2161 -1.1045  0.4744
 1516SOL    HW216008   3.930   2.084   4.994  0.1727  0.2057  0.3492
 1517SOL     OW16009   2.625   3.584   6.966  1.1176  0.4262  0.2501
 1517SOL    HW116010   2.567   3.603   7.040 -1.3945 -2.8505 -0.9048
 1517SOL    HW216011   2.557   3.555   6.905  2.0465  1.6885 -1.3844
 1518SOL     OW16012   0.198   2.633   5.516 -0.2995  0.1676 -0.1489
 1518SOL    HW116013   0.184   2.620   5.610 -2.0317 -0.9628 -0.5642
 1518SOL    HW216014   0.227   2.545   5.493 -0.2050  0.3264 -0.6221
 1519SOL     OW16015   3.048   4.504   7.617  0.2072 -0.1561  0.4154
 1519SOL    HW116016   3.053   4.560   7.695  2.3891  0.4729 -0.1925
 1519SOL    HW216017   2.962   4.530   7.584  0.6671 -0.1456 -0.7756
 1520SOL     OW16018   2.003   0.184   3.917  0.7739  0.3251  0.0025
 1520SOL    HW116019   1.987   0.260   3.862  0.6011  0.7182  0.6011
 1520SOL    HW216020   2.094   0.157   3.907  0.4512 -1.2152  1.0886
 1521SOL     OW16021   1.277   3.333   1.424 -0.7873 -0.1678  0.1886
 1521SOL    HW116022   1.333   3.291   1.489 -1.0916  1.7124  1.6700
 1521SOL    HW216023   1.208   3.271   1.403  0.2845 -1.5343  0.7329
 1522SOL     OW16024   0.386   4.142   5.599 -0.8648  0.5335  0.4779
 1522SOL    HW116025   0.292   4.138   5.583 -1.1213  1.2036  1.7931
 1522SOL    HW216026   0.392   4.237   5.610  2.1402  0.2019  1.7375
 1523SOL     OW16027   4.018   0.996   7.859  0.2029  0.0821  0.4208
 1523SOL    HW116028   4.090   0.951   7.814 -1.5114 -0.1478 -2.1223
 1523SOL    HW216029   3.976   0.922   7.902 -0.6007 -0.4022 -1.1825
 1524SOL     OW16030   2.425   0.904   8.499  0.1990  0.0378  0.1661
 1524SOL    HW116031   2.342   0.862   8.523 -0.0183  0.0217 -0.6143
 1524SOL    HW216032   2.415   0.989   8.543  2.1127  0.5545 -0.4127
 1525SOL     OW16033   2.878   4.602   6.397  0.2985  0.5879 -0.1383
 1525SOL    HW116034   2.800   4.588   6.344  0.0651  2.5253 -0.3404
 1525SOL    HW216035   2.849   4.621   6.487  1.5180 -0.2687  0.4333
 1526SOL     OW16036   0.243   0.127   0.596  0.2883  0.1819  0.5531
 1526SOL    HW116037   0.312   0.098   0.536  0.5321  0.5682  0.6551
 1526SOL    HW216038   0.279   0.147   0.682  0.8444  0.4550  0.2576
 1527SOL     OW16039   3.118   1.056   7.248 -0.5980 -0.0228 -0.7118
 1527SOL    HW116040   3.037   1.086   7.208 -0.4664  0.9532 -0.2541
 1527SOL    HW216041   3.116   0.961   7.239  0.9648 -0.0676 -0.6195
 1528SOL     OW16042   2.861   3.730   9.913  0.0188 -0.2971  0.0611
 1528SOL    HW116043   2.943   3.710   9.959 -0.0469 -2.2221 -0.6455
 1528SOL    HW216044   2.822   3.645   9.934  2.2183 -1.5223 -0.7530
 1529SOL     OW16045   1.881   1.448   5.201 -0.3529 -0.6390  0.2017
 1529SOL    HW116046   1.864   1.380   5.266 -1.5358  0.9402  1.5180
 1529SOL    HW216047   1.962   1.486   5.233 -1.1930  2.2775 -1.1483
 1530SOL     OW16048   1.941   4.448   3.594 -0.2955  0.1340 -0.3452
 1530SOL    HW116049   1.942   4.536   3.631  0.6826 -0.1130  0.1972
 1530SOL    HW216050   2.030   4.413   3.587  0.2062  1.2651  0.4892
 1531SOL     OW16051   3.464   4.201   8.277  0.3383 -0.9533 -1.0501
 1531SOL    HW116052   3.491   4.109   8.279 -0.5675 -1.2306 -1.6065
 1531SOL    HW216053   3.525   4.236   8.212  0.4129  1.9337  0.5988
 1532SOL     OW16054   4.606   0.448   9.046  0.4338 -0.0754 -0.1204
 1532SOL    HW116055   4.589   0.393   8.970  0.8919 -1.3556  0.7113
 1532SOL    HW216056   4.612   0.382   9.115 -1.5060 -0.7105 -0.5592
 1533SOL     OW16057   0.774   1.054   7.039 -0.3971 -0.5602 -0.0071
 1533SOL    HW116058   0.802   1.000   7.112 -1.2620 -2.5049 -1.1197
 1533SOL    HW216059   0.857   1.102   7.031 -1.5428  1.5937  0.9730
 1534SOL     OW16060   4.273   3.754  14.801  0.1657 -0.2652  0.3020
 1534SOL    HW116061   4.349   3.812  14.810 -0.2753  0.4389 -0.5704
 1534SOL    HW216062   4.304   3.673  14.759 -1.1579  0.3533 -1.8545
 1535SOL     OW16063   3.704   2.820   9.718  0.0448 -0.6118 -0.1292
 1535SOL    HW116064   3.682   2.840   9.627  1.1200  0.2205 -0.2109
 1535SOL    HW216065   3.760   2.744   9.701 -0.2311 -1.3450  2.2257
 1536SOL     OW16066   1.015   4.165   6.500  0.6045  0.2010 -0.6059
 1536SOL    HW116067   1.102   4.124   6.499 -0.0048 -1.1040 -0.5268
 1536SOL    HW216068   1.021   4.228   6.429  2.2769 -1.5766 -2.0609
 1537SOL     OW16069   1.820   3.170   4.373 -0.3310  0.0340 -0.4278
 1537SOL    HW116070   1.877   3.244   4.356  1.1136 -1.0655 -0.3627
 1537SOL    HW216071   1.747   3.204   4.322  0.4694  1.0695 -0.8819
 1538SOL     OW16072   1.748   3.890   5.473 -0.1754 -0.0842  0.3248
 1538SOL    HW116073   1.718   3.816   5.420 -0.9697  1.2935 -1.1391
 1538SOL    HW216074   1.838   3.864   5.491  0.0507  0.3875 -0.0928
 1539SOL     OW16075   4.194   2.090   3.278 -0.4046 -0.0001  0.4811
 1539SOL    HW116076   4.162   2.177   3.254  0.2213 -0.1919 -1.0238
 1539SOL    HW216077   4.146   2.065   3.357  0.9268 -0.1050  1.2632
 1540SOL     OW16078   1.737   0.780   8.544 -0.1454 -0.1448 -0.1951
 1540SOL    HW116079   1.827   0.777   8.577 -1.0194 -1.2062  2.0796
 1540SOL    HW216080   1.690   0.720   8.602 -1.3027  0.6002 -0.3676
 1541SOL     OW16081   2.668   3.376   3.372  0.0954  0.2952  0.1006
 1541SOL    HW116082   2.706   3.389   3.458 -0.8326 -1.1913  0.7310
 1541SOL    HW216083   2.712   3.293   3.354 -0.9502 -0.1406 -0.4550
 1542SOL     OW16084   1.720   1.675   5.407 -0.1747 -0.1359  0.3135
 1542SOL    HW116085   1.755   1.617   5.476 -2.0592  0.7693  2.0203
 1542SOL    HW216086   1.780   1.749   5.416 -0.3775  0.0619 -0.0028
 1543SOL     OW16087   0.297   0.421  13.681  0.3020  0.5882 -0.0803
 1543SOL    HW116088   0.368   0.380  13.731 -0.4458 -2.5652 -1.6163
 1543SOL    HW216089   0.302   0.359  13.608  2.0965  0.5565  0.0650
 1544SOL     OW16090   3.442   0.279   6.653  0.2818 -0.3925 -0.1167
 1544SOL    HW116091   3.422   0.215   6.584  0.4005  0.7746 -1.2303
 1544SOL    HW216092   3.428   0.357   6.599 -1.5834 -0.9097 -0.3561
 1545SOL     OW16093   1.032   2.307   1.774  0.3357 -0.1735 -0.2703
 1545SOL    HW116094   1.091   2.282   1.703  0.3901 -1.3482  0.1852
 1545SOL    HW216095   0.953   2.264   1.742  0.9034 -1.4002 -0.0031
 1546SOL     OW16096   3.007   2.733   7.610 -0.2007 -0.2063 -0.2185
 1546SOL    HW116097   2.953   2.695   7.680  0.5078 -1.3191 -0.2827
 1546SOL    HW216098   2.937   2.739   7.545 -0.0154 -0.1343 -0.4088
 1547SOL     OW16099   1.051   3.222   6.844 -0.1006 -0.4290 -0.1211
 1547SOL    HW116100   1.061   3.127   6.839 -2.0233 -0.6746  0.9621
 1547SOL    HW216101   1.128   3.237   6.899  0.9981  0.8355 -2.0057
 1548SOL     OW16102   1.243   0.971   2.924 -0.3613  0.5563  0.3075
 1548SOL    HW116103   1.282   1.034   2.985  0.0573 -0.0510  0.6676
 1548SOL    HW216104   1.267   0.890   2.970  1.1775  1.1577  0.5525
 1549SOL     OW16105   3.810   0.929   9.177 -0.0348  0.0996 -0.0856
 1549SOL    HW116106   3.771   0.888   9.254 -1.4732  0.6240 -0.5432
 1549SOL    HW216107   3.760   0.897   9.102 -0.5768  1.8403 -0.4643
 1550SOL     OW16108   2.486   4.468   9.198 -0.0094  0.2216  0.2426
 1550SOL    HW116109   2.527   4.398   9.247 -0.7601 -0.2864  0.1443
 1550SOL    HW216110   2.555   4.484   9.134  0.5495  1.4009  1.1295
 1551SOL     OW16111   1.850   4.275  13.186 -0.1304  0.2271  0.0886
 1551SOL    HW116112   1.829   4.345  13.248  0.4098  1.5429 -1.2208
 1551SOL    HW216113   1.932   4.249  13.229 -0.1878  1.4303  0.9436
 1552SOL     OW16114   2.727   4.154   7.270 -0.0068 -0.6526 -0.7203
 1552SOL    HW116115   2.741   4.128   7.361 -0.4807  2.2748  0.1877
 1552SOL    HW216116   2.710   4.248   7.274 -0.0844 -0.7839  1.7353
 1553SOL     OW16117   4.218   2.514  15.945 -0.5156  0.0181  0.2635
 1553SOL    HW116118   4.258   2.511  16.032  1.9177  0.3472 -0.8532
 1553SOL    HW216119   4.287   2.491  15.884 -0.4159 -0.9335  0.7304
 1554SOL     OW16120   3.641   3.225   5.209  0.1909 -0.0639 -0.1294
 1554SOL    HW116121   3.691   3.226   5.128 -1.3575  0.4675 -1.0856
 1554SOL    HW216122   3.663   3.313   5.240  2.0175 -1.1438  1.6324
 1555SOL     OW16123   0.713   3.895   5.991 -0.0695  0.6973 -0.8911
 1555SOL    HW116124   0.804   3.866   5.994 -0.1683  0.5925  1.1209
 1555SOL    HW216125   0.691   3.888   5.898  1.0552  0.6833 -1.1594
 1556SOL     OW16126   0.296   3.299   8.323  0.1180  0.2828 -0.5590
 1556SOL    HW116127   0.243   3.345   8.258 -1.0700 -0.8538 -0.4019
 1556SOL    HW216128   0.232   3.237   8.358  0.4474  0.2795  0.0235
 1557SOL     OW16129   2.740   4.026   5.063  0.3254  0.4035 -0.8485
 1557SOL    HW116130   2.825   4.068   5.077 -0.4820  1.8257 -0.2286
 1557SOL    HW216131   2.685   4.098   5.094  0.2526 -1.3573  3.1078
 1558SOL     OW16132   0.178   4.568   0.504 -0.2263 -0.3173 -0.2395
 1558SOL    HW116133   0.239   4.519   0.449  1.1024  0.0082  0.9616
 1558SOL    HW216134   0.096   4.526   0.478 -0.6890  0.5482 -0.1685
 1559SOL     OW16135   1.609   3.918   8.144 -0.3483  0.8098  0.4327
 1559SOL    HW116136   1.581   3.846   8.201 -1.1546 -0.1255 -1.1283
 1559SOL    HW216137   1.523   3.937   8.107  0.4212 -0.0220 -1.7671
 1560SOL     OW16138   3.924   0.482   3.563  0.1882 -0.2708  0.2291
 1560SOL    HW116139   3.948   0.574   3.558  0.3661 -0.2817  0.8636
 1560SOL    HW216140   3.857   0.483   3.632  1.8252 -1.3490  1.8323
 1561SOL     OW16141   0.685   4.655  12.813  0.1907 -0.3106  1.0055
 1561SOL    HW116142   0.599   4.687  12.783  0.2916 -1.1440 -0.1591
 1561SOL    HW216143   0.717   0.012  12.853 -1.2710  1.9002 -2.2871
 1562SOL     OW16144   4.673   3.030   0.819 -0.4198  0.3577  0.4894
 1562SOL    HW116145   4.616   3.082   0.762 -2.6930 -2.7406 -0.0767
 1562SOL    HW216146   4.691   3.102   0.879  1.7778  1.2262 -1.2313
 1563SOL     OW16147   3.834   3.765  16.101 -0.4617  0.0791 -0.5773
 1563SOL    HW116148   3.859   3.847  16.145 -0.4427 -0.6543  0.7619
 1563SOL    HW216149   3.904   3.761  16.035  0.7296  1.4803  0.6053
 1564SOL     OW16150   2.283   3.160   3.887  0.0026 -0.1526 -0.2489
 1564SOL    HW116151   2.201   3.188   3.927  0.2130 -2.1043  1.5579
 1564SOL    HW216152   2.319   3.094   3.947  0.7280 -0.6858 -1.2688
 1565SOL     OW16153   4.173   0.012   2.607  0.0033  0.4119 -0.0980
 1565SOL    HW116154   4.253   0.011   2.661 -1.0796  1.7602  1.5169
 1565SOL    HW216155   4.159   4.645   2.579 -3.0937  0.3708  1.5661
 1566SOL     OW16156   2.281   3.823  11.769 -0.3028 -0.2112 -0.4965
 1566SOL    HW116157   2.308   3.748  11.823  1.3637  1.6220  1.1955
 1566SOL    HW216158   2.203   3.844  11.820  1.2922  0.3764  1.6874
 1567SOL     OW16159   3.058   0.900   6.984 -0.0882 -0.0225 -0.4572
 1567SOL    HW116160   3.118   0.897   6.910  2.2712  0.8655  1.4242
 1567SOL    HW216161   3.010   0.981   6.967 -0.2141 -0.2783 -1.3442
 1568SOL     OW16162   0.407   2.321   6.306 -0.2094  0.4017  0.0101
 1568SOL    HW116163   0.455   2.389   6.258  0.1612 -0.6273 -1.0674
 1568SOL    HW216164   0.461   2.248   6.276  0.2774  0.8345 -0.1749
 1569SOL     OW16165   3.138   3.579   3.238 -0.5779  0.4092  0.1219
 1569SOL    HW116166   3.222   3.594   3.197 -1.1653  4.6667  0.5469
 1569SOL    HW216167   3.112   3.661   3.279 -2.7402 -0.2145  0.0325
 1570SOL     OW16168   2.310   0.445  12.825  0.3110 -0.2751 -0.1172
 1570SOL    HW116169   2.312   0.405  12.913 -0.8010  2.2668  1.0537
 1570SOL    HW216170   2.353   0.530  12.833 -0.1238 -0.0281 -0.4270
 1571SOL     OW16171   2.087   0.451   9.044 -0.4215  0.1803 -0.1677
 1571SOL    HW116172   2.132   0.377   9.003 -0.2666 -0.0960  0.5116
 1571SOL    HW216173   2.106   0.518   8.979  1.1333 -1.4355 -1.3869
 1572SOL     OW16174   4.123   1.590  16.931 -0.1411  0.0885  0.2611
 1572SOL    HW116175   4.143   1.557  17.018 -1.8449  1.7970  1.2990
 1572SOL    HW216176   4.063   1.662  16.946  0.6495  0.1996  2.8998
 1573SOL     OW16177   0.916   3.405   4.464  0.9812 -0.4807 -0.1636
 1573SOL    HW116178   1.008   3.399   4.490  1.5327 -0.2701 -2.0429
 1573SOL    HW216179   0.915   3.491   4.422  3.1040 -1.9562 -3.2373
 1574SOL     OW16180   3.105   0.320   9.804 -0.3925 -0.4191 -0.1997
 1574SOL    HW116181   3.071   0.285   9.722  1.0564 -1.0695 -0.5309
 1574SOL    HW216182   3.147   0.245   9.845  3.7690  2.5261  0.9567
 1575SOL     OW16183   0.441   2.006   4.372  0.4652  0.4981 -0.3478
 1575SOL    HW116184   0.532   1.989   4.347  0.4950 -0.2937  0.3137
 1575SOL    HW216185   0.458   2.090   4.415 -1.2261  1.5027 -1.6609
 1576SOL     OW16186   2.849   0.261   3.003 -0.8424 -0.6594  0.6807
 1576SOL    HW116187   2.851   0.356   2.994  1.6333 -0.6138  1.6396
 1576SOL    HW216188   2.794   0.247   3.080 -2.4210 -0.6002 -0.4459
 1577SOL     OW16189   2.589   1.807   5.196 -0.1906 -0.2219 -0.4183
 1577SOL    HW116190   2.504   1.830   5.235  0.4057  0.3672  0.5355
 1577SOL    HW216191   2.594   1.712   5.185 -0.0385 -0.3594  0.7448
 1578SOL     OW16192   3.750   3.499   4.011 -0.0051 -0.1480  0.0529
 1578SOL    HW116193   3.739   3.419   3.958  0.4073 -0.2619  0.1404
 1578SOL    HW216194   3.717   3.567   3.952  0.8394  0.3191  0.1309
 1579SOL     OW16195   2.264   2.281   3.392 -0.2738  0.0986 -0.1686
 1579SOL    HW116196   2.279   2.187   3.380  1.7191  0.3983 -0.0931
 1579SOL    HW216197   2.189   2.297   3.335 -1.7018 -1.6123  1.2540
 1580SOL     OW16198   2.494   2.041   2.568 -0.3581 -0.3225 -0.4228
 1580SOL    HW116199   2.464   2.124   2.605  0.0973 -0.0246 -0.7226
 1580SOL    HW216200   2.569   2.019   2.624 -1.0821 -0.6390  0.4181
 1581SOL     OW16201   2.705   4.568   3.822 -0.2190  0.3342  0.4825
 1581SOL    HW116202   2.624   4.601   3.861 -0.5871 -1.5021  1.2597
 1581SOL    HW216203   2.711   4.607   3.735  0.0064  1.0768  0.8293
 1582SOL     OW16204   0.206   1.531   4.415  0.0953 -0.7480 -0.0581
 1582SOL    HW116205   0.291   1.553   4.452 -0.4710  0.6383  0.4415
 1582SOL    HW216206   0.186   1.440   4.436  0.0550 -0.5152  0.8781
 1583SOL     OW16207   3.011   2.600  16.103  0.0346  0.0569  0.5674
 1583SOL    HW116208   2.944   2.662  16.075 -1.3439 -1.0882  1.3177
 1583SOL    HW216209   3.088   2.639  16.063 -1.0000  0.6437 -0.8682
 1584SOL     OW16210   3.099   3.755   5.283 -0.0115 -0.4989  0.3911
 1584SOL    HW116211   3.012   3.793   5.296  0.8448  0.7483  2.4725
 1584SOL    HW216212   3.132   3.827   5.229  2.3951 -0.4945  1.8403
 1585SOL     OW16213   0.672   4.255   3.137  0.0098  0.2792  0.3166
 1585SOL    HW116214   0.760   4.278   3.106  1.2019 -0.8265  2.8536
 1585SOL    HW216215   0.692   4.225   3.226 -0.3835 -0.8884  0.0076
 1586SOL     OW16216   0.473   1.456   0.622  0.6164 -0.2558 -0.4271
 1586SOL    HW116217   0.511   1.543   0.607  0.6500 -0.3951 -1.1800
 1586SOL    HW216218   0.432   1.466   0.708  2.8270  2.5579  0.2865
 1587SOL     OW16219   3.265   1.296   7.285 -0.4190  0.4583  0.5844
 1587SOL    HW116220   3.203   1.227   7.259 -0.2497  0.3073  0.5790
 1587SOL    HW216221   3.310   1.250   7.356 -2.1433 -2.6400 -0.3277
 1588SOL     OW16222   2.364   0.951   6.481 -0.6195 -0.0096 -0.1765
 1588SOL    HW116223   2.454   0.920   6.471 -0.0768  1.6925 -0.5847
 1588SOL    HW216224   2.361   1.024   6.419  1.3035 -2.1470 -2.8025
 1589SOL     OW16225   0.670   4.217   5.946  0.5120 -0.1047  0.3250
 1589SOL    HW116226   0.643   4.287   5.886  1.7972 -0.1877 -0.3513
 1589SOL    HW216227   0.632   4.134   5.919  0.8911  0.2182 -1.2002
 1590SOL     OW16228   0.142   0.860   8.915 -0.0708 -0.7799 -0.2046
 1590SOL    HW116229   0.210   0.861   8.847  1.2729 -1.4571  1.1369
 1590SOL    HW216230   0.095   0.939   8.889 -2.8543 -1.9214  1.4483
 1591SOL     OW16231   3.466   3.022   3.119  0.1554  0.2995 -0.3853
 1591SOL    HW116232   3.549   3.067   3.130  0.2236 -0.2073  1.2039
 1591SOL    HW216233   3.461   3.006   3.025  0.5301  0.8901 -0.5034
 1592SOL     OW16234   1.386   2.379   4.626 -0.6098  0.0776  0.2998
 1592SOL    HW116235   1.382   2.397   4.532  1.4874  1.6385  0.5237
 1592SOL    HW216236   1.438   2.299   4.612  0.2071  0.9727 -1.6659
 1593SOL     OW16237   1.185   0.471   8.738 -0.0811  0.1497  0.3269
 1593SOL    HW116238   1.119   0.449   8.672 -1.0114 -0.9131  1.6145
 1593SOL    HW216239   1.261   0.427   8.700 -0.9550  0.5381 -1.8588
 1594SOL     OW16240   0.679   2.091   6.738  0.1838 -0.4809  0.2449
 1594SOL    HW116241   0.687   2.020   6.803  1.9739  2.2180  2.9696
 1594SOL    HW216242   0.584   2.090   6.723  0.1810 -0.7048  0.2706
 1595SOL     OW16243   2.875   1.528   9.709  0.3686 -0.4528  0.3479
 1595SOL    HW116244   2.914   1.522   9.796  2.0462  0.8141 -0.3037
 1595SOL    HW216245   2.789   1.565   9.726  0.0421 -1.4596  0.8535
 1596SOL     OW16246   2.455   1.732  13.664  0.0545  0.1864  0.4710
 1596SOL    HW116247   2.472   1.714  13.756  0.8048  0.8196  0.4580
 1596SOL    HW216248   2.386   1.797  13.670 -0.6607 -0.5921  0.6421
 1597SOL     OW16249   3.605   1.426   8.924  0.6670 -0.2260  0.2587
 1597SOL    HW116250   3.518   1.426   8.964 -0.0106  0.5043 -1.1915
 1597SOL    HW216251   3.581   1.442   8.832  2.4815 -1.8678 -0.4952
 1598SOL     OW16252   0.332   1.818   7.602  0.1552  0.2826 -0.0660
 1598SOL    HW116253   0.345   1.734   7.557  0.9629  0.2476  0.2343
 1598SOL    HW216254   0.237   1.829   7.594 -0.1320 -2.6325 -0.6885
 1599SOL     OW16255   0.707   4.499   8.733 -0.2809  0.2822  0.7020
 1599SOL    HW116256   0.794   4.521   8.767  0.4220 -0.1924 -0.8080
 1599SOL    HW216257   0.688   4.440   8.806 -1.6955 -0.4779 -0.2939
 1600SOL     OW16258   0.927   0.702   4.340 -0.1980 -0.1027  0.4815
 1600SOL    HW116259   0.986   0.767   4.378 -1.1672  1.1497 -0.1491
 1600SOL    HW216260   0.895   0.658   4.418  2.4355 -2.2412  0.3461
 1601SOL     OW16261   1.629   0.258   3.401  0.0372 -0.0444  0.4217
 1601SOL    HW116262   1.674   0.298   3.326  0.3709  0.5148  0.9244
 1601SOL    HW216263   1.662   0.308   3.475 -0.6610 -0.7101  1.1790
 1602SOL     OW16264   4.220   2.162  14.006 -0.0559  0.0849 -0.2876
 1602SOL    HW116265   4.184   2.251  14.009  1.3139  0.5849  0.9193
 1602SOL    HW216266   4.225   2.150  13.911 -3.9858  1.3102 -0.6652
 1603SOL     OW16267   0.319   3.972   1.763 -0.5503  0.1091  0.2481
 1603SOL    HW116268   0.258   3.908   1.800  1.1608 -1.2365  0.7333
 1603SOL    HW216269   0.396   3.924   1.734  0.5840  2.0051  0.1210
 1604SOL     OW16270   1.562   0.351   4.491  0.2943  0.0527 -0.0179
 1604SOL    HW116271   1.525   0.266   4.470 -2.4951  1.0434  0.8497
 1604SOL    HW216272   1.621   0.367   4.417  1.1420  0.2686  0.7118
 1605SOL     OW16273   0.813   1.014   1.676 -0.2572  0.5037 -0.5365
 1605SOL    HW116274   0.781   1.003   1.765 -1.0676  1.7169 -0.6793
 1605SOL    HW216275   0.868   0.936   1.674 -2.5058 -1.0620 -1.3191
 1606SOL     OW16276   1.411   3.876  10.704  0.5938 -0.4736 -0.2291
 1606SOL    HW116277   1.388   3.957  10.658 -1.0295  1.2459  3.5949
 1606SOL    HW216278   1.381   3.897  10.792  0.1302 -1.2688 -0.2035
 1607SOL     OW16279   2.291   0.057  15.452 -0.1359  0.3963  0.2735
 1607SOL    HW116280   2.294   4.712  15.386 -0.7233  1.4637 -0.8480
 1607SOL    HW216281   2.260   0.133  15.403 -1.0789 -0.0074  0.2323
 1608SOL     OW16282   2.703   1.910   6.301 -0.7764 -0.2475  0.0733
 1608SOL    HW116283   2.684   1.996   6.262  0.3852  0.7314  1.6895
 1608SOL    HW216284   2.666   1.848   6.238  0.3727  1.0340 -1.8522
 1609SOL     OW16285   2.726   0.164   1.797 -0.3332 -0.2480  0.6374
 1609SOL    HW116286   2.705   0.156   1.890 -0.6248  2.0633  0.7788
 1609SOL    HW216287   2.679   0.086   1.769 -2.2311  1.1740 -0.1664
 1610SOL     OW16288   0.468   3.412   7.302  0.5302  0.4989 -0.2531
 1610SOL    HW116289   0.414   3.438   7.376 -0.7433  0.1647 -1.0634
 1610SOL    HW216290   0.494   3.322   7.322  1.2121  0.8507  0.4486
 1611SOL     OW16291   2.953   1.937   7.026 -0.8637 -0.4630  0.2813
 1611SOL    HW116292   2.974   1.877   7.097 -1.9613  1.0245  1.8599
 1611SOL    HW216293   2.926   2.016   7.073 -1.3576 -0.6512  0.3194
 1612SOL     OW16294   0.373   3.901   5.028  0.1294 -0.4715 -0.5691
 1612SOL    HW116295   0.378   3.977   4.970  0.7530  1.1285  1.5469
 1612SOL    HW216296   0.306   3.927   5.092  2.0795  0.2205  1.1972
 1613SOL     OW16297   3.852   1.029   3.488 -0.0370  0.0840  0.1666
 1613SOL    HW116298   3.834   1.108   3.436 -0.3285  0.4536  0.8247
 1613SOL    HW216299   3.944   1.011   3.468 -0.0546  1.8276 -1.5751
 1614SOL     OW16300   4.164   1.924   2.633 -0.0277  0.2353 -0.3020
 1614SOL    HW116301   4.135   1.843   2.591 -0.9508 -0.5956  1.9583
 1614SOL    HW216302   4.087   1.979   2.645 -0.7506 -0.8716  0.0869
 1615SOL     OW16303   0.512   1.515  10.994 -0.2570 -0.2061  0.0864
 1615SOL    HW116304   0.593   1.505  10.944 -0.6656  1.6802 -0.9352
 1615SOL    HW216305   0.521   1.430  11.038 -0.9128 -0.3146  0.0175
 1616SOL     OW16306   1.348   1.367   2.496 -0.4072 -0.1385 -0.4132
 1616SOL    HW116307   1.298   1.408   2.566  1.6509  0.8035  0.5113
 1616SOL    HW216308   1.271   1.353   2.441 -0.3186 -0.0600 -0.5569
 1617SOL     OW16309   1.771   0.590  12.430 -0.3668  0.1795  0.0446
 1617SOL    HW116310   1.761   0.495  12.440 -4.0671  0.8616  2.4003
 1617SOL    HW216311   1.683   0.626  12.423 -0.6654 -0.5656 -0.0575
 1618SOL     OW16312   0.641   3.847   5.740  0.0434 -0.1260  0.3583
 1618SOL    HW116313   0.556   3.810   5.763  0.4335 -0.1471  1.7764
 1618SOL    HW216314   0.674   3.796   5.666 -1.3050 -0.5213  0.0350
 1619SOL     OW16315   1.547   2.847   3.856  0.1152 -0.2196  0.1632
 1619SOL    HW116316   1.452   2.843   3.846  0.0937 -1.9222  0.9538
 1619SOL    HW216317   1.567   2.813   3.768  1.2637  2.4745 -0.6016
 1620SOL     OW16318   3.498   4.496   5.947  0.1626  0.0496  0.4696
 1620SOL    HW116319   3.459   4.488   6.035  0.5918  0.0413  0.6569
 1620SOL    HW216320   3.502   4.400   5.943  3.1379  0.1110  1.8864
 1621SOL     OW16321   3.840   2.716   1.845  0.1251 -0.2971 -0.4953
 1621SOL    HW116322   3.747   2.695   1.843 -0.2912  1.3744  1.1179
 1621SOL    HW216323   3.858   2.725   1.939  0.3005 -1.6622 -0.3908
 1622SOL     OW16324   1.980   1.404  12.566 -0.2311 -0.1294  0.0135
 1622SOL    HW116325   2.068   1.369  12.575 -0.8193 -1.4347  0.7102
 1622SOL    HW216326   1.994   1.496  12.544 -1.3064 -0.0219 -0.2585
 1623SOL     OW16327   1.517   2.166   3.446 -0.0021 -0.0287  0.4949
 1623SOL    HW116328   1.530   2.077   3.412 -0.9830  0.5873 -1.5517
 1623SOL    HW216329   1.605   2.187   3.475 -1.1158  1.0462  3.1201
 1624SOL     OW16330   4.331   2.058   3.912 -0.2517 -0.0362 -0.3255
 1624SOL    HW116331   4.259   2.004   3.881  0.9078 -2.6980  1.6430
 1624SOL    HW216332   4.328   2.054   4.008  3.3671 -1.7886 -0.3006
 1625SOL     OW16333   2.160   2.743   6.217  0.4197 -0.1152  0.2523
 1625SOL    HW116334   2.142   2.820   6.162 -0.9543 -0.5929  0.0346
 1625SOL    HW216335   2.187   2.787   6.297  0.6522 -1.1374  0.7385
 1626SOL     OW16336   3.034   3.277   5.188  0.0536  0.0270  0.2801
 1626SOL    HW116337   2.940   3.291   5.175  0.2514  1.3266  0.2532
 1626SOL    HW216338   3.067   3.276   5.098 -1.3728  2.1516 -0.2635
 1627SOL     OW16339   2.336   1.708   3.530  0.0978  0.2164 -0.1135
 1627SOL    HW116340   2.334   1.615   3.555 -1.6493  1.0397  2.7620
 1627SOL    HW216341   2.294   1.701   3.444  0.7527  1.2062 -0.5117
 1628SOL     OW16342   2.289   0.249   8.720  0.6229  0.1104 -0.4401
 1628SOL    HW116343   2.266   0.239   8.628 -0.6694  1.5776 -0.2716
 1628SOL    HW216344   2.362   0.309   8.703 -0.0598  0.7342 -1.1657
 1629SOL     OW16345   1.977   3.945   9.069  0.1891  0.5061 -0.2076
 1629SOL    HW116346   1.968   3.964   9.162  0.1293  0.6114 -0.2344
 1629SOL    HW216347   1.940   4.027   9.036  1.1631  1.0954  0.1730
 1630SOL     OW16348   1.624   0.509   6.725 -0.6217 -0.4385 -0.1686
 1630SOL    HW116349   1.541   0.495   6.681 -1.1872  1.8316  0.2128
 1630SOL    HW216350   1.597   0.526   6.815 -1.8150 -0.7780 -0.4638
 1631SOL     OW16351   1.576   2.275   4.890 -0.4012  0.0053  0.6224
 1631SOL    HW116352   1.664   2.306   4.870 -0.1304 -0.3156  1.3391
 1631SOL    HW216353   1.523   2.350   4.860 -1.6153 -0.7088  0.9733
 1632SOL     OW16354   0.765   0.039  15.367  0.3620 -0.0202 -0.3181
 1632SOL    HW116355   0.693   4.716  15.325 -0.9643  0.1495  1.7982
 1632SOL    HW216356   0.724   0.125  15.373 -1.8503 -1.2696  2.0206
 1633SOL     OW16357   1.370   2.592   2.027  0.1559  0.1455  0.4078
 1633SOL    HW116358   1.278   2.577   2.005  0.7013 -2.4208 -0.0792
 1633SOL    HW216359   1.418   2.550   1.955 -2.0008 -0.5189 -0.6413
 1634SOL     OW16360   4.245   4.347   2.357 -0.1696 -0.4769  0.0464
 1634SOL    HW116361   4.208   4.435   2.363 -0.5953 -0.4182 -3.6454
 1634SOL    HW216362   4.340   4.353   2.346  0.0224 -2.9384  0.2725
 1635SOL     OW16363   0.954   3.306   5.879 -0.4103  0.2323  0.4849
 1635SOL    HW116364   0.906   3.294   5.961 -1.9599  0.1005 -0.4411
 1635SOL    HW216365   0.953   3.212   5.860 -1.1480 -0.2116  2.7479
 1636SOL     OW16366   0.766   2.015   3.029  1.0209 -0.1402 -0.2260
 1636SOL    HW116367   0.755   2.110   3.040  1.5505  0.0945 -1.7039
 1636SOL    HW216368   0.807   1.995   3.113  0.0286  2.8657  0.9905
 1637SOL     OW16369   4.702   3.474   3.215 -0.3960  0.0871  0.3816
 1637SOL    HW116370   4.679   3.497   3.125  1.5474 -1.7647 -0.5904
 1637SOL    HW216371   4.664   3.386   3.225  0.6949 -0.6651 -2.0193
 1638SOL     OW16372   1.592   3.452   9.875 -0.1534  0.0689  0.2101
 1638SOL    HW116373   1.633   3.530   9.912 -0.2240 -0.2677  0.9981
 1638SOL    HW216374   1.505   3.488   9.856 -0.8490 -1.6084  0.1853
 1639SOL     OW16375   4.240   1.729  15.622 -0.1542  0.0235 -0.0455
 1639SOL    HW116376   4.167   1.788  15.643  1.9458  2.9901 -1.0928
 1639SOL    HW216377   4.211   1.685  15.542 -0.9820  0.2848  0.1110
 1640SOL     OW16378   3.611   0.675   4.887  0.3291  0.0063  0.4562
 1640SOL    HW116379   3.545   0.741   4.908  0.3599  0.5592 -1.1989
 1640SOL    HW216380   3.622   0.619   4.964 -0.5582  0.2658  0.7692
 1641SOL     OW16381   0.204   0.330   8.986 -0.3747  0.5194 -0.2480
 1641SOL    HW116382   0.261   0.406   8.998 -1.4725  1.1753  0.8274
 1641SOL    HW216383   0.141   0.339   9.058 -1.0170  1.1748 -0.8974
 1642SOL     OW16384   0.648   2.328   0.926  0.0044  0.2919  0.4979
 1642SOL    HW116385   0.642   2.329   1.022 -0.9547  1.9458  0.4212
 1642SOL    HW216386   0.599   2.248   0.908 -1.5079  1.7082 -1.6395
 1643SOL     OW16387   0.282   0.851   6.276 -0.3970 -0.2598  0.5505
 1643SOL    HW116388   0.256   0.909   6.348 -0.5922 -0.5693  0.7250
 1643SOL    HW216389   0.325   0.928   6.239 -1.4701  0.7116  1.2990
 1644SOL     OW16390   4.130   1.829   3.909 -0.1516 -0.6734 -0.2064
 1644SOL    HW116391   4.077   1.837   3.988 -0.8170  1.3396 -0.8365
 1644SOL    HW216392   4.071   1.799   3.840  1.1956 -0.0394 -1.6390
 1645SOL     OW16393   3.311   4.654   8.014  0.1575 -0.1734 -0.1902
 1645SOL    HW116394   3.341   0.021   8.009 -0.4789  0.0369 -0.1951
 1645SOL    HW216395   3.387   4.603   7.985  0.3068 -0.4675  0.7312
 1646SOL     OW16396   4.308   0.983   6.723  0.5432  0.6097 -0.0545
 1646SOL    HW116397   4.233   0.940   6.763  1.5518 -0.8162  0.3231
 1646SOL    HW216398   4.325   1.047   6.792 -4.0884  0.9132  0.7984
 1647SOL     OW16399   0.283   1.969   5.439 -0.5139  0.0411  0.5882
 1647SOL    HW116400   0.233   1.995   5.363 -0.7513 -0.4997  0.5623
 1647SOL    HW216401   0.333   1.892   5.411 -0.0700  0.4670  0.2147
 1648SOL     OW16402   1.228   0.498  16.907 -0.5812 -0.0719 -0.0454
 1648SOL    HW116403   1.161   0.467  16.847 -1.1715  2.4850 -0.7313
 1648SOL    HW216404   1.178   0.527  16.983  0.4623  0.6869  0.3614
 1649SOL     OW16405   1.677   1.754  12.776 -0.1721 -0.1415 -0.0683
 1649SOL    HW116406   1.631   1.766  12.693  0.6259 -0.6267 -0.5816
 1649SOL    HW216407   1.631   1.814  12.834 -0.1827 -1.7534  1.5764
 1650SOL     OW16408   0.874   1.415  15.016 -0.1958 -0.3647  0.3280
 1650SOL    HW116409   0.825   1.476  14.961 -1.5596 -1.7607 -0.0129
 1650SOL    HW216410   0.878   1.467  15.096 -1.8727  1.1275 -0.5578
 1651SOL     OW16411   0.358   0.004   2.016 -0.0438  0.1471  0.1428
 1651SOL    HW116412   0.428   4.666   2.035 -0.8065 -0.0346  2.3215
 1651SOL    HW216413   0.336   4.717   1.924 -0.5367  0.5856  0.2082
 1652SOL     OW16414   4.150   3.563   9.871 -0.4021 -0.3734  0.2200
 1652SOL    HW116415   4.204   3.529   9.800 -0.2080  0.7308 -0.1624
 1652SOL    HW216416   4.212   3.571   9.944  0.4916  0.7277 -0.6671
 1653SOL     OW16417   0.501   4.285  11.749  0.6194  0.6709 -0.1263
 1653SOL    HW116418   0.570   4.295  11.684 -0.4253  2.4113 -0.9377
 1653SOL    HW216419   0.467   4.374  11.754  0.7848  0.7046  0.5359
 1654SOL     OW16420   3.892   3.228  17.448  0.0034 -0.2005 -0.0600
 1654SOL    HW116421   3.913   3.291  17.379 -0.9822 -0.7344 -0.8607
 1654SOL    HW216422   3.823   3.273  17.496 -0.2123 -1.0443  0.4141
 1655SOL     OW16423   3.785   2.921   9.082 -0.1475 -0.2268  0.2404
 1655SOL    HW116424   3.755   2.835   9.112  1.4795 -0.9675 -0.2723
 1655SOL    HW216425   3.807   2.918   8.989  0.2973 -2.3292  0.4210
 1656SOL     OW16426   1.948   4.208   8.945 -0.3577  0.0487  0.7913
 1656SOL    HW116427   1.876   4.238   8.889 -1.7997 -2.6675  1.1799
 1656SOL    HW216428   2.020   4.213   8.882 -3.5322 -1.0925 -2.9873
 1657SOL     OW16429   0.947   2.030   8.825  0.4864 -0.1466  0.0217
 1657SOL    HW116430   1.015   2.080   8.869  1.2946  0.1274 -1.5154
 1657SOL    HW216431   0.919   2.087   8.753 -0.7735 -0.6925  0.0702
 1658SOL     OW16432   1.692   2.007   6.879 -0.1797  0.2560 -0.0299
 1658SOL    HW116433   1.742   2.006   6.797 -0.9333  0.9029 -0.5015
 1658SOL    HW216434   1.607   1.972   6.855 -0.4352  0.3629  0.7325
 1659SOL     OW16435   3.167   2.379   6.068 -0.0483 -0.3297  0.2741
 1659SOL    HW116436   3.215   2.456   6.100 -1.6161  2.1228 -3.3083
 1659SOL    HW216437   3.139   2.409   5.982  1.6888  0.4214 -0.0370
 1660SOL     OW16438   2.341   0.422   4.371 -0.1168 -0.2768  0.1102
 1660SOL    HW116439   2.339   0.343   4.425  1.4149  0.3076  1.0120
 1660SOL    HW216440   2.313   0.384   4.287  0.6546 -1.9602  0.6142
 1661SOL     OW16441   3.603   1.333  17.619  0.2693 -0.2947 -0.4214
 1661SOL    HW116442   3.621   1.246  17.582 -0.7459  0.0022 -1.5990
 1661SOL    HW216443   3.521   1.314  17.666  0.6594 -0.9945 -0.0146
 1662SOL     OW16444   4.644   2.044   4.980 -0.2728 -0.2383  0.1471
 1662SOL    HW116445   4.693   2.124   4.997 -2.2070  0.6629  1.4632
 1662SOL    HW216446   4.610   2.023   5.067 -1.1498 -1.7427 -0.5411
 1663SOL     OW16447   3.438   3.078   1.773 -0.4469 -0.1341 -0.1319
 1663SOL    HW116448   3.476   3.004   1.821  2.1542  2.2503  1.5274
 1663SOL    HW216449   3.371   3.111   1.833  0.0170 -0.4628  0.5657
 1664SOL     OW16450   3.559   1.756   7.686 -0.2651 -0.2793 -0.5309
 1664SOL    HW116451   3.602   1.701   7.620 -2.0810 -1.4481 -0.7430
 1664SOL    HW216452   3.490   1.697   7.718  0.0486  0.6201  1.8084
 1665SOL     OW16453   0.979   3.980   0.091  0.4016  0.3063 -0.0422
 1665SOL    HW116454   0.914   3.953   0.155  0.8062  0.2171  0.3293
 1665SOL    HW216455   0.972   4.075   0.096  0.8254  0.3589 -0.3858
 1666SOL     OW16456   1.158   2.278   4.396  0.3146 -0.2605 -0.3680
 1666SOL    HW116457   1.158   2.226   4.476  0.9875  2.4545  1.3957
 1666SOL    HW216458   1.165   2.209   4.330 -2.8644 -1.0719  0.1533
 1667SOL     OW16459   4.518   3.524   3.551 -0.8680 -0.2440  0.2327
 1667SOL    HW116460   4.442   3.485   3.508 -1.0744  2.9539 -2.3866
 1667SOL    HW216461   4.526   3.608   3.505 -2.4032  0.7571  1.7959
 1668SOL     OW16462   3.868   3.509  11.860 -0.2344 -0.2088  0.6211
 1668SOL    HW116463   3.798   3.547  11.915 -0.5229  0.1713 -0.0124
 1668SOL    HW216464   3.810   3.460  11.802  1.0212 -1.5598  0.5178
 1669SOL     OW16465   0.804   1.240   4.073  0.1776 -0.1037  0.3757
 1669SOL    HW116466   0.742   1.169   4.090 -0.0378 -0.6498 -2.6429
 1669SOL    HW216467   0.768   1.318   4.115  1.7401  1.0081 -0.3342
 1670SOL     OW16468   4.465   2.733   7.525  0.3833 -0.2153  0.8567
 1670SOL    HW116469   4.462   2.663   7.460  2.6039  1.6942 -1.2629
 1670SOL    HW216470   4.373   2.724   7.548  0.2560 -0.1038  0.3938
 1671SOL     OW16471   2.035   1.013  10.893 -0.1135  0.3721  0.1966
 1671SOL    HW116472   2.046   0.972  10.807  0.5269 -0.5524  0.7082
 1671SOL    HW216473   2.044   0.940  10.955  0.4546  0.1569 -0.1359
 1672SOL     OW16474   0.024   2.047   7.974 -0.4260  0.6500 -0.1933
 1672SOL    HW116475   0.103   2.084   8.014  0.5966  1.3748 -2.9205
 1672SOL    HW216476   0.047   2.030   7.883  2.0821  0.4496  0.4845
 1673SOL     OW16477   2.808   2.202   8.632 -0.0610 -0.2902 -0.3138
 1673SOL    HW116478   2.730   2.191   8.577 -1.6565  2.0611  1.4451
 1673SOL    HW216479   2.860   2.274   8.595 -1.7728  1.0596 -0.0980
 1674SOL     OW16480   1.610   1.030   6.931 -0.6384  1.0399  0.0122
 1674SOL    HW116481   1.626   0.942   6.897  1.8380  1.3389  0.3972
 1674SOL    HW216482   1.658   1.074   6.861 -0.7662 -0.1262 -0.8074
 1675SOL     OW16483   2.491   2.871   0.137  0.3362  0.0352 -0.0942
 1675SOL    HW116484   2.517   2.949   0.185 -2.9636  0.5160  0.9387
 1675SOL    HW216485   2.402   2.893   0.110 -0.5609 -1.6154  1.5032
 1676SOL     OW16486   0.194   4.099   7.369 -0.3921 -0.1940 -0.8282
 1676SOL    HW116487   0.218   4.029   7.430 -0.1840  0.6176  0.0307
 1676SOL    HW216488   0.101   4.083   7.358 -0.1959 -0.5000 -2.0024
 1677SOL     OW16489   1.075   0.923  11.893  0.5387  0.1479 -0.1478
 1677SOL    HW116490   1.063   0.937  11.987 -0.5567 -1.7062 -0.0383
 1677SOL    HW216491   1.170   0.913  11.883  0.4284  0.3641 -1.5035
 1678SOL     OW16492   1.979   3.907   1.603  0.2959 -0.7061  0.3736
 1678SOL    HW116493   2.068   3.898   1.637 -0.4754 -0.8126  2.3318
 1678SOL    HW216494   2.000   3.913   1.510 -0.8168 -1.7120  0.0533
 1679SOL     OW16495   1.237   2.191   6.408 -0.2213  0.2546 -0.3346
 1679SOL    HW116496   1.158   2.151   6.445 -0.3898 -0.5629 -1.5996
 1679SOL    HW216497   1.301   2.120   6.419 -0.7972 -0.2459 -0.2385
 1680SOL     OW16498   0.142   4.433   3.734 -0.3748 -0.6889 -0.3416
 1680SOL    HW116499   0.131   4.524   3.707  0.7101 -0.1431  1.0788
 1680SOL    HW216500   0.069   4.392   3.687 -0.6450  0.9931 -1.3908
 1681SOL     OW16501   1.262   2.333   5.561  0.6328  0.6119 -0.3679
 1681SOL    HW116502   1.261   2.297   5.472  0.4118  1.1147 -0.5630
 1681SOL    HW216503   1.194   2.399   5.552 -0.1870 -0.1649  0.0614
 1682SOL     OW16504   0.707   3.507   5.389  0.0739  0.2669  0.1880
 1682SOL    HW116505   0.773   3.512   5.319  1.7493 -0.5300  1.7332
 1682SOL    HW216506   0.719   3.416   5.414 -0.1477  0.6486  1.6350
 1683SOL     OW16507   0.125   0.795   1.943  0.0736 -0.3281 -0.3328
 1683SOL    HW116508   0.111   0.736   2.016  2.6864 -0.1633  0.2837
 1683SOL    HW216509   0.182   0.725   1.910 -0.9723 -0.3683 -2.0925
 1684SOL     OW16510   4.085   2.451   9.670 -0.3935  0.2302 -0.2213
 1684SOL    HW116511   4.173   2.413   9.674  0.6201  2.6694  0.9503
 1684SOL    HW216512   4.037   2.368   9.662  1.4459 -0.7125 -1.4843
 1685SOL     OW16513   3.286   3.640   2.748 -0.0530  0.3440  0.2484
 1685SOL    HW116514   3.282   3.723   2.796  1.5016  1.3805 -1.4742
 1685SOL    HW216515   3.279   3.679   2.661  1.2143  1.9618  0.8689
 1686SOL     OW16516   2.466   0.702  17.493 -0.0828  0.0278  0.5223
 1686SOL    HW116517   2.390   0.666  17.447 -1.4330 -0.4242  3.1298
 1686SOL    HW216518   2.444   0.667  17.579 -0.3641  0.4312  0.6131
 1687SOL     OW16519   4.151   4.537  16.744  0.2005 -0.0154  0.0026
 1687SOL    HW116520   4.195   4.470  16.797 -0.8886 -1.8711 -1.4260
 1687SOL    HW216521   4.121   4.486  16.669  1.1240  0.2475 -0.5427
 1688SOL     OW16522   3.486   0.826   8.996  0.3714  0.1390  0.0026
 1688SOL    HW116523   3.400   0.789   8.975  0.7333 -0.8156  0.1969
 1688SOL    HW216524   3.455   0.887   9.062 -1.2359 -2.7329  1.9252
 1689SOL     OW16525   4.072   4.705  17.597 -0.3951 -0.1720 -0.7663
 1689SOL    HW116526   4.161   4.721  17.566  0.2103  0.4077  1.2450
 1689SOL    HW216527   4.094   4.667  17.682  0.9497  1.6959 -0.2779
 1690SOL     OW16528   0.913   1.480   0.345  0.2206  0.2849  0.3236
 1690SOL    HW116529   0.915   1.417   0.273  0.1181 -0.2840  0.8152
 1690SOL    HW216530   0.825   1.512   0.329  0.4843  0.5748 -0.5578
 1691SOL     OW16531   1.086   2.756   0.832 -0.4019 -0.2901 -0.0606
 1691SOL    HW116532   1.079   2.851   0.830 -1.4883 -0.3848 -0.8602
 1691SOL    HW216533   1.140   2.736   0.756 -1.2552 -2.7609 -0.0194
 1692SOL     OW16534   2.745   0.273   3.279 -0.1315 -0.2383  0.0619
 1692SOL    HW116535   2.829   0.317   3.285 -0.6421  0.6901  0.4316
 1692SOL    HW216536   2.765   0.203   3.341 -0.2967 -2.0064 -1.8759
 1693SOL     OW16537   3.206   3.786   6.279 -0.1028 -0.2622 -0.3015
 1693SOL    HW116538   3.290   3.830   6.273 -0.2110  0.0970  0.8053
 1693SOL    HW216539   3.212   3.747   6.365 -2.7125 -1.0554 -0.4694
 1694SOL     OW16540   1.445   3.530   8.099 -0.1521  0.1667  0.1317
 1694SOL    HW116541   1.442   3.588   8.175 -2.3083 -3.4726  2.8216
 1694SOL    HW216542   1.525   3.559   8.056 -0.1251 -1.6810 -1.0981
 1695SOL     OW16543   1.440   1.966   1.097  0.1973  0.0989 -0.6415
 1695SOL    HW116544   1.492   1.913   1.036  0.8984  0.8544 -0.6985
 1695SOL    HW216545   1.495   1.992   1.170  0.8347 -4.0784  0.3407
 1696SOL     OW16546   4.509   0.558   7.278  0.1158 -0.5220  0.6139
 1696SOL    HW116547   4.580   0.507   7.319  2.6647  1.6506 -1.0644
 1696SOL    HW216548   4.513   0.639   7.329 -0.6846  0.2408 -0.5436
 1697SOL     OW16549   4.148   1.936   9.909  0.7277 -0.2708  0.2637
 1697SOL    HW116550   4.190   1.993   9.845 -2.5036  2.5282  0.5739
 1697SOL    HW216551   4.186   1.973   9.989  1.2733 -1.6772  0.6598
 1698SOL     OW16552   2.094   3.205  13.609  0.4096  0.5833 -0.0363
 1698SOL    HW116553   2.074   3.254  13.529  0.1668  0.9514  0.2459
 1698SOL    HW216554   2.028   3.138  13.593 -0.5630  1.5276  0.0431
 1699SOL     OW16555   4.489   2.338   7.034 -0.3737 -0.1515  0.5345
 1699SOL    HW116556   4.397   2.312   7.043 -0.7132  0.4732 -0.9327
 1699SOL    HW216557   4.497   2.413   7.092  0.1021 -0.5900  1.0296
 1700SOL     OW16558   4.396   3.220   5.295  0.1847  0.2465  0.1715
 1700SOL    HW116559   4.313   3.191   5.332  1.8215 -2.8983  1.3737
 1700SOL    HW216560   4.397   3.199   5.202 -1.3948  0.8115  0.0240
 1701SOL     OW16561   1.996   4.425  14.247 -0.4593  0.0272  0.0197
 1701SOL    HW116562   1.999   4.456  14.157  2.5621  1.4215  0.6142
 1701SOL    HW216563   1.984   4.331  14.230  0.0757 -0.0306 -0.0313
 1702SOL     OW16564   3.701   4.234   2.988 -0.0311  0.3806  0.2179
 1702SOL    HW116565   3.709   4.309   3.048 -2.5165  0.4505  0.4772
 1702SOL    HW216566   3.762   4.264   2.920 -0.6332  1.8870  0.3419
 1703SOL     OW16567   3.303   4.010   3.436  0.1340  0.4010 -0.1218
 1703SOL    HW116568   3.209   4.023   3.449  0.1571  0.6694 -0.2212
 1703SOL    HW216569   3.344   4.087   3.475  0.3089  0.6580 -0.8098
 1704SOL     OW16570   2.297   0.615  16.827  0.3085  0.4587 -0.3793
 1704SOL    HW116571   2.306   0.555  16.754  1.0230 -1.5311  1.3297
 1704SOL    HW216572   2.385   0.597  16.862  0.8250 -1.8726 -2.8847
 1705SOL     OW16573   1.771   0.581   4.584 -0.2937  0.0729  0.0896
 1705SOL    HW116574   1.786   0.486   4.586 -1.3611 -0.1044 -0.0005
 1705SOL    HW216575   1.688   0.577   4.536  0.2894  1.0678 -0.9991
 1706SOL     OW16576   0.753   4.420   6.740 -0.0982  0.2908 -0.5452
 1706SOL    HW116577   0.673   4.414   6.793  1.0628 -0.6208  1.0911
 1706SOL    HW216578   0.750   4.515   6.731  0.9365  0.4442  0.8255
 1707SOL     OW16579   0.135   1.781   0.248  0.1045  0.1912 -0.0924
 1707SOL    HW116580   0.072   1.817   0.185 -0.0478  2.4853  1.3824
 1707SOL    HW216581   0.065   1.740   0.298  1.9048  0.0229  2.2915
 1708SOL     OW16582   3.561   0.967   6.513 -0.3116 -0.2185 -0.0672
 1708SOL    HW116583   3.647   0.963   6.554 -0.2187 -1.1208 -0.3574
 1708SOL    HW216584   3.549   1.062   6.519 -1.1251 -0.3961  1.0050
 1709SOL     OW16585   4.519   2.613   6.514 -0.2098  0.1754 -0.1384
 1709SOL    HW116586   4.562   2.539   6.470 -1.9180 -1.0290  0.2291
 1709SOL    HW216587   4.544   2.692   6.466  0.4787 -0.0808 -0.1976
 1710SOL     OW16588   3.298   0.687   4.354  0.7536 -0.4135  0.2844
 1710SOL    HW116589   3.341   0.612   4.396  0.5597 -1.0210 -0.5869
 1710SOL    HW216590   3.254   0.733   4.425 -1.2441 -0.2662 -1.0488
 1711SOL     OW16591   4.343   3.080   6.244  0.1570  0.2757 -0.0159
 1711SOL    HW116592   4.411   3.148   6.240 -0.4124  0.7363 -1.6333
 1711SOL    HW216593   4.270   3.138   6.265 -0.6817  0.2573 -2.8760
 1712SOL     OW16594   2.636   4.496  15.461 -0.1053  0.3066 -0.8278
 1712SOL    HW116595   2.577   4.444  15.408  0.1387 -2.3798  1.5176
 1712SOL    HW216596   2.569   4.542  15.512  1.0650  0.0890  0.9259
 1713SOL     OW16597   3.271   2.414  10.323  0.2079  0.4475 -0.6036
 1713SOL    HW116598   3.217   2.413  10.402 -0.8718  1.1256 -1.3249
 1713SOL    HW216599   3.254   2.324  10.295 -1.0384 -0.4162  3.0300
 1714SOL     OW16600   4.490   0.487   1.455 -0.0802 -0.1081  0.2077
 1714SOL    HW116601   4.547   0.415   1.484  1.0567  0.2322 -1.1862
 1714SOL    HW216602   4.516   0.549   1.524  1.7880 -0.4844 -0.1621
 1715SOL     OW16603   0.332   3.418   2.218  0.2883  0.3618  0.2621
 1715SOL    HW116604   0.327   3.357   2.145 -1.4189  1.4550 -0.5404
 1715SOL    HW216605   0.298   3.499   2.179  0.2468  0.6267  0.8342
 1716SOL     OW16606   1.394   4.041   3.933 -0.0268 -0.4795 -0.3629
 1716SOL    HW116607   1.385   4.031   4.028  0.1309 -1.2730 -0.4317
 1716SOL    HW216608   1.329   4.111   3.932  1.3303  0.7936 -0.4881
 1717SOL     OW16609   1.270   4.137  13.675  0.3389  0.1991 -0.1782
 1717SOL    HW116610   1.258   4.043  13.685  0.6597  0.2153  0.3509
 1717SOL    HW216611   1.327   4.125  13.599 -0.9167  0.0178 -1.0913
 1718SOL     OW16612   1.733   4.415   6.844  0.4678 -0.4626  0.2119
 1718SOL    HW116613   1.693   4.456   6.767 -0.4465  1.4160  1.6870
 1718SOL    HW216614   1.681   4.435   6.922 -1.2145 -0.4391 -0.9373
 1719SOL     OW16615   1.135   3.946  12.272 -0.1871 -0.6517  0.1243
 1719SOL    HW116616   1.193   3.988  12.208 -0.8431  1.1729  0.7270
 1719SOL    HW216617   1.184   3.945  12.355  0.4750  2.5628 -0.2026
 1720SOL     OW16618   4.665   4.065  11.547  0.0152 -0.1042  0.5601
 1720SOL    HW116619   0.006   4.135  11.539 -0.8237  0.6553  0.3452
 1720SOL    HW216620   4.700   4.002  11.611  1.1889  0.3883  0.4051
 1721SOL     OW16621   0.645   1.755   5.159 -0.0034 -0.0889 -0.8061
 1721SOL    HW116622   0.705   1.789   5.093  0.9573 -1.1378 -0.4652
 1721SOL    HW216623   0.590   1.700   5.104  1.0313 -3.5933  1.6662
 1722SOL     OW16624   4.152   4.591   8.758 -0.5772 -0.2735 -0.1578
 1722SOL    HW116625   4.090   4.625   8.822 -1.7730 -0.3803 -1.2554
 1722SOL    HW216626   4.181   4.510   8.799 -0.6977 -0.2615 -0.0486
 1723SOL     OW16627   1.284   0.668   1.670  0.3218 -0.9760  0.0466
 1723SOL    HW116628   1.378   0.681   1.683  0.0909  1.1699 -0.4249
 1723SOL    HW216629   1.278   0.580   1.633 -1.4973 -0.3670 -1.1234
 1724SOL     OW16630   4.029   1.386  12.640 -0.6459 -0.1176  0.1550
 1724SOL    HW116631   3.973   1.463  12.648  0.3578  0.2464  3.3424
 1724SOL    HW216632   4.106   1.410  12.692  0.7947 -1.5128 -1.3128
 1725SOL     OW16633   2.507   3.941   5.763 -0.0158 -1.0193  0.2501
 1725SOL    HW116634   2.518   3.851   5.795 -2.1863 -0.6628  1.9410
 1725SOL    HW216635   2.598   3.950   5.732 -0.4419  0.8697 -0.4475
 1726SOL     OW16636   0.485   2.379   7.263 -0.4510  0.1221  0.5031
 1726SOL    HW116637   0.430   2.302   7.264  1.0719 -0.9724  0.8154
 1726SOL    HW216638   0.463   2.420   7.180 -0.6551 -1.0124  0.0059
 1727SOL     OW16639   2.929   0.714   5.583  0.2856 -0.3965 -0.8515
 1727SOL    HW116640   2.871   0.643   5.612  1.4058 -1.9731 -2.4303
 1727SOL    HW216641   2.932   0.769   5.661 -0.1385 -0.3004 -0.9021
 1728SOL     OW16642   1.165   1.985   4.447  0.3875  0.5037  0.1213
 1728SOL    HW116643   1.180   1.954   4.537  2.1817 -0.4806 -0.5190
 1728SOL    HW216644   1.256   1.971   4.420  0.1267  1.3768 -1.1869
 1729SOL     OW16645   4.634   2.786   3.844 -0.4761 -0.0632  0.4275
 1729SOL    HW116646   4.616   2.875   3.876 -0.5039  0.0783  0.0153
 1729SOL    HW216647   4.646   2.756   3.934  3.7307  1.5856  0.4462
 1730SOL     OW16648   1.762   1.676   5.960  0.5879 -0.3331  0.4341
 1730SOL    HW116649   1.777   1.593   5.913 -1.3736 -0.2023 -0.4074
 1730SOL    HW216650   1.749   1.654   6.052 -1.5641  1.4996  0.5526
 1731SOL     OW16651   1.468   4.390   3.563  0.1119  0.1905  0.0791
 1731SOL    HW116652   1.477   4.416   3.655 -0.8526  0.4760  0.0897
 1731SOL    HW216653   1.495   4.475   3.526 -0.1711  0.5938  0.7922
 1732SOL     OW16654   0.323   3.772   4.794  0.5730 -0.0934  0.1076
 1732SOL    HW116655   0.365   3.699   4.747  1.7056 -0.3828  1.5450
 1732SOL    HW216656   0.387   3.770   4.865 -2.3189 -2.1399  2.6398
 1733SOL     OW16657   1.576   4.069   5.544 -0.3449  0.5690  0.0746
 1733SOL    HW116658   1.525   4.036   5.470 -1.3852  0.1576  0.9658
 1733SOL    HW216659   1.646   4.004   5.535 -1.0834 -0.5467  2.2124
 1734SOL     OW16660   1.818   4.415  16.452 -0.0308 -0.1923  0.2966
 1734SOL    HW116661   1.879   4.488  16.454 -0.7363  0.3803  0.7863
 1734SOL    HW216662   1.877   4.348  16.486 -0.5149 -1.7743 -1.9837
 1735SOL     OW16663   4.081   0.668   9.130  0.0110 -0.1608 -0.0628
 1735SOL    HW116664   4.116   0.639   9.046  0.7823 -2.8339  1.1594
 1735SOL    HW216665   3.991   0.661   9.097  0.4445 -2.8677 -0.6879
 1736SOL     OW16666   0.422   1.691   7.011 -0.2417  0.0846  0.5408
 1736SOL    HW116667   0.388   1.604   7.034  1.5156 -0.5353  0.7784
 1736SOL    HW216668   0.410   1.746   7.088 -1.5897 -0.5108  0.7597
 1737SOL     OW16669   1.849   1.506   5.600  0.2036  0.5145 -0.6208
 1737SOL    HW116670   1.879   1.415   5.602  0.3901  0.6090  0.7421
 1737SOL    HW216671   1.927   1.543   5.641  1.2077 -1.4273 -0.7778
 1738SOL     OW16672   3.670   1.134  15.553  0.3561 -0.3310  0.8186
 1738SOL    HW116673   3.715   1.071  15.497 -0.1617 -0.3915  0.4718
 1738SOL    HW216674   3.662   1.204  15.488 -0.3523 -0.2607  0.9791
 1739SOL     OW16675   2.637   1.732   2.191 -0.1740 -0.1955 -0.0796
 1739SOL    HW116676   2.667   1.644   2.214  1.2615  0.1797 -0.4943
 1739SOL    HW216677   2.557   1.736   2.242 -1.2761  1.3840 -1.9080
 1740SOL     OW16678   0.789   0.312  13.678 -0.8574  0.2593 -0.3898
 1740SOL    HW116679   0.694   0.325  13.679 -0.9510 -0.3441 -0.7843
 1740SOL    HW216680   0.806   0.222  13.706  2.3735  1.2147  0.7222
 1741SOL     OW16681   3.864   4.688   8.617 -0.1103  0.0092  0.4172
 1741SOL    HW116682   3.883   4.603   8.657 -3.2780 -0.9047 -0.0182
 1741SOL    HW216683   3.909   4.668   8.535 -1.3834  1.1913 -0.5781
 1742SOL     OW16684   3.309   2.709  14.358 -0.3503 -0.4220  0.4091
 1742SOL    HW116685   3.281   2.775  14.295 -1.6074  0.4468  1.8750
 1742SOL    HW216686   3.236   2.647  14.363 -1.3320  0.8404  1.5982
 1743SOL     OW16687   2.604   1.121  15.650  0.8024  0.0801  0.3986
 1743SOL    HW116688   2.524   1.070  15.638  1.2809 -0.4723 -0.4835
 1743SOL    HW216689   2.652   1.076  15.580  1.2933 -2.6820  2.4888
 1744SOL     OW16690   2.850   2.243   2.929 -0.3819 -0.4318 -0.2809
 1744SOL    HW116691   2.912   2.217   2.997 -1.8774 -0.5212  1.0314
 1744SOL    HW216692   2.821   2.325   2.968  0.5512  0.0166 -0.5262
 1745SOL     OW16693   1.422   0.837   1.472 -0.2129 -0.1215 -0.1223
 1745SOL    HW116694   1.355   0.805   1.533 -0.2432 -1.2548 -0.7501
 1745SOL    HW216695   1.502   0.824   1.523  0.2945  0.1693 -0.8559
 1746SOL     OW16696   4.661   3.655   8.396  0.0129  0.5474  0.1201
 1746SOL    HW116697   0.011   3.710   8.369  0.7560  0.1194  1.2825
 1746SOL    HW216698   4.704   3.600   8.461 -0.1817  2.2843  1.6986
 1747SOL     OW16699   1.695   3.804  16.481 -0.5604 -0.1203  0.4381
 1747SOL    HW116700   1.645   3.722  16.473  0.2365 -0.5237 -0.3725
 1747SOL    HW216701   1.638   3.856  16.425  0.8905 -0.2326 -1.1387
 1748SOL     OW16702   3.407   3.728   5.173  0.7454  0.1455 -0.3882
 1748SOL    HW116703   3.394   3.807   5.119  1.5008  0.7390  0.3114
 1748SOL    HW216704   3.501   3.735   5.187  0.8083 -2.7133  0.4699
 1749SOL     OW16705   2.874   0.937  13.418  0.1855 -0.6253 -0.2247
 1749SOL    HW116706   2.894   0.959  13.509  2.5789  1.2190 -1.1959
 1749SOL    HW216707   2.804   0.874  13.432 -0.1027  0.0475  1.4244
 1750SOL     OW16708   4.623   1.125   6.193 -0.0138  0.1280  0.6534
 1750SOL    HW116709   4.588   1.159   6.111  0.4608  1.4132  0.9869
 1750SOL    HW216710   4.610   1.030   6.188  0.6532  0.0394  0.6340
 1751SOL     OW16711   2.035   0.616  17.294  0.4011 -0.0490 -0.3376
 1751SOL    HW116712   1.955   0.573  17.322  0.2202  0.6030  0.1507
 1751SOL    HW216713   2.055   0.666  17.373  0.6769 -1.2057  0.3125
 1752SOL     OW16714   3.170   1.004   5.774  0.2304  0.0139  0.4160
 1752SOL    HW116715   3.172   1.093   5.739 -2.9829  0.5608  1.5749
 1752SOL    HW216716   3.262   0.987   5.792  0.2010 -2.0431 -1.3000
 1753SOL     OW16717   2.864   2.010   2.469 -0.1409  0.2072 -0.2453
 1753SOL    HW116718   2.841   1.917   2.468  1.0607 -0.1229  1.4618
 1753SOL    HW216719   2.816   2.023   2.551 -0.4612  0.6073 -0.4996
 1754SOL     OW16720   4.675   3.788   9.091 -0.3729 -0.0898 -0.0369
 1754SOL    HW116721   4.693   3.798   9.184  3.1409  1.8011 -0.8973
 1754SOL    HW216722   0.035   3.815   9.052 -0.7001  0.7814 -0.1229
 1755SOL     OW16723   3.872   1.002   2.637 -0.0211  0.7456  0.8621
 1755SOL    HW116724   3.930   0.962   2.701  0.8901  0.7759  0.0477
 1755SOL    HW216725   3.916   0.979   2.555 -1.1449  1.3768  0.0787
 1756SOL     OW16726   0.628   3.000  15.611  0.5212 -0.0372  0.0996
 1756SOL    HW116727   0.684   3.074  15.635  1.5172 -0.4156 -1.0949
 1756SOL    HW216728   0.596   3.017  15.523  1.6293  2.2118  0.1411
 1757SOL     OW16729   1.516   2.837   5.600  0.3933 -0.3336  0.2035
 1757SOL    HW116730   1.517   2.803   5.510 -0.2207  0.7364 -0.2075
 1757SOL    HW216731   1.517   2.932   5.588 -1.0242 -0.5346 -1.5008
 1758SOL     OW16732   1.297   1.506   4.646  0.5045  0.9420  0.5670
 1758SOL    HW116733   1.353   1.430   4.662 -0.0590  0.8262  2.0159
 1758SOL    HW216734   1.349   1.580   4.676  2.2164 -0.3671  0.8561
 1759SOL     OW16735   1.421   4.450  17.329  0.1908  0.0065  0.0101
 1759SOL    HW116736   1.451   4.539  17.348 -2.6248  1.0702 -0.4839
 1759SOL    HW216737   1.500   4.403  17.303 -0.0383  0.2918 -1.1782
 1760SOL     OW16738   0.770   3.104   5.246  0.5160 -0.3147  0.1407
 1760SOL    HW116739   0.757   3.162   5.322 -0.9193 -1.4859  0.7878
 1760SOL    HW216740   0.706   3.035   5.264 -0.9741  1.0300 -0.0459
 1761SOL     OW16741   3.726   1.337  13.256 -0.3370  0.1009 -0.2409
 1761SOL    HW116742   3.777   1.308  13.181 -0.1746  1.1962 -0.5652
 1761SOL    HW216743   3.665   1.392  13.207  0.7660  0.3580 -1.3329
 1762SOL     OW16744   0.036   3.446   1.783  0.1980 -0.2547 -0.2133
 1762SOL    HW116745   4.704   3.380   1.741 -1.6895  0.2184  1.5594
 1762SOL    HW216746   4.699   3.517   1.767  1.2675  0.4161 -1.3214
 1763SOL     OW16747   0.938   2.021   2.264  0.4481 -0.3122  0.1379
 1763SOL    HW116748   0.882   1.944   2.271  0.4925 -0.3586 -0.0024
 1763SOL    HW216749   0.904   2.080   2.331  1.6775 -0.5036  0.9430
 1764SOL     OW16750   2.166   4.366  17.328  0.1953 -0.2010 -0.2634
 1764SOL    HW116751   2.201   4.446  17.367 -0.0111 -0.5698  0.6760
 1764SOL    HW216752   2.237   4.312  17.363  0.1884  0.5197  0.8388
 1765SOL     OW16753   1.100   1.733   7.693  0.8407  0.0521 -0.3302
 1765SOL    HW116754   1.169   1.751   7.630 -0.3080  0.0566 -1.5853
 1765SOL    HW216755   1.132   1.803   7.750 -0.6664 -0.3536  1.0226
 1766SOL     OW16756   1.704   0.171   3.760 -0.3828 -0.1316  0.5598
 1766SOL    HW116757   1.723   0.257   3.722 -1.1513 -1.1973 -2.2698
 1766SOL    HW216758   1.611   0.191   3.758 -0.2162  0.4220 -1.1693
 1767SOL     OW16759   4.243   1.193  12.873  0.3193 -0.0100 -0.4446
 1767SOL    HW116760   4.153   1.162  12.860  0.8109 -0.9794 -1.5720
 1767SOL    HW216761   4.235   1.283  12.842 -2.5632 -0.3682 -0.7278
 1768SOL     OW16762   0.087   3.487   7.753  0.8409  0.0869  0.1150
 1768SOL    HW116763   0.048   3.414   7.800 -0.1974  0.6011  0.0597
 1768SOL    HW216764   0.080   3.543   7.830 -0.6945 -0.5695  0.4587
 1769SOL     OW16765   0.567   0.801  16.309 -0.1766 -0.2759  0.1523
 1769SOL    HW116766   0.511   0.724  16.299  1.1449 -1.3743  1.2924
 1769SOL    HW216767   0.494   0.864  16.307  0.2819  0.2432 -0.3054
 1770SOL     OW16768   3.323   0.525   8.686 -0.0569  0.1220  0.4353
 1770SOL    HW116769   3.353   0.455   8.744  0.4577  2.0654  2.5246
 1770SOL    HW216770   3.404   0.576   8.688  0.1909 -0.3089  1.4882
 1771SOL     OW16771   1.603   1.287   6.146 -0.1879  0.1841 -0.7183
 1771SOL    HW116772   1.530   1.266   6.204 -0.9154 -0.3883 -1.8312
 1771SOL    HW216773   1.671   1.232   6.184  0.3122  2.7036  2.0210
 1772SOL     OW16774   1.520   0.199   0.828 -0.7405 -0.3454  0.5085
 1772SOL    HW116775   1.535   0.132   0.761 -2.2244  1.0193 -1.2016
 1772SOL    HW216776   1.444   0.159   0.871 -2.8331  0.1551 -2.6446
 1773SOL     OW16777   2.085   0.359   3.429 -0.2950 -0.0335 -0.3724
 1773SOL    HW116778   2.173   0.381   3.398  0.6598 -0.3143  2.1253
 1773SOL    HW216779   2.031   0.388   3.356 -0.5028  0.2280 -0.1140
 1774SOL     OW16780   4.594   1.046   1.832 -0.6426 -0.1233 -0.0820
 1774SOL    HW116781   4.560   0.991   1.903 -0.5474  0.4266  0.3899
 1774SOL    HW216782   4.665   1.082   1.885 -0.2169  0.4379 -1.0344
 1775SOL     OW16783   2.043   2.459   3.679  0.0193  0.2798 -0.0796
 1775SOL    HW116784   2.040   2.542   3.726 -0.5751 -0.1031  0.5498
 1775SOL    HW216785   2.051   2.490   3.588 -0.1483 -0.2310 -0.2649
 1776SOL     OW16786   3.516   3.864   9.940 -0.2796 -0.0230 -0.2034
 1776SOL    HW116787   3.425   3.883   9.918 -0.3116  0.4686  0.3807
 1776SOL    HW216788   3.561   3.934   9.892  0.5794  0.0976  0.7689
 1777SOL     OW16789   1.837   2.319   2.645 -0.0247 -0.2708  0.1286
 1777SOL    HW116790   1.903   2.316   2.714  0.2240  0.0272 -0.1022
 1777SOL    HW216791   1.757   2.340   2.694 -0.3148  0.4772 -0.6774
 1778SOL     OW16792   3.501   0.904   8.030  0.2627  0.3406 -0.4375
 1778SOL    HW116793   3.411   0.878   8.012 -0.5158  0.0131  4.0881
 1778SOL    HW216794   3.496   0.962   8.105 -1.9610 -0.8149  0.2749
 1779SOL     OW16795   1.661   0.686   6.450  0.2386  0.1304 -0.1728
 1779SOL    HW116796   1.615   0.770   6.455  1.0664  0.6162 -0.6005
 1779SOL    HW216797   1.752   0.715   6.457  0.1992  0.2095  0.0141
 1780SOL     OW16798   0.595   4.462  13.930  0.1826  0.2549  0.0083
 1780SOL    HW116799   0.501   4.473  13.915  0.3134  1.0351 -0.2287
 1780SOL    HW216800   0.626   4.483  13.841  1.0756 -0.1147  0.2320
 1781SOL     OW16801   4.624   1.525   3.637 -1.0651 -0.0723  0.1480
 1781SOL    HW116802   4.696   1.549   3.578 -0.3577 -0.0468  1.0255
 1781SOL    HW216803   4.673   1.456   3.680 -1.0081 -1.2086 -1.7576
 1782SOL     OW16804   0.175   4.552   9.193  0.0024  1.0451  0.3809
 1782SOL    HW116805   0.258   4.516   9.160 -1.1604 -0.2779 -1.0556
 1782SOL    HW216806   0.211   4.591   9.272  1.9651  0.0905 -0.0390
 1783SOL     OW16807   1.855   4.343   9.151  0.1171 -0.5605 -0.1879
 1783SOL    HW116808   1.878   4.286   9.078 -0.9353 -0.2202 -0.7885
 1783SOL    HW216809   1.790   4.406   9.120  0.3373 -1.1876 -1.9414
 1784SOL     OW16810   1.369   1.373   4.003  0.6805 -0.3617 -0.0958
 1784SOL    HW116811   1.345   1.362   4.095 -2.7736  2.7823 -0.5807
 1784SOL    HW216812   1.308   1.318   3.955  0.1589 -0.9254  1.2251
 1785SOL     OW16813   0.510   0.819   7.976 -0.3308  0.0342 -0.0098
 1785SOL    HW116814   0.418   0.844   7.973 -0.5522 -0.7681  0.1239
 1785SOL    HW216815   0.513   0.796   8.069 -0.7570  2.2924  0.5705
 1786SOL     OW16816   2.698   4.420   1.277 -0.4005  0.0830  0.7181
 1786SOL    HW116817   2.776   4.451   1.230 -0.3086 -1.6278 -0.2524
 1786SOL    HW216818   2.695   4.331   1.243  1.7722  0.8781 -1.5486
 1787SOL     OW16819   0.747   1.207   8.631 -0.8102 -0.2056 -0.2284
 1787SOL    HW116820   0.743   1.301   8.646 -0.9902 -0.3918  0.8723
 1787SOL    HW216821   0.659   1.199   8.594 -0.1359 -1.0878 -1.6751
 1788SOL     OW16822   0.392   4.242  16.515  0.1152 -0.3208 -0.2849
 1788SOL    HW116823   0.428   4.237  16.604 -0.3339  0.5375 -0.0502
 1788SOL    HW216824   0.409   4.156  16.476  0.8429 -0.4781  0.3660
 1789SOL     OW16825   1.245   2.268   5.291 -0.3370 -0.4486 -0.6893
 1789SOL    HW116826   1.248   2.339   5.228 -1.3948  0.0866 -0.1385
 1789SOL    HW216827   1.283   2.199   5.236  1.8421 -0.3766  0.7195
 1790SOL     OW16828   2.892   4.047  10.151  0.6183 -0.3392  0.2303
 1790SOL    HW116829   2.932   4.132  10.131 -0.0945  0.2648  1.4581
 1790SOL    HW216830   2.845   4.062  10.232 -0.6108  1.0910 -0.7442
 1791SOL     OW16831   3.821   3.012   5.321  0.0360 -0.3108  0.4581
 1791SOL    HW116832   3.827   2.946   5.252 -2.6752  0.9174 -0.9542
 1791SOL    HW216833   3.761   3.069   5.273 -1.5800 -2.7517 -0.4221
 1792SOL     OW16834   3.944   4.213   3.386 -0.6863  0.0528 -0.0604
 1792SOL    HW116835   3.856   4.249   3.374  0.5303  2.8162 -0.7655
 1792SOL    HW216836   3.928   4.122   3.361  0.9973 -0.0900 -0.6456
 1793SOL     OW16837   0.702   0.156   5.589  0.0243  0.6436  0.3434
 1793SOL    HW116838   0.781   0.118   5.628  1.0029  1.5292 -0.7427
 1793SOL    HW216839   0.669   0.214   5.657 -1.7987  0.9200 -0.7848
 1794SOL     OW16840   2.539   2.722  12.413  0.1292  0.1118 -0.8102
 1794SOL    HW116841   2.570   2.654  12.354  0.7477  0.3684 -0.7833
 1794SOL    HW216842   2.515   2.667  12.487  1.5290 -1.0545 -1.2278
 1795SOL     OW16843   2.667   4.634   3.069  0.0749 -0.6452  0.0331
 1795SOL    HW116844   2.746   4.668   3.027 -1.1630 -0.6307 -2.2488
 1795SOL    HW216845   2.681   4.543   3.044 -3.4896 -1.3997  0.8747
 1796SOL     OW16846   3.512   1.145   8.173  0.3245 -0.2820  0.7739
 1796SOL    HW116847   3.471   1.220   8.129 -0.3436 -0.4397  1.1160
 1796SOL    HW216848   3.506   1.174   8.264  0.0468  1.4066  0.2080
 1797SOL     OW16849   4.303   2.485   0.269  0.1115  0.3169  0.7414
 1797SOL    HW116850   4.395   2.459   0.277  0.1290  0.2317  0.2274
 1797SOL    HW216851   4.274   2.398   0.242 -0.6507  0.5024  0.9773
 1798SOL     OW16852   3.511   1.876  11.568  0.2893 -0.2024  0.1899
 1798SOL    HW116853   3.454   1.812  11.525  1.1609 -1.4158  0.8373
 1798SOL    HW216854   3.598   1.860  11.531  0.8183  0.6932  1.0437
 1799SOL     OW16855   0.567   2.356   3.968  0.7029  0.3550 -1.2737
 1799SOL    HW116856   0.493   2.295   3.974 -1.9956  3.5605 -1.8121
 1799SOL    HW216857   0.641   2.297   3.983 -0.7628 -2.0264 -3.3116
 1800SOL     OW16858   2.916   4.515   3.324 -0.1800 -0.6318 -0.0107
 1800SOL    HW116859   2.971   4.475   3.257  0.4912 -3.0855  1.9745
 1800SOL    HW216860   2.865   4.438   3.350 -0.0877 -0.4662  0.6705
 1801SOL     OW16861   2.726   0.430   4.115 -0.6625 -0.4105 -0.2100
 1801SOL    HW116862   2.758   0.385   4.193  1.5015  0.4905 -0.5850
 1801SOL    HW216863   2.661   0.370   4.080 -1.1771 -0.8794  1.5815
 1802SOL     OW16864   0.301   1.977   8.636  0.0185  0.2385 -0.4356
 1802SOL    HW116865   0.215   1.959   8.676  0.1874  1.6102  0.5370
 1802SOL    HW216866   0.362   1.923   8.687  0.3060  0.2367 -0.7854
 1803SOL     OW16867   3.558   3.582  11.039  0.0988  0.0713  0.1613
 1803SOL    HW116868   3.513   3.592  11.123  0.1045 -0.9427  0.2834
 1803SOL    HW216869   3.620   3.654  11.052  1.9726 -1.0820 -2.4571
 1804SOL     OW16870   4.440   4.418   5.424 -0.4725 -0.0495 -0.0671
 1804SOL    HW116871   4.450   4.508   5.394  0.6108  0.1437  0.8547
 1804SOL    HW216872   4.346   4.401   5.431 -0.2657 -1.5962 -0.9441
 1805SOL     OW16873   0.002   1.337   2.409 -0.4710  0.0180 -0.2866
 1805SOL    HW116874   4.635   1.318   2.383 -0.4255  2.8796 -2.4326
 1805SOL    HW216875   0.007   1.422   2.366 -1.3794 -0.3602 -1.1574
 1806SOL     OW16876   0.607   2.881   3.541  0.3976  0.0388 -0.5099
 1806SOL    HW116877   0.596   2.834   3.459 -1.3520  0.1534 -0.3497
 1806SOL    HW216878   0.650   2.963   3.519  0.3447  0.4279  0.8036
 1807SOL     OW16879   3.017   1.488   7.861 -0.0779 -0.0684 -0.2745
 1807SOL    HW116880   3.024   1.396   7.836 -0.0399  0.2921 -1.5686
 1807SOL    HW216881   2.996   1.535   7.781  0.7092 -0.8379 -0.9394
 1808SOL     OW16882   3.928   1.822   8.897 -0.6013  0.3537  0.4020
 1808SOL    HW116883   3.975   1.870   8.966 -1.5569  1.7543  0.0894
 1808SOL    HW216884   3.942   1.733   8.931  0.1071  0.8238  1.3452
 1809SOL     OW16885   0.768   3.597   1.613  0.5200  0.4101 -0.0643
 1809SOL    HW116886   0.760   3.683   1.572  0.9815  1.0578  1.1928
 1809SOL    HW216887   0.676   3.570   1.612  0.1057  1.7609  0.6497
 1810SOL     OW16888   4.557   1.350   7.819 -0.3488 -0.6868  0.5578
 1810SOL    HW116889   4.599   1.364   7.904 -0.5965  1.1396  0.3724
 1810SOL    HW216890   4.618   1.285   7.782  1.0479  0.9855 -0.0972
 1811SOL     OW16891   3.337   0.826  10.359 -0.1845  0.6641  0.7027
 1811SOL    HW116892   3.344   0.921  10.372  1.4076  0.7022 -0.4787
 1811SOL    HW216893   3.299   0.807  10.445  0.2555 -2.9784  0.0680
 1812SOL     OW16894   0.731   1.684   5.916 -0.5856 -0.2313 -0.0770
 1812SOL    HW116895   0.674   1.611   5.938 -1.9931  0.9641  0.2087
 1812SOL    HW216896   0.754   1.716   6.003 -0.9728 -0.5072  0.1210
 1813SOL     OW16897   1.791   4.693   0.196 -0.2632 -1.3115  0.4623
 1813SOL    HW116898   1.819   0.042   0.140 -0.1733 -0.3704  1.7255
 1813SOL    HW216899   1.699   4.694   0.169  0.0876  0.4719 -0.6372
 1814SOL     OW16900   1.168   2.684   4.935 -0.1084  0.0135 -0.8769
 1814SOL    HW116901   1.229   2.662   4.865  1.0664  1.6207 -0.3686
 1814SOL    HW216902   1.093   2.638   4.899 -0.0406 -0.0732 -0.9082
 1815SOL     OW16903   1.293   2.935  15.142 -0.0727  0.2352  0.2070
 1815SOL    HW116904   1.363   2.903  15.200  2.0174  3.3974 -0.5536
 1815SOL    HW216905   1.325   3.018  15.107  1.1001 -0.6094 -0.7458
 1816SOL     OW16906   4.464   3.183  11.511 -0.2819  0.1415 -0.5053
 1816SOL    HW116907   4.510   3.112  11.466  0.1610  1.0072 -1.4302
 1816SOL    HW216908   4.388   3.191  11.453  1.1047  2.8983 -1.9561
 1817SOL     OW16909   3.995   2.626  15.143 -0.0338  0.6831 -0.1241
 1817SOL    HW116910   4.001   2.700  15.203  0.2534 -1.6327  2.7009
 1817SOL    HW216911   3.937   2.665  15.078 -1.6474 -0.8410  0.3988
 1818SOL     OW16912   3.613   2.744  15.159  0.5786 -0.1064  0.2383
 1818SOL    HW116913   3.676   2.769  15.226  2.7842  0.2887 -1.9816
 1818SOL    HW216914   3.545   2.811  15.162  0.5461 -0.0602 -1.4369
 1819SOL     OW16915   1.181   0.444  15.878 -0.4454 -0.6820 -0.1261
 1819SOL    HW116916   1.123   0.368  15.868  1.7872 -2.3352 -0.5775
 1819SOL    HW216917   1.171   0.471  15.969  1.6553  0.9950 -0.3914
 1820SOL     OW16918   0.372   1.629   5.625  0.1133  0.1433  0.0474
 1820SOL    HW116919   0.463   1.656   5.636 -0.3136  1.2746  0.8762
 1820SOL    HW216920   0.382   1.599   5.535 -0.3216  0.1848 -0.0133
 1821SOL     OW16921   1.317   1.979   2.518  0.8813 -0.9762  0.3673
 1821SOL    HW116922   1.385   1.945   2.577  0.0180 -2.6934  0.3550
 1821SOL    HW216923   1.283   2.049   2.573  0.8519  1.1019 -2.3083
 1822SOL     OW16924   1.221   4.166   1.625 -0.0239 -0.3318 -0.2444
 1822SOL    HW116925   1.303   4.149   1.579  0.0624  1.6747 -0.8306
 1822SOL    HW216926   1.217   4.096   1.690 -1.5851 -2.0436 -2.1753
 1823SOL     OW16927   0.266   3.933   8.776 -0.0382  0.1898 -0.8517
 1823SOL    HW116928   0.321   3.862   8.810 -1.8386  0.4685  2.6372
 1823SOL    HW216929   0.314   4.012   8.800  0.4633 -0.0874 -0.9356
 1824SOL     OW16930   0.387   0.620   8.817  0.0082  0.2993 -0.6036
 1824SOL    HW116931   0.306   0.620   8.767  0.4104 -0.5015 -1.2437
 1824SOL    HW216932   0.423   0.705   8.793  1.2196  0.3920  1.5094
 1825SOL     OW16933   4.358   3.850   0.589 -0.0725 -0.5041 -0.0768
 1825SOL    HW116934   4.266   3.875   0.586  0.1557  0.0091 -2.6148
 1825SOL    HW216935   4.384   3.922   0.647  0.4529 -0.0615 -0.8529
 1826SOL     OW16936   1.977   1.132   5.096 -0.3901 -0.0978  0.1153
 1826SOL    HW116937   2.049   1.162   5.040  0.2139 -1.1637  0.3048
 1826SOL    HW216938   1.980   1.038   5.075  1.7581  0.2934 -1.4550
 1827SOL     OW16939   3.474   1.053  16.794 -0.2120 -0.6726  0.0452
 1827SOL    HW116940   3.537   1.089  16.730  0.4487 -1.1564  0.4230
 1827SOL    HW216941   3.530   1.021  16.865  2.3707  4.0461  0.1387
 1828SOL     OW16942   3.161   0.372   9.286 -0.6694  0.1695  0.7645
 1828SOL    HW116943   3.212   0.400   9.361  1.7872 -3.1498  0.3608
 1828SOL    HW216944   3.230   0.375   9.219 -0.8112  0.0462  0.6126
 1829SOL     OW16945   2.380   4.390  14.550 -0.5322  0.1337 -0.1438
 1829SOL    HW116946   2.296   4.415  14.510 -1.1136 -0.4047  0.7315
 1829SOL    HW216947   2.412   4.479  14.568  1.7680 -0.9186  0.8852
 1830SOL     OW16948   4.685   2.499   5.391 -0.3847  0.5014 -0.0524
 1830SOL    HW116949   0.021   2.573   5.386 -0.1081  0.4665  2.7706
 1830SOL    HW216950   4.675   2.508   5.485 -1.5966 -0.2555 -0.0995
 1831SOL     OW16951   1.788   4.331   4.549  0.2840  0.4744  0.1200
 1831SOL    HW116952   1.842   4.319   4.471  1.1037  0.1181  0.7396
 1831SOL    HW216953   1.839   4.275   4.607 -1.8029  0.5832  2.0237
 1832SOL     OW16954   0.466   1.624   4.437 -0.6002 -0.5748  0.6362
 1832SOL    HW116955   0.510   1.701   4.473 -2.2316  0.5120  0.3287
 1832SOL    HW216956   0.536   1.561   4.424  0.1021  0.4792 -0.6275
 1833SOL     OW16957   0.725   1.364  11.391 -0.2136  0.0439 -0.3191
 1833SOL    HW116958   0.714   1.410  11.474  1.3953  0.6027 -0.4100
 1833SOL    HW216959   0.725   1.271  11.417  1.9564 -0.2498 -1.3531
 1834SOL     OW16960   0.711   1.604   1.114  0.1114  0.2534 -0.0175
 1834SOL    HW116961   0.743   1.694   1.105 -1.3619  0.6372 -1.2714
 1834SOL    HW216962   0.760   1.552   1.050 -1.6772 -0.0885 -1.0811
 1835SOL     OW16963   0.089   4.017  15.410 -0.1838 -0.1056 -0.2836
 1835SOL    HW116964   0.178   3.998  15.380 -0.4934 -1.7341 -0.1689
 1835SOL    HW216965   0.039   3.937  15.396 -0.3180 -0.2714  1.1556
 1836SOL     OW16966   1.132   0.018  17.451 -0.3686  0.3545  0.3628
 1836SOL    HW116967   1.084   4.713  17.373  0.9983  1.1734 -0.7781
 1836SOL    HW216968   1.138   4.661  17.501 -0.8596  0.2994  0.3361
 1837SOL     OW16969   3.857   4.384   8.003  0.2015 -0.0105 -0.0606
 1837SOL    HW116970   3.860   4.475   8.032 -0.5917 -0.0099  0.0235
 1837SOL    HW216971   3.950   4.372   7.985  0.3408 -0.4231  0.9459
 1838SOL     OW16972   2.545   2.286   7.726 -0.1555 -0.4210 -0.5625
 1838SOL    HW116973   2.538   2.337   7.806 -4.1181 -2.3711  0.2904
 1838SOL    HW216974   2.453   2.277   7.700 -0.3589 -3.2080  1.0992
 1839SOL     OW16975   2.559   0.990  11.884  0.2705 -0.4406 -0.1761
 1839SOL    HW116976   2.605   0.907  11.889  1.3683  0.1505 -0.6393
 1839SOL    HW216977   2.578   1.030  11.969  0.5137 -1.1611  0.1084
 1840SOL     OW16978   0.238   0.292   7.504 -0.3869 -0.0746  0.1503
 1840SOL    HW116979   0.328   0.270   7.482 -0.5455  2.0616 -2.5860
 1840SOL    HW216980   0.242   0.371   7.558 -3.2777 -0.4439  0.8863
 1841SOL     OW16981   1.750   1.955   8.136 -0.2881  0.4915  0.5987
 1841SOL    HW116982   1.751   2.012   8.059  1.1526 -1.9703 -1.1773
 1841SOL    HW216983   1.731   2.022   8.202 -0.1305  0.9237  0.2055
 1842SOL     OW16984   3.238   4.478   3.432  0.0252  0.0877  0.0150
 1842SOL    HW116985   3.305   4.416   3.404  2.4940  2.1278  1.4703
 1842SOL    HW216986   3.170   4.471   3.364 -0.1351 -0.3746  0.2214
 1843SOL     OW16987   3.523   4.704  17.219  0.5532  0.2874  0.3147
 1843SOL    HW116988   3.528   4.634  17.153 -2.4026 -0.3132  0.7500
 1843SOL    HW216989   3.611   4.691  17.255  0.8204 -1.3342 -0.9301
 1844SOL     OW16990   0.866   0.244   3.957  0.3851 -0.3458  0.5476
 1844SOL    HW116991   0.849   0.162   4.004  1.3340  0.5797  2.5021
 1844SOL    HW216992   0.958   0.258   3.978  0.5053  0.3709 -0.4603
 1845SOL     OW16993   1.021   1.381   3.427 -0.2519  0.6587  0.0427
 1845SOL    HW116994   1.002   1.292   3.398  2.7456 -0.2692  0.9727
 1845SOL    HW216995   0.969   1.438   3.370 -0.2035 -0.4332 -1.0980
 1846SOL     OW16996   3.484   1.626   5.385  0.6578 -0.1184  0.3030
 1846SOL    HW116997   3.524   1.704   5.424 -0.0369 -0.2017  1.1668
 1846SOL    HW216998   3.466   1.573   5.462 -0.5187 -1.6090 -1.0074
 1847SOL     OW16999   4.274   3.892   8.075  0.3244 -0.2180  0.4043
 1847SOL    HW117000   4.243   3.865   7.989 -0.8469  4.0976 -0.5438
 1847SOL    HW217001   4.361   3.928   8.057 -0.0967  1.3840  1.5640
 1848SOL     OW17002   4.653   1.093   7.290  0.1230 -0.3178 -0.4446
 1848SOL    HW117003   4.719   1.029   7.314  0.4478 -0.0567 -0.6373
 1848SOL    HW217004   4.684   1.124   7.205 -0.0714 -3.0326 -1.4870
 1849SOL     OW17005   4.201   0.138   1.855  0.4582 -0.1518 -0.1456
 1849SOL    HW117006   4.269   0.201   1.878  0.5442 -0.9918  1.9291
 1849SOL    HW217007   4.123   0.150   1.909 -1.0306 -0.3921 -2.2290
 1850SOL     OW17008   3.393   1.660   9.316 -0.7001 -0.3574  0.3265
 1850SOL    HW117009   3.314   1.697   9.356 -1.4556 -0.8182 -0.7401
 1850SOL    HW217010   3.470   1.691   9.363  0.0112 -2.0487  0.2711
 1851SOL     OW17011   1.303   0.423   1.862 -0.3736 -0.2121 -0.1781
 1851SOL    HW117012   1.250   0.344   1.865  0.3884 -0.7776 -1.9735
 1851SOL    HW217013   1.327   0.431   1.769  0.7875 -1.2655  0.0448
 1852SOL     OW17014   1.673   0.547  12.095  0.2039  0.0117 -0.9905
 1852SOL    HW117015   1.628   0.506  12.169  0.9978 -0.2568 -0.6568
 1852SOL    HW217016   1.741   0.481  12.081 -0.2549 -0.9942  1.3961
 1853SOL     OW17017   2.388   1.169   7.821  0.1334  0.0094  0.4978
 1853SOL    HW117018   2.434   1.247   7.791 -2.5173  1.7086  0.8679
 1853SOL    HW217019   2.350   1.198   7.904 -1.9909 -0.8599 -0.1670
 1854SOL     OW17020   2.243   0.405  16.655  0.0519 -0.1998  0.3331
 1854SOL    HW117021   2.188   0.334  16.623  0.1334  0.0990 -0.4595
 1854SOL    HW217022   2.294   0.435  16.580  1.3170 -1.7432  0.5541
 1855SOL     OW17023   0.234   2.634  13.637 -0.8362 -0.0131  0.5509
 1855SOL    HW117024   0.288   2.636  13.558  0.9023 -1.5028  1.6934
 1855SOL    HW217025   0.300   2.615  13.704 -0.8185  1.0548  0.8318
 1856SOL     OW17026   2.810   2.715   1.594  0.1490 -0.3852  0.7066
 1856SOL    HW117027   2.734   2.741   1.647  1.3788  0.8296  1.8636
 1856SOL    HW217028   2.783   2.625   1.575  1.1620 -0.5063 -0.1454
 1857SOL     OW17029   4.011   3.200   2.545 -0.0786  0.3186 -0.4342
 1857SOL    HW117030   4.038   3.290   2.562  0.4403 -0.2442  1.8052
 1857SOL    HW217031   4.004   3.164   2.634 -0.9467  2.8381  0.5195
 1858SOL     OW17032   1.345   2.928   8.722 -0.2060  0.0608  0.0306
 1858SOL    HW117033   1.293   2.938   8.802  0.6048  0.4184  0.5137
 1858SOL    HW217034   1.349   3.017   8.687 -1.7799 -0.0498 -0.4087
 1859SOL     OW17035   3.237   0.846   7.993  0.1853 -0.1056 -0.0725
 1859SOL    HW117036   3.204   0.761   7.963 -2.8396  1.1268 -0.1616
 1859SOL    HW217037   3.208   0.903   7.922 -3.0654 -1.8427 -0.1492
 1860SOL     OW17038   1.913   4.272   2.060 -0.3619  0.1366  0.3882
 1860SOL    HW117039   1.891   4.237   2.146 -1.0439 -2.0237 -0.6502
 1860SOL    HW217040   1.981   4.210   2.034 -0.7687 -0.6792  1.2651
 1861SOL     OW17041   3.185   2.899   2.604  0.6530  0.6753 -0.2669
 1861SOL    HW117042   3.170   2.956   2.679 -0.8424  0.7959 -0.6568
 1861SOL    HW217043   3.105   2.911   2.553 -0.3908 -1.1656  0.9462
 1862SOL     OW17044   2.533   2.445   8.747  0.0056 -0.2122 -0.0575
 1862SOL    HW117045   2.569   2.365   8.785 -0.4263 -0.4470 -0.1507
 1862SOL    HW217046   2.593   2.459   8.673  0.9301  0.0274  0.7443
 1863SOL     OW17047   2.036   0.264  16.548  0.4448  0.4329  0.2983
 1863SOL    HW117048   1.944   0.291  16.548  0.4318  0.3875  0.3929
 1863SOL    HW217049   2.029   0.173  16.521  0.0706  0.3061  0.8304
 1864SOL     OW17050   3.343   1.554   7.729  0.8501  0.0297 -0.2307
 1864SOL    HW117051   3.382   1.480   7.776  1.3220  0.9044  0.7463
 1864SOL    HW217052   3.308   1.507   7.653 -0.3280 -0.3804  0.5661
 1865SOL     OW17053   2.584   1.220   3.639  0.8929 -0.4255  0.0381
 1865SOL    HW117054   2.604   1.134   3.602  0.8223 -0.1044 -0.7339
 1865SOL    HW217055   2.672   1.244   3.667  1.1558 -0.7241 -0.5360
 1866SOL     OW17056   2.298   2.512   1.994 -0.4006  0.4849  0.5486
 1866SOL    HW117057   2.222   2.461   2.021  0.8499 -1.8771 -0.3081
 1866SOL    HW217058   2.340   2.537   2.076 -4.0788  0.3657  2.4521
 1867SOL     OW17059   1.803   3.906   7.931 -0.2261  0.0399 -0.6420
 1867SOL    HW117060   1.723   3.876   7.974  1.0182  0.3318  1.8857
 1867SOL    HW217061   1.849   3.823   7.919 -0.3015 -0.0911 -0.0155
 1868SOL     OW17062   1.072   3.545  16.197  0.5993 -0.6450  0.2908
 1868SOL    HW117063   1.068   3.452  16.177 -0.1433 -0.8448  1.4207
 1868SOL    HW217064   1.043   3.582  16.113 -0.0875 -2.7324 -0.3922
 1869SOL     OW17065   1.687   4.577   5.487 -0.7682  0.1909  0.5167
 1869SOL    HW117066   1.681   4.556   5.580  2.8276 -3.1322 -0.0021
 1869SOL    HW217067   1.700   4.671   5.490 -0.9572  0.1933  1.1264
 1870SOL     OW17068   4.678   4.626   8.308  0.0978 -0.3503  0.0268
 1870SOL    HW117069   4.663   4.672   8.390 -4.0925  0.5014 -1.2158
 1870SOL    HW217070   0.012   4.686   8.262  1.2250 -0.5327  1.2101
 1871SOL     OW17071   0.143   1.438  16.843  0.0002 -0.3393  0.1922
 1871SOL    HW117072   0.104   1.489  16.914  0.6973 -2.3865  2.0422
 1871SOL    HW217073   0.156   1.355  16.889  0.6476  1.2456  2.8193
 1872SOL     OW17074   4.547   3.119   8.110 -0.0979 -0.4375  0.3438
 1872SOL    HW117075   4.588   3.038   8.141 -1.0727 -0.7162  0.9330
 1872SOL    HW217076   4.580   3.178   8.178 -0.1775  1.7805 -1.5591
 1873SOL     OW17077   1.712   4.552   8.977  0.1763 -0.4038  0.1521
 1873SOL    HW117078   1.709   4.640   9.016  1.4554 -0.8043  1.1588
 1873SOL    HW217079   1.798   4.558   8.935  1.4381 -2.2302  2.4842
 1874SOL     OW17080   0.316   4.193   3.759 -0.3405  0.0505  0.3333
 1874SOL    HW117081   0.255   4.251   3.805  2.7717  2.1471  1.8467
 1874SOL    HW217082   0.260   4.155   3.692 -0.1464  1.1132 -0.4266
 1875SOL     OW17083   3.621   1.045  17.607  0.5950  0.2941 -0.0708
 1875SOL    HW117084   3.565   0.976  17.570 -2.4779  2.0154  1.3314
 1875SOL    HW217085   3.571   1.066  17.686  1.8824 -2.5982  1.4986
 1876SOL     OW17086   3.069   1.792   7.258  0.1309 -0.2344  0.1366
 1876SOL    HW117087   3.061   1.720   7.321 -1.9064  0.5893  0.8353
 1876SOL    HW217088   3.069   1.866   7.319  0.7629  0.8789 -1.2065
 1877SOL     OW17089   2.458   2.689   1.864 -0.3612 -0.3247  0.5712
 1877SOL    HW117090   2.480   2.633   1.789 -0.3381  0.0076  0.3301
 1877SOL    HW217091   2.384   2.641   1.901 -1.1765 -0.6614 -1.4585
 1878SOL     OW17092   1.493   2.564   4.969 -0.2723  0.0394  0.5999
 1878SOL    HW117093   1.427   2.538   5.033  1.7110 -0.6174  2.3791
 1878SOL    HW217094   1.575   2.534   5.008  0.5178 -0.7159 -1.6190
 1879SOL     OW17095   3.224   2.764   9.505 -0.3024  0.6312  0.1685
 1879SOL    HW117096   3.277   2.835   9.540 -1.9377  0.4773  3.0051
 1879SOL    HW217097   3.295   2.710   9.469  0.2881  1.0319  0.7421
 1880SOL     OW17098   3.040   0.240   9.544  0.0591  0.3405 -0.1834
 1880SOL    HW117099   3.111   0.249   9.481 -0.2535  0.1973 -0.5560
 1880SOL    HW217100   2.980   0.304   9.506  0.2833  0.6071 -0.0909
 1881SOL     OW17101   0.142   4.033  17.440 -0.1068  0.0131 -0.3404
 1881SOL    HW117102   0.107   4.106  17.389  2.4059  0.1043 -1.9522
 1881SOL    HW217103   0.119   4.068  17.526 -3.4289 -0.8214 -0.8995
 1882SOL     OW17104   0.722   2.821   3.072  0.1039  0.1612 -0.5546
 1882SOL    HW117105   0.716   2.766   2.994 -4.2038 -3.0834  2.0793
 1882SOL    HW217106   0.708   2.910   3.038 -1.4309  1.1316  2.5199
 1883SOL     OW17107   1.835   0.387   4.878  0.4229  0.4427 -0.2867
 1883SOL    HW117108   1.878   0.460   4.832  1.4987  0.7978  1.2848
 1883SOL    HW217109   1.903   0.319   4.874 -0.1702 -0.1709  0.2366
 1884SOL     OW17110   0.576   2.168   3.576 -0.2403  0.4046  0.1526
 1884SOL    HW117111   0.568   2.172   3.481  1.0152 -1.0844 -0.0123
 1884SOL    HW217112   0.573   2.259   3.606 -2.8565 -0.0886  1.4062
 1885SOL     OW17113   1.641   0.443   6.337  1.0182  0.0400 -0.1171
 1885SOL    HW117114   1.657   0.522   6.389  0.0320  0.6096 -0.6773
 1885SOL    HW217115   1.645   0.481   6.249  1.6761 -1.9121 -0.9293
 1886SOL     OW17116   1.383   1.970   1.775  0.1407 -0.3409 -0.0430
 1886SOL    HW117117   1.299   1.927   1.756 -1.0725  1.7514  0.6901
 1886SOL    HW217118   1.372   2.002   1.864 -1.9435 -1.9214  0.2707
 1887SOL     OW17119   3.268   4.017  14.386 -0.4482 -0.3952  0.4358
 1887SOL    HW117120   3.317   3.954  14.439 -1.7702 -0.3423  1.7103
 1887SOL    HW217121   3.204   4.050  14.448  0.8950  2.2313  0.4142
 1888SOL     OW17122   0.006   1.290   5.828 -0.2189  0.7659 -0.1473
 1888SOL    HW117123   0.089   1.338   5.831 -0.8530  1.8782 -0.3239
 1888SOL    HW217124   0.028   1.215   5.773 -0.7950  1.4129 -1.2557
 1889SOL     OW17125   1.856   4.097   9.291  0.0473 -0.4198 -0.1220
 1889SOL    HW117126   1.827   4.153   9.220  2.3022  0.3078 -0.4707
 1889SOL    HW217127   1.771   4.085   9.333  0.6311 -1.1456  0.8734
 1890SOL     OW17128   0.223   2.103   9.383  0.6264 -0.4486  0.3480
 1890SOL    HW117129   0.228   2.062   9.297  1.2202 -2.2362  1.2435
 1890SOL    HW217130   0.289   2.054   9.432  0.8940 -1.8083 -1.3516
 1891SOL     OW17131   3.447   1.806  14.476 -0.1161  0.1089  0.3710
 1891SOL    HW117132   3.374   1.825  14.534  1.2919  0.3259  2.0777
 1891SOL    HW217133   3.428   1.868  14.406 -2.3097 -0.9892  0.0035
 1892SOL     OW17134   0.916   4.553  14.998 -0.2176  0.4499 -0.4902
 1892SOL    HW117135   0.939   4.631  15.048 -1.3404 -0.6497  1.7255
 1892SOL    HW217136   0.855   4.598  14.939 -0.3742 -0.8993 -1.3746
 1893SOL     OW17137   4.435   2.618   3.697  0.3842 -0.5539  0.4127
 1893SOL    HW117138   4.505   2.670   3.735 -1.6639  1.6696  1.0785
 1893SOL    HW217139   4.366   2.627   3.762  2.1108  0.6054  2.0553
 1894SOL     OW17140   2.345   4.000   6.797  0.4910 -0.1447 -0.7707
 1894SOL    HW117141   2.249   4.003   6.798  0.5243  0.8887 -1.0456
 1894SOL    HW217142   2.358   3.944   6.873  0.2955  2.6657  1.3417
 1895SOL     OW17143   2.785   0.497   7.114 -0.4294 -0.3637 -0.4002
 1895SOL    HW117144   2.875   0.472   7.132 -0.0750  1.5893  0.4843
 1895SOL    HW217145   2.792   0.562   7.184 -0.6849  0.2430 -0.9370
 1896SOL     OW17146   4.171   0.186   4.091  1.0506 -0.0479  0.3850
 1896SOL    HW117147   4.117   0.120   4.135  0.4253  0.9311  1.0899
 1896SOL    HW217148   4.110   0.210   4.021  0.0028  0.2495  1.4112
 1897SOL     OW17149   3.940   3.092   3.825 -0.4889  0.2083  0.4996
 1897SOL    HW117150   4.008   3.157   3.809 -0.8443  0.4878  0.1190
 1897SOL    HW217151   3.982   3.010   3.801 -0.8461 -0.3920  1.9569
 1898SOL     OW17152   0.380   2.233   1.257 -0.4981 -0.6899  0.4128
 1898SOL    HW117153   0.294   2.270   1.278  0.2971  0.4776  1.6059
 1898SOL    HW217154   0.389   2.191   1.343 -2.0048  1.5290  1.6799
 1899SOL     OW17155   2.469   4.526   5.456 -0.4495 -0.0636  0.2714
 1899SOL    HW117156   2.484   4.619   5.470 -2.2270  0.2267  0.2433
 1899SOL    HW217157   2.538   4.498   5.517 -1.7405 -1.1279  1.2622
 1900SOL     OW17158   3.797   4.142   1.212  0.2140 -0.0432 -0.1789
 1900SOL    HW117159   3.823   4.077   1.277 -1.7366 -1.5413 -0.8817
 1900SOL    HW217160   3.729   4.087   1.173 -0.3623  0.3544  0.2602
 1901SOL     OW17161   2.446   0.121  15.881 -0.6968 -0.2010 -0.3295
 1901SOL    HW117162   2.504   0.197  15.880 -0.3743 -0.4469  0.8796
 1901SOL    HW217163   2.432   0.085  15.793  0.1513 -0.5117 -0.3353
 1902SOL     OW17164   1.422   0.197   2.025  0.8182 -0.2266 -0.1662
 1902SOL    HW117165   1.389   0.282   1.997  1.0079  0.1586  0.7599
 1902SOL    HW217166   1.353   0.148   1.981  0.3186 -0.6795  1.1308
 1903SOL     OW17167   2.920   0.773  13.150  0.2438 -0.2165  0.1752
 1903SOL    HW117168   3.004   0.744  13.113  1.3138  0.3565  2.1176
 1903SOL    HW217169   2.942   0.775  13.243  0.9222  2.4456 -0.0380
 1904SOL     OW17170   2.649   3.410  13.156  0.3984 -0.0526  0.0899
 1904SOL    HW117171   2.586   3.353  13.200  0.4715 -0.9018 -0.8929
 1904SOL    HW217172   2.654   3.489  13.209  1.2111 -0.1363  0.1314
 1905SOL     OW17173   1.764   1.518   8.407 -0.4207 -0.0607 -0.5965
 1905SOL    HW117174   1.766   1.607   8.371 -0.7764  0.4727  0.6856
 1905SOL    HW217175   1.670   1.502   8.408 -0.4705  0.2888  0.6608
 1906SOL     OW17176   1.643   2.585  15.963 -0.0495  0.5022  0.4699
 1906SOL    HW117177   1.728   2.578  16.006  0.2345 -0.7541 -0.2885
 1906SOL    HW217178   1.624   2.493  15.945  0.3931  0.3530  0.7647
 1907SOL     OW17179   3.630   0.293   4.411  0.2619  0.1090  0.3040
 1907SOL    HW117180   3.566   0.364   4.418  0.8651  0.4843  1.9917
 1907SOL    HW217181   3.707   0.336   4.448  1.3665 -1.0858 -0.6190
 1908SOL     OW17182   4.652   2.412   6.365 -0.0504  0.3958 -0.0278
 1908SOL    HW117183   4.617   2.348   6.303  2.3771 -0.0038 -0.9672
 1908SOL    HW217184   0.003   2.361   6.395  0.8836  2.0854  0.4802
 1909SOL     OW17185   3.550   2.017  15.866  0.2041 -0.2902 -0.0134
 1909SOL    HW117186   3.485   1.969  15.814 -1.0440  2.4526 -0.9902
 1909SOL    HW217187   3.616   1.949  15.875  0.1900 -0.4039 -0.7610
 1910SOL     OW17188   1.693   3.458   5.272 -0.4667 -0.4479  0.4184
 1910SOL    HW117189   1.781   3.423   5.256 -1.2202 -1.8705 -0.5610
 1910SOL    HW217190   1.647   3.385   5.232 -1.2206 -0.3924  1.1776
 1911SOL     OW17191   2.836   2.730  16.629  0.3010  0.3649  0.1831
 1911SOL    HW117192   2.920   2.687  16.645  1.4082  1.4050 -2.8361
 1911SOL    HW217193   2.788   2.693  16.703  2.4365 -1.3382  0.7332
 1912SOL     OW17194   2.754   3.888  16.823  0.2609 -0.2543  0.5327
 1912SOL    HW117195   2.816   3.900  16.895 -1.6059  1.0860  1.9146
 1912SOL    HW217196   2.804   3.820  16.778 -0.1658  0.2659 -0.7313
 1913SOL     OW17197   1.915   4.320   5.030 -0.1799  0.3616  0.0770
 1913SOL    HW117198   1.910   4.282   5.118  1.2793 -0.1144 -0.0413
 1913SOL    HW217199   2.006   4.349   5.033  0.4165 -1.5254  0.4883
 1914SOL     OW17200   0.093   0.595  13.713 -0.0630 -0.5057 -0.6829
 1914SOL    HW117201   0.123   0.615  13.801 -0.9820  0.2045 -0.5374
 1914SOL    HW217202   0.149   0.521  13.691 -0.5732 -1.1689  0.2459
 1915SOL     OW17203   4.682   4.272   6.683  0.3573 -0.9002 -0.1934
 1915SOL    HW117204   4.598   4.278   6.637  1.2254  0.7262 -1.5468
 1915SOL    HW217205   0.027   4.284   6.617 -0.2371 -0.1271 -0.6739
 1916SOL     OW17206   3.528   4.596   3.366 -0.5180  0.4083  0.2213
 1916SOL    HW117207   3.494   4.544   3.293  0.4964 -0.5510  0.4197
 1916SOL    HW217208   3.451   4.642   3.399 -0.2206  0.0999  1.3739
 1917SOL     OW17209   2.476   0.670   3.383 -0.5341 -0.3672  0.6604
 1917SOL    HW117210   2.480   0.750   3.330  1.2725 -0.0024  1.3724
 1917SOL    HW217211   2.565   0.652   3.413 -0.3885 -1.6800 -0.5780
 1918SOL     OW17212   4.447   2.079   3.210  0.5830 -0.0915  0.1691
 1918SOL    HW117213   4.478   2.052   3.297  1.2680  0.4320  0.0908
 1918SOL    HW217214   4.352   2.079   3.220  0.8168  0.1624  2.4446
 1919SOL     OW17215   4.521   4.243  15.789 -0.8931  0.0294 -0.0819
 1919SOL    HW117216   4.544   4.313  15.728  0.6620 -0.4093  0.0067
 1919SOL    HW217217   4.543   4.170  15.731 -1.7540 -0.6493  0.4600
 1920SOL     OW17218   4.035   0.336   7.261 -0.4069  0.3442  0.2998
 1920SOL    HW117219   3.985   0.340   7.180  1.0961  2.5458 -0.5165
 1920SOL    HW217220   4.119   0.322   7.217 -0.1401  1.6728  0.3807
 1921SOL     OW17221   1.559   3.545   2.001  0.1241  0.1922 -0.3791
 1921SOL    HW117222   1.593   3.627   2.037 -1.7929  1.2557 -0.9440
 1921SOL    HW217223   1.495   3.581   1.938  1.1799 -0.3015 -1.7304
 1922SOL     OW17224   0.584   0.627   9.153  0.3625 -0.3458  0.5907
 1922SOL    HW117225   0.628   0.699   9.109  1.3071 -1.6591 -0.5882
 1922SOL    HW217226   0.526   0.673   9.215  0.5505 -0.9567  1.2183
 1923SOL     OW17227   0.170   2.235   6.409  0.0181 -0.7520 -0.1370
 1923SOL    HW117228   0.250   2.280   6.384  0.0355 -0.3246  0.6766
 1923SOL    HW217229   0.141   2.197   6.326  1.0342 -1.3890 -0.2062
 1924SOL     OW17230   1.626   3.768  12.448 -0.2065  0.9557 -0.0270
 1924SOL    HW117231   1.706   3.801  12.487  0.3937  0.7998 -1.1386
 1924SOL    HW217232   1.642   3.784  12.355  1.3941  0.6270  0.1959
 1925SOL     OW17233   0.166   4.669   2.725 -0.4336  0.4958  0.2765
 1925SOL    HW117234   0.237   4.694   2.666  1.2603 -1.9525  1.2565
 1925SOL    HW217235   0.169   4.576   2.703 -5.2292  0.6935 -1.2880
 1926SOL     OW17236   0.202   1.816  13.686 -0.5225 -0.5872 -0.2036
 1926SOL    HW117237   0.191   1.912  13.687  2.9451 -0.2257  3.0859
 1926SOL    HW217238   0.291   1.806  13.652 -1.2738 -0.0321 -2.2988
 1927SOL     OW17239   3.432   4.713   9.279  0.5213  0.2579  0.0743
 1927SOL    HW117240   3.398   4.716   9.190 -0.3106  0.9102  0.4116
 1927SOL    HW217241   3.359   4.670   9.323  0.1438 -0.2679 -1.0838
 1928SOL     OW17242   4.077   4.704   7.219  0.5286 -0.4154 -0.0589
 1928SOL    HW117243   3.982   4.696   7.224  0.4757 -0.6975 -1.4380
 1928SOL    HW217244   4.087   0.056   7.160  0.2986  0.7581  1.4253
 1929SOL     OW17245   2.728   2.014  17.529 -0.4369  0.3576  0.0752
 1929SOL    HW117246   2.810   1.965  17.519 -0.4277  1.2016 -4.0902
 1929SOL    HW217247   2.750   2.072  17.601 -1.8693  0.9098  0.0735
 1930SOL     OW17248   1.235   3.219   5.033  0.0752  0.1126  0.8927
 1930SOL    HW117249   1.244   3.166   5.112 -0.8844  0.9497  1.5595
 1930SOL    HW217250   1.245   3.159   4.959 -0.4203  0.7122  0.3410
 1931SOL     OW17251   3.346   2.013   7.385 -0.1771  0.1855 -0.5941
 1931SOL    HW117252   3.367   2.085   7.326 -1.6507  1.0822 -0.0426
 1931SOL    HW217253   3.430   1.977   7.413  0.6677  1.3609 -1.6773
 1932SOL     OW17254   1.795   2.161   4.421  0.1673 -0.2865 -0.1816
 1932SOL    HW117255   1.880   2.176   4.378 -0.2508 -0.2499 -1.0082
 1932SOL    HW217256   1.820   2.146   4.512  0.3267  1.5661  0.0749
 1933SOL     OW17257   2.688   3.080   6.450 -0.3402 -0.2486  0.3130
 1933SOL    HW117258   2.613   3.060   6.394 -0.1002 -0.0136 -0.0939
 1933SOL    HW217259   2.735   2.997   6.450 -0.5451 -0.3711  3.0133
 1934SOL     OW17260   1.080   1.131   4.095 -0.4664  0.1179 -0.2041
 1934SOL    HW117261   1.136   1.060   4.125 -0.6600  0.2734  0.5066
 1934SOL    HW217262   0.991   1.112   4.126  0.6899 -1.6652  1.9769
 1935SOL     OW17263   3.965   2.113   7.561  0.0018  0.3063 -0.3370
 1935SOL    HW117264   3.935   2.123   7.470  0.0410  0.7678 -0.2983
 1935SOL    HW217265   3.887   2.102   7.616  0.4568  3.4268  0.9366
 1936SOL     OW17266   2.551   4.207   2.738 -0.0757 -0.8018  0.0352
 1936SOL    HW117267   2.488   4.135   2.727  1.3133 -1.6375 -2.4265
 1936SOL    HW217268   2.629   4.168   2.697  0.8059 -0.3763  1.3107
 1937SOL     OW17269   3.179   2.076  10.576 -0.5516 -0.1435 -0.1147
 1937SOL    HW117270   3.171   2.143  10.644  0.2126  1.6706 -1.8073
 1937SOL    HW217271   3.247   2.019  10.613  1.6191  0.0603 -3.8446
 1938SOL     OW17272   1.302   1.560   3.772  0.4357  0.5494 -0.0347
 1938SOL    HW117273   1.229   1.620   3.757  1.1387  1.0167 -1.6260
 1938SOL    HW217274   1.282   1.528   3.860  2.9883  2.1019  1.1212
 1939SOL     OW17275   2.846   0.494   6.152 -0.2478 -0.0418  0.2225
 1939SOL    HW117276   2.770   0.549   6.135 -0.1474  0.2558  0.7197
 1939SOL    HW217277   2.916   0.547   6.114 -1.3356 -0.0198 -1.7291
 1940SOL     OW17278   0.995   2.409   1.107 -0.8372  0.0389 -0.2239
 1940SOL    HW117279   1.035   2.428   1.022  1.8182  0.4292  1.0941
 1940SOL    HW217280   0.933   2.476   1.137 -1.7183 -0.0397 -1.8689
 1941SOL     OW17281   1.848   4.096   3.916 -0.6104 -0.0485  0.4083
 1941SOL    HW117282   1.764   4.100   3.963 -0.1090  2.2736  1.1062
 1941SOL    HW217283   1.814   4.058   3.835 -2.3415  0.2609  0.9751
 1942SOL     OW17284   3.904   1.319   4.807  0.6531 -0.4869 -0.0862
 1942SOL    HW117285   3.814   1.348   4.816  1.4121  1.7225  0.4502
 1942SOL    HW217286   3.867   1.237   4.775  0.7474 -0.7839  0.5621
 1943SOL     OW17287   4.159   0.865   2.104  0.2759  0.7722  0.5815
 1943SOL    HW117288   4.223   0.937   2.101 -0.4990  1.3631 -1.3299
 1943SOL    HW217289   4.179   0.826   2.189  1.0615  0.5779  0.3161
 1944SOL     OW17290   1.328   2.103   7.292  0.1457 -0.2408 -0.0951
 1944SOL    HW117291   1.388   2.162   7.338 -2.2699  0.2474  2.4131
 1944SOL    HW217292   1.247   2.120   7.340 -0.9189 -3.6858 -0.6742
 1945SOL     OW17293   1.423   0.577  15.516  0.3376 -0.1082 -0.3492
 1945SOL    HW117294   1.426   0.518  15.592 -0.0458  1.5979  0.9851
 1945SOL    HW217295   1.349   0.635  15.536  0.9053  0.5237 -0.0961
 1946SOL     OW17296   4.610   2.410   1.660 -0.2747 -0.4922 -0.4614
 1946SOL    HW117297   4.644   2.499   1.652  0.4894 -0.6949  0.5583
 1946SOL    HW217298   4.677   2.371   1.716  1.3474  3.1861  0.0916
 1947SOL     OW17299   4.594   2.043   3.862  0.1034 -0.4787 -0.3910
 1947SOL    HW117300   4.583   1.954   3.829 -0.5295 -1.1209  1.5824
 1947SOL    HW217301   4.500   2.055   3.878  0.1721 -1.0383  0.4268
 1948SOL     OW17302   0.400   0.734   3.010  0.4730 -0.0500 -0.3424
 1948SOL    HW117303   0.491   0.706   3.019  0.1544 -1.6298 -1.9752
 1948SOL    HW217304   0.365   0.655   2.969 -1.2127 -0.6262  2.2379
 1949SOL     OW17305   2.480   0.498   3.917  0.3784 -0.3107 -0.3639
 1949SOL    HW117306   2.398   0.508   3.965  1.5296  0.8767  1.3632
 1949SOL    HW217307   2.512   0.415   3.953 -2.9242 -0.4235  2.3234
 1950SOL     OW17308   0.118   3.707  16.778  0.2105  0.3943  0.2688
 1950SOL    HW117309   0.184   3.692  16.710  0.4288  0.9627  0.3583
 1950SOL    HW217310   0.166   3.680  16.856 -0.6459  0.4883  0.8308
 1951SOL     OW17311   4.054   3.711   6.122 -0.6593 -0.0852 -0.1107
 1951SOL    HW117312   4.076   3.618   6.119  0.5119  0.1290  2.1758
 1951SOL    HW217313   3.967   3.708   6.162 -0.5159 -0.4961  0.1614
 1952SOL     OW17314   1.202   0.558   2.160 -0.1071  0.0684 -0.0124
 1952SOL    HW117315   1.274   0.612   2.192 -0.5676  2.2572 -2.7587
 1952SOL    HW217316   1.164   0.522   2.241 -1.2542 -1.1418 -1.0922
 1953SOL     OW17317   4.151   4.484   4.747  0.7362  0.3572 -0.4377
 1953SOL    HW117318   4.234   4.529   4.730  0.5660  0.0371 -2.1431
 1953SOL    HW217319   4.143   4.436   4.664  0.6672 -3.8367  2.0343
 1954SOL     OW17320   3.196   1.890  10.127 -0.3556 -0.3107 -0.2125
 1954SOL    HW117321   3.193   1.897  10.032  1.8762 -0.6521 -0.3071
 1954SOL    HW217322   3.226   1.801  10.141 -0.4025 -0.5450 -1.6603
 1955SOL     OW17323   2.660   3.350  12.742 -0.2439 -0.1963 -0.1144
 1955SOL    HW117324   2.687   3.270  12.787 -0.2486 -0.8114 -1.2335
 1955SOL    HW217325   2.718   3.347  12.666  1.0777  0.1828  0.8537
 1956SOL     OW17326   3.997   1.477  17.679  0.1376  0.3429  0.1220
 1956SOL    HW117327   3.970   1.453  17.590  2.3103  1.8781 -0.9489
 1956SOL    HW217328   3.921   1.532  17.696 -0.6762 -0.8491  0.3456
 1957SOL     OW17329   2.463   3.598   7.181 -0.1975  0.3188  0.9847
 1957SOL    HW117330   2.406   3.669   7.209 -2.0844 -0.0895 -1.8793
 1957SOL    HW217331   2.503   3.584   7.267  2.9829 -0.5277 -0.6198
 1958SOL     OW17332   0.959   1.908   8.567  0.6594  0.7342  0.5880
 1958SOL    HW117333   0.972   1.909   8.662  0.8841  0.0467  0.5579
 1958SOL    HW217334   0.882   1.964   8.558 -0.6755 -0.9246  1.6166
 1959SOL     OW17335   3.716   0.063   9.849  0.0844 -0.3348 -0.3896
 1959SOL    HW117336   3.673   0.105   9.775  1.9064  4.4510  1.2998
 1959SOL    HW217337   3.806   0.092   9.839 -0.4010  1.0308 -0.8457
 1960SOL     OW17338   2.950   3.802   9.659 -0.2864  0.1897  1.0080
 1960SOL    HW117339   2.905   3.786   9.742 -0.3703  0.9299  1.1020
 1960SOL    HW217340   2.947   3.716   9.616 -0.3791  0.3862  0.6293
 1961SOL     OW17341   0.347   3.260   6.498  0.3628 -0.0376  0.1970
 1961SOL    HW117342   0.313   3.331   6.553 -0.9322  0.9268 -1.8825
 1961SOL    HW217343   0.279   3.196   6.517  1.3165 -0.9357  0.6161
 1962SOL     OW17344   1.182   2.474  17.074 -0.4854  0.7251 -0.3381
 1962SOL    HW117345   1.162   2.393  17.026 -0.2776 -0.6297  1.8725
 1962SOL    HW217346   1.202   2.434  17.159 -1.6644 -0.9491 -0.8434
 1963SOL     OW17347   1.113   0.369   3.906  0.0931  0.0832 -0.1023
 1963SOL    HW117348   1.064   0.357   3.824  0.8107 -1.5024 -0.2891
 1963SOL    HW217349   1.197   0.399   3.871 -0.1978  0.9543 -0.0483
 1964SOL     OW17350   2.153   1.118   9.817 -0.7958  0.0264  0.4002
 1964SOL    HW117351   2.233   1.068   9.832 -0.1077  1.1146  0.3254
 1964SOL    HW217352   2.138   1.140   9.909  0.1524 -0.2153  0.6110
 1965SOL     OW17353   0.031   2.013   4.179 -0.0628 -0.5289 -0.3507
 1965SOL    HW117354   4.719   1.925   4.188  2.2241 -1.4235 -0.0990
 1965SOL    HW217355   0.067   2.022   4.268  0.4293 -0.9329 -0.5106
 1966SOL     OW17356   0.627   4.564  13.674  0.4722  0.0515  0.7222
 1966SOL    HW117357   0.648   4.652  13.642 -2.1155 -0.2693 -1.9196
 1966SOL    HW217358   0.697   4.508  13.639 -0.7743  0.5383 -2.5943
 1967SOL     OW17359   1.393   4.234  17.503  0.0308  0.1163 -0.2313
 1967SOL    HW117360   1.482   4.201  17.491 -0.4046 -0.5889 -1.5211
 1967SOL    HW217361   1.367   4.285  17.427  1.9163  1.6545  0.1827
 1968SOL     OW17362   3.933   1.893   6.716 -0.0811 -0.7670  0.2868
 1968SOL    HW117363   3.868   1.898   6.646 -0.4356 -1.1470  0.5892
 1968SOL    HW217364   3.887   1.923   6.795  4.1612  1.8695  1.7378
 1969SOL     OW17365   2.577   1.355   2.574  0.0378 -0.0967 -0.3071
 1969SOL    HW117366   2.586   1.272   2.622 -1.8790 -0.0361  0.1831
 1969SOL    HW217367   2.607   1.420   2.638  0.9169 -0.4613 -0.3445
 1970SOL     OW17368   0.732   1.691  10.897 -0.0834  0.4558 -0.9194
 1970SOL    HW117369   0.654   1.745  10.885 -1.2954 -0.8584  0.9728
 1970SOL    HW217370   0.761   1.656  10.813  1.2887 -1.3047  0.2864
 1971SOL     OW17371   4.591   2.172   6.230 -0.0417  0.3840  0.4655
 1971SOL    HW117372   4.556   2.107   6.291  0.5204 -0.3395  0.0323
 1971SOL    HW217373   4.524   2.180   6.163  0.1514  0.4203  0.2759
 1972SOL     OW17374   3.081   4.026   4.815 -0.2259  0.4893 -0.2955
 1972SOL    HW117375   3.006   4.085   4.805 -0.2130  0.1670 -2.2624
 1972SOL    HW217376   3.140   4.069   4.753 -0.7581  0.6920 -0.6718
 1973SOL     OW17377   2.064   3.069   2.815  0.0050 -0.6974  0.6830
 1973SOL    HW117378   2.032   3.111   2.735  2.7218 -2.9751 -1.6243
 1973SOL    HW217379   1.998   3.099   2.877 -1.0528  0.2430 -0.8885
 1974SOL     OW17380   1.106   2.250   3.805  0.5598  0.0971  0.0148
 1974SOL    HW117381   1.064   2.192   3.742  0.6072  1.4167 -1.2184
 1974SOL    HW217382   1.039   2.300   3.851  1.4984  0.6931  0.7302
 1975SOL     OW17383   4.430   1.164   8.796 -0.6856 -0.0275 -0.2796
 1975SOL    HW117384   4.406   1.074   8.818 -0.8315  0.5999  2.0405
 1975SOL    HW217385   4.411   1.205   8.880 -0.8344  1.0642 -0.8542
 1976SOL     OW17386   0.219   2.144   8.154  0.6418  0.7465  0.2106
 1976SOL    HW117387   0.271   2.204   8.101 -1.4579  1.7876 -0.6252
 1976SOL    HW217388   0.247   2.161   8.244 -1.0643 -0.2036  0.9272
 1977SOL     OW17389   3.014   2.573   5.078 -0.0601  0.5673  0.4184
 1977SOL    HW117390   2.924   2.547   5.095 -0.4370  1.4232 -0.2401
 1977SOL    HW217391   3.062   2.506   5.126 -0.3514  0.7558  0.9653
 1978SOL     OW17392   3.256   2.149   8.737  0.0701 -0.9582 -0.4746
 1978SOL    HW117393   3.297   2.074   8.780  0.6387 -0.5652 -0.3355
 1978SOL    HW217394   3.197   2.194   8.797 -1.0164 -0.5371 -1.8570
 1979SOL     OW17395   0.174   4.331   7.710 -0.1940  0.9981 -0.5001
 1979SOL    HW117396   0.149   4.293   7.795  1.3907 -0.8753 -0.8726
 1979SOL    HW217397   0.087   4.355   7.680 -0.5849 -0.1858 -0.3427
 1980SOL     OW17398   0.705   1.083   5.384  0.0748  0.9059  0.3393
 1980SOL    HW117399   0.700   1.166   5.336 -0.4872  0.4181 -0.4545
 1980SOL    HW217400   0.675   1.022   5.316  2.5720 -2.9615  2.7546
 1981SOL     OW17401   2.616   1.496   5.266 -1.0788  0.2686  0.1753
 1981SOL    HW117402   2.690   1.435   5.275 -0.2298  1.3067  0.2736
 1981SOL    HW217403   2.569   1.439   5.205  2.1735 -2.9167  0.5839
 1982SOL     OW17404   1.535   3.994  16.314 -0.7089  0.4229  0.8869
 1982SOL    HW117405   1.480   4.068  16.288 -0.4954  0.6020  0.9403
 1982SOL    HW217406   1.610   4.041  16.351 -2.3151  2.8618  1.0575
 1983SOL     OW17407   3.202   3.232  12.729  0.3203 -0.2222 -0.2949
 1983SOL    HW117408   3.199   3.325  12.706 -1.4342 -0.6254 -1.6381
 1983SOL    HW217409   3.294   3.205  12.737  0.2064  0.0881  2.0250
 1984SOL     OW17410   4.089   0.771   7.318  0.2105 -0.3961  0.3118
 1984SOL    HW117411   4.156   0.702   7.311  1.6093  0.6621  3.1430
 1984SOL    HW217412   4.155   0.837   7.296  0.4758 -0.5566  0.6222
 1985SOL     OW17413   1.845   3.940   7.567  0.8714  0.2217 -0.1903
 1985SOL    HW117414   1.787   3.865   7.555  0.8018  0.7792 -3.1907
 1985SOL    HW217415   1.774   4.004   7.554  0.0464 -0.6796 -0.1654
 1986SOL     OW17416   2.306   2.914  14.234 -0.0146 -0.2019 -0.0873
 1986SOL    HW117417   2.293   2.910  14.139  0.7330 -0.7455 -0.1609
 1986SOL    HW217418   2.220   2.947  14.261 -1.2713 -0.1297 -4.2182
 1987SOL     OW17419   3.702   2.611  14.214 -0.2978 -0.1718  0.5038
 1987SOL    HW117420   3.659   2.631  14.297 -0.4889 -1.0477  0.6109
 1987SOL    HW217421   3.635   2.555  14.176 -1.5112  2.2197 -0.8596
 1988SOL     OW17422   4.041   1.359   1.255 -0.2819  0.2185 -0.6533
 1988SOL    HW117423   4.062   1.321   1.340 -0.2771 -0.3907 -0.9257
 1988SOL    HW217424   3.946   1.361   1.255 -0.2856  0.1520 -1.7710
 1989SOL     OW17425   0.735   4.477   5.214  0.3650  0.0920  0.1426
 1989SOL    HW117426   0.684   4.558   5.209  0.4803  0.1929  0.6305
 1989SOL    HW217427   0.708   4.450   5.302 -0.1290 -0.9266 -0.3225
 1990SOL     OW17428   4.131   0.840   7.668  0.3420 -0.1951  0.2354
 1990SOL    HW117429   4.225   0.847   7.685  0.5876 -1.1886 -0.7239
 1990SOL    HW217430   4.119   0.755   7.709  0.9142 -0.6886 -0.6250
 1991SOL     OW17431   2.660   3.694   1.331  0.7917 -0.2901 -0.1705
 1991SOL    HW117432   2.671   3.747   1.252  2.9668 -0.1458  0.2250
 1991SOL    HW217433   2.565   3.689   1.339  0.9150 -0.3798  1.1966
 1992SOL     OW17434   2.108   1.753   7.211  0.3104  0.1451 -0.0208
 1992SOL    HW117435   2.167   1.698   7.160  1.8489 -0.6236  2.5851
 1992SOL    HW217436   2.032   1.695   7.214  0.2623  0.2487  0.7657
 1993SOL     OW17437   2.373   0.403  14.219 -0.1322 -0.0446  0.3193
 1993SOL    HW117438   2.314   0.337  14.254  0.6256 -1.0441 -0.2998
 1993SOL    HW217439   2.323   0.471  14.264 -0.5328  0.5397 -0.9979
 1994SOL     OW17440   2.120   4.555   4.433  0.8802  0.3695 -0.0543
 1994SOL    HW117441   2.027   4.559   4.454  0.5096 -4.7928 -0.7105
 1994SOL    HW217442   2.126   4.609   4.354 -2.4225  0.3593 -0.2805
 1995SOL     OW17443   2.882   3.897   5.421 -0.1886 -0.1972 -0.2427
 1995SOL    HW117444   2.843   3.982   5.402  0.7394  0.4846  0.9489
 1995SOL    HW217445   2.836   3.839   5.360 -0.1194 -0.7542  0.2293
 1996SOL     OW17446   4.563   4.158   5.388 -0.4385 -0.5287 -0.2156
 1996SOL    HW117447   4.521   4.244   5.391 -1.0184 -0.8190 -0.0948
 1996SOL    HW217448   4.578   4.148   5.294  0.8407  1.7857 -0.2506
 1997SOL     OW17449   4.308   1.150   8.216  0.3960  0.3110  0.2365
 1997SOL    HW117450   4.293   1.236   8.178 -1.6339 -0.4722 -0.7132
 1997SOL    HW217451   4.273   1.170   8.303 -1.2059 -1.1592 -0.0664
 1998SOL     OW17452   0.633   2.519   3.763 -0.2976  0.3211  0.2193
 1998SOL    HW117453   0.577   2.482   3.696  1.4765 -2.0092  0.0064
 1998SOL    HW217454   0.587   2.487   3.841 -1.1680  1.2237  0.0652
 1999SOL     OW17455   3.367   4.515   6.442 -0.0438  0.0700 -0.4701
 1999SOL    HW117456   3.416   4.584   6.398  0.3563  0.0811 -0.0047
 1999SOL    HW217457   3.307   4.568   6.494 -2.0446 -2.4984 -0.1239
 2000SOL     OW17458   0.137   2.720   0.382 -0.0399 -0.1162  0.4993
 2000SOL    HW117459   0.183   2.688   0.459 -0.2040 -0.6734  0.3635
 2000SOL    HW217460   0.051   2.746   0.416 -0.3833 -0.2589 -0.2425
 2001SOL     OW17461   3.663   3.870   5.499  0.5919 -0.0860  0.3794
 2001SOL    HW117462   3.568   3.858   5.507  0.6086  0.6786  1.6478
 2001SOL    HW217463   3.709   3.798   5.542  0.3098 -2.0950 -2.6322
 2002SOL     OW17464   4.407   1.273   1.870 -0.2436 -0.0549  0.3608
 2002SOL    HW117465   4.477   1.315   1.821  0.4057 -0.3016  1.0854
 2002SOL    HW217466   4.400   1.184   1.834  3.0140 -0.5233  0.9216
 2003SOL     OW17467   3.151   4.028   6.514  0.3571 -0.3989 -0.0728
 2003SOL    HW117468   3.112   3.942   6.505 -2.2041  0.7102  0.4396
 2003SOL    HW217469   3.244   4.018   6.491  0.5100  1.2667 -0.1781
 2004SOL     OW17470   3.090   1.370   6.835  0.3253 -0.2150  0.1325
 2004SOL    HW117471   3.150   1.417   6.778 -1.3963  2.2948  0.4216
 2004SOL    HW217472   3.059   1.433   6.900 -2.5712  0.5504 -1.9658
 2005SOL     OW17473   0.871   2.631   8.383  0.8375  0.0096 -0.5967
 2005SOL    HW117474   0.838   2.580   8.457  0.6040 -1.8251 -1.9608
 2005SOL    HW217475   0.932   2.564   8.352 -0.3011 -0.0533 -2.6681
 2006SOL     OW17476   3.171   1.191   3.330 -0.2926 -0.6216 -0.3759
 2006SOL    HW117477   3.227   1.127   3.374  2.6081  1.3532 -1.2648
 2006SOL    HW217478   3.133   1.134   3.263  1.3274 -1.9659 -0.1539
 2007SOL     OW17479   4.524   0.657   1.673  0.0686  0.0724  0.4084
 2007SOL    HW117480   4.562   0.604   1.743 -0.0018 -1.8077 -0.9717
 2007SOL    HW217481   4.567   0.740   1.693  1.0710  0.5826 -3.8770
 2008SOL     OW17482   2.485   4.722   5.046 -0.8393  0.6781 -1.0738
 2008SOL    HW117483   2.523   4.648   5.000  0.4244 -0.8327  2.3939
 2008SOL    HW217484   2.413   0.023   4.988 -2.3017 -2.3302 -0.5246
 2009SOL     OW17485   2.905   4.566   5.006  0.0293  0.7360  0.3363
 2009SOL    HW117486   2.923   4.592   5.096 -1.7683  0.1113  0.8864
 2009SOL    HW217487   2.822   4.519   5.013 -0.2246  1.3901  1.6237
 2010SOL     OW17488   4.514   3.208   0.670 -0.1707  0.3861 -0.1205
 2010SOL    HW117489   4.496   3.155   0.592  1.0912  0.1367 -0.2493
 2010SOL    HW217490   4.501   3.299   0.644 -0.0502  0.2509 -0.6540
 2011SOL     OW17491   0.841   0.776  15.038 -0.3131  0.2481 -0.1780
 2011SOL    HW117492   0.884   0.841  14.982  0.5515 -0.7825 -0.7035
 2011SOL    HW217493   0.771   0.834  15.070 -0.8079 -1.3304  1.5697
 2012SOL     OW17494   2.988   3.006   8.606 -0.7493  0.2020  0.2305
 2012SOL    HW117495   3.067   3.048   8.571 -0.0073 -0.1924  1.4587
 2012SOL    HW217496   2.931   3.079   8.629 -0.6375  0.4326 -0.2017
 2013SOL     OW17497   0.605   2.117   8.243  0.2550 -0.6143  0.3457
 2013SOL    HW117498   0.589   2.076   8.158  4.1384  1.1895 -1.2586
 2013SOL    HW217499   0.697   2.143   8.233  0.5276 -0.4472  3.3052
 2014SOL     OW17500   2.703   4.412   9.521  0.0469  0.1815  0.5968
 2014SOL    HW117501   2.653   4.493   9.511 -1.0751 -0.5857 -0.0668
 2014SOL    HW217502   2.637   4.344   9.510  2.9721 -2.6060  0.2148
 2015SOL     OW17503   0.094   1.092  16.733  0.0612  0.3460 -0.7171
 2015SOL    HW117504   0.057   1.088  16.821 -0.6449  0.3519 -1.0134
 2015SOL    HW217505   0.047   1.166  16.694  0.2289 -0.3384 -2.2037
 2016SOL     OW17506   1.696   1.150   4.372 -0.0719  0.0305 -0.5394
 2016SOL    HW117507   1.662   1.108   4.293  0.9100  0.5479 -1.2394
 2016SOL    HW217508   1.757   1.216   4.338  2.2789 -0.8186  2.0859
 2017SOL     OW17509   3.317   1.624   8.057  0.4799 -0.2480 -0.2117
 2017SOL    HW117510   3.368   1.705   8.051 -0.9344  0.5717 -1.2616
 2017SOL    HW217511   3.233   1.653   8.022 -2.3682 -1.4269  5.6085
 2018SOL     OW17512   1.199   3.135  14.459  0.3098 -0.0767  0.6382
 2018SOL    HW117513   1.109   3.162  14.442 -0.0792 -0.4380  2.0869
 2018SOL    HW217514   1.194   3.065  14.525  3.2787  1.7760  2.8491
 2019SOL     OW17515   1.811   0.342   6.556  0.4819 -0.4227 -0.0176
 2019SOL    HW117516   1.755   0.328   6.480 -2.8547  0.2320  2.3070
 2019SOL    HW217517   1.754   0.400   6.607 -3.0637 -3.5819 -0.3733
 2020SOL     OW17518   2.800   4.462   0.144 -0.5849 -0.1709  0.4975
 2020SOL    HW117519   2.829   4.478   0.055 -0.8302  0.4576  0.5279
 2020SOL    HW217520   2.865   4.397   0.170 -1.0738 -1.6744 -2.0936
 2021SOL     OW17521   3.682   0.270  16.676  0.8153  0.1247 -0.5103
 2021SOL    HW117522   3.699   0.234  16.590  0.8490 -1.2403  0.0667
 2021SOL    HW217523   3.745   0.341  16.686  0.2122  0.8251 -1.6115
 2022SOL     OW17524   2.415   3.684   9.999  0.4037 -0.2146 -0.4816
 2022SOL    HW117525   2.488   3.740  10.024 -0.3365 -0.1156  1.4973
 2022SOL    HW217526   2.463   3.606   9.970 -0.9604 -0.3302 -2.4300
 2023SOL     OW17527   4.621   3.313  17.187 -0.2244 -0.0042  0.3798
 2023SOL    HW117528   4.632   3.330  17.280 -1.1537 -0.2780  0.5320
 2023SOL    HW217529   4.662   3.392  17.150  1.1649 -1.7502 -1.8246
 2024SOL     OW17530   1.155   3.544   7.452 -0.0501  0.1692 -0.2285
 2024SOL    HW117531   1.144   3.606   7.523  0.6573  0.7198 -0.5925
 2024SOL    HW217532   1.233   3.572   7.405 -0.1702 -1.2115 -1.2781
 2025SOL     OW17533   2.059   4.612   1.618 -0.1523 -0.7941  0.1559
 2025SOL    HW117534   1.981   4.595   1.672 -0.2101 -0.1844  0.2599
 2025SOL    HW217535   2.131   4.640   1.674  1.3773 -1.9524 -1.2218
 2026SOL     OW17536   0.734   0.646  14.330 -1.1584  0.4427  0.6281
 2026SOL    HW117537   0.684   0.683  14.256 -0.1751  1.5282  0.5125
 2026SOL    HW217538   0.823   0.646  14.296 -2.3979  0.6151 -2.6711
 2027SOL     OW17539   3.535   1.023  11.742  0.6381 -0.3637 -0.4191
 2027SOL    HW117540   3.443   1.034  11.716  0.8026 -1.5419 -1.4791
 2027SOL    HW217541   3.576   1.077  11.675  0.7500 -3.0387 -2.4752
 2028SOL     OW17542   4.512   1.617   0.741  0.4429 -0.0701  0.0922
 2028SOL    HW117543   4.449   1.688   0.756  1.7518  0.9553  0.8325
 2028SOL    HW217544   4.480   1.585   0.657 -1.5464  2.1089  0.0224
 2029SOL     OW17545   4.327   3.974   8.436  0.2706 -0.5142  0.0851
 2029SOL    HW117546   4.385   3.992   8.362  0.0025 -2.6454 -0.6368
 2029SOL    HW217547   4.337   3.879   8.445 -0.5089 -0.5689  0.2919
 2030SOL     OW17548   2.454   1.201   7.048 -0.3282 -0.5171  0.2865
 2030SOL    HW117549   2.466   1.217   7.142  0.3199  0.6967 -0.0020
 2030SOL    HW217550   2.361   1.179   7.051 -0.7022  0.7956 -1.6316
 2031SOL     OW17551   1.482   1.163   2.373 -0.4737 -0.7286  0.2139
 2031SOL    HW117552   1.422   1.094   2.400 -1.0309  0.3817  1.8343
 2031SOL    HW217553   1.445   1.237   2.421  0.5008 -0.3232  0.3480
 2032SOL     OW17554   0.507   0.075   2.883  0.1795 -0.4122 -0.3788
 2032SOL    HW117555   0.509   0.046   2.792 -2.6294 -2.0748  0.0948
 2032SOL    HW217556   0.501   0.168   2.860  0.4619 -0.4065 -0.4244
 2033SOL     OW17557   0.159   0.551  15.263 -0.3860  0.2837  0.5335
 2033SOL    HW117558   0.240   0.547  15.314  0.1814 -2.5869 -0.5705
 2033SOL    HW217559   0.142   0.642  15.286 -2.7075  0.4961 -2.0277
 2034SOL     OW17560   3.344   3.908   3.175 -0.1761 -0.4647 -0.7393
 2034SOL    HW117561   3.295   3.929   3.255 -1.2593  1.2116 -1.8292
 2034SOL    HW217562   3.390   3.992   3.168 -0.3656 -0.1764  1.3834
 2035SOL     OW17563   2.003   2.644   4.890  0.2088  0.1866 -0.0885
 2035SOL    HW117564   1.929   2.626   4.948 -0.8395  1.4332 -1.0462
 2035SOL    HW217565   2.044   2.720   4.931  1.5572 -1.3490  1.3916
 2036SOL     OW17566   0.764   4.399   8.468 -0.4489 -0.3212 -0.0341
 2036SOL    HW117567   0.700   4.436   8.528 -0.0954 -0.0516  0.1731
 2036SOL    HW217568   0.825   4.356   8.527 -0.4135  1.3498  1.1351
 2037SOL     OW17569   4.620   0.526   1.904 -0.3337  0.3549 -0.6888
 2037SOL    HW117570   4.617   0.595   1.971 -1.5591 -0.9668  0.6251
 2037SOL    HW217571   4.710   0.495   1.906 -0.1214  1.0338  0.6183
 2038SOL     OW17572   1.881   2.304  15.392 -0.9799 -0.7705 -0.1121
 2038SOL    HW117573   1.933   2.369  15.345  0.7006 -1.5810  0.6184
 2038SOL    HW217574   1.942   2.231  15.378 -0.5332 -0.4055 -0.0526
 2039SOL     OW17575   0.216   3.668   2.131 -0.6178 -0.1969  0.8388
 2039SOL    HW117576   0.140   3.622   2.165 -0.9858 -0.8621 -0.8488
 2039SOL    HW217577   0.181   3.725   2.063 -2.7255 -0.9828  1.2699
 2040SOL     OW17578   2.864   3.002   6.108  0.8445 -0.1010 -0.0884
 2040SOL    HW117579   2.783   3.030   6.149  0.8405 -1.2583  0.6757
 2040SOL    HW217580   2.839   2.954   6.029  0.7090 -1.1559  0.5936
 2041SOL     OW17581   2.428   3.681  11.249  0.0425 -0.2944 -0.0037
 2041SOL    HW117582   2.404   3.657  11.338  1.1099 -2.4179 -0.2708
 2041SOL    HW217583   2.465   3.765  11.277 -1.0485 -0.1370  0.9547
 2042SOL     OW17584   0.427   3.581   3.118 -0.1837 -0.2022 -0.4920
 2042SOL    HW117585   0.476   3.640   3.175  0.5125  0.5398 -1.8676
 2042SOL    HW217586   0.382   3.528   3.183  0.4111 -0.3783 -0.2314
 2043SOL     OW17587   0.896   4.111   2.898 -0.2093 -0.0712 -0.4447
 2043SOL    HW117588   0.969   4.059   2.932 -1.2727 -2.0157 -1.0825
 2043SOL    HW217589   0.897   4.184   2.959  1.1096 -0.5549  0.1147
 2044SOL     OW17590   0.419   3.416   3.620 -0.0442  0.2668  0.2368
 2044SOL    HW117591   0.470   3.337   3.640 -0.1868  0.5014  1.5067
 2044SOL    HW217592   0.347   3.395   3.680 -0.8182  2.5892  0.1360
 2045SOL     OW17593   0.836   1.410   5.813  0.7733  0.2373 -0.6257
 2045SOL    HW117594   0.855   1.404   5.907 -0.9617  1.6316 -0.1880
 2045SOL    HW217595   0.742   1.392   5.817  0.7139  0.8625  0.6525
 2046SOL     OW17596   0.136   3.861  14.904  0.0163  0.5987  0.1356
 2046SOL    HW117597   0.185   3.789  14.942 -0.5795 -0.0221 -0.2861
 2046SOL    HW217598   0.055   3.857  14.956 -0.7974 -1.5932 -1.3281
 2047SOL     OW17599   2.384   0.484  15.929  0.0593 -0.5874 -0.3197
 2047SOL    HW117600   2.438   0.429  15.872 -1.7980 -0.0542 -2.6075
 2047SOL    HW217601   2.421   0.571  15.917 -0.5087 -0.4770 -1.3200
 2048SOL     OW17602   0.804   4.256   4.788 -0.1976  0.4251 -0.5710
 2048SOL    HW117603   0.798   4.314   4.864 -0.7171  0.3795 -0.5721
 2048SOL    HW217604   0.842   4.171   4.811  0.9728  1.3121  0.6891
 2049SOL     OW17605   1.500   2.426   2.203  0.1484 -0.1476  0.0077
 2049SOL    HW117606   1.432   2.479   2.161  0.6101  0.1246 -0.3989
 2049SOL    HW217607   1.510   2.358   2.136 -1.5204 -0.3669 -0.0152
 2050SOL     OW17608   1.364   3.979   8.025 -0.4595 -0.4259 -0.4449
 2050SOL    HW117609   1.273   3.954   8.038 -0.4848 -1.3145 -2.3305
 2050SOL    HW217610   1.360   3.988   7.930  0.7989 -1.6527 -0.6170
 2051SOL     OW17611   3.118   2.343  16.196 -0.6712  0.5473  0.2235
 2051SOL    HW117612   3.081   2.431  16.199  0.2578  1.0398 -2.4225
 2051SOL    HW217613   3.177   2.359  16.122 -0.5559 -0.0762  0.1806
 2052SOL     OW17614   4.659   2.737   3.280  0.0283  0.0972  0.1383
 2052SOL    HW117615   0.024   2.748   3.314  0.1123 -0.9223  0.2681
 2052SOL    HW217616   4.649   2.642   3.283  0.6890 -0.0057 -0.7753
 2053SOL     OW17617   1.557   0.950   3.601 -0.1530  0.1690 -0.1142
 2053SOL    HW117618   1.547   1.031   3.551 -1.9226  0.1664  0.2536
 2053SOL    HW217619   1.620   0.905   3.544  0.2530  0.4146  0.1360
 2054SOL     OW17620   3.199   4.487   9.116 -0.1122  0.4381 -0.3278
 2054SOL    HW117621   3.230   4.545   9.047 -1.4831  2.3419  0.6378
 2054SOL    HW217622   3.277   4.453   9.160  0.6017  3.5565  0.8043
 2055SOL     OW17623   1.741   0.805   3.403  0.8846 -0.1513 -0.3935
 2055SOL    HW117624   1.760   0.869   3.335 -0.6593 -1.2290 -1.8560
 2055SOL    HW217625   1.728   0.739   3.334 -2.1322  0.7336 -0.6998
 2056SOL     OW17626   1.994   1.553   3.430 -0.2500 -0.6833  0.2237
 2056SOL    HW117627   2.052   1.522   3.500  0.6399  0.7467  0.1056
 2056SOL    HW217628   2.031   1.512   3.351  0.4871 -2.8023  1.6692
 2057SOL     OW17629   2.854   1.741  17.198 -0.0048 -0.2089  0.2221
 2057SOL    HW117630   2.767   1.764  17.231  0.7902  0.4339  1.8983
 2057SOL    HW217631   2.830   1.695  17.118 -2.0103  3.2898 -1.2172
 2058SOL     OW17632   2.815   3.628   5.242 -0.2962  0.8681 -0.8225
 2058SOL    HW117633   2.794   3.548   5.290  1.1241  1.0913  0.1599
 2058SOL    HW217634   2.743   3.640   5.180  0.3954  3.7818 -1.0565
 2059SOL     OW17635   2.421   2.308   8.400  0.0003  0.0454  0.0075
 2059SOL    HW117636   2.485   2.379   8.398 -2.1446  2.0024  0.6011
 2059SOL    HW217637   2.351   2.342   8.455 -0.5722 -0.5864 -0.3383
 2060SOL     OW17638   2.625   0.478  12.590 -0.1801 -0.2103 -0.2792
 2060SOL    HW117639   2.588   0.556  12.631  0.6891 -0.8500  1.6993
 2060SOL    HW217640   2.665   0.433  12.664  0.7199 -1.3093 -1.4302
 2061SOL     OW17641   2.745   2.867   8.589 -0.2349  0.3375  0.1322
 2061SOL    HW117642   2.758   2.791   8.645  2.8691  2.0567  1.7717
 2061SOL    HW217643   2.833   2.905   8.582 -0.6220  1.3132  0.5621
 2062SOL     OW17644   0.221   0.693   8.191 -0.1627  0.0018  0.0648
 2062SOL    HW117645   0.300   0.685   8.244 -1.8714 -2.6276  2.2378
 2062SOL    HW217646   0.162   0.630   8.234  1.1666 -3.2516 -2.8850
 2063SOL     OW17647   0.441   2.875   6.404 -0.1266  0.0126  0.1109
 2063SOL    HW117648   0.400   2.896   6.320 -1.0726  0.1551  0.6141
 2063SOL    HW217649   0.367   2.846   6.457 -0.8532  0.3283 -0.7198
 2064SOL     OW17650   1.048   1.149   4.832 -0.4584 -0.6805  0.0634
 2064SOL    HW117651   1.078   1.215   4.771  0.2132 -1.5254 -0.5077
 2064SOL    HW217652   1.128   1.121   4.876  0.4867  2.0768  0.1003
 2065SOL     OW17653   1.640   1.330   2.074  0.4982 -0.0854 -0.2793
 2065SOL    HW117654   1.664   1.414   2.034  2.2578 -0.4142  0.0552
 2065SOL    HW217655   1.545   1.341   2.072  0.2780 -2.0319 -0.8937
 2066SOL     OW17656   1.389   1.411  10.509 -0.3053 -0.3005  0.1543
 2066SOL    HW117657   1.409   1.436  10.419 -0.9546 -2.9904 -0.7404
 2066SOL    HW217658   1.417   1.320  10.507  2.3799  0.5621 -1.5380
 2067SOL     OW17659   1.237   0.328   3.275  0.2711  0.1872  0.2615
 2067SOL    HW117660   1.257   0.276   3.197 -2.3454 -1.6848  0.8264
 2067SOL    HW217661   1.154   0.288   3.301 -0.2632  1.1289 -0.0141
 2068SOL     OW17662   3.796   3.848   4.838  0.1505 -0.2062 -0.7723
 2068SOL    HW117663   3.828   3.838   4.748  0.2296 -1.8182 -0.5560
 2068SOL    HW217664   3.872   3.815   4.887 -0.7357 -2.5143 -0.9572
 2069SOL     OW17665   2.214   0.621   3.386  0.3758  0.2822  0.6024
 2069SOL    HW117666   2.306   0.646   3.383  0.4037  0.1889  0.6906
 2069SOL    HW217667   2.198   0.604   3.293 -0.0924 -3.1595  1.3225
 2070SOL     OW17668   4.161   0.136  17.146  0.3815  0.0470 -0.3564
 2070SOL    HW117669   4.145   0.214  17.200  0.5922 -0.2170  0.0841
 2070SOL    HW217670   4.167   0.060  17.203 -1.3779  0.9411  1.0385
 2071SOL     OW17671   1.696   2.818  13.225  0.2823 -0.1218  0.1975
 2071SOL    HW117672   1.713   2.912  13.237  4.1478 -0.5956 -1.6685
 2071SOL    HW217673   1.744   2.776  13.296 -0.7854  0.8244  1.4896
 2072SOL     OW17674   2.038   3.133   3.461 -0.3528 -0.2622 -0.0330
 2072SOL    HW117675   1.983   3.082   3.401  0.5080 -1.8266  0.5084
 2072SOL    HW217676   2.122   3.107   3.423  1.0007  1.3117  1.8934
 2073SOL     OW17677   1.388   3.243  14.264 -0.1561  0.4691 -0.5541
 2073SOL    HW117678   1.335   3.177  14.310 -0.2749 -0.4767 -2.0410
 2073SOL    HW217679   1.398   3.317  14.324 -1.9628  0.6478 -0.4796
 2074SOL     OW17680   1.157   4.701  12.594 -0.1998  0.6009 -0.3622
 2074SOL    HW117681   1.092   4.653  12.543  1.2576 -2.1959  0.4240
 2074SOL    HW217682   1.156   0.052  12.533 -1.1939 -0.2426 -1.3871
 2075SOL     OW17683   0.276   3.948   5.334 -0.0818 -0.3401  0.4415
 2075SOL    HW117684   0.237   4.018   5.386  1.0582  1.6617 -1.3782
 2075SOL    HW217685   0.197   3.903   5.301 -0.7257  0.2212  1.2349
 2076SOL     OW17686   4.233   3.453   6.275  0.1434  0.2885  0.2442
 2076SOL    HW117687   4.194   3.367   6.292 -0.9685  0.7371 -0.0873
 2076SOL    HW217688   4.326   3.434   6.285 -0.3560 -1.8050  1.0187
 2077SOL     OW17689   1.791   2.047   6.622  0.3890  0.8093  0.3010
 2077SOL    HW117690   1.769   2.139   6.636  0.5626  0.5419  2.2615
 2077SOL    HW217691   1.822   2.044   6.531 -3.5241  0.8174 -1.0275
 2078SOL     OW17692   1.350   0.759   6.784  0.0265  0.0649  0.2914
 2078SOL    HW117693   1.283   0.706   6.741  0.9206  0.2403 -1.3142
 2078SOL    HW217694   1.305   0.841   6.804 -1.9151 -0.8672 -0.2744
 2079SOL     OW17695   1.797   0.950  11.509 -0.8703 -0.0186  0.6116
 2079SOL    HW117696   1.809   0.859  11.536  0.5957  0.2922  0.9989
 2079SOL    HW217697   1.836   0.997  11.583  2.7147 -3.7352  1.0901
 2080SOL     OW17698   0.593   1.103  15.738 -0.1222  0.2654  0.2086
 2080SOL    HW117699   0.498   1.114  15.733 -0.3882 -1.7555  0.8546
 2080SOL    HW217700   0.600   1.012  15.769  0.6495  0.3696  0.3464
 2081SOL     OW17701   0.996   4.033   4.724  0.3693 -0.0139 -0.0279
 2081SOL    HW117702   0.946   4.038   4.643  2.0076  3.9511 -0.8098
 2081SOL    HW217703   0.992   3.938   4.713  2.1457 -0.1296  0.3420
 2082SOL     OW17704   3.062   1.984   7.441  0.1330 -1.3311 -0.1516
 2082SOL    HW117705   3.155   2.006   7.446  0.1983 -1.9194  1.1441
 2082SOL    HW217706   3.037   2.004   7.531  0.6774 -0.9325 -0.0847
 2083SOL     OW17707   1.930   1.836   5.481 -0.3254  0.3627 -0.1949
 2083SOL    HW117708   1.890   1.902   5.538  3.0871  1.5617  0.7942
 2083SOL    HW217709   1.997   1.795   5.535  0.3349  2.2807  0.4367
 2084SOL     OW17710   3.435   3.540   8.498  0.2255  0.2667  0.2927
 2084SOL    HW117711   3.523   3.573   8.516  1.4260 -2.1516 -1.1739
 2084SOL    HW217712   3.456   3.461   8.449  2.6113  0.4099  1.0990
 2085SOL     OW17713   1.484   4.706   1.149 -0.1910 -0.0719  0.3359
 2085SOL    HW117714   1.569   4.672   1.178 -0.1447 -1.9598 -1.9934
 2085SOL    HW217715   1.437   4.650   1.211 -0.2356  1.0902  1.3262
 2086SOL     OW17716   3.000   2.194  12.512  0.1814  0.0703 -0.6856
 2086SOL    HW117717   3.057   2.121  12.488 -0.1990 -0.2920 -0.4857
 2086SOL    HW217718   3.055   2.244  12.573 -0.5142 -0.3509  0.2957
 2087SOL     OW17719   3.490   4.620   7.725 -0.4173 -0.3266  0.1933
 2087SOL    HW117720   3.416   4.674   7.696 -0.2785 -0.2554 -0.0300
 2087SOL    HW217721   3.562   4.677   7.754 -2.4757  2.6261 -0.4271
 2088SOL     OW17722   1.543   3.045   5.408 -0.6381 -0.5291 -0.4109
 2088SOL    HW117723   1.484   3.117   5.429  1.9861  1.8208 -1.2295
 2088SOL    HW217724   1.612   3.099   5.369 -0.9117  1.3245  1.6890
 2089SOL     OW17725   4.704   4.688   6.027 -0.1284 -0.3169 -0.1373
 2089SOL    HW117726   4.700   4.671   5.933  0.9820 -1.7935  0.0989
 2089SOL    HW217727   0.057   0.019   6.043  0.5104 -1.9848  2.4774
 2090SOL     OW17728   0.903   4.499   5.000  0.6732  0.1226 -0.2402
 2090SOL    HW117729   0.972   4.477   5.063  0.9934 -1.9829 -1.3139
 2090SOL    HW217730   0.830   4.496   5.062  2.1559  0.2331  1.5158
 2091SOL     OW17731   1.689   1.412   7.531 -0.0405 -0.1847 -0.2816
 2091SOL    HW117732   1.700   1.444   7.621 -0.8285 -1.5254  0.2931
 2091SOL    HW217733   1.711   1.320   7.547 -0.6552 -0.8941 -3.4858
 2092SOL     OW17734   1.438   3.077   6.136  0.1515  0.2619  0.0426
 2092SOL    HW117735   1.450   3.141   6.207  0.8871  0.9261 -0.6756
 2092SOL    HW217736   1.455   2.997   6.185  0.1302  0.8246  0.9808
 2093SOL     OW17737   4.630   2.876   8.223 -0.1481  0.5709 -0.0501
 2093SOL    HW117738   4.579   2.859   8.302 -0.9578 -1.1288 -0.9275
 2093SOL    HW217739   4.717   2.865   8.260 -0.2440 -0.1953 -0.0531
 2094SOL     OW17740   2.097   4.397   6.559 -0.5331 -0.4833  0.2949
 2094SOL    HW117741   2.172   4.351   6.598  1.3554  1.7936 -0.6496
 2094SOL    HW217742   2.026   4.339   6.585 -0.1608 -1.0816 -0.0270
 2095SOL     OW17743   0.216   3.217  10.616  0.0786  0.1402  0.1627
 2095SOL    HW117744   0.195   3.155  10.545 -1.5595 -0.4352  1.1598
 2095SOL    HW217745   0.312   3.216  10.616  0.0784  0.0828 -0.5047
 2096SOL     OW17746   0.057   0.637   5.362  0.7719  0.3839  0.3642
 2096SOL    HW117747   0.052   0.732   5.357  0.4717  0.3257 -0.4641
 2096SOL    HW217748   0.051   0.625   5.267 -0.7118  2.1852  0.2351
 2097SOL     OW17749   3.203   4.207  12.745  0.0579  0.0750  0.0882
 2097SOL    HW117750   3.199   4.264  12.822 -1.7868 -0.3336  0.2804
 2097SOL    HW217751   3.259   4.254  12.683  0.2022  0.9384  0.8745
 2098SOL     OW17752   0.858   2.060  13.663  0.6255 -0.3270  0.4532
 2098SOL    HW117753   0.935   2.035  13.714  0.3302 -0.4251  0.8539
 2098SOL    HW217754   0.828   2.133  13.717  0.9173 -0.8597  1.3272
 2099SOL     OW17755   4.620   2.357   5.911 -0.4872  0.2991  0.1970
 2099SOL    HW117756   4.632   2.263   5.899 -0.6804  0.2102  0.6980
 2099SOL    HW217757   4.556   2.347   5.982 -0.1527  1.6484  0.6882
 2100SOL     OW17758   2.764   2.627  13.750  0.0919 -0.3602  0.1251
 2100SOL    HW117759   2.775   2.708  13.699  3.2162 -2.1191 -1.9756
 2100SOL    HW217760   2.785   2.669  13.834 -0.6864 -0.4187  0.3487
 2101SOL     OW17761   0.203   3.091   7.187  0.2450  0.0973 -0.2942
 2101SOL    HW117762   0.185   2.997   7.194  0.5721  0.1596  1.5308
 2101SOL    HW217763   0.228   3.111   7.277 -2.5824  2.5729 -0.0555
 2102SOL     OW17764   0.320   0.230  12.316  0.3464  0.6155 -0.2946
 2102SOL    HW117765   0.322   0.250  12.409  0.5528  0.8159 -0.3441
 2102SOL    HW217766   0.390   0.282  12.278 -0.0579 -0.0266 -1.9075
 2103SOL     OW17767   4.297   3.629  15.822  0.0186  0.3595  0.3648
 2103SOL    HW117768   4.298   3.644  15.727 -0.9420 -1.3214  0.0939
 2103SOL    HW217769   4.353   3.697  15.860  0.4616  0.9739 -1.3577
 2104SOL     OW17770   3.914   1.063   6.907  0.3744  0.0817 -0.1404
 2104SOL    HW117771   3.913   0.982   6.958  0.6628  0.2026  0.0623
 2104SOL    HW217772   4.007   1.087   6.907 -0.0260  1.6539 -1.3658
 2105SOL     OW17773   3.241   4.004   1.066  0.2950  0.2047 -0.1736
 2105SOL    HW117774   3.162   3.959   1.095 -0.4608  0.5103 -1.7499
 2105SOL    HW217775   3.292   4.002   1.146  0.7083 -3.4418 -0.5208
 2106SOL     OW17776   1.633   2.836   6.796 -0.0556  0.0190 -0.3236
 2106SOL    HW117777   1.614   2.929   6.786  0.9727  0.2494 -0.0961
 2106SOL    HW217778   1.678   2.831   6.880 -0.5507  1.1288  0.0109
 2107SOL     OW17779   2.668   4.650   7.720 -0.4279 -0.4239 -0.4437
 2107SOL    HW117780   2.751   4.695   7.707  1.1315 -3.2935 -0.5437
 2107SOL    HW217781   2.605   4.715   7.689 -0.5560 -0.2586  0.1823
 2108SOL     OW17782   3.094   3.955  10.012  0.3086 -0.0436 -0.0498
 2108SOL    HW117783   3.083   3.860  10.023 -0.5188 -0.1930 -2.1638
 2108SOL    HW217784   3.027   3.988  10.071 -0.0493 -0.0834 -0.4314
 2109SOL     OW17785   4.206   2.423   3.714 -0.1485  0.0298  0.3454
 2109SOL    HW117786   4.210   2.504   3.765  0.1643 -0.6455  1.3801
 2109SOL    HW217787   4.118   2.396   3.740  0.6371  0.8710  3.8646
 2110SOL     OW17788   2.316   2.210  15.490  0.0543 -0.5829  0.4312
 2110SOL    HW117789   2.363   2.267  15.429 -1.6867  1.3159  0.8616
 2110SOL    HW217790   2.363   2.129  15.468 -1.5716 -0.4843 -3.4012
 2111SOL     OW17791   1.657   2.115  10.340 -0.0866 -0.3736 -0.1411
 2111SOL    HW117792   1.670   2.056  10.414  1.1058  1.2165  0.9228
 2111SOL    HW217793   1.745   2.111  10.302  0.1297 -0.1880  0.3309
 2112SOL     OW17794   3.102   3.169   3.668  0.5745 -0.1535 -0.4939
 2112SOL    HW117795   3.175   3.155   3.728 -2.2741  0.7646  3.2299
 2112SOL    HW217796   3.041   3.102   3.700  2.1376 -1.1812  0.2918
 2113SOL     OW17797   3.470   0.781  17.594  0.4303  0.1223  0.1240
 2113SOL    HW117798   3.379   0.808  17.592  0.9675  1.7074 -3.0499
 2113SOL    HW217799   3.498   0.808  17.682 -0.6166 -0.4470  0.6357
 2114SOL     OW17800   4.316   2.907   6.802  0.1524 -0.2187 -0.1749
 2114SOL    HW117801   4.303   2.969   6.873  0.0466 -0.6000  0.1375
 2114SOL    HW217802   4.294   2.827   6.850 -0.1567  0.4839  0.8586
 2115SOL     OW17803   2.127   0.327   6.405 -0.3985  0.2853  0.1714
 2115SOL    HW117804   2.190   0.255   6.410  1.0063  1.4797 -0.1128
 2115SOL    HW217805   2.057   0.300   6.346 -0.0036  0.7474 -0.5084
 2116SOL     OW17806   4.002   3.411   6.688  0.0080  0.5826 -0.0120
 2116SOL    HW117807   4.077   3.468   6.671 -0.1342  1.2030  1.3820
 2116SOL    HW217808   4.043   3.335   6.729 -2.1221 -0.7383 -0.3696
 2117SOL     OW17809   1.941   2.952   5.826  0.0085 -0.0652  0.7720
 2117SOL    HW117810   1.856   2.911   5.843 -0.4967  0.0259 -1.4686
 2117SOL    HW217811   1.927   2.995   5.742 -1.8098 -2.0321  0.0673
 2118SOL     OW17812   1.623   3.370   8.684 -0.2903 -0.1308  0.1721
 2118SOL    HW117813   1.646   3.452   8.727  0.1268 -0.1371 -0.0409
 2118SOL    HW217814   1.654   3.302   8.744  1.0136  0.2303 -0.0878
 2119SOL     OW17815   0.594   2.071   5.161  0.2568  0.2879  0.1390
 2119SOL    HW117816   0.525   2.014   5.125 -1.1903  1.3951  1.1521
 2119SOL    HW217817   0.665   2.067   5.096 -0.1118 -0.1831 -0.2386
 2120SOL     OW17818   3.859   4.654   3.991 -0.2629 -0.7306 -0.1422
 2120SOL    HW117819   3.804   4.595   4.042 -2.2944  0.6001 -0.7916
 2120SOL    HW217820   3.817   4.639   3.906 -0.7189 -1.9830  0.3063
 2121SOL     OW17821   1.846   1.301   2.640 -0.0487  0.0243  0.4069
 2121SOL    HW117822   1.906   1.280   2.568  0.0446 -2.5021  1.2311
 2121SOL    HW217823   1.766   1.328   2.596 -0.5379 -0.7693  0.8107
 2122SOL     OW17824   1.387   0.080   8.412 -0.5307 -0.0881 -0.5462
 2122SOL    HW117825   1.480   0.103   8.412 -0.7193  0.5997  2.0943
 2122SOL    HW217826   1.384   0.001   8.358  2.0431  0.5728 -1.6868
 2123SOL     OW17827   1.310   2.474  16.160  0.3626  0.0655  0.3407
 2123SOL    HW117828   1.218   2.471  16.136  0.5763  2.1173 -0.7771
 2123SOL    HW217829   1.355   2.404  16.113  1.4431  0.4658  0.7733
 2124SOL     OW17830   0.272   1.196   1.572  0.3665 -0.8534 -0.2258
 2124SOL    HW117831   0.176   1.195   1.578  0.3998 -2.1122  0.0851
 2124SOL    HW217832   0.299   1.131   1.636  0.9927  0.4382  0.8253
 2125SOL     OW17833   2.897   2.070   3.586  0.3039 -0.3472 -0.5631
 2125SOL    HW117834   2.864   1.981   3.572 -2.7930  0.8913 -1.1278
 2125SOL    HW217835   2.820   2.125   3.595  1.1974  0.6341  1.0322
 2126SOL     OW17836   1.404   0.439   6.582  0.2384  0.1574 -0.4624
 2126SOL    HW117837   1.431   0.396   6.501 -2.6615 -1.4917 -0.5403
 2126SOL    HW217838   1.373   0.360   6.627 -1.6688  1.2272  0.0966
 2127SOL     OW17839   0.177   1.991   2.102  0.6012 -0.0653 -0.8766
 2127SOL    HW117840   0.095   1.974   2.056  0.3519  0.8749 -0.7676
 2127SOL    HW217841   0.221   2.053   2.044  1.2473 -0.7036 -1.0760
 2128SOL     OW17842   4.433   1.050  12.726  0.3895 -0.0454  0.3171
 2128SOL    HW117843   4.371   1.093  12.786 -0.4926 -0.7981 -0.0435
 2128SOL    HW217844   4.464   1.131  12.686 -3.5576  0.3076 -1.9973
 2129SOL     OW17845   0.312   2.722  11.689  0.1358 -0.2466  0.1943
 2129SOL    HW117846   0.223   2.754  11.703 -0.8393 -2.1570 -1.8388
 2129SOL    HW217847   0.339   2.740  11.779 -1.9509 -0.0138  0.7630
 2130SOL     OW17848   3.282   3.315   5.958 -0.0644 -0.3594  0.0232
 2130SOL    HW117849   3.324   3.239   5.998  1.7173 -0.3845 -1.8873
 2130SOL    HW217850   3.330   3.317   5.875  2.2721  3.0059  1.4401
 2131SOL     OW17851   4.296   1.338   5.322  0.0741  0.1604  0.0977
 2131SOL    HW117852   4.333   1.425   5.337  0.1280  0.3483 -1.1600
 2131SOL    HW217853   4.204   1.363   5.315  0.0690  0.9445  2.9308
 2132SOL     OW17854   1.850   4.108   8.192  0.0278 -0.0662  0.4674
 2132SOL    HW117855   1.885   4.134   8.107 -0.5256 -1.5260 -0.2147
 2132SOL    HW217856   1.790   4.037   8.168  1.0691 -0.4940 -0.8985
 2133SOL     OW17857   3.258   4.124   6.748 -0.1961  0.4254 -0.1106
 2133SOL    HW117858   3.195   4.099   6.681  0.2318  3.8914 -1.8163
 2133SOL    HW217859   3.239   4.057   6.813 -0.9821 -1.6495 -2.4974
 2134SOL     OW17860   1.158   3.708   6.500  0.0003  0.0039  0.1195
 2134SOL    HW117861   1.216   3.753   6.562 -2.3113  3.1816  0.0121
 2134SOL    HW217862   1.079   3.760   6.516 -1.2100 -1.4193 -1.2163
 2135SOL     OW17863   1.283   1.162  12.831  0.2507 -0.3156  0.6638
 2135SOL    HW117864   1.369   1.142  12.869  0.7149 -0.5770 -0.5278
 2135SOL    HW217865   1.249   1.223  12.897  2.0595 -0.6526  1.9196
 2136SOL     OW17866   3.593   2.203   5.712  0.8153  0.6464 -0.5520
 2136SOL    HW117867   3.564   2.222   5.801 -1.0742  2.7406 -1.5928
 2136SOL    HW217868   3.665   2.142   5.728 -0.4587 -1.0720 -1.3930
 2137SOL     OW17869   2.312   0.555   0.844 -0.1515  0.0225  0.3368
 2137SOL    HW117870   2.344   0.645   0.856  0.9273 -0.2756 -0.3789
 2137SOL    HW217871   2.356   0.502   0.910 -0.8762 -1.7370 -0.6000
 2138SOL     OW17872   2.100   2.503   4.678  0.4193 -0.5285  0.4515
 2138SOL    HW117873   2.065   2.541   4.597 -0.9957 -1.9637  0.3689
 2138SOL    HW217874   2.066   2.561   4.746 -2.8768 -0.7374 -1.0200
 2139SOL     OW17875   4.641   3.374  11.698  0.0172 -0.2120  0.1008
 2139SOL    HW117876   4.720   3.335  11.659  0.1818 -1.2458  1.4655
 2139SOL    HW217877   4.680   3.413  11.777 -1.9348  0.6280  0.6305
 2140SOL     OW17878   3.593   0.497   2.429  0.3609  0.0715  0.1177
 2140SOL    HW117879   3.651   0.463   2.497 -0.8129 -2.0523  0.0617
 2140SOL    HW217880   3.618   0.436   2.360  0.5225  0.2864 -0.0127
 2141SOL     OW17881   0.306   1.688   2.158 -1.0254 -0.7444  0.0936
 2141SOL    HW117882   0.329   1.780   2.172 -1.4143 -0.4127 -1.4261
 2141SOL    HW217883   0.376   1.654   2.214 -2.1573  0.3472  2.1512
 2142SOL     OW17884   1.040   2.555  15.846  0.3405  0.5316 -0.0583
 2142SOL    HW117885   1.016   2.510  15.927 -0.5563  0.0026 -0.6213
 2142SOL    HW217886   1.030   2.491  15.775 -0.2409  0.8607 -0.2725
 2143SOL     OW17887   2.061   4.076   7.654  0.2330  0.3864 -0.1873
 2143SOL    HW117888   2.009   4.004   7.619 -0.5169  1.2160 -0.7825
 2143SOL    HW217889   2.112   4.108   7.580  1.9849 -1.3802  0.2671
 2144SOL     OW17890   2.380   1.950   1.022 -0.6475  0.0556 -0.5012
 2144SOL    HW117891   2.303   1.984   1.066 -0.3370  0.5038 -0.3118
 2144SOL    HW217892   2.382   2.003   0.942  0.2145 -2.2662 -2.0065
 2145SOL     OW17893   3.270   2.031  12.180  0.5826  0.1420 -0.2068
 2145SOL    HW117894   3.362   2.057  12.178 -0.1531  2.8524  0.8003
 2145SOL    HW217895   3.287   1.937  12.181  2.3901  0.5195  2.6638
 2146SOL     OW17896   1.198   2.959   4.949 -0.1178 -0.5492  0.9154
 2146SOL    HW117897   1.212   2.868   4.972 -0.4475 -0.6128  0.8692
 2146SOL    HW217898   1.109   2.977   4.979  0.1887  0.9258  0.9649
 2147SOL     OW17899   0.646   1.677   1.504 -0.6648  0.1669  0.0631
 2147SOL    HW117900   0.725   1.729   1.518 -0.9453  0.3773  0.9146
 2147SOL    HW217901   0.674   1.624   1.430  0.4199  1.6683 -0.5830
 2148SOL     OW17902   4.303   0.367   7.995  0.3152 -0.1188 -0.3912
 2148SOL    HW117903   4.257   0.301   7.942 -1.0059  0.2383  0.3267
 2148SOL    HW217904   4.263   0.362   8.081 -2.2327  1.8152 -1.4534
 2149SOL     OW17905   2.447   3.734   8.680 -0.1430  0.0890  0.1944
 2149SOL    HW117906   2.383   3.792   8.640  1.3283  2.0445  0.6986
 2149SOL    HW217907   2.504   3.802   8.716 -1.5970  0.9679  0.8275
 2150SOL     OW17908   1.752   3.476  11.376 -0.1382 -0.6466 -0.4075
 2150SOL    HW117909   1.839   3.455  11.411 -0.1658 -0.6799 -0.3585
 2150SOL    HW217910   1.707   3.490  11.459  0.7251 -1.2756  0.1712
 2151SOL     OW17911   1.562   0.888  11.387  0.1129  0.1387  0.9088
 2151SOL    HW117912   1.553   0.952  11.316  0.8202 -1.6286 -0.7721
 2151SOL    HW217913   1.650   0.912  11.415  0.4164  0.1007  0.0074
 2152SOL     OW17914   0.070   2.530   9.873 -0.0593 -0.1065  0.1035
 2152SOL    HW117915   0.047   2.572   9.955  0.2821 -0.1030  0.1963
 2152SOL    HW217916   0.143   2.479   9.909 -0.1985  0.3195  0.9807
 2153SOL     OW17917   3.064   3.214   1.400 -0.0017 -0.4404 -0.4854
 2153SOL    HW117918   3.021   3.151   1.342 -2.8850  1.9287 -0.9512
 2153SOL    HW217919   3.134   3.165   1.444 -0.9319 -0.1889  1.2449
 2154SOL     OW17920   0.175   1.587   7.796  0.1082 -0.2546 -0.1443
 2154SOL    HW117921   0.143   1.509   7.752  1.4186 -0.3659 -0.9030
 2154SOL    HW217922   0.091   1.631   7.807  0.4847  0.5617 -0.5436
 2155SOL     OW17923   0.349   0.628   9.941 -0.1182  0.5482 -0.2315
 2155SOL    HW117924   0.287   0.630   9.868  0.8986  2.2032 -1.0545
 2155SOL    HW217925   0.293   0.668  10.008 -0.4455  1.7374 -1.2196
 2156SOL     OW17926   0.897   1.133   6.669  0.2135 -0.2430  0.2710
 2156SOL    HW117927   0.882   1.225   6.691  1.8619  0.4842 -1.6677
 2156SOL    HW217928   0.850   1.093   6.743  2.5022 -1.9105  0.8576
 2157SOL     OW17929   2.365   2.010   4.709 -0.7371 -0.1846 -0.2130
 2157SOL    HW117930   2.413   1.943   4.660  0.7143  0.4709  0.2952
 2157SOL    HW217931   2.405   2.009   4.796 -2.3712 -0.6097  0.5464
 2158SOL     OW17932   3.629   0.812   7.195 -0.1454 -0.2026  0.2202
 2158SOL    HW117933   3.697   0.787   7.256 -1.1598 -0.4573  1.2434
 2158SOL    HW217934   3.558   0.838   7.254 -0.4672 -1.3026  0.3094
 2159SOL     OW17935   1.814   0.374   5.265 -0.5897 -0.6181 -0.2938
 2159SOL    HW117936   1.724   0.395   5.242 -0.5716 -1.7351 -1.3980
 2159SOL    HW217937   1.813   0.430   5.342 -1.3716 -0.2390 -0.5896
 2160SOL     OW17938   3.776   2.893   2.621  0.3422 -0.3214 -0.4002
 2160SOL    HW117939   3.744   2.837   2.692 -0.7926 -0.7008 -1.2249
 2160SOL    HW217940   3.869   2.872   2.628  0.2848 -0.9785 -1.5866
 2161SOL     OW17941   2.369   0.645  15.176 -0.5888  0.2322 -0.2436
 2161SOL    HW117942   2.415   0.609  15.100  1.6713  3.2361 -0.3129
 2161SOL    HW217943   2.284   0.603  15.180 -0.8000  0.5411 -1.4449
 2162SOL     OW17944   4.325   1.554   5.699 -0.1447 -0.5455 -0.0478
 2162SOL    HW117945   4.359   1.468   5.726 -2.1348 -1.2193  0.3160
 2162SOL    HW217946   4.328   1.549   5.604 -0.3526  0.1431 -0.0910
 2163SOL     OW17947   4.615   1.327   2.039  0.4571  0.1493 -0.0739
 2163SOL    HW117948   4.536   1.279   2.013  1.6044 -1.0796 -1.3002
 2163SOL    HW217949   4.623   1.302   2.131  1.6608 -3.0931 -1.0626
 2164SOL     OW17950   3.419   4.392   3.254  0.6151  0.0629 -0.1116
 2164SOL    HW117951   3.405   4.299   3.235  0.1835 -0.0829  0.9279
 2164SOL    HW217952   3.411   4.429   3.166 -0.0430 -0.9292 -0.4672
 2165SOL     OW17953   1.821   2.834   7.063  0.3146 -0.3628 -0.0854
 2165SOL    HW117954   1.743   2.799   7.104 -0.0515  0.6771  0.0879
 2165SOL    HW217955   1.888   2.804   7.125  1.1236  1.2221 -0.1940
 2166SOL     OW17956   2.018   0.915  12.932  0.2155  0.8465  0.2311
 2166SOL    HW117957   2.088   0.873  12.981  1.2207  1.5585 -0.6148
 2166SOL    HW217958   2.036   0.872  12.849 -3.3197 -2.1567  1.0301
 2167SOL     OW17959   1.290   3.736   4.988 -0.2206 -0.7986  0.0809
 2167SOL    HW117960   1.315   3.681   4.913 -0.8509  1.4969 -1.8322
 2167SOL    HW217961   1.364   3.795   4.998 -1.6184  1.1319 -0.8420
 2168SOL     OW17962   3.775   0.294   9.171 -0.2205 -0.1047  0.2511
 2168SOL    HW117963   3.742   0.216   9.216 -1.0844 -2.4333 -4.2929
 2168SOL    HW217964   3.851   0.308   9.226 -0.4973 -0.1365  0.6419
 2169SOL     OW17965   3.147   3.580   8.965 -0.7254  0.3161 -0.1124
 2169SOL    HW117966   3.070   3.615   9.011  0.9579  1.0466  2.1331
 2169SOL    HW217967   3.101   3.547   8.887  1.5862 -1.4675 -0.7175
 2170SOL     OW17968   0.927   2.465   2.445 -0.0259  0.0596 -0.0186
 2170SOL    HW117969   0.934   2.370   2.448  1.3919  0.0779 -3.0133
 2170SOL    HW217970   0.939   2.482   2.538  2.1056 -0.5914 -0.1870
 2171SOL     OW17971   0.126   4.379  13.548  0.2732 -0.2164  0.4482
 2171SOL    HW117972   0.213   4.373  13.586 -0.3391 -2.8855  1.4320
 2171SOL    HW217973   0.096   4.458  13.593 -0.2597 -0.7656  1.0582
 2172SOL     OW17974   4.428   0.759   3.069 -0.7104  0.3820  0.0222
 2172SOL    HW117975   4.402   0.836   3.019  2.3039  2.1473  1.1645
 2172SOL    HW217976   4.350   0.746   3.123 -0.9509  1.1165 -0.1544
 2173SOL     OW17977   2.323   0.366   2.382 -0.1112  0.1868  0.5613
 2173SOL    HW117978   2.395   0.358   2.444 -0.4187  1.2127  1.0621
 2173SOL    HW217979   2.373   0.354   2.301 -0.6336  0.4566  0.1991
 2174SOL     OW17980   1.712   2.501  15.271  0.2317  0.3053  0.6629
 2174SOL    HW117981   1.715   2.461  15.184  0.2585  0.8741  0.3998
 2174SOL    HW217982   1.733   2.434  15.336 -1.1744  0.0866  0.8969
 2175SOL     OW17983   2.246   1.953   5.068 -0.8076  0.5456 -0.4352
 2175SOL    HW117984   2.205   1.905   5.140  2.7882 -1.5699  0.2351
 2175SOL    HW217985   2.186   1.927   4.999  0.9536 -2.6679 -0.7749
 2176SOL     OW17986   2.035   4.529   7.290 -0.3438  0.2586  0.3010
 2176SOL    HW117987   2.091   4.504   7.217  0.9111  0.6519  1.1166
 2176SOL    HW217988   2.037   4.625   7.289 -2.5781  0.3089  0.9861
 2177SOL     OW17989   1.918   4.442   5.385 -0.4826 -0.8697  0.0281
 2177SOL    HW117990   1.941   4.510   5.321 -0.7140  0.8240  1.7549
 2177SOL    HW217991   1.829   4.473   5.402 -0.5579 -0.1936 -1.5075
 2178SOL     OW17992   1.244   3.085   3.360  0.0855  0.2262 -0.2247
 2178SOL    HW117993   1.258   3.036   3.441 -0.8433 -0.3694 -0.4181
 2178SOL    HW217994   1.152   3.111   3.363  0.4346  1.3811  0.0936
 2179SOL     OW17995   4.535   2.572   1.032 -0.2745 -0.5821  0.1863
 2179SOL    HW117996   4.561   2.496   1.083  0.2033 -0.4989  0.0642
 2179SOL    HW217997   4.582   2.551   0.951  0.8309  1.5408  0.2843
 2180SOL     OW17998   2.424   2.835  12.696 -0.2140  0.1198  0.1252
 2180SOL    HW117999   2.459   2.750  12.670 -1.1124  0.6798 -2.8977
 2180SOL    HW218000   2.401   2.831  12.789  1.8064 -1.5439  0.5398
 2181SOL     OW18001   3.128   2.967   4.969  0.0404 -0.3777 -0.4105
 2181SOL    HW118002   3.086   3.049   4.941  1.2693 -0.3990 -2.2984
 2181SOL    HW218003   3.079   2.947   5.049  1.1833  1.6907  0.7990
 2182SOL     OW18004   1.049   2.497   9.728 -0.4965  0.3692  0.6637
 2182SOL    HW118005   1.140   2.480   9.704  0.6359  1.6434  4.2197
 2182SOL    HW218006   1.025   2.408   9.752 -2.0950  0.8822  0.9494
 2183SOL     OW18007   2.046   0.522   7.386  0.5001  0.0061 -0.3813
 2183SOL    HW118008   2.077   0.440   7.425  0.4716 -0.2046 -0.7998
 2183SOL    HW218009   2.091   0.524   7.301 -1.7939 -1.9788 -1.6826
 2184SOL     OW18010   2.891   3.124   7.460  0.7242  0.2267  0.0707
 2184SOL    HW118011   2.981   3.103   7.486  0.5219 -3.0803 -1.9962
 2184SOL    HW218012   2.900   3.158   7.371  2.0526  0.1965  0.1919
 2185SOL     OW18013   3.248   0.678   2.414 -0.1930  0.3340 -0.3200
 2185SOL    HW118014   3.276   0.627   2.490  0.8766 -0.6672 -1.3984
 2185SOL    HW218015   3.223   0.610   2.352  1.6127  0.1473 -0.8180
 2186SOL     OW18016   3.589   4.552   9.825  0.2991  0.6047 -0.3457
 2186SOL    HW118017   3.657   4.615   9.847  1.0786 -0.1955 -0.4553
 2186SOL    HW218018   3.529   4.592   9.761  0.8678  1.0686 -0.5869
 2187SOL     OW18019   2.726   2.809  15.472 -0.9912  0.0199  0.6634
 2187SOL    HW118020   2.718   2.767  15.558 -1.0701 -0.0651  0.6144
 2187SOL    HW218021   2.781   2.882  15.500  0.5221 -0.6901 -0.4485
 2188SOL     OW18022   1.334   1.586   1.850  0.7720 -0.3463  0.2295
 2188SOL    HW118023   1.290   1.668   1.875 -0.6826 -0.2924 -2.4894
 2188SOL    HW218024   1.343   1.603   1.757 -2.9685 -0.1770 -0.1185
 2189SOL     OW18025   2.273   2.990   5.572 -0.1108  0.4347 -0.4418
 2189SOL    HW118026   2.308   2.914   5.526 -0.6794 -0.9211  1.3379
 2189SOL    HW218027   2.272   2.968   5.665 -2.4885  1.2791 -0.2807
 2190SOL     OW18028   3.116   4.469   3.803 -0.7091 -0.7420 -0.5130
 2190SOL    HW118029   3.104   4.374   3.799 -0.9453 -0.7886  1.5612
 2190SOL    HW218030   3.188   4.468   3.866 -0.4120 -4.1355 -0.8735
 2191SOL     OW18031   3.728   4.418   8.479 -0.1219  0.1928 -0.3172
 2191SOL    HW118032   3.634   4.438   8.482  0.5528  2.3389  4.8438
 2191SOL    HW218033   3.746   4.405   8.572 -0.3037  0.0467 -0.3007
 2192SOL     OW18034   4.121   2.733   7.284  0.0830  0.1007  1.1176
 2192SOL    HW118035   4.075   2.753   7.202 -2.2748 -0.6873  2.2630
 2192SOL    HW218036   4.058   2.687   7.339  1.4024 -0.4049  2.1898
 2193SOL     OW18037   1.524   1.301   7.333 -0.3130  0.0007 -0.1783
 2193SOL    HW118038   1.542   1.225   7.388 -1.2002 -0.6319 -0.7513
 2193SOL    HW218039   1.604   1.352   7.347  0.0232  0.1640 -2.6504
 2194SOL     OW18040   1.231   4.152  16.481  0.7484 -0.0961 -0.0381
 2194SOL    HW118041   1.291   4.151  16.407  1.0747  0.9311  0.2108
 2194SOL    HW218042   1.156   4.107  16.444 -0.1388  3.1497 -2.2162
 2195SOL     OW18043   1.551   0.014   5.699 -0.1709  0.5027 -0.1613
 2195SOL    HW118044   1.619   0.062   5.652  0.9519  0.2972  1.2237
 2195SOL    HW218045   1.552   0.064   5.781  1.4533  0.5137 -0.1896
 2196SOL     OW18046   1.510   1.476   8.397 -0.0239 -0.0014 -0.5489
 2196SOL    HW118047   1.445   1.470   8.467  1.4969  1.0222  0.9836
 2196SOL    HW218048   1.453   1.511   8.329  1.1695  0.0177 -1.5462
 2197SOL     OW18049   4.358   0.304  16.887  0.1981 -0.1230  0.1539
 2197SOL    HW118050   4.302   0.380  16.873  1.0016  0.0113 -2.2705
 2197SOL    HW218051   4.289   0.241  16.865  0.4436 -0.0183 -0.8795
 2198SOL     OW18052   0.455   2.184  17.252  0.2629  0.1867 -0.3897
 2198SOL    HW118053   0.515   2.220  17.317 -3.4628  2.2630  1.9044
 2198SOL    HW218054   0.499   2.220  17.174  1.1474  0.3471  0.1882
 2199SOL     OW18055   4.722   2.674   3.569  0.4662  0.4364  0.1528
 2199SOL    HW118056   4.719   2.754   3.516 -0.6501 -0.4167 -1.0675
 2199SOL    HW218057   4.699   2.708   3.655 -0.9444 -2.7893  1.0393
 2200SOL     OW18058   3.616   2.269   7.001  0.0858  0.5237 -0.5673
 2200SOL    HW118059   3.583   2.200   6.945  0.2525  0.9471 -1.1879
 2200SOL    HW218060   3.554   2.262   7.074  1.1513  0.7088  0.3497
 2201SOL     OW18061   0.307   1.057   3.031  0.1409 -0.3477  0.4783
 2201SOL    HW118062   0.337   0.987   3.089  2.4643 -1.4091 -2.0493
 2201SOL    HW218063   0.377   1.069   2.967  0.9512  0.8270  1.5697
 2202SOL     OW18064   0.864   1.795  13.879  0.1124 -0.3095  0.6288
 2202SOL    HW118065   0.808   1.855  13.929 -1.2325 -1.5635  0.6207
 2202SOL    HW218066   0.943   1.844  13.854  0.0083 -0.4480  0.0363
 2203SOL     OW18067   0.171   1.270   6.589 -0.4987 -0.2091  0.3270
 2203SOL    HW118068   0.256   1.312   6.604 -0.3553 -0.2702 -0.3496
 2203SOL    HW218069   0.139   1.324   6.518  2.7470 -0.4968 -1.3458
 2204SOL     OW18070   2.396   0.159  10.897  0.1970 -0.0662  0.3018
 2204SOL    HW118071   2.355   0.108  10.967 -2.5353  0.5868 -0.8291
 2204SOL    HW218072   2.329   0.163  10.829 -0.1877 -1.5085  0.6012
 2205SOL     OW18073   4.223   1.054   5.183  0.0334  0.7299  0.3299
 2205SOL    HW118074   4.148   1.073   5.241  0.2891  1.3908  0.4445
 2205SOL    HW218075   4.229   1.129   5.124 -2.8848  0.5562 -0.2181
 2206SOL     OW18076   2.238   0.872   7.378  0.4428  0.4509 -0.0777
 2206SOL    HW118077   2.203   0.872   7.289  1.1177  1.0961 -0.3384
 2206SOL    HW218078   2.166   0.925   7.412 -0.5562  0.4154 -2.1438
 2207SOL     OW18079   2.904   3.851   0.747 -0.1630 -0.0646 -0.4684
 2207SOL    HW118080   2.985   3.881   0.706 -0.6946 -0.7940 -2.0260
 2207SOL    HW218081   2.847   3.914   0.705  1.7452  3.4761  2.2341
 2208SOL     OW18082   2.573   4.059   6.397  0.1063  0.5697 -0.5019
 2208SOL    HW118083   2.617   4.127   6.448  0.0915  0.2459 -0.0652
 2208SOL    HW218084   2.604   3.976   6.433 -1.3786 -0.2091 -1.0491
 2209SOL     OW18085   0.189   4.338   3.422 -0.5437 -0.5979 -0.2335
 2209SOL    HW118086   0.220   4.314   3.335  1.3799 -1.2594  0.6380
 2209SOL    HW218087   0.230   4.271   3.477 -0.5127  0.7590  1.4128
 2210SOL     OW18088   2.120   0.022  17.327 -0.4336 -0.1431 -0.1126
 2210SOL    HW118089   2.160   4.709  17.405 -0.1016 -1.6066 -0.9645
 2210SOL    HW218090   2.194   0.021  17.267 -1.2142 -0.4617 -1.0868
 2211SOL     OW18091   3.636   2.769   6.997 -0.4819  0.2562  0.2848
 2211SOL    HW118092   3.563   2.754   7.058 -1.1629  1.2404 -0.2933
 2211SOL    HW218093   3.712   2.760   7.054 -0.5811 -0.4117  0.3213
 2212SOL     OW18094   1.702   4.123   6.106  0.0438 -0.0066  0.0628
 2212SOL    HW118095   1.754   4.060   6.155  1.5352  0.6833 -0.6175
 2212SOL    HW218096   1.727   4.106   6.015  0.3741 -0.0694  0.1679
 2213SOL     OW18097   1.927   1.751   3.949 -0.0749  0.2919  0.0910
 2213SOL    HW118098   1.999   1.795   3.905  1.5592 -1.9669  0.5016
 2213SOL    HW218099   1.868   1.728   3.878  0.4170 -2.8141  0.6935
 2214SOL     OW18100   2.380   3.899   8.182 -0.0775 -0.3204 -0.4889
 2214SOL    HW118101   2.315   3.964   8.208 -0.2094 -0.7790  0.3150
 2214SOL    HW218102   2.457   3.952   8.202  0.0445 -0.6007 -0.2097
 2215SOL     OW18103   2.638   3.994  14.737  0.0010 -0.1884 -0.3075
 2215SOL    HW118104   2.692   4.033  14.669 -0.2142 -0.0507 -0.4011
 2215SOL    HW218105   2.587   4.069  14.769 -0.2398 -0.9674  1.1065
 2216SOL     OW18106   1.336   0.770  14.373  0.2506  0.3576 -0.3426
 2216SOL    HW118107   1.325   0.809  14.460 -0.9016 -0.0451 -0.3038
 2216SOL    HW218108   1.266   0.705  14.367  1.8241 -1.2130 -1.4680
 2217SOL     OW18109   3.862   1.194  10.001 -0.7589  0.3652 -0.1713
 2217SOL    HW118110   3.795   1.247  10.045 -0.2014 -0.8764  2.1692
 2217SOL    HW218111   3.823   1.109   9.984  1.8872 -0.6933 -1.0063
 2218SOL     OW18112   4.127   0.711  12.938 -0.0278 -0.3001 -0.1208
 2218SOL    HW118113   4.041   0.676  12.960  0.1124 -0.3689  0.3242
 2218SOL    HW218114   4.187   0.644  12.973 -0.4354 -0.6137 -0.0233
 2219SOL     OW18115   1.585   4.257   9.046  0.2928 -0.4128 -0.7065
 2219SOL    HW118116   1.499   4.254   9.087  1.5036  0.0327  1.8802
 2219SOL    HW218117   1.606   4.164   9.036 -1.3455 -0.8460 -0.1744
 2220SOL     OW18118   3.290   3.926   3.962 -0.3541 -0.2228 -0.1014
 2220SOL    HW118119   3.194   3.923   3.960 -0.3777 -0.2103  1.1845
 2220SOL    HW218120   3.316   3.896   3.875  0.0133 -0.1715 -0.0108
 2221SOL     OW18121   0.508   3.264   8.672 -0.1168 -0.3151  0.3673
 2221SOL    HW118122   0.551   3.201   8.613  1.3453  1.5563 -0.5504
 2221SOL    HW218123   0.511   3.339   8.613 -0.0696 -1.8566 -1.5735
 2222SOL     OW18124   2.497   0.886   4.291 -0.2965  0.0720 -0.3695
 2222SOL    HW118125   2.584   0.886   4.330 -1.0632  2.2204  1.3669
 2222SOL    HW218126   2.514   0.815   4.229 -2.6810  0.0162 -0.9870
 2223SOL     OW18127   1.417   3.621   4.142 -0.3661 -0.1193  0.3987
 2223SOL    HW118128   1.334   3.579   4.163 -1.1508  1.8716  1.2754
 2223SOL    HW218129   1.459   3.551   4.092  1.7375  2.2004 -1.1199
 2224SOL     OW18130   2.075   1.160   0.110  0.4873  0.1370 -0.2960
 2224SOL    HW118131   2.097   1.191   0.022 -0.2862  0.7428 -0.2705
 2224SOL    HW218132   1.987   1.124   0.103  1.0346 -1.3164  0.1406
 2225SOL     OW18133   4.290   4.648   2.263 -0.1805  0.2091  0.1805
 2225SOL    HW118134   4.367   4.615   2.310  1.7716  1.3205 -2.2457
 2225SOL    HW218135   4.317   4.642   2.171  0.6896 -1.1279  0.5255
 2226SOL     OW18136   2.159   1.232   4.564  0.5208 -0.8064 -0.5809
 2226SOL    HW118137   2.103   1.181   4.622  0.5060  1.4260  1.3686
 2226SOL    HW218138   2.150   1.180   4.484 -1.3990  0.7381 -1.3990
 2227SOL     OW18139   3.650   2.066   6.839 -0.2539  0.3494 -0.6025
 2227SOL    HW118140   3.713   2.029   6.901 -0.1410  1.9369  0.2119
 2227SOL    HW218141   3.718   2.102   6.783 -2.4263  1.2283 -2.6707
 2228SOL     OW18142   3.036   3.041   7.919 -0.4570 -0.1322 -0.3756
 2228SOL    HW118143   3.024   3.101   7.845 -0.2181  2.3896  1.6455
 2228SOL    HW218144   3.013   2.953   7.889 -0.8066 -0.5822  1.1993
 2229SOL     OW18145   1.285   0.223   5.744 -0.4863 -0.2722  0.5129
 2229SOL    HW118146   1.256   0.205   5.833 -0.0084 -1.2387  0.4710
 2229SOL    HW218147   1.346   0.150   5.728  2.5259  2.0812  1.3211
 2230SOL     OW18148   0.448   0.643  13.247  0.0143  0.9820  0.6067
 2230SOL    HW118149   0.519   0.696  13.283  0.4589  0.6537  0.2138
 2230SOL    HW218150   0.371   0.695  13.272  0.6917  2.6759 -0.8151
 2231SOL     OW18151   1.169   2.208  12.637 -0.0814  0.6100  0.3818
 2231SOL    HW118152   1.080   2.192  12.606  0.8385 -0.8577 -1.5166
 2231SOL    HW218153   1.220   2.149  12.581  2.6543  2.2681  1.1187
 2232SOL     OW18154   4.181   1.797   6.618  0.6588  0.4211  0.7033
 2232SOL    HW118155   4.103   1.835   6.658  1.4715  2.6479  0.1478
 2232SOL    HW218156   4.134   1.743   6.554  1.2870 -0.9645  1.4221
 2233SOL     OW18157   2.193   3.387  13.790  0.4532  0.4198  0.2139
 2233SOL    HW118158   2.251   3.446  13.741  0.4162 -2.4272 -3.2487
 2233SOL    HW218159   2.170   3.318  13.728  0.2475  0.6346  0.0510
 2234SOL     OW18160   4.137   1.853   5.328  0.3242 -0.5150 -0.0554
 2234SOL    HW118161   4.073   1.878   5.395  1.5790  0.9896  0.5906
 2234SOL    HW218162   4.200   1.924   5.343 -0.9512  0.3808  1.0880
 2235SOL     OW18163   3.049   0.894   4.730 -0.1195  0.3460 -0.2133
 2235SOL    HW118164   3.106   0.832   4.774 -1.0473  0.6662  1.4535
 2235SOL    HW218165   2.969   0.880   4.781 -0.1520  2.4909  0.3516
 2236SOL     OW18166   3.378   3.692  14.029  1.0736 -0.2253  0.1745
 2236SOL    HW118167   3.466   3.670  14.060  1.0167 -0.8576 -0.1181
 2236SOL    HW218168   3.370   3.786  14.044  0.5213 -0.7712  3.1685
 2237SOL     OW18169   1.634   0.586  13.378  0.2617 -0.0343 -0.1121
 2237SOL    HW118170   1.655   0.657  13.439 -4.8232 -0.1516  1.8086
 2237SOL    HW218171   1.597   0.525  13.442  2.9670 -1.1767  0.3636
 2238SOL     OW18172   2.732   3.385   7.118 -0.5366 -0.7256  0.1040
 2238SOL    HW118173   2.696   3.449   7.057  2.8948 -0.8066 -2.0511
 2238SOL    HW218174   2.815   3.430   7.135  1.1921 -2.8296 -2.6896
 2239SOL     OW18175   2.695   4.612   9.034 -0.2169  0.1726  0.0032
 2239SOL    HW118176   2.732   4.651   9.113 -2.4224 -0.4041  1.3324
 2239SOL    HW218177   2.619   4.669   9.020 -0.4113  0.1519  0.9705
 2240SOL     OW18178   1.483   1.123   9.268 -0.2727  0.4392  0.6975
 2240SOL    HW118179   1.530   1.157   9.192  1.4146 -1.2375  0.9967
 2240SOL    HW218180   1.408   1.080   9.227  0.7539 -1.2688  0.6031
 2241SOL     OW18181   0.998   0.029  15.193 -0.2430 -0.1537  0.2858
 2241SOL    HW118182   1.073   4.718  15.242  0.2011  0.2528 -0.1091
 2241SOL    HW218183   0.938   0.061  15.261  0.1839 -0.3065  0.7382
 2242SOL     OW18184   3.845   2.011   6.347  0.1617 -0.4357 -0.4872
 2242SOL    HW118185   3.825   2.076   6.414  0.7712  1.5283 -2.1985
 2242SOL    HW218186   3.828   1.931   6.395 -3.3023  0.8529  0.4246
 2243SOL     OW18187   4.341   0.369  14.493  0.4734 -0.0254 -0.2474
 2243SOL    HW118188   4.395   0.292  14.514 -0.2585  0.0439  1.8719
 2243SOL    HW218189   4.278   0.350  14.562  2.3084 -1.4971  1.0512
 2244SOL     OW18190   2.514   2.728   6.360  0.6963  0.6926 -0.3847
 2244SOL    HW118191   2.546   2.681   6.438 -0.4734  0.1901 -0.2048
 2244SOL    HW218192   2.436   2.766   6.401 -0.9345 -2.3722 -0.6805
 2245SOL     OW18193   1.055   3.071   3.985  0.3587  0.4930 -0.3693
 2245SOL    HW118194   1.008   3.132   4.042 -2.7633  1.5298 -4.0050
 2245SOL    HW218195   1.133   3.121   3.961 -0.1932  2.9663  3.0388
 2246SOL     OW18196   4.428   3.924   5.831  0.2094  0.0782  0.3024
 2246SOL    HW118197   4.424   3.948   5.924  0.2509 -0.5845  0.4747
 2246SOL    HW218198   4.398   4.002   5.785  0.6812  1.4531  2.3338
 2247SOL     OW18199   0.628   3.550   7.657  0.4968 -0.1231  0.5216
 2247SOL    HW118200   0.651   3.506   7.575 -0.6772  0.6211 -0.2018
 2247SOL    HW218201   0.574   3.475   7.679 -0.1009  0.3541  0.6920
 2248SOL     OW18202   4.325   2.158   9.897  0.0353  0.2296 -0.0468
 2248SOL    HW118203   4.383   2.091   9.933  2.5929  3.7638  2.4322
 2248SOL    HW218204   4.343   2.145   9.804  0.7396  2.3424 -0.2141
 2249SOL     OW18205   0.774   2.347  15.085  0.5394 -0.0927 -0.3019
 2249SOL    HW118206   0.841   2.306  15.032  2.0620  0.4261  1.2268
 2249SOL    HW218207   0.792   2.439  15.065 -1.0304 -0.1523 -2.0206
 2250SOL     OW18208   3.118   2.376  10.720  0.0782  0.4084 -0.1385
 2250SOL    HW118209   3.079   2.393  10.805  1.2768 -1.0792  0.7077
 2250SOL    HW218210   3.194   2.431  10.736  0.7799 -1.1402  1.7930
 2251SOL     OW18211   1.027   1.265  11.187  0.1217  0.0870  0.0968
 2251SOL    HW118212   1.044   1.310  11.270  0.6191 -0.8759  0.5116
 2251SOL    HW218213   0.939   1.301  11.173  0.8984  1.8852 -0.1968
 2252SOL     OW18214   4.375   1.040  13.056 -0.2364 -0.1463 -0.0076
 2252SOL    HW118215   4.448   1.088  13.019  0.7356  0.1598  2.3275
 2252SOL    HW218216   4.306   1.082  13.004  0.4477 -2.8794 -3.1347
 2253SOL     OW18217   1.387   0.011   8.081 -0.2673 -0.5076  0.3336
 2253SOL    HW118218   1.313   0.015   8.020 -0.1685  0.1687  0.2605
 2253SOL    HW218219   1.405   0.105   8.086  3.2181 -1.0180 -2.5426
 2254SOL     OW18220   0.404   1.916   6.093  0.5574 -0.4326  0.4033
 2254SOL    HW118221   0.322   1.948   6.055  1.0610  0.5437  0.1500
 2254SOL    HW218222   0.469   1.963   6.041 -0.5138  1.0459  0.3918
 2255SOL     OW18223   0.573   2.120   8.632 -0.6766 -0.2083  0.0186
 2255SOL    HW118224   0.527   2.041   8.603 -0.7656 -0.3899  0.6551
 2255SOL    HW218225   0.585   2.098   8.725 -1.9271 -0.8711  0.0267
 2256SOL     OW18226   3.901   1.863  16.706  0.0662 -0.3097 -0.6723
 2256SOL    HW118227   3.967   1.919  16.745 -0.1985 -1.0963  0.9099
 2256SOL    HW218228   3.951   1.824  16.634 -1.2214  1.0196 -2.3035
 2257SOL     OW18229   2.025   0.730   7.578  0.0400  0.1433 -0.0838
 2257SOL    HW118230   2.040   0.683   7.496 -0.0140  0.8780 -0.5215
 2257SOL    HW218231   1.972   0.801   7.540  0.9103  0.8887  0.0972
 2258SOL     OW18232   1.875   2.322   7.695 -0.0800 -0.7718 -0.1275
 2258SOL    HW118233   1.939   2.275   7.748  0.0214  0.5017  0.8754
 2258SOL    HW218234   1.835   2.261   7.632 -1.1885 -0.6521  0.4508
 2259SOL     OW18235   1.338   1.021   7.865 -1.0449  0.3547  0.1689
 2259SOL    HW118236   1.421   1.022   7.914  0.2176  0.4855 -1.9521
 2259SOL    HW218237   1.372   1.042   7.778 -0.4379  1.5618  0.6862
 2260SOL     OW18238   1.674   2.496   3.780 -0.4471  0.5858 -0.0023
 2260SOL    HW118239   1.664   2.479   3.686  0.9339  0.3164 -0.0861
 2260SOL    HW218240   1.678   2.592   3.778  0.8359  0.4527 -2.8305
 2261SOL     OW18241   2.229   3.486   1.922  0.4299  0.1156 -0.0782
 2261SOL    HW118242   2.212   3.579   1.937 -0.5845  0.3220 -2.5649
 2261SOL    HW218243   2.172   3.458   1.994  2.6877 -1.5461  1.0957
 2262SOL     OW18244   2.148   0.604  14.619  0.5224  0.5334  0.5079
 2262SOL    HW118245   2.071   0.660  14.612 -1.2363 -1.8219  1.0587
 2262SOL    HW218246   2.133   0.553  14.540  2.2766  0.4188  0.2339
 2263SOL     OW18247   2.118   1.760  10.851  0.3254  0.5039  0.6992
 2263SOL    HW118248   2.138   1.720  10.936 -0.6624 -0.9238  0.2569
 2263SOL    HW218249   2.035   1.718  10.827 -0.2408  1.8440  0.2913
 2264SOL     OW18250   4.418   2.989  16.865  0.4137 -0.2184  0.4544
 2264SOL    HW118251   4.399   3.003  16.958  1.7211  2.2802  0.3203
 2264SOL    HW218252   4.426   3.080  16.839 -0.7002 -0.3872 -0.4925
 2265SOL     OW18253   0.443   2.907   0.503  0.5234  0.2244  0.3912
 2265SOL    HW118254   0.421   2.912   0.596  0.6156 -2.4206  0.5620
 2265SOL    HW218255   0.407   2.991   0.476  0.3951  0.0768  0.1077
 2266SOL     OW18256   4.366   3.608  11.225  1.0190 -0.5148  0.1256
 2266SOL    HW118257   4.288   3.561  11.253  0.3642  1.2045  1.1980
 2266SOL    HW218258   4.331   3.642  11.143 -0.6761  0.4874  1.2722
 2267SOL     OW18259   2.199   4.301   6.236  0.2627 -0.4882 -0.1243
 2267SOL    HW118260   2.232   4.258   6.315 -0.5908  0.8713  0.9575
 2267SOL    HW218261   2.265   4.370   6.230 -1.1363  1.0060  1.6356
 2268SOL     OW18262   3.338   4.311   5.554 -0.1274 -0.2779 -0.3879
 2268SOL    HW118263   3.392   4.262   5.492  0.2868  0.8155 -0.8927
 2268SOL    HW218264   3.400   4.380   5.578 -0.7203  0.0304  0.2535
 2269SOL     OW18265   2.061   3.032  14.295  0.4974 -0.0792 -0.1559
 2269SOL    HW118266   2.021   3.118  14.282 -3.1515 -1.4196  2.3435
 2269SOL    HW218267   1.997   2.972  14.257 -0.8332  0.5503  1.1263
 2270SOL     OW18268   1.652   3.025   8.030  0.5829  0.6509 -0.2816
 2270SOL    HW118269   1.569   2.980   8.043  1.3642 -0.6898  0.1316
 2270SOL    HW218270   1.672   3.035   8.123 -0.5662 -1.3097  0.1718
 2271SOL     OW18271   4.394   4.015   7.232 -0.0940  0.4147 -0.2084
 2271SOL    HW118272   4.329   3.949   7.256  1.3902 -0.6781  0.7711
 2271SOL    HW218273   4.428   3.978   7.151  4.3638  1.9814  0.9303
 2272SOL     OW18274   2.831   2.033  15.392  0.1920 -0.1000  0.2517
 2272SOL    HW118275   2.867   1.975  15.325 -0.9322 -1.8645  1.1640
 2272SOL    HW218276   2.755   2.061  15.341 -0.4330  1.2618  1.9196
 2273SOL     OW18277   2.751   2.190   4.144 -0.6095  0.1286 -0.0089
 2273SOL    HW118278   2.691   2.220   4.076 -1.4327 -1.4944 -0.0016
 2273SOL    HW218279   2.794   2.119   4.095  0.6700  0.6396  0.3917
 2274SOL     OW18280   3.598   0.959   0.727 -0.5514 -0.3342  0.4331
 2274SOL    HW118281   3.610   0.961   0.822  0.6658  0.2203  0.2558
 2274SOL    HW218282   3.503   0.969   0.718 -0.7385 -0.9381  1.6771
 2275SOL     OW18283   0.851   3.710   7.517  0.1798 -0.4418 -0.2181
 2275SOL    HW118284   0.772   3.682   7.564 -0.0787  0.0890 -0.3393
 2275SOL    HW218285   0.927   3.700   7.575  0.1883  0.2207 -0.1247
 2276SOL     OW18286   3.162   1.553  10.574 -0.0195  0.0173  0.6738
 2276SOL    HW118287   3.189   1.563  10.665 -2.5079  3.5607  1.0437
 2276SOL    HW218288   3.161   1.644  10.545 -5.2190  0.4660  2.1339
 2277SOL     OW18289   1.120   1.661   1.106 -0.6962  0.4881 -0.7402
 2277SOL    HW118290   1.139   1.754   1.092 -0.9491  0.1978 -2.9104
 2277SOL    HW218291   1.081   1.631   1.024 -0.2049 -0.8109 -0.5017
 2278SOL     OW18292   3.789   1.703   0.785 -0.3054  0.0791 -0.0912
 2278SOL    HW118293   3.756   1.744   0.705 -0.8103  2.3986  1.3111
 2278SOL    HW218294   3.740   1.760   0.844  1.2622  0.3614  0.9562
 2279SOL     OW18295   1.229   2.530   0.300  0.5413 -0.0979 -0.2471
 2279SOL    HW118296   1.142   2.570   0.301  0.3787 -0.4998  2.3927
 2279SOL    HW218297   1.272   2.607   0.263 -0.6364  0.1710 -1.0365
 2280SOL     OW18298   0.011   3.754   7.370  0.1112  0.0589  0.3788
 2280SOL    HW118299   0.056   3.742   7.453 -1.1667 -0.3349  1.0205
 2280SOL    HW218300   0.063   3.822   7.327  0.0870 -0.4979 -0.5318
 2281SOL     OW18301   3.017   4.154  16.997 -0.4098  0.2960 -0.5576
 2281SOL    HW118302   3.107   4.123  17.009 -1.3842 -2.9147 -1.4274
 2281SOL    HW218303   2.963   4.078  17.019 -1.6697  1.3358 -0.0670
 2282SOL     OW18304   2.764   3.169  15.106  0.0848 -0.6173  0.4311
 2282SOL    HW118305   2.803   3.256  15.104  1.6961 -1.2695  3.1602
 2282SOL    HW218306   2.707   3.163  15.029 -0.5003  1.0507  0.7446
 2283SOL     OW18307   0.625   2.442   8.176 -0.6153 -0.4938  0.3926
 2283SOL    HW118308   0.677   2.441   8.096 -0.5123  2.4858  0.4272
 2283SOL    HW218309   0.568   2.517   8.158  1.4839  0.8134 -0.7183
 2284SOL     OW18310   0.266   2.619   4.607 -0.0254  0.1825  0.5962
 2284SOL    HW118311   0.184   2.593   4.649 -0.3804  0.3509 -0.0012
 2284SOL    HW218312   0.289   2.532   4.574 -0.8470 -0.2674  1.1969
 2285SOL     OW18313   2.586   3.133   1.960 -0.1887 -0.1609  0.3559
 2285SOL    HW118314   2.500   3.090   1.967 -0.1113 -0.3057  0.4167
 2285SOL    HW218315   2.562   3.216   2.001 -0.1596  1.0331 -2.0701
 2286SOL     OW18316   2.857   3.476   6.694  0.1893  0.5319  0.3718
 2286SOL    HW118317   2.776   3.427   6.686  0.2601  0.8024 -2.1171
 2286SOL    HW218318   2.889   3.493   6.605 -2.1998  2.1918 -0.1728
 2287SOL     OW18319   0.849   2.235   7.650 -0.5638 -0.1661  0.4434
 2287SOL    HW118320   0.769   2.243   7.598 -1.5690 -0.2239  1.9754
 2287SOL    HW218321   0.885   2.322   7.633 -0.9015 -0.8891 -4.1361
 2288SOL     OW18322   3.359   4.127  12.155  0.2026  0.0123 -0.2882
 2288SOL    HW118323   3.339   4.212  12.116  0.7342  1.3063  2.2481
 2288SOL    HW218324   3.310   4.133  12.238  0.8781 -1.3173  0.2034
 2289SOL     OW18325   3.662   2.079   5.390  0.3841 -0.5061 -0.1310
 2289SOL    HW118326   3.696   2.017   5.325  1.3883 -0.4120  0.2915
 2289SOL    HW218327   3.720   2.153   5.372  1.4457 -1.2635  0.1117
 2290SOL     OW18328   4.612   2.457   3.172  0.1487  0.0429  0.0590
 2290SOL    HW118329   4.575   2.405   3.100  0.8897 -0.7519  0.2508
 2290SOL    HW218330   4.702   2.473   3.142 -0.0121  0.2865 -0.2976
 2291SOL     OW18331   4.127   0.850   8.797  0.1715 -0.2342  0.1264
 2291SOL    HW118332   4.090   0.864   8.884  0.5233 -1.3404  0.4553
 2291SOL    HW218333   4.086   0.767   8.774  2.2119 -0.7768 -1.5488
 2292SOL     OW18334   2.164   2.275   0.424 -0.0226 -0.6729 -0.7329
 2292SOL    HW118335   2.167   2.193   0.473  0.8651  0.2450  0.7151
 2292SOL    HW218336   2.154   2.340   0.493  0.3115 -1.9503  0.5109
 2293SOL     OW18337   4.118   4.403   5.025  0.1926  0.0145 -0.6244
 2293SOL    HW118338   4.186   4.336   5.035 -0.3742 -0.4880 -0.1373
 2293SOL    HW218339   4.128   4.423   4.932  1.2295  0.6997 -0.3701
 2294SOL     OW18340   0.717   4.055  10.739  0.2548 -0.3518 -0.2561
 2294SOL    HW118341   0.660   4.024  10.810 -0.4301 -0.3913 -0.8273
 2294SOL    HW218342   0.742   3.970  10.702 -1.1406 -0.6121 -0.5867
 2295SOL     OW18343   3.173   4.317   0.472 -0.8358 -0.1231 -0.4700
 2295SOL    HW118344   3.224   4.381   0.522  0.1470 -1.7480  0.5991
 2295SOL    HW218345   3.235   4.245   0.459  0.0536  0.6621 -0.6332
 2296SOL     OW18346   4.040   1.972  11.452 -0.5703 -0.1768 -0.1273
 2296SOL    HW118347   4.101   1.931  11.391  1.7153 -0.8132  2.5627
 2296SOL    HW218348   4.066   2.063  11.435  0.6217 -0.6540 -0.9179
 2297SOL     OW18349   4.389   1.820   5.570  0.5084 -0.2631  0.2011
 2297SOL    HW118350   4.325   1.883   5.604  1.1149  0.7469 -0.4951
 2297SOL    HW218351   4.470   1.871   5.578  0.9115 -1.3388  2.7934
 2298SOL     OW18352   1.450   0.139  16.903  0.3743 -0.6906  0.4046
 2298SOL    HW118353   1.509   0.085  16.850 -0.8012 -0.5053 -1.1040
 2298SOL    HW218354   1.488   0.225  16.889  1.3080 -0.7225  2.8638
 2299SOL     OW18355   2.609   1.637   7.580 -0.6662 -0.8950 -0.3167
 2299SOL    HW118356   2.560   1.637   7.498  0.3472 -0.1489 -0.9214
 2299SOL    HW218357   2.572   1.715   7.623  1.1039  0.1302 -0.6755
 2300SOL     OW18358   3.002   0.619   0.451 -0.0466 -0.1047 -0.8454
 2300SOL    HW118359   3.093   0.606   0.423 -0.3173 -0.7722 -1.4229
 2300SOL    HW218360   3.025   0.670   0.528  0.6580 -1.6147 -0.0583
 2301SOL     OW18361   1.292   2.846   7.373  0.2263  0.3374  0.1267
 2301SOL    HW118362   1.207   2.889   7.376 -0.3001 -0.6501 -0.6178
 2301SOL    HW218363   1.335   2.876   7.293  0.7473  0.6060  0.5102
 2302SOL     OW18364   0.189   4.108   4.232 -0.0792  0.0347  0.1198
 2302SOL    HW118365   0.249   4.168   4.188  0.9123 -0.0153  1.4247
 2302SOL    HW218366   0.104   4.153   4.236 -1.0322 -1.7672 -0.1777
 2303SOL     OW18367   3.363   3.770  16.394 -0.2427  0.0639  0.2475
 2303SOL    HW118368   3.340   3.775  16.487  0.9141 -5.3475  0.8389
 2303SOL    HW218369   3.364   3.863  16.370  3.3403 -0.0263  0.0981
 2304SOL     OW18370   3.652   4.596   1.030 -0.5274  0.6770 -0.1408
 2304SOL    HW118371   3.732   4.544   1.022  0.8497  2.7119  0.5854
 2304SOL    HW218372   3.670   4.658   1.101 -1.1493  1.1428 -0.3885
 2305SOL     OW18373   1.178   0.938   8.283 -0.5726 -0.3361  0.2474
 2305SOL    HW118374   1.251   0.885   8.250  1.8104  1.9805  1.8292
 2305SOL    HW218375   1.168   0.899   8.370  0.2669  1.8986  1.3391
 2306SOL     OW18376   3.735   1.609   7.506 -0.2630  0.5407  0.4352
 2306SOL    HW118377   3.795   1.678   7.478 -2.0405  1.8302 -0.1778
 2306SOL    HW218378   3.790   1.564   7.569 -0.9708 -1.2248 -0.2041
 2307SOL     OW18379   3.671   3.203   3.103  0.4722  0.0089 -0.2682
 2307SOL    HW118380   3.620   3.277   3.136 -1.0240 -0.7805 -0.7883
 2307SOL    HW218381   3.740   3.206   3.169  1.4668 -0.6629 -1.2643
 2308SOL     OW18382   3.418   3.991   4.726 -0.4708  0.1434  0.4668
 2308SOL    HW118383   3.346   4.046   4.693  0.9339  1.4444 -0.4455
 2308SOL    HW218384   3.382   3.902   4.727  4.5867 -1.8649  1.8524
 2309SOL     OW18385   1.403   0.372   7.737 -0.1550 -0.2133  0.0421
 2309SOL    HW118386   1.404   0.314   7.814 -0.9802 -0.1137  0.1351
 2309SOL    HW218387   1.368   0.456   7.767  2.1696  1.6415 -2.4221
 2310SOL     OW18388   4.422   0.565   4.102 -0.1597 -0.2788  0.2923
 2310SOL    HW118389   4.439   0.609   4.019  0.1827 -2.2682 -0.6903
 2310SOL    HW218390   4.485   0.493   4.101  0.5488  0.3496 -0.8747
 2311SOL     OW18391   1.122   1.614   5.749 -0.1884  0.7585  0.5437
 2311SOL    HW118392   1.100   1.533   5.794 -0.0724  0.2554 -0.3279
 2311SOL    HW218393   1.210   1.637   5.780  0.6374  0.9649 -1.9543
 2312SOL     OW18394   2.840   1.189   2.226  0.1849  0.4738  0.3092
 2312SOL    HW118395   2.886   1.116   2.185 -0.3748  1.5464 -2.2397
 2312SOL    HW218396   2.903   1.215   2.293 -1.2170  2.1515  0.9707
 2313SOL     OW18397   1.394   3.756   6.689 -0.0282  0.1516  0.2953
 2313SOL    HW118398   1.375   3.850   6.680  1.0833  0.1565 -2.0895
 2313SOL    HW218399   1.341   3.737   6.766  0.3308 -0.2132  0.4507
 2314SOL     OW18400   2.388   0.551   8.642 -0.6278  0.0669 -0.2614
 2314SOL    HW118401   2.416   0.612   8.710  0.0194  1.8614 -2.1516
 2314SOL    HW218402   2.469   0.512   8.609 -1.3038  0.8048 -2.7940
 2315SOL     OW18403   1.437   2.787   1.503 -0.0461 -0.4204  0.0707
 2315SOL    HW118404   1.392   2.704   1.516 -2.1001  0.9308  1.5651
 2315SOL    HW218405   1.358   2.840   1.502  0.8524  0.9555  0.8931
 2316SOL     OW18406   3.809   0.968   4.323  0.2118 -0.0684 -0.2034
 2316SOL    HW118407   3.738   1.020   4.286 -0.7712  0.0513  1.8539
 2316SOL    HW218408   3.888   1.021   4.316 -0.2153  0.1015 -3.5715
 2317SOL     OW18409   3.555   1.079  17.307 -0.1824  0.2091  0.4437
 2317SOL    HW118410   3.506   1.161  17.316  0.9500  1.1889 -2.1185
 2317SOL    HW218411   3.499   1.027  17.250  0.7764  0.8435 -1.0837
 2318SOL     OW18412   2.265   0.996   4.173  0.2750 -0.5461 -0.2899
 2318SOL    HW118413   2.349   0.963   4.207  0.6703  0.7687 -0.0211
 2318SOL    HW218414   2.246   0.930   4.106  0.1524 -0.7377 -0.0668
 2319SOL     OW18415   1.912   0.258  11.587  0.4884  0.4525 -0.0595
 2319SOL    HW118416   2.003   0.274  11.560 -0.0518  0.0190 -2.1278
 2319SOL    HW218417   1.873   0.342  11.564 -1.1576  0.3077  2.2149
 2320SOL     OW18418   4.528   0.018   5.057 -0.0384 -0.4463  0.3025
 2320SOL    HW118419   4.582   4.682   5.007 -1.0889 -0.8307 -0.3817
 2320SOL    HW218420   4.471   0.063   4.994 -0.8273 -1.1627  0.5027
 2321SOL     OW18421   2.107   4.627  10.252  0.1219 -0.2692 -0.4520
 2321SOL    HW118422   2.091   4.559  10.187 -0.6914  0.1470 -0.6931
 2321SOL    HW218423   2.027   4.625  10.306  0.1053  1.1631 -0.4316
 2322SOL     OW18424   3.172   1.619   6.226 -0.4185 -0.2031  0.5426
 2322SOL    HW118425   3.111   1.672   6.277 -1.4589  0.1206 -1.0276
 2322SOL    HW218426   3.257   1.662   6.235 -0.9362  0.8960  0.2290
 2323SOL     OW18427   3.717   0.218   8.354 -0.1301  0.2970 -0.1681
 2323SOL    HW118428   3.696   0.140   8.405 -1.2053  1.0485  0.5642
 2323SOL    HW218429   3.755   0.276   8.420  2.4224  1.5797 -2.7514
 2324SOL     OW18430   0.538   2.854   8.612  0.0705 -0.0109  0.3618
 2324SOL    HW118431   0.444   2.844   8.624  0.0378  0.9586  0.9534
 2324SOL    HW218432   0.551   2.804   8.531 -0.6984 -1.2043  0.9847
 2325SOL     OW18433   2.333   3.533   5.659 -0.0711  0.1138  0.0305
 2325SOL    HW118434   2.260   3.595   5.656 -1.1516 -1.1295  0.6572
 2325SOL    HW218435   2.307   3.484   5.582 -1.2491  0.4485  0.2159
 2326SOL     OW18436   4.112   1.265  14.283  0.0850 -0.4238 -0.3348
 2326SOL    HW118437   4.024   1.250  14.249 -0.4068 -0.1702  0.8148
 2326SOL    HW218438   4.121   1.193  14.346  0.2606 -1.6458 -1.7579
 2327SOL     OW18439   2.040   1.157  13.143 -0.3537 -0.3750 -0.5424
 2327SOL    HW118440   1.989   1.098  13.088  0.0362 -1.7883  0.5872
 2327SOL    HW218441   2.125   1.112  13.145  0.3422  0.9529 -0.0639
 2328SOL     OW18442   2.605   1.788   8.834 -0.1919 -0.3173 -0.2534
 2328SOL    HW118443   2.669   1.717   8.823 -0.3024 -0.6806  1.4534
 2328SOL    HW218444   2.660   1.866   8.828  0.8000 -0.8096  2.5782
 2329SOL     OW18445   2.738   0.720   9.212 -0.2047  0.2863  0.0775
 2329SOL    HW118446   2.787   0.640   9.233 -0.4705 -0.1758 -1.0695
 2329SOL    HW218447   2.647   0.698   9.234 -1.1455  3.0318 -1.0569
 2330SOL     OW18448   4.273   0.433   3.281  0.0688  0.2814 -0.5378
 2330SOL    HW118449   4.198   0.374   3.289 -0.4892  1.0443 -0.0925
 2330SOL    HW218450   4.272   0.436   3.186  3.4501 -0.3289 -0.5935
 2331SOL     OW18451   1.317   4.285  12.405 -0.2058  0.3603  0.7311
 2331SOL    HW118452   1.409   4.261  12.414 -0.4969 -1.0798 -0.1049
 2331SOL    HW218453   1.284   4.319  12.488  1.2730  0.1375  1.4148
 2332SOL     OW18454   0.566   2.718  11.152  0.2318 -0.5239 -0.4352
 2332SOL    HW118455   0.613   2.798  11.128  0.1990 -0.6561 -0.9329
 2332SOL    HW218456   0.519   2.750  11.229  0.3348 -0.2583 -0.4842
 2333SOL     OW18457   2.861   3.349   3.604  0.0437  0.0293  0.3842
 2333SOL    HW118458   2.937   3.338   3.662  0.3660 -1.1230 -0.2572
 2333SOL    HW218459   2.863   3.266   3.557  2.2433 -0.1155  0.6964
 2334SOL     OW18460   4.516   0.905   2.077 -0.0823  0.1881  0.2189
 2334SOL    HW118461   4.477   0.991   2.094 -1.3090 -0.0398 -1.5362
 2334SOL    HW218462   4.487   0.867   2.160  1.6779  2.2505  1.8087
 2335SOL     OW18463   0.952   2.209  12.481 -0.1516  0.0211  0.0659
 2335SOL    HW118464   0.927   2.191  12.390 -1.9544 -0.0763  0.5798
 2335SOL    HW218465   0.872   2.202  12.533 -1.0158  3.2406 -0.8488
 2336SOL     OW18466   0.274   4.355   5.141  0.0617  0.2735 -0.0068
 2336SOL    HW118467   0.316   4.279   5.101 -2.2314  0.1397 -2.1324
 2336SOL    HW218468   0.335   4.426   5.124  0.3227  0.0067 -0.1822
 2337SOL     OW18469   0.578   4.591   9.050 -0.2767  0.1640 -0.1694
 2337SOL    HW118470   0.534   4.675   9.068  1.2584  1.1560 -1.0577
 2337SOL    HW218471   0.499   4.538   9.056 -1.0512  1.1415 -1.6467
 2338SOL     OW18472   0.819   3.880   2.556 -0.0446 -0.2604  0.6323
 2338SOL    HW118473   0.906   3.921   2.553 -1.4883  2.8761  1.4099
 2338SOL    HW218474   0.834   3.785   2.559  1.0092 -0.1274 -0.6895
 2339SOL     OW18475   1.294   1.817   2.019 -0.3144  0.3228 -0.5142
 2339SOL    HW118476   1.379   1.835   2.058 -0.3015 -0.2635 -0.2684
 2339SOL    HW218477   1.232   1.841   2.088  0.9617  0.6208  0.5165
 2340SOL     OW18478   1.130   3.500   3.825  0.3372 -0.0373  0.1754
 2340SOL    HW118479   1.091   3.494   3.738  1.4224 -0.2894 -0.2912
 2340SOL    HW218480   1.192   3.568   3.797  2.0968 -2.8450 -2.7205
 2341SOL     OW18481   1.949   0.823  15.556  0.4350  0.3596  0.6436
 2341SOL    HW118482   1.901   0.775  15.624 -0.0617 -0.6258 -0.4166
 2341SOL    HW218483   2.000   0.753  15.516  1.6267  1.7420 -0.2635
 2342SOL     OW18484   1.676   0.085   7.434 -0.0152 -0.0531  0.4984
 2342SOL    HW118485   1.669   0.147   7.507 -0.4705 -1.4549  1.6417
 2342SOL    HW218486   1.601   0.121   7.386  0.3148  0.6677  0.5163
 2343SOL     OW18487   4.445   4.118  11.226  0.3568 -0.3915  0.5076
 2343SOL    HW118488   4.504   4.044  11.212  0.5757 -0.0478 -0.4544
 2343SOL    HW218489   4.381   4.074  11.281  1.1440 -1.1604  0.8132
 2344SOL     OW18490   2.641   3.861  10.070  0.1617  0.0064  0.2089
 2344SOL    HW118491   2.690   3.907  10.139  1.2768  0.5826 -0.9642
 2344SOL    HW218492   2.713   3.819  10.022  1.7034 -1.5658  3.8479
 2345SOL     OW18493   1.109   1.771   2.510  0.0434  0.1175 -0.0669
 2345SOL    HW118494   1.180   1.836   2.507 -0.5416  0.7761  0.5351
 2345SOL    HW218495   1.123   1.725   2.426 -2.2812 -3.5928  1.5736
 2346SOL     OW18496   1.572   0.704   7.549  0.4437  0.3470  0.1070
 2346SOL    HW118497   1.651   0.649   7.545 -1.1419 -1.9911  1.1019
 2346SOL    HW218498   1.586   0.730   7.640 -0.1556 -0.9552  0.5812
 2347SOL     OW18499   3.058   2.509   4.248 -0.1933  0.2782 -0.3768
 2347SOL    HW118500   3.123   2.469   4.304 -0.5993 -1.9624 -1.5224
 2347SOL    HW218501   3.050   2.455   4.170 -0.4219  3.0289 -2.2750
 2348SOL     OW18502   0.803   2.817   0.480 -0.4625  0.5273 -0.1436
 2348SOL    HW118503   0.875   2.853   0.428 -0.5978  0.7236 -0.1934
 2348SOL    HW218504   0.728   2.830   0.423 -0.2641 -2.0927 -1.0404
 2349SOL     OW18505   1.602   1.726   2.161  0.5353  0.4330 -0.0754
 2349SOL    HW118506   1.600   1.665   2.088  0.5923  1.0310 -0.5777
 2349SOL    HW218507   1.594   1.671   2.239  0.4896  0.5523  0.0045
 2350SOL     OW18508   1.462   2.704   2.499 -0.2356 -0.3780  0.4801
 2350SOL    HW118509   1.412   2.741   2.426  0.2839 -2.1129 -0.7727
 2350SOL    HW218510   1.402   2.642   2.539  2.3818 -2.4899  1.1642
 2351SOL     OW18511   1.113   0.188  16.694 -0.7058  0.5217 -0.6714
 2351SOL    HW118512   1.175   0.248  16.653  0.3258 -1.0432 -1.3587
 2351SOL    HW218513   1.165   0.113  16.722 -0.0704  0.5761 -1.7305
 2352SOL     OW18514   1.669   3.610   7.979  0.1951  0.2990 -0.1690
 2352SOL    HW118515   1.718   3.621   7.897  1.2900 -0.8007  0.3376
 2352SOL    HW218516   1.746   3.585   8.031 -0.3705 -1.0668  0.0015
 2353SOL     OW18517   2.795   2.161   7.916  0.0761 -0.5540 -0.1110
 2353SOL    HW118518   2.712   2.113   7.923  1.3233 -2.6970  0.1303
 2353SOL    HW218519   2.864   2.098   7.936  1.1564  0.2621 -1.2208
 2354SOL     OW18520   3.670   0.098   9.335  0.3411  0.0861 -0.1048
 2354SOL    HW118521   3.575   0.086   9.327 -0.0872  1.8912  2.3345
 2354SOL    HW218522   3.699   0.007   9.335  1.1520  0.3517 -0.5002
 2355SOL     OW18523   1.168   2.439   6.316 -0.1435 -0.4849  0.6191
 2355SOL    HW118524   1.254   2.476   6.334 -0.7586  0.3230  1.8721
 2355SOL    HW218525   1.161   2.359   6.368  0.6816 -0.4979  0.7053
 2356SOL     OW18526   0.870   0.938  12.624 -0.2392  0.8397  0.4901
 2356SOL    HW118527   0.964   0.951  12.626  0.2273 -2.5271  1.1869
 2356SOL    HW218528   0.853   0.972  12.536  0.2480 -1.1438 -0.3700
 2357SOL     OW18529   0.077   4.335   7.276 -0.5719  0.4144  0.3477
 2357SOL    HW118530   0.146   4.278   7.310  0.5937  1.1938 -0.7053
 2357SOL    HW218531   0.001   4.285   7.306  1.9455 -3.7265 -0.0703
 2358SOL     OW18532   1.451   3.309   2.049  0.0520  0.2097  0.2667
 2358SOL    HW118533   1.492   3.392   2.023 -0.3810  0.4109  0.2042
 2358SOL    HW218534   1.403   3.338   2.127  1.4697 -0.6863  1.4680
 2359SOL     OW18535   2.262   1.366  16.453  0.3303 -0.2360 -0.6484
 2359SOL    HW118536   2.352   1.341  16.435  0.7631  0.9404 -0.0914
 2359SOL    HW218537   2.257   1.342  16.546 -1.0523 -0.3329 -0.7454
 2360SOL     OW18538   3.683   4.186   0.291  0.2359 -0.3526  0.4165
 2360SOL    HW118539   3.628   4.235   0.352 -0.8749 -1.8558  0.6356
 2360SOL    HW218540   3.659   4.098   0.322 -0.6592  0.2757  1.4955
 2361SOL     OW18541   2.099   1.859   0.858  0.0032 -0.0273 -0.2771
 2361SOL    HW118542   2.057   1.943   0.839 -1.6773 -1.1813 -1.6815
 2361SOL    HW218543   2.042   1.793   0.818 -3.3364  2.8678 -0.2623
 2362SOL     OW18544   1.837   2.457   4.202 -0.3714 -0.3092  0.1242
 2362SOL    HW118545   1.751   2.455   4.159  0.2936  2.5958 -1.3181
 2362SOL    HW218546   1.863   2.365   4.194 -2.9582 -1.1554  1.2394
 2363SOL     OW18547   3.606   1.933   7.433  0.7962  0.4469  0.6466
 2363SOL    HW118548   3.683   1.881   7.456  0.6802 -0.5315 -1.1789
 2363SOL    HW218549   3.620   1.947   7.339  1.6021 -0.9468  0.5614
 2364SOL     OW18550   1.752   2.550   7.100  1.1488  0.0229  0.4571
 2364SOL    HW118551   1.834   2.521   7.139  1.0342 -1.9534 -0.7740
 2364SOL    HW218552   1.719   2.470   7.059  2.3360  0.4422 -1.3108
 2365SOL     OW18553   3.970   4.599   5.130  0.3254 -0.2972  0.2534
 2365SOL    HW118554   4.013   4.520   5.097 -0.4807 -0.4064 -0.5417
 2365SOL    HW218555   4.047   4.639   5.170  1.9061 -1.8842 -1.1772
 2366SOL     OW18556   4.709   0.750   6.555  0.0946  0.4082  0.0302
 2366SOL    HW118557   0.061   0.801   6.529 -0.5441  1.4380  0.1810
 2366SOL    HW218558   4.666   0.816   6.610 -1.3181 -0.2974 -0.2141
 2367SOL     OW18559   4.135   4.190   3.723 -0.5320 -0.2378  0.5412
 2367SOL    HW118560   4.214   4.217   3.770 -0.5787 -0.6826  0.8668
 2367SOL    HW218561   4.073   4.206   3.794 -0.6258  0.8387  0.2171
 2368SOL     OW18562   1.074   1.450   8.304  0.6209  0.4193  0.5574
 2368SOL    HW118563   1.137   1.431   8.234 -0.8621  0.7511 -0.8765
 2368SOL    HW218564   1.092   1.376   8.362  0.5646  0.7320  0.9681
 2369SOL     OW18565   4.136   1.242  17.624  0.2237 -0.3614  0.2669
 2369SOL    HW118566   4.093   1.318  17.664  1.1364 -0.5946  1.6838
 2369SOL    HW218567   4.064   1.186  17.599  0.0124  0.0806 -0.1168
 2370SOL     OW18568   1.112   2.130   0.502 -0.3877 -0.3148 -0.2992
 2370SOL    HW118569   1.164   2.207   0.526 -0.2407 -1.0724  1.7954
 2370SOL    HW218570   1.148   2.070   0.566 -3.6172  0.2757  2.0856
 2371SOL     OW18571   1.981   0.397   5.832 -0.1186 -0.0672  0.4776
 2371SOL    HW118572   2.063   0.419   5.787 -0.7816  0.0381 -0.6736
 2371SOL    HW218573   1.929   0.474   5.810 -0.5519  0.3837  3.0763
 2372SOL     OW18574   0.429   4.101   8.313  0.5757  0.4041 -0.3219
 2372SOL    HW118575   0.508   4.144   8.280 -0.0679  0.5450 -1.7086
 2372SOL    HW218576   0.408   4.136   8.399 -0.5652 -1.3653  0.1278
 2373SOL     OW18577   2.879   0.432   5.471 -0.2689  0.2022  0.3442
 2373SOL    HW118578   2.897   0.524   5.451  0.4862 -0.0074  0.0698
 2373SOL    HW218579   2.935   0.391   5.405  2.6627  2.2805  1.5461
 2374SOL     OW18580   1.486   2.657   8.192  0.0092 -0.2137 -0.4255
 2374SOL    HW118581   1.443   2.592   8.248  2.0156 -0.9758  0.2422
 2374SOL    HW218582   1.566   2.681   8.238 -1.0641  1.1745  0.7496
 2375SOL     OW18583   1.960   1.162  10.323  0.4119  0.6362  0.2321
 2375SOL    HW118584   1.989   1.074  10.299 -0.3828  0.2059  0.8545
 2375SOL    HW218585   1.998   1.206  10.247  0.4459  0.9209  0.4145
 2376SOL     OW18586   3.631   2.563   2.162 -0.1523  0.1041  0.0007
 2376SOL    HW118587   3.587   2.586   2.081  0.3325 -1.6598 -0.7606
 2376SOL    HW218588   3.595   2.479   2.189  0.5775  0.5068  2.2700
 2377SOL     OW18589   3.677   1.678   4.326  0.1966  0.1846 -0.3758
 2377SOL    HW118590   3.584   1.661   4.343  0.1091 -0.1194 -1.1234
 2377SOL    HW218591   3.671   1.770   4.300  0.2297  0.0305 -0.9347
 2378SOL     OW18592   1.763   2.498   8.502 -0.1392  0.0885 -0.4315
 2378SOL    HW118593   1.845   2.523   8.459  1.5200 -1.0887  2.0145
 2378SOL    HW218594   1.702   2.567   8.479 -0.4641  0.5358  1.8175
 2379SOL     OW18595   3.092   0.586   3.078  0.0482  0.2044  0.4815
 2379SOL    HW118596   3.020   0.642   3.104 -1.0445 -0.5097 -1.0350
 2379SOL    HW218597   3.074   0.573   2.985 -0.4823  0.0806  0.6010
 2380SOL     OW18598   1.657   1.150   3.414  0.2418  0.4439  0.4070
 2380SOL    HW118599   1.695   1.107   3.338 -1.5713 -1.4727  0.5837
 2380SOL    HW218600   1.704   1.234   3.414  1.5860 -0.3064 -1.0487
 2381SOL     OW18601   2.630   0.691   4.138  0.1029 -0.4055  0.1152
 2381SOL    HW118602   2.677   0.741   4.071  0.7175 -0.4809  0.4856
 2381SOL    HW218603   2.661   0.601   4.126  0.2467 -0.4312  0.6704
 2382SOL     OW18604   0.779   3.843  14.766 -0.7641 -0.2940 -0.6675
 2382SOL    HW118605   0.732   3.782  14.822  1.5239 -1.9555 -0.5609
 2382SOL    HW218606   0.724   3.920  14.779 -0.2254 -0.2753  1.4515
 2383SOL     OW18607   2.515   2.126   2.032  0.6790  0.1253  0.0808
 2383SOL    HW118608   2.566   2.177   2.095  0.9901 -2.0303  1.5967
 2383SOL    HW218609   2.562   2.150   1.952  0.1641 -0.7796 -0.5012
 2384SOL     OW18610   4.145   1.634   7.543 -0.1091 -0.1691  0.2527
 2384SOL    HW118611   4.167   1.651   7.635  2.6035 -0.0799 -0.4126
 2384SOL    HW218612   4.062   1.595   7.570  0.9804 -1.9881  0.9981
 2385SOL     OW18613   3.806   0.789   2.267  0.0920  0.1592  0.1485
 2385SOL    HW118614   3.836   0.701   2.289 -2.0817 -0.1399  1.8645
 2385SOL    HW218615   3.726   0.790   2.319 -1.0178  0.2422 -1.5696
 2386SOL     OW18616   2.259   1.826   5.566  0.0190  0.0736  0.4574
 2386SOL    HW118617   2.322   1.766   5.606  0.9156  2.0129  1.9643
 2386SOL    HW218618   2.313   1.881   5.509 -1.8552  2.6780  1.2166
 2387SOL     OW18619   0.330   4.526  13.928 -0.6375 -0.9357 -0.4245
 2387SOL    HW118620   0.289   4.611  13.949 -0.0739 -0.6561 -0.4614
 2387SOL    HW218621   0.294   4.484  14.007  0.5471  0.6978  0.9997
 2388SOL     OW18622   2.226   0.427   5.707  0.3980 -0.2229 -0.6170
 2388SOL    HW118623   2.239   0.338   5.739  0.2748  0.6302  1.7726
 2388SOL    HW218624   2.319   0.451   5.702  0.6010 -0.2735  3.2190
 2389SOL     OW18625   3.941   2.565   8.678  0.4688 -0.3844 -0.1839
 2389SOL    HW118626   3.988   2.595   8.756  0.4774 -1.4954  0.2429
 2389SOL    HW218627   4.014   2.575   8.616 -1.0679  0.3533 -1.8603
 2390SOL     OW18628   3.026   3.209   3.395  0.3601 -0.0821  0.1248
 2390SOL    HW118629   3.055   3.204   3.486 -0.1770  3.7738  0.5003
 2390SOL    HW218630   3.110   3.222   3.353  0.1794 -3.4297 -1.2436
 2391SOL     OW18631   2.973   1.404  12.377  0.0381  0.3361 -0.2157
 2391SOL    HW118632   2.915   1.349  12.324 -2.0815  1.3521  1.0474
 2391SOL    HW218633   3.021   1.449  12.307 -0.2312  2.6366  1.0956
 2392SOL     OW18634   2.349   3.949   9.157  0.4368  0.1902  0.3178
 2392SOL    HW118635   2.418   4.005   9.191 -0.0191  1.3858 -0.7117
 2392SOL    HW218636   2.393   3.871   9.122  1.1032  0.3761  0.7473
 2393SOL     OW18637   0.048   0.572   2.414 -0.4706 -0.2937  0.3691
 2393SOL    HW118638   0.099   0.613   2.483 -0.2192 -0.9295  0.5600
 2393SOL    HW218639   0.061   0.643   2.351 -1.2687  0.2521  0.8227
 2394SOL     OW18640   2.415   3.081   2.422 -0.0062 -0.3213 -0.1908
 2394SOL    HW118641   2.396   3.132   2.501  1.4996  2.6626 -1.7740
 2394SOL    HW218642   2.364   3.127   2.355  1.0064  0.8449 -0.1489
 2395SOL     OW18643   0.784   0.596   6.055 -0.0136  0.6264 -0.1106
 2395SOL    HW118644   0.778   0.503   6.034  0.6689 -0.1835  3.1870
 2395SOL    HW218645   0.696   0.616   6.087 -0.3019 -2.2024  0.8863
 2396SOL     OW18646   0.126   4.267  16.430  0.4126  0.1250  0.5839
 2396SOL    HW118647   0.217   4.259  16.459  0.7198  0.9401 -0.1649
 2396SOL    HW218648   0.102   4.180  16.397  1.6944 -0.4280  1.0716
 2397SOL     OW18649   4.301   3.682   4.401  0.3366 -0.0082 -0.6511
 2397SOL    HW118650   4.300   3.590   4.375 -1.0486 -0.4431  1.0257
 2397SOL    HW218651   4.317   3.673   4.495 -0.4035  0.9028 -0.4355
 2398SOL     OW18652   4.721   1.101   4.519 -0.2048  0.4491  0.3469
 2398SOL    HW118653   4.698   1.112   4.426 -0.1336  2.1280  0.5221
 2398SOL    HW218654   0.078   1.052   4.504  0.0885  1.4848 -1.5087
 2399SOL     OW18655   3.458   2.242   5.443  0.5890 -0.1128  0.1277
 2399SOL    HW118656   3.516   2.183   5.395 -0.1954  0.2606 -1.2966
 2399SOL    HW218657   3.495   2.237   5.531 -1.8298  1.9164  1.2502
 2400SOL     OW18658   3.644   0.289   0.518 -0.1412 -0.1400 -0.5433
 2400SOL    HW118659   3.560   0.303   0.561  1.5735  1.3126  2.3424
 2400SOL    HW218660   3.674   0.375   0.490  1.8440 -0.3919  0.8267
 2401SOL     OW18661   3.458   0.624   5.306  0.0341  0.1442 -0.2469
 2401SOL    HW118662   3.388   0.582   5.356  1.0395  0.1961  1.2207
 2401SOL    HW218663   3.413   0.703   5.276  0.9589  0.8174  0.1124
 2402SOL     OW18664   2.435   1.178   3.130 -0.6389  0.5883  0.2177
 2402SOL    HW118665   2.460   1.245   3.193  0.9894 -0.3129  0.5446
 2402SOL    HW218666   2.479   1.206   3.050  0.4558  2.5779  1.5102
 2403SOL     OW18667   3.871   3.904  13.850 -0.2697 -0.2133 -1.1206
 2403SOL    HW118668   3.779   3.931  13.843 -0.2005  0.5153  0.8348
 2403SOL    HW218669   3.904   3.960  13.780  0.0730 -1.2868 -1.8087
 2404SOL     OW18670   2.171   4.359   4.858  0.0576 -0.6310 -0.6212
 2404SOL    HW118671   2.177   4.365   4.953  0.2846  3.1602 -0.9070
 2404SOL    HW218672   2.263   4.349   4.833  0.6130  0.3219  1.0748
 2405SOL     OW18673   0.438   3.481   8.042 -0.9125  0.1120  0.5197
 2405SOL    HW118674   0.407   3.393   8.018 -1.9095 -0.0396  2.3494
 2405SOL    HW218675   0.483   3.456   8.122  0.6291  0.3216 -0.2826
 2406SOL     OW18676   0.904   0.769   2.146  0.4809 -0.0090 -0.2804
 2406SOL    HW118677   0.954   0.691   2.123 -0.2562 -0.8943  1.1166
 2406SOL    HW218678   0.882   0.769   2.239  0.6217  0.8593 -0.2441
 2407SOL     OW18679   4.159   3.774   1.357  0.4768 -0.1201  0.1702
 2407SOL    HW118680   4.230   3.837   1.345  0.6815 -0.3297  0.2738
 2407SOL    HW218681   4.218   3.706   1.389 -0.9381 -1.4534 -0.0696
 2408SOL     OW18682   2.570   2.312   2.374  0.3303  0.3789  0.0647
 2408SOL    HW118683   2.628   2.324   2.449  1.6177 -0.0629 -0.8622
 2408SOL    HW218684   2.620   2.244   2.330  2.2181  3.2673 -2.2521
 2409SOL     OW18685   3.968   2.449   4.363  0.4530 -0.0309 -0.3230
 2409SOL    HW118686   3.983   2.529   4.312  1.6137  1.1868  1.9476
 2409SOL    HW218687   3.893   2.469   4.418  0.4286 -2.2429  0.4424
 2410SOL     OW18688   4.098   0.345   6.450  0.3750  0.3758  0.1278
 2410SOL    HW118689   4.006   0.370   6.443  0.2760 -0.7273 -2.4475
 2410SOL    HW218690   4.121   0.343   6.357  0.8710 -0.0347  0.2628
 2411SOL     OW18691   1.330   2.495  14.744 -0.1415 -0.4871 -0.0779
 2411SOL    HW118692   1.410   2.443  14.734 -1.0440 -1.7537 -0.7140
 2411SOL    HW218693   1.352   2.582  14.711 -3.9915  1.0352  1.4500
 2412SOL     OW18694   2.568   3.200  14.245  0.2273  0.2146  0.3033
 2412SOL    HW118695   2.542   3.116  14.282  0.7616 -0.0033  0.1971
 2412SOL    HW218696   2.606   3.239  14.323  3.2052 -0.5840 -0.7509
 2413SOL     OW18697   3.106   1.613   2.553  0.1187  0.3883 -0.5830
 2413SOL    HW118698   3.113   1.541   2.615  0.3780  1.9396  1.2224
 2413SOL    HW218699   3.105   1.567   2.469 -0.0429 -0.4896 -0.0964
 2414SOL     OW18700   0.329   2.322   3.306 -0.4227 -0.3928 -0.6461
 2414SOL    HW118701   0.382   2.385   3.355 -0.3550 -1.5522  0.7926
 2414SOL    HW218702   0.241   2.343   3.336  0.1724  2.2262 -0.6825
 2415SOL     OW18703   1.629   1.409   9.021  0.5651  0.5016 -0.1574
 2415SOL    HW118704   1.647   1.411   9.115 -0.1426  2.3328 -0.0581
 2415SOL    HW218705   1.541   1.447   9.030 -1.3987 -3.7863 -1.5041
 2416SOL     OW18706   0.735   0.030   7.802 -0.3640  0.0290  0.1096
 2416SOL    HW118707   0.765   4.689   7.865  3.8174  1.5880 -0.2117
 2416SOL    HW218708   0.706   0.103   7.858  0.2931  0.7925 -0.5335
 2417SOL     OW18709   3.146   4.705  16.595 -0.0682 -0.4848  0.4244
 2417SOL    HW118710   3.139   4.679  16.503 -4.5842 -1.9370  1.1626
 2417SOL    HW218711   3.225   0.035  16.590 -1.9236  2.0500 -1.8565
 2418SOL     OW18712   1.644   4.155   2.513  0.0558  0.4638  0.4602
 2418SOL    HW118713   1.551   4.136   2.524 -0.1286  0.5219 -0.9818
 2418SOL    HW218714   1.692   4.086   2.559  0.6503 -1.0167 -2.3574
 2419SOL     OW18715   1.776   4.690   3.586  0.1030  0.0159 -0.1491
 2419SOL    HW118716   1.761   0.040   3.646 -0.8984 -0.6371  0.3976
 2419SOL    HW218717   1.859   4.711   3.544  0.5183 -0.4621  0.4309
 2420SOL     OW18718   2.874   3.732  17.393  0.1051  0.4122 -0.1517
 2420SOL    HW118719   2.862   3.683  17.311 -0.9025  1.5526 -0.6763
 2420SOL    HW218720   2.953   3.688  17.425  0.0878  1.1995  0.9847
 2421SOL     OW18721   1.637   0.996   4.598 -0.7063 -0.0469  0.2730
 2421SOL    HW118722   1.651   1.059   4.669  0.8098 -0.2471  0.1656
 2421SOL    HW218723   1.667   1.053   4.528 -3.1670 -0.6471 -1.2514
 2422SOL     OW18724   4.695   4.692  11.771 -0.3140  0.4628  0.4095
 2422SOL    HW118725   0.045   4.671  11.828 -0.3620 -0.5699  0.0907
 2422SOL    HW218726   4.652   4.608  11.753 -0.7723  0.4224  1.6874
 2423SOL     OW18727   3.990   4.307  14.329  0.3297  0.0417  0.2932
 2423SOL    HW118728   3.899   4.279  14.321  0.5767 -0.7491  0.2025
 2423SOL    HW218729   4.050   4.232  14.326 -1.5306 -1.3118 -3.1631
 2424SOL     OW18730   2.919   3.860   7.960 -0.5133  1.0377  0.2374
 2424SOL    HW118731   2.990   3.846   8.023 -0.4269 -0.0340 -0.1050
 2424SOL    HW218732   2.886   3.943   7.994 -0.1897  2.1931 -2.3617
 2425SOL     OW18733   3.743   4.394   1.397 -0.2717  0.5928  0.4526
 2425SOL    HW118734   3.797   4.333   1.347 -2.2706 -0.9954  0.2706
 2425SOL    HW218735   3.783   4.475   1.364  1.5527  0.2335  1.7238
 2426SOL     OW18736   1.720   3.050   7.626  0.3668 -0.2997 -0.6222
 2426SOL    HW118737   1.791   2.986   7.627  1.7799  1.2640  0.1173
 2426SOL    HW218738   1.655   2.995   7.582 -0.6474 -0.1461  0.6755
 2427SOL     OW18739   2.826   3.221  13.219 -0.3425 -0.1234  0.8033
 2427SOL    HW118740   2.774   3.299  13.197  0.0905 -0.1643 -0.4116
 2427SOL    HW218741   2.887   3.254  13.285 -1.2077  3.5301 -0.1917
 2428SOL     OW18742   1.364   3.002   4.052  0.0830 -0.2510 -0.4324
 2428SOL    HW118743   1.417   2.973   4.126 -1.5214  0.8144  1.1388
 2428SOL    HW218744   1.336   3.085   4.091  0.4584  0.8580 -2.5069
 2429SOL     OW18745   0.870   4.616  15.577 -0.3708  0.0316 -0.0021
 2429SOL    HW118746   0.864   4.682  15.508  0.4116  0.9052  0.7647
 2429SOL    HW218747   0.908   4.540  15.533 -4.1184 -0.0898 -3.0201
 2430SOL     OW18748   3.952   1.408   8.567  0.0480 -0.6437 -0.6200
 2430SOL    HW118749   3.900   1.489   8.567  1.0519  0.0015  0.8107
 2430SOL    HW218750   4.023   1.423   8.629 -2.4944 -0.3815  2.2071
 2431SOL     OW18751   4.361   1.235  14.862 -0.4738  0.0450 -0.2290
 2431SOL    HW118752   4.404   1.218  14.778  1.9091  1.9081  0.6471
 2431SOL    HW218753   4.424   1.289  14.909  0.3540 -0.8769 -0.2720
 2432SOL     OW18754   0.230   2.266  17.382 -0.1385  0.0461  0.9111
 2432SOL    HW118755   0.228   2.351  17.337  1.8528 -0.0413  0.6276
 2432SOL    HW218756   0.306   2.232  17.336 -1.9089  0.4377 -2.3008
 2433SOL     OW18757   3.013   4.175   3.020 -0.4000 -0.0283  0.1815
 2433SOL    HW118758   2.994   4.089   3.056  2.0803 -1.7979 -2.8366
 2433SOL    HW218759   2.924   4.196   2.990 -1.0129  0.8454  2.6454
 2434SOL     OW18760   0.201   4.239   9.411 -0.0510 -0.1241  0.6589
 2434SOL    HW118761   0.120   4.259   9.364 -0.0583  2.9202  1.9647
 2434SOL    HW218762   0.225   4.329   9.434 -0.0680  0.2335 -0.7597
 2435SOL     OW18763   0.717   4.228   3.416  0.3610  0.5085  0.8195
 2435SOL    HW118764   0.640   4.257   3.465 -1.5773 -0.0505 -1.8695
 2435SOL    HW218765   0.778   4.264   3.480  1.8979 -1.1693  0.2885
 2436SOL     OW18766   1.326   0.723   8.768  0.0714 -0.0848  0.1764
 2436SOL    HW118767   1.270   0.649   8.745  0.7227 -0.4157 -0.3341
 2436SOL    HW218768   1.386   0.690   8.834  2.7752  2.3693 -1.0468
 2437SOL     OW18769   2.509   3.259   1.577 -0.3189 -0.0003  0.1482
 2437SOL    HW118770   2.468   3.230   1.658  1.1279  1.8845  1.5416
 2437SOL    HW218771   2.587   3.306   1.606  0.4235  0.3266 -2.3629
 2438SOL     OW18772   1.919   2.103   2.161 -0.3029 -0.6383  0.3308
 2438SOL    HW118773   1.969   2.168   2.112 -0.1732 -1.1563 -0.2347
 2438SOL    HW218774   1.853   2.158   2.202  1.0367  1.0470  0.2521
 2439SOL     OW18775   2.563   1.607   6.743 -0.6424  0.8422 -0.2576
 2439SOL    HW118776   2.531   1.519   6.722 -0.4954  1.0877 -1.5041
 2439SOL    HW218777   2.622   1.623   6.669 -0.9307  0.1053 -0.6505
 2440SOL     OW18778   2.861   0.693   3.258 -0.1450 -0.7437  0.1622
 2440SOL    HW118779   2.785   0.660   3.211  0.0844  0.3327 -0.9755
 2440SOL    HW218780   2.827   0.672   3.345 -1.4788  0.3395 -0.1053
 2441SOL     OW18781   1.785   0.162   6.105 -0.0070  0.0401 -0.0258
 2441SOL    HW118782   1.826   0.133   6.187 -1.5410  0.8387  1.0159
 2441SOL    HW218783   1.834   0.106   6.045 -1.4263  0.8285 -1.8853
 2442SOL     OW18784   3.412   4.525   8.877  0.6687 -0.7739  0.2981
 2442SOL    HW118785   3.468   4.494   8.948 -0.9781  1.0379  2.3746
 2442SOL    HW218786   3.463   4.486   8.806  0.9019 -0.4108  0.2632
 2443SOL     OW18787   2.972   0.806   5.844 -0.2048  0.2610 -0.3426
 2443SOL    HW118788   3.042   0.869   5.833  1.3106 -1.1734  1.0909
 2443SOL    HW218789   3.003   0.772   5.928 -1.5021  1.7401  0.7338
 2444SOL     OW18790   4.140   3.280   3.296 -0.0864 -0.3595 -0.0273
 2444SOL    HW118791   4.184   3.201   3.325  0.2244 -0.3730 -0.5253
 2444SOL    HW218792   4.202   3.314   3.231 -1.6388 -0.0536 -1.3325
 2445SOL     OW18793   1.554   4.487  13.514 -0.2043  0.2739 -0.0954
 2445SOL    HW118794   1.547   4.566  13.568  0.3708  0.5801 -0.4607
 2445SOL    HW218795   1.469   4.447  13.529  0.2721 -1.8022 -3.0308
 2446SOL     OW18796   0.368   4.512   6.137 -0.3819  0.4333  0.2362
 2446SOL    HW118797   0.387   4.418   6.136 -0.4913  0.4202 -1.2273
 2446SOL    HW218798   0.327   4.525   6.222  0.8226  1.5195  0.6536
 2447SOL     OW18799   2.638   3.314   2.392 -0.1863 -0.3253 -0.7752
 2447SOL    HW118800   2.733   3.305   2.380 -0.5106 -0.6778 -3.0321
 2447SOL    HW218801   2.603   3.315   2.303 -0.7353 -1.5896 -0.5772
 2448SOL     OW18802   1.239   3.721   2.578 -0.0029 -0.1632  1.0211
 2448SOL    HW118803   1.330   3.744   2.561  0.3084 -1.3592  1.0511
 2448SOL    HW218804   1.248   3.694   2.670 -3.0295 -1.9985  0.7638
 2449SOL     OW18805   0.359   3.966   7.871  0.5646  0.1750  0.3001
 2449SOL    HW118806   0.403   3.941   7.790  1.3556 -1.7684  1.3409
 2449SOL    HW218807   0.377   3.889   7.924  3.3023 -0.9529 -2.2546
 2450SOL     OW18808   1.288   3.724  10.006  0.0322 -0.0176 -0.6433
 2450SOL    HW118809   1.209   3.672  10.021 -0.1068 -0.0445 -1.4806
 2450SOL    HW218810   1.283   3.791  10.074 -0.4689 -0.8524  0.1468
 2451SOL     OW18811   4.058   2.806  14.055  0.3221  0.5174 -0.3783
 2451SOL    HW118812   4.102   2.738  14.106  1.3353  0.1163 -1.8013
 2451SOL    HW218813   4.099   2.885  14.092  0.8858 -0.1750  0.4574
 2452SOL     OW18814   1.006   3.990   6.150 -0.5528  0.1835 -0.2658
 2452SOL    HW118815   0.971   3.910   6.189 -0.7770  0.2433 -0.3488
 2452SOL    HW218816   1.055   3.962   6.072 -1.9719  1.4249 -1.5770
 2453SOL     OW18817   0.032   1.717  10.558  0.2442 -0.0977 -0.1689
 2453SOL    HW118818   4.712   1.638  10.528  0.0358 -1.2746  3.2842
 2453SOL    HW218819   4.698   1.748  10.629  0.4881 -0.4041  0.1607
 2454SOL     OW18820   3.841   2.944   9.923  0.2583 -0.1267  0.3200
 2454SOL    HW118821   3.771   2.896   9.879 -0.9939  1.3767  0.6858
 2454SOL    HW218822   3.855   3.017   9.862 -1.0186 -0.1633  0.0020
 2455SOL     OW18823   1.452   2.588   0.588 -0.3475 -0.6285 -0.2182
 2455SOL    HW118824   1.501   2.610   0.667  1.8873 -1.1187 -1.4768
 2455SOL    HW218825   1.526   2.566   0.532  0.5035 -1.3606  1.1777
 2456SOL     OW18826   2.510   4.173   3.997 -0.1263  0.2677  0.1287
 2456SOL    HW118827   2.423   4.178   3.958 -1.0390 -0.9885  2.0502
 2456SOL    HW218828   2.523   4.078   3.999 -1.8522 -0.0513 -2.7400
 2457SOL     OW18829   1.750   1.481   7.124  0.9907 -0.2345  0.2235
 2457SOL    HW118830   1.793   1.556   7.083  0.8354 -0.3410 -0.1365
 2457SOL    HW218831   1.692   1.458   7.052  1.3484  0.9292 -0.4391
 2458SOL     OW18832   3.774   0.719  15.185 -0.3180  0.0537 -0.2739
 2458SOL    HW118833   3.748   0.740  15.275 -1.9539 -1.3954 -0.3986
 2458SOL    HW218834   3.865   0.694  15.200  0.5034  3.4330  0.4445
 2459SOL     OW18835   0.241   1.475   7.082 -0.0874 -0.0833  0.5245
 2459SOL    HW118836   0.199   1.475   6.995  2.9740  3.0797 -0.9412
 2459SOL    HW218837   0.166   1.501   7.135 -0.4180  2.1478 -1.0272
 2460SOL     OW18838   4.095   4.028   4.508  0.0700  0.0072  0.9385
 2460SOL    HW118839   4.021   3.969   4.500  0.5855 -0.9120  2.9866
 2460SOL    HW218840   4.129   4.004   4.595  0.9153 -1.2728  0.2380
 2461SOL     OW18841   3.786   2.638   2.762  0.1592 -0.1696  0.4165
 2461SOL    HW118842   3.779   2.614   2.669 -2.4884  2.3364 -0.0304
 2461SOL    HW218843   3.870   2.598   2.786 -0.8192 -1.3724  1.7449
 2462SOL     OW18844   0.511   2.413  11.214  0.1470  0.0934 -0.0231
 2462SOL    HW118845   0.429   2.461  11.218  0.0592 -0.0395 -0.2803
 2462SOL    HW218846   0.481   2.331  11.254  0.3132  0.0368 -0.0126
 2463SOL     OW18847   0.436   1.650   7.870  0.2813 -0.5285  0.2520
 2463SOL    HW118848   0.349   1.653   7.830  0.2360 -2.5803  0.1745
 2463SOL    HW218849   0.465   1.559   7.866 -1.1211 -0.8931 -1.3924
 2464SOL     OW18850   0.927   3.448   7.928  0.2402 -0.0017 -0.0362
 2464SOL    HW118851   0.931   3.394   8.007 -2.7640  0.3003  0.3063
 2464SOL    HW218852   0.981   3.405   7.862 -1.1077  0.5238 -1.4611
 2465SOL     OW18853   1.009   2.569  10.915 -0.0553 -0.3869  0.7232
 2465SOL    HW118854   1.061   2.558  10.836  0.2648 -0.3449  0.9281
 2465SOL    HW218855   1.013   2.664  10.929 -0.0492 -0.3390  0.3848
 2466SOL     OW18856   1.456   0.657   9.504  0.0781  0.2262 -0.1341
 2466SOL    HW118857   1.518   0.593   9.539 -0.7199 -1.3074 -1.5506
 2466SOL    HW218858   1.508   0.719   9.452 -0.7945 -0.5754 -1.9710
 2467SOL     OW18859   3.815   2.967   0.579 -0.1631 -0.1282  0.0757
 2467SOL    HW118860   3.825   3.050   0.625 -1.9766 -0.1964  0.6203
 2467SOL    HW218861   3.861   2.971   0.496 -0.4542  1.4109 -0.0096
 2468SOL     OW18862   3.110   2.912  15.750 -0.2116  1.2655 -0.1251
 2468SOL    HW118863   3.048   2.839  15.750  0.4431  0.7034  1.8893
 2468SOL    HW218864   3.094   2.959  15.832  0.8608  0.1621  0.7197
 2469SOL     OW18865   0.614   3.899   4.363 -0.5586  0.2542  0.1764
 2469SOL    HW118866   0.627   3.949   4.283 -1.0276  2.0782  1.2511
 2469SOL    HW218867   0.636   3.968   4.426 -0.6082  0.1202  0.3418
 2470SOL     OW18868   0.019   4.610   7.963 -0.4428  0.1699 -0.2949
 2470SOL    HW118869   4.685   4.545   8.005 -0.9407  0.2812 -0.7988
 2470SOL    HW218870   4.690   4.641   7.889 -1.3384  2.0915  1.1548
 2471SOL     OW18871   3.382   0.587   9.110  0.3022  0.1973 -0.6738
 2471SOL    HW118872   3.477   0.595   9.122 -0.0582 -0.3819  2.4947
 2471SOL    HW218873   3.372   0.497   9.141 -1.4112  0.7087  0.2649
 2472SOL     OW18874   2.285   2.421  14.925 -0.0581  0.3770 -0.5920
 2472SOL    HW118875   2.312   2.343  14.877  0.1770 -0.6765  1.2595
 2472SOL    HW218876   2.361   2.475  14.904 -0.0983  0.9452  0.6930
 2473SOL     OW18877   0.445   1.137   4.423  0.5382  0.3971  0.0264
 2473SOL    HW118878   0.369   1.083   4.443  0.4382 -0.0773 -1.6028
 2473SOL    HW218879   0.433   1.205   4.490  1.0129 -0.3077  0.8161
 2474SOL     OW18880   2.520   0.712  13.132 -0.2326  0.1189 -0.2167
 2474SOL    HW118881   2.463   0.709  13.055  0.9057 -1.7158 -1.0022
 2474SOL    HW218882   2.463   0.665  13.193  0.8531 -0.4274  0.3803
 2475SOL     OW18883   0.980   2.666   1.254  0.2396  0.2568 -0.8935
 2475SOL    HW118884   1.057   2.708   1.214  0.8308  0.2143  0.2028
 2475SOL    HW218885   0.912   2.732   1.262 -0.7546 -0.9468  0.4986
 2476SOL     OW18886   3.660   3.936   0.413  0.0205 -0.3762  0.2886
 2476SOL    HW118887   3.566   3.918   0.414 -0.1401  0.6085  1.7382
 2476SOL    HW218888   3.685   3.881   0.487  1.5401 -0.0213  0.0272
 2477SOL     OW18889   3.275   1.901   7.107  0.2352 -0.1368  0.1230
 2477SOL    HW118890   3.330   1.845   7.161  0.1106 -0.0401  0.3510
 2477SOL    HW218891   3.190   1.874   7.142  2.1061 -2.3083  3.0212
 2478SOL     OW18892   0.848   2.987  11.858 -0.1625 -0.2007  0.0971
 2478SOL    HW118893   0.777   2.976  11.794  2.4842 -0.2863 -2.8420
 2478SOL    HW218894   0.915   2.991  11.790  1.6824  2.2713  2.0798
 2479SOL     OW18895   0.838   3.596   6.021 -0.3433  0.7093 -0.0794
 2479SOL    HW118896   0.758   3.629   6.063 -0.5167 -1.0704  0.9866
 2479SOL    HW218897   0.796   3.580   5.937  0.3193 -1.8996  0.0783
 2480SOL     OW18898   3.799   0.787   8.658  0.4400 -0.3823  0.0611
 2480SOL    HW118899   3.792   0.850   8.587 -0.6159 -0.2076  0.3288
 2480SOL    HW218900   3.755   0.845   8.720  2.2563 -0.1434  1.1376
 2481SOL     OW18901   2.855   3.170   1.609 -0.1307  0.2473  0.6027
 2481SOL    HW118902   2.918   3.219   1.556 -0.9722  1.0672  0.3609
 2481SOL    HW218903   2.890   3.081   1.597 -1.2939 -0.2328  0.7803
 2482SOL     OW18904   0.264   0.717   7.521  0.0283 -0.3994  0.5346
 2482SOL    HW118905   0.215   0.719   7.603  1.0591  0.7804  1.1190
 2482SOL    HW218906   0.351   0.749   7.546  1.1840 -2.4544 -0.8781
 2483SOL     OW18907   0.710   0.882   8.993 -0.2478 -0.2056 -0.2903
 2483SOL    HW118908   0.727   0.973   8.968  0.6274 -0.7756 -1.8130
 2483SOL    HW218909   0.622   0.890   9.030  0.6351 -0.5615  1.8853
 2484SOL     OW18910   1.811   1.275  15.386  0.5073  0.1735  0.1767
 2484SOL    HW118911   1.847   1.240  15.468 -0.6002 -0.1650  0.5231
 2484SOL    HW218912   1.830   1.207  15.321 -0.3468  1.6157 -1.5505
 2485SOL     OW18913   0.403   3.460   6.948  0.3895 -0.2060 -0.3022
 2485SOL    HW118914   0.318   3.468   6.991  1.8387  2.3250  2.0873
 2485SOL    HW218915   0.411   3.366   6.929  0.3529 -0.2970  0.1435
 2486SOL     OW18916   2.953   2.366   3.490 -0.2789 -0.2735 -0.7051
 2486SOL    HW118917   2.934   2.414   3.570  0.6363  0.7692 -1.1187
 2486SOL    HW218918   3.015   2.299   3.518  0.5864 -0.1055 -2.2348
 2487SOL     OW18919   3.263   2.424   8.391  0.1534  0.5816  0.3265
 2487SOL    HW118920   3.283   2.362   8.322 -0.5450  1.0447 -0.2959
 2487SOL    HW218921   3.349   2.427   8.433  0.5458  1.9186 -0.5784
 2488SOL     OW18922   0.679   1.909  14.072  0.1812 -0.1193 -0.8863
 2488SOL    HW118923   0.710   1.835  14.125  1.7011 -1.1935 -3.2954
 2488SOL    HW218924   0.599   1.937  14.117  0.3273  1.2518 -1.4759
 2489SOL     OW18925   3.966   3.762   4.627  0.0372 -0.0527  0.0448
 2489SOL    HW118926   4.045   3.797   4.668 -1.4118  1.9097  1.1610
 2489SOL    HW218927   3.993   3.693   4.567 -2.5314  0.8921 -2.2114
 2490SOL     OW18928   2.579   4.369  12.964 -0.1041  0.4933  0.3944
 2490SOL    HW118929   2.605   4.305  12.898  1.1499  1.5012 -0.1045
 2490SOL    HW218930   2.570   4.447  12.909  2.0398  0.5127  0.0658
 2491SOL     OW18931   0.643   2.903  11.747  0.2220  0.0564  0.4664
 2491SOL    HW118932   0.569   2.886  11.805 -0.5315  0.7358 -0.2951
 2491SOL    HW218933   0.658   2.810  11.729 -1.5890 -0.3444  0.9787
 2492SOL     OW18934   2.640   4.012  12.999 -0.1420  0.5750 -0.1322
 2492SOL    HW118935   2.595   3.934  12.965  0.6347 -0.3125  0.8725
 2492SOL    HW218936   2.645   4.072  12.924 -1.2343  2.1674  1.0807
 2493SOL     OW18937   0.634   0.316   2.519 -0.3950 -0.6330 -0.2942
 2493SOL    HW118938   0.662   0.367   2.443  0.7319 -1.3533 -0.3706
 2493SOL    HW218939   0.593   0.240   2.478 -1.7705 -0.9344  1.6447
 2494SOL     OW18940   1.246   4.466   0.384  0.0608 -0.1447  0.2060
 2494SOL    HW118941   1.249   4.375   0.413 -3.8449 -0.7776 -1.2942
 2494SOL    HW218942   1.262   4.513   0.465  0.7745 -0.1964  0.0898
 2495SOL     OW18943   3.798   2.306   5.281 -0.4689  0.3989  0.5521
 2495SOL    HW118944   3.884   2.312   5.322  0.1754  0.8350 -0.8703
 2495SOL    HW218945   3.763   2.392   5.303  0.6065  0.9154  0.2235
 2496SOL     OW18946   3.368   3.775   9.098 -0.3085  0.1715  0.0485
 2496SOL    HW118947   3.368   3.826   9.179 -0.5322  1.1187 -0.5521
 2496SOL    HW218948   3.285   3.799   9.056  0.2521 -0.1228 -1.2250
 2497SOL     OW18949   1.111   2.843   0.367 -0.2740 -0.7890 -0.2227
 2497SOL    HW118950   1.169   2.918   0.365  0.3052 -1.2360 -0.1907
 2497SOL    HW218951   1.082   2.846   0.276 -0.4393 -0.4034 -0.1581
 2498SOL     OW18952   0.151   0.329   4.470 -0.4309 -0.3673  0.2929
 2498SOL    HW118953   0.173   0.236   4.475 -0.8155 -0.2955  3.2419
 2498SOL    HW218954   0.088   0.318   4.399 -1.3715  0.3817  1.0090
 2499SOL     OW18955   4.564   0.095   8.732  0.0068 -0.2008  0.3367
 2499SOL    HW118956   4.516   0.018   8.762 -0.3324  0.1618  0.7277
 2499SOL    HW218957   4.632   0.105   8.799  0.8286 -0.8363 -0.4050
 2500SOL     OW18958   0.722   0.294   7.640 -0.1123 -0.2906  0.1179
 2500SOL    HW118959   0.694   0.299   7.732 -1.7183  1.8695 -0.4768
 2500SOL    HW218960   0.636   0.290   7.598  1.2190  1.3730 -2.7537
 2501SOL     OW18961   0.284   4.205   3.136  0.1622 -0.4777 -0.7798
 2501SOL    HW118962   0.342   4.258   3.081 -0.9747  0.2208 -1.3060
 2501SOL    HW218963   0.199   4.249   3.134 -0.3008 -1.3767 -1.3650
 2502SOL     OW18964   0.520   1.297  10.753  0.3292 -0.3008 -0.0014
 2502SOL    HW118965   0.589   1.324  10.814  0.6870 -2.3504  0.4856
 2502SOL    HW218966   0.503   1.385  10.718  1.4953 -0.7541 -1.6689
 2503SOL     OW18967   2.759   0.930  14.375  0.1453 -0.3464  0.0144
 2503SOL    HW118968   2.750   0.941  14.470  0.6451  0.0008  0.0214
 2503SOL    HW218969   2.667   0.924  14.348  0.1610 -2.0733  0.3564
 2504SOL     OW18970   4.067   1.667   1.128  0.7940  0.0871  0.2464
 2504SOL    HW118971   4.159   1.692   1.123  0.9427 -0.3293  0.9025
 2504SOL    HW218972   4.036   1.671   1.218  1.1545 -4.2581  0.5850
 2505SOL     OW18973   1.538   2.068  12.184  0.1165 -0.1202  0.0405
 2505SOL    HW118974   1.523   2.134  12.117 -1.0523 -2.1191 -1.6716
 2505SOL    HW218975   1.461   2.012  12.174  1.3497 -1.6545 -0.8587
 2506SOL     OW18976   4.617   3.864   8.194 -0.3790  0.0290  0.1178
 2506SOL    HW118977   4.713   3.869   8.194 -0.3157 -1.2029 -0.0655
 2506SOL    HW218978   4.608   3.812   8.274 -0.1666  0.6565  0.5549
 2507SOL     OW18979   3.314   3.131  14.210 -0.3469 -0.1044  0.0288
 2507SOL    HW118980   3.353   3.215  14.234 -0.2714  0.2414 -1.2656
 2507SOL    HW218981   3.322   3.135  14.114  1.0912  0.0363  0.1614
 2508SOL     OW18982   3.440   3.275   8.339 -0.0548 -0.2266 -0.0611
 2508SOL    HW118983   3.421   3.194   8.386 -1.1393  0.7738  1.2221
 2508SOL    HW218984   3.520   3.254   8.290 -0.3200  0.2511 -0.7024
 2509SOL     OW18985   3.721   0.161   2.025  0.0161  0.4271 -0.6822
 2509SOL    HW118986   3.814   0.145   2.011 -0.9107 -3.3117 -2.6683
 2509SOL    HW218987   3.682   0.148   1.939 -0.2091 -2.2024 -0.1861
 2510SOL     OW18988   1.213   2.726   8.612  0.2423  0.0835 -0.0452
 2510SOL    HW118989   1.250   2.809   8.642  0.9976 -0.5893  0.8694
 2510SOL    HW218990   1.217   2.675   8.692  1.3108 -1.6284 -1.2034
 2511SOL     OW18991   4.280   0.113   5.868  0.6451  0.5648 -0.0882
 2511SOL    HW118992   4.269   0.053   5.795 -0.6245  0.7423 -0.0357
 2511SOL    HW218993   4.341   0.060   5.919 -2.1629 -1.1472  1.4174
 2512SOL     OW18994   1.034   2.887   7.143 -0.1481 -0.5780  0.9333
 2512SOL    HW118995   1.007   2.976   7.119  0.9585 -0.2608  0.8800
 2512SOL    HW218996   0.954   2.865   7.190 -1.0205  1.9816  0.6694
 2513SOL     OW18997   4.259   2.404   5.747  0.0994 -0.6558 -0.1145
 2513SOL    HW118998   4.172   2.392   5.785 -0.1886  3.8241  0.6302
 2513SOL    HW218999   4.281   2.491   5.780  3.3624 -1.5401 -0.0055
 2514SOL     OW19000   2.717   2.392   1.116 -1.2299 -0.2704  0.1665
 2514SOL    HW119001   2.657   2.359   1.049 -1.3333  2.1530 -0.9130
 2514SOL    HW219002   2.802   2.360   1.084 -0.4634  0.9003  1.0029
 2515SOL     OW19003   1.308   3.870   4.661  0.0428  0.2696 -0.5258
 2515SOL    HW119004   1.382   3.875   4.720 -2.4524 -2.6084  2.7942
 2515SOL    HW219005   1.234   3.871   4.722  0.3171  0.5291 -0.2004
 2516SOL     OW19006   3.957   3.728   5.102  0.4242 -0.1516 -0.4600
 2516SOL    HW119007   3.922   3.639   5.103 -1.0540  0.4258 -1.0529
 2516SOL    HW219008   3.912   3.780   5.169  0.4012 -1.3597  0.4684
 2517SOL     OW19009   0.402   2.187   4.747 -0.0940  0.1324 -0.5432
 2517SOL    HW119010   0.327   2.177   4.806  0.5717  0.4948  0.3627
 2517SOL    HW219011   0.449   2.114   4.786  0.2289  0.2822 -0.6567
 2518SOL     OW19012   0.131   3.564   9.065 -0.0231  0.2061  0.0243
 2518SOL    HW119013   0.106   3.510   8.991 -3.0251  1.4080  0.1598
 2518SOL    HW219014   0.056   3.622   9.076  0.8686  0.9198  2.4937
 2519SOL     OW19015   4.446   0.186  14.275 -0.5359 -0.4802  0.3425
 2519SOL    HW119016   4.477   0.223  14.358  1.4359 -1.2643 -0.0422
 2519SOL    HW219017   4.421   0.097  14.297  0.3834 -1.0923 -1.0993
 2520SOL     OW19018   1.660   1.443   7.803  0.3357  0.1364  0.8049
 2520SOL    HW119019   1.666   1.536   7.826  2.4685  0.2487 -0.1971
 2520SOL    HW219020   1.569   1.413   7.800  0.3300  0.2716 -0.3034
 2521SOL     OW19021   1.605   3.312   4.280  0.0057  0.2606  0.1818
 2521SOL    HW119022   1.634   3.297   4.190 -2.9217  0.8471 -0.8590
 2521SOL    HW219023   1.515   3.278   4.277  0.5466 -1.1996  0.6834
 2522SOL     OW19024   0.239   2.034  14.414 -0.4981 -0.9015 -0.1757
 2522SOL    HW119025   0.183   1.989  14.477  1.1227 -1.0170  1.1839
 2522SOL    HW219026   0.285   2.097  14.470 -0.0083  0.3269 -1.9296
 2523SOL     OW19027   3.702   3.759   5.251 -0.6314 -0.0213  0.4293
 2523SOL    HW119028   3.707   3.802   5.336 -0.6728  2.1109 -0.6395
 2523SOL    HW219029   3.721   3.833   5.194 -2.5376  1.7015  2.0592
 2524SOL     OW19030   3.182   0.128   2.732  0.8222  0.4091 -0.3496
 2524SOL    HW119031   3.101   0.174   2.709  0.0270 -0.8716 -0.1056
 2524SOL    HW219032   3.161   0.042   2.696 -2.9855  1.0590  0.3386
 2525SOL     OW19033   2.670   1.092   3.317  0.2865 -0.4022  0.0324
 2525SOL    HW119034   2.586   1.135   3.300 -0.0329 -1.2871 -0.6415
 2525SOL    HW219035   2.644   1.043   3.395 -1.7680  0.7167  0.0476
 2526SOL     OW19036   0.565   1.724   0.530 -0.0572 -0.2895 -0.4386
 2526SOL    HW119037   0.501   1.788   0.561 -0.3766 -0.7909 -0.0676
 2526SOL    HW219038   0.634   1.739   0.595 -0.1942 -0.4928 -0.2486
 2527SOL     OW19039   3.426   2.323  16.688  0.3332 -0.4728  0.3731
 2527SOL    HW119040   3.372   2.260  16.640  1.8396 -0.5548 -1.2090
 2527SOL    HW219041   3.507   2.272  16.687  1.5833  1.5448 -0.7930
 2528SOL     OW19042   3.814   0.291  13.476 -0.6627  0.2069 -0.4845
 2528SOL    HW119043   3.749   0.231  13.440 -0.9115 -1.1473  2.2344
 2528SOL    HW219044   3.840   0.243  13.554  1.9937  2.4623  0.0104
 2529SOL     OW19045   2.367   2.178   5.734 -0.2033 -0.4583 -0.1206
 2529SOL    HW119046   2.373   2.273   5.727  1.1582 -0.6644 -1.5687
 2529SOL    HW219047   2.317   2.149   5.658  2.8341 -1.5514 -1.6991
 2530SOL     OW19048   1.838   2.349   4.892 -0.0213  0.0868 -0.1378
 2530SOL    HW119049   1.828   2.425   4.950 -1.1127  0.0960 -0.3340
 2530SOL    HW219050   1.927   2.324   4.917  0.4027  1.0552 -0.7219
 2531SOL     OW19051   2.113   0.784  17.517  0.5275 -0.1446 -0.3811
 2531SOL    HW119052   2.105   0.789  17.612 -0.4161  1.5195 -0.5650
 2531SOL    HW219053   2.069   0.864  17.489  1.8421  0.5825 -0.3870
 2532SOL     OW19054   1.949   0.173  13.038  0.3453 -0.1772 -0.1091
 2532SOL    HW119055   2.027   0.148  13.088  0.4052 -1.1010 -0.6629
 2532SOL    HW219056   1.877   0.170  13.101  0.6770 -5.1765  0.1020
 2533SOL     OW19057   0.931   1.654   8.182  0.0489 -0.0620 -0.3424
 2533SOL    HW119058   0.997   1.594   8.215  0.2103  0.3290  0.0366
 2533SOL    HW219059   0.910   1.718   8.250  0.2501 -1.3888  0.9653
 2534SOL     OW19060   1.027   1.180  14.977  0.3394  0.5193 -0.1594
 2534SOL    HW119061   0.951   1.237  14.982 -1.2763 -1.5869 -0.8386
 2534SOL    HW219062   1.087   1.241  14.933  3.4196 -1.6523  1.0082
 2535SOL     OW19063   0.822   1.384  17.339 -0.1868 -0.1026  0.7957
 2535SOL    HW119064   0.820   1.316  17.271  1.0980  0.5721  0.0799
 2535SOL    HW219065   0.728   1.392  17.354 -0.3385 -3.5263  1.6208
 2536SOL     OW19066   3.733   1.377  10.792  0.2592 -0.6485 -0.3840
 2536SOL    HW119067   3.794   1.350  10.861 -0.8436  0.4392  1.0034
 2536SOL    HW219068   3.648   1.366  10.835 -1.0127 -0.5101 -2.8872
 2537SOL     OW19069   2.328   2.099   0.793  0.3272  0.0975  0.4561
 2537SOL    HW119070   2.246   2.095   0.744 -0.5965  1.6660  1.8901
 2537SOL    HW219071   2.391   2.114   0.722 -0.7821  0.0458 -0.5447
 2538SOL     OW19072   3.264   1.400  12.565  0.0166 -0.2588 -0.4073
 2538SOL    HW119073   3.280   1.331  12.500  0.2982 -0.1449 -0.4601
 2538SOL    HW219074   3.352   1.437  12.570 -0.0752  0.0853 -1.2528
 2539SOL     OW19075   4.204   4.288   7.333 -0.2386 -0.0696 -0.1665
 2539SOL    HW119076   4.286   4.273   7.287  0.2290 -0.1324  0.6788
 2539SOL    HW219077   4.142   4.313   7.265 -1.0346  2.2659  1.4061
 2540SOL     OW19078   0.273   0.189   7.854 -0.0605  0.3179  0.1446
 2540SOL    HW119079   0.294   0.276   7.819  0.0571  0.7953  1.4175
 2540SOL    HW219080   0.335   0.133   7.808  0.5865 -0.5148  2.0682
 2541SOL     OW19081   0.928   2.408   5.684 -0.0743  0.2957  0.0879
 2541SOL    HW119082   0.892   2.470   5.747 -0.1744  2.5259 -2.1633
 2541SOL    HW219083   0.851   2.359   5.654  1.6311 -1.6734 -1.1346
 2542SOL     OW19084   4.529   3.772   4.202  0.0735 -0.7980 -0.6099
 2542SOL    HW119085   4.560   3.682   4.211 -1.2888 -1.2691 -0.5560
 2542SOL    HW219086   4.443   3.754   4.239  0.7236 -0.7992  0.9220
 2543SOL     OW19087   3.553   2.508   5.997 -0.3781  0.3699 -0.4276
 2543SOL    HW119088   3.507   2.582   6.037 -0.6055  1.2329 -2.3001
 2543SOL    HW219089   3.619   2.507   6.066 -0.9952 -1.0255  0.1434
 2544SOL     OW19090   3.326   1.360   3.735 -0.1710  0.0432 -0.2681
 2544SOL    HW119091   3.402   1.320   3.692 -0.0210 -0.0605  0.0924
 2544SOL    HW219092   3.356   1.449   3.755 -1.1238  0.2648  0.1649
 2545SOL     OW19093   1.128   2.705   1.588 -0.0086 -0.2690 -0.2677
 2545SOL    HW119094   1.136   2.766   1.515  1.1916  1.4482  1.3143
 2545SOL    HW219095   1.041   2.724   1.624  0.2142  0.1542  0.0389
 2546SOL     OW19096   4.649   1.271   9.309 -0.1466  0.5264  0.1509
 2546SOL    HW119097   4.566   1.225   9.297  0.3222 -0.2069 -0.2640
 2546SOL    HW219098   4.651   1.269   9.404 -0.7024 -1.4985  0.1104
 2547SOL     OW19099   0.659   1.955  12.249 -0.0779 -0.1714 -0.1122
 2547SOL    HW119100   0.660   1.866  12.283 -0.7125  0.2829  1.0709
 2547SOL    HW219101   0.574   1.950  12.205 -0.0766  0.3785 -0.1748
 2548SOL     OW19102   0.325   3.198   3.784 -0.0526  0.3474 -0.3830
 2548SOL    HW119103   0.412   3.163   3.765 -0.0342 -0.4851  1.2068
 2548SOL    HW219104   0.332   3.181   3.878  1.2692  1.0729 -0.3562
 2549SOL     OW19105   4.323   1.277   5.042 -0.7229  0.4096  0.1037
 2549SOL    HW119106   4.232   1.304   5.041 -0.4244  1.4940  1.2635
 2549SOL    HW219107   4.367   1.355   5.077 -0.1004  0.4191 -0.7036
 2550SOL     OW19108   1.880   2.860   9.851  0.1104 -0.2520  0.2831
 2550SOL    HW119109   1.831   2.937   9.880 -2.6216 -1.2224 -1.7448
 2550SOL    HW219110   1.971   2.882   9.871 -0.4261  1.3744  0.9555
 2551SOL     OW19111   4.581   4.675   9.221  0.0119 -1.0524 -0.7689
 2551SOL    HW119112   4.519   4.610   9.251  0.2305 -0.4066  1.1020
 2551SOL    HW219113   4.642   4.679   9.295  1.6910  1.0347 -2.2287
 2552SOL     OW19114   0.015   0.077   4.750 -0.6253 -0.4062 -0.4713
 2552SOL    HW119115   4.650   0.076   4.783 -0.5616  0.7026 -0.2767
 2552SOL    HW219116   0.013   0.157   4.698  4.4762  0.7372  1.1253
 2553SOL     OW19117   2.038   0.053   0.357  0.9681  0.4374 -0.3690
 2553SOL    HW119118   2.111   0.008   0.401 -0.4095 -0.5140  0.9338
 2553SOL    HW219119   1.959   0.019   0.398  0.8179  2.1271  0.7468
 2554SOL     OW19120   3.384   2.206   4.925 -0.0776 -0.5192  0.8974
 2554SOL    HW119121   3.301   2.214   4.879  1.0569 -0.2134 -1.0783
 2554SOL    HW219122   3.372   2.134   4.988  0.9290 -2.1509 -0.7810
 2555SOL     OW19123   1.677   4.632  14.617 -0.1971 -0.1919 -0.8377
 2555SOL    HW119124   1.623   4.553  14.618 -1.2699  0.5164 -2.2925
 2555SOL    HW219125   1.763   4.589  14.615  0.4760  1.1210 -0.0272
 2556SOL     OW19126   3.455   3.034   7.455  0.6788 -0.7422  0.2071
 2556SOL    HW119127   3.479   3.118   7.416 -1.7247  0.2437  0.7936
 2556SOL    HW219128   3.385   3.001   7.398  0.7909 -0.6624  0.0213
 2557SOL     OW19129   0.173   1.006   2.624  0.4283 -0.4725  0.0481
 2557SOL    HW119130   0.187   0.917   2.653 -2.0830 -0.9660 -0.2023
 2557SOL    HW219131   0.090   1.002   2.575 -0.4212  0.3447  1.4383
 2558SOL     OW19132   3.773   0.013  17.027  0.1033  0.6432  0.3526
 2558SOL    HW119133   3.737   0.099  17.048  0.8562  1.8576 -3.2897
 2558SOL    HW219134   3.847   0.038  16.972 -0.6514 -0.6420 -1.2435
 2559SOL     OW19135   1.952   0.381   8.014  0.2682  0.2699  0.0147
 2559SOL    HW119136   1.948   0.465   8.060  0.2633  0.1095  0.3031
 2559SOL    HW219137   2.031   0.345   8.053 -0.8814 -0.6202  1.5065
 2560SOL     OW19138   1.287   2.371   3.586  0.0992  0.1455 -0.4614
 2560SOL    HW119139   1.290   2.301   3.651  1.4393  2.1715  1.6638
 2560SOL    HW219140   1.254   2.444   3.639 -0.4127  0.9213 -1.8398
 2561SOL     OW19141   2.075   3.994   6.835 -0.5089  0.0713  0.4311
 2561SOL    HW119142   2.037   3.987   6.922  1.6648  2.4466  1.5917
 2561SOL    HW219143   2.013   4.060   6.805 -0.8181 -0.1222  0.6528
 2562SOL     OW19144   2.671   2.726   4.645 -0.3826  0.6971  0.4337
 2562SOL    HW119145   2.752   2.708   4.694 -0.9952 -1.5779  0.5924
 2562SOL    HW219146   2.611   2.662   4.684 -0.0433  0.1320  0.0316
 2563SOL     OW19147   0.227   2.690   9.529 -0.1699  0.1711 -0.6929
 2563SOL    HW119148   0.269   2.611   9.563  1.8214  1.0103 -1.1766
 2563SOL    HW219149   0.294   2.735   9.478 -1.0337  1.8646 -0.3326
 2564SOL     OW19150   1.331   0.487   3.765  0.3295  0.0017  0.0818
 2564SOL    HW119151   1.290   0.537   3.695  0.9126  0.1148 -0.1818
 2564SOL    HW219152   1.390   0.552   3.803  1.1043 -0.8284  0.3198
 2565SOL     OW19153   1.345   0.748   3.054  0.7685 -0.6627  0.8775
 2565SOL    HW119154   1.435   0.776   3.040  0.5739 -1.6277 -2.2987
 2565SOL    HW219155   1.354   0.749   3.149  0.8200  1.8974  0.8558
 2566SOL     OW19156   0.461   2.252  16.035 -0.1336  0.1425 -0.3995
 2566SOL    HW119157   0.453   2.320  15.968  1.5262 -1.0045 -1.7518
 2566SOL    HW219158   0.404   2.289  16.103  0.8003  0.2720  0.3086
 2567SOL     OW19159   3.886   4.447   0.406 -0.4031  0.0635 -0.5333
 2567SOL    HW119160   3.925   4.375   0.356 -0.5103  0.1894 -0.7950
 2567SOL    HW219161   3.961   4.475   0.460 -0.4629 -2.4100  0.8237
 2568SOL     OW19162   4.659   4.440   3.303  0.1550 -0.1498  0.3982
 2568SOL    HW119163   0.017   4.411   3.343 -0.1148 -0.8488  0.4306
 2568SOL    HW219164   4.595   4.370   3.314  0.1524  0.0562  1.6926
 2569SOL     OW19165   3.475   3.160   3.798  0.0254 -0.3112 -0.3030
 2569SOL    HW119166   3.562   3.193   3.820  0.2409 -0.0721 -1.4929
 2569SOL    HW219167   3.416   3.230   3.827 -1.3222 -1.0012 -1.3826
 2570SOL     OW19168   1.347   1.650   5.133 -0.0527  0.0956 -0.2606
 2570SOL    HW119169   1.438   1.624   5.145 -0.1879 -0.7886 -1.1290
 2570SOL    HW219170   1.308   1.567   5.106 -1.7672  0.4330  1.1908
 2571SOL     OW19171   1.836   2.819   8.740 -1.1400  0.1877 -0.4854
 2571SOL    HW119172   1.838   2.895   8.683  2.1712 -1.1361 -2.1451
 2571SOL    HW219173   1.908   2.776   8.694 -0.8004  0.0708  0.1471
 2572SOL     OW19174   1.748   0.588   9.324  0.8824  0.3592  0.6609
 2572SOL    HW119175   1.671   0.532   9.333  1.1609 -0.0414  0.5477
 2572SOL    HW219176   1.759   0.619   9.414 -0.4409  1.9636  0.2808
 2573SOL     OW19177   0.687   4.447   3.927  0.3602 -0.2978 -0.9092
 2573SOL    HW119178   0.710   4.491   3.845  0.4115 -0.4915 -0.9993
 2573SOL    HW219179   0.683   4.519   3.990  1.5551  0.5479 -1.7850
 2574SOL     OW19180   3.692   0.678   8.109 -0.5120  0.3135 -0.4665
 2574SOL    HW119181   3.624   0.734   8.071 -2.0506 -0.7868  0.6437
 2574SOL    HW219182   3.627   0.616   8.145  0.1651  1.1120  2.1490
 2575SOL     OW19183   3.452   3.656   0.660  0.4298  0.3503 -0.0556
 2575SOL    HW119184   3.427   3.709   0.736 -0.2192  0.9251 -0.6846
 2575SOL    HW219185   3.543   3.636   0.685  1.3940 -0.4854 -4.3134
 2576SOL     OW19186   3.884   1.177   0.115  0.5492 -0.4343 -0.0857
 2576SOL    HW119187   3.848   1.166   0.027  1.3197 -0.8602 -0.3460
 2576SOL    HW219188   3.840   1.252   0.154 -0.1834 -1.4962  1.1006
 2577SOL     OW19189   2.993   4.230   3.916 -0.0606  0.2726 -0.2839
 2577SOL    HW119190   3.005   4.154   3.973  0.4825 -0.9374 -2.0170
 2577SOL    HW219191   2.898   4.243   3.914 -0.0516  0.1590 -1.6859
 2578SOL     OW19192   2.147   4.445   1.904  0.2451  0.6832  0.0599
 2578SOL    HW119193   2.239   4.469   1.909  0.4434 -0.3456  1.7893
 2578SOL    HW219194   2.165   4.355   1.932 -0.1260  0.5938  0.0036
 2579SOL     OW19195   1.710   2.810   5.835 -0.4307  0.2145 -0.4224
 2579SOL    HW119196   1.750   2.725   5.818  0.3311  0.7609 -1.3002
 2579SOL    HW219197   1.632   2.800   5.781 -0.7043 -1.8411  0.3149
 2580SOL     OW19198   4.150   2.278  16.133  0.2045 -0.4047  0.1351
 2580SOL    HW119199   4.168   2.202  16.076  2.1841 -0.6343  1.0644
 2580SOL    HW219200   4.094   2.324  16.070  0.4195 -0.3155  0.0069
 2581SOL     OW19201   2.662   2.960  16.470 -0.5597  0.1233 -0.4551
 2581SOL    HW119202   2.745   2.984  16.509 -1.1391  0.9031  0.3018
 2581SOL    HW219203   2.621   2.914  16.543  0.6135 -0.8074 -0.3866
 2582SOL     OW19204   0.913   0.016   4.294  0.3129  0.0713  0.3940
 2582SOL    HW119205   0.894   0.005   4.387 -0.8392  0.8189  0.2513
 2582SOL    HW219206   0.979   0.085   4.295 -0.6682  1.0066  0.6515
 2583SOL     OW19207   3.751   1.590  11.574 -0.3047 -0.6067 -0.3108
 2583SOL    HW119208   3.659   1.579  11.549 -0.1937  0.7351 -1.2837
 2583SOL    HW219209   3.765   1.511  11.627 -0.1960  1.1265  2.2148
 2584SOL     OW19210   3.551   4.330   0.874  0.1024  0.1598  0.1055
 2584SOL    HW119211   3.459   4.344   0.893 -0.8666 -2.2219 -2.7419
 2584SOL    HW219212   3.556   4.234   0.868 -1.1582 -0.0281  2.2999
 2585SOL     OW19213   3.665   3.097   8.174  0.3594 -0.2428  0.3636
 2585SOL    HW119214   3.619   3.020   8.138 -0.9890  1.2343 -1.0902
 2585SOL    HW219215   3.747   3.060   8.207  1.8033  0.5591 -2.3618
 2586SOL     OW19216   1.102   1.449   9.142  0.3118  0.0626 -0.1752
 2586SOL    HW119217   1.108   1.411   9.230  2.0909 -0.8998 -0.7243
 2586SOL    HW219218   1.080   1.367   9.098  0.3917 -1.0352  1.8196
 2587SOL     OW19219   2.298   4.253   6.667  0.0220 -0.6546 -0.0250
 2587SOL    HW119220   2.259   4.192   6.604 -0.3781  1.4073 -1.7635
 2587SOL    HW219221   2.331   4.181   6.720  1.1911  0.0221  0.1602
 2588SOL     OW19222   1.660   2.114  15.076  0.4240  0.0359 -0.4537
 2588SOL    HW119223   1.673   2.120  14.982 -0.1523 -0.0347 -0.5354
 2588SOL    HW219224   1.746   2.079  15.101  0.5943 -0.2067 -1.3946
 2589SOL     OW19225   4.612   1.381   4.242 -0.3757  0.1676 -0.4200
 2589SOL    HW119226   4.672   1.454   4.231  0.5013 -0.6359 -0.9298
 2589SOL    HW219227   4.662   1.318   4.191  0.2866 -0.6410  1.2286
 2590SOL     OW19228   1.981   1.552   4.117  0.2759  0.3957 -0.0792
 2590SOL    HW119229   1.952   1.618   4.054  1.2793  0.0689 -0.8899
 2590SOL    HW219230   2.075   1.542   4.102  0.2904  1.3292 -0.6332
 2591SOL     OW19231   3.157   4.359  12.994 -0.3620 -0.3796  0.7886
 2591SOL    HW119232   3.188   4.295  13.059  1.8495 -0.3320 -0.2212
 2591SOL    HW219233   3.239   4.409  12.990  0.8903 -2.5196 -0.1660
 2592SOL     OW19234   0.656   2.689   2.830  0.1131 -0.3203 -0.0347
 2592SOL    HW119235   0.592   2.624   2.803  0.7959  0.1616 -2.7442
 2592SOL    HW219236   0.629   2.769   2.786 -0.0468 -0.8211 -0.8337
 2593SOL     OW19237   3.322   0.188   3.854 -0.0642 -0.0890 -0.5688
 2593SOL    HW119238   3.411   0.152   3.845  1.2385  2.9382  0.2277
 2593SOL    HW219239   3.342   0.281   3.852 -1.4086  0.2074  0.1355
 2594SOL     OW19240   0.751   1.739   0.757 -0.0588  0.6917  0.6565
 2594SOL    HW119241   0.835   1.715   0.797  0.5055  1.6243  0.0180
 2594SOL    HW219242   0.746   1.832   0.780 -3.0049  1.5114 -3.3510
 2595SOL     OW19243   2.675   0.168   8.283  0.2576 -0.0331 -0.3064
 2595SOL    HW119244   2.649   0.095   8.339  0.2791 -0.0357 -0.2997
 2595SOL    HW219245   2.770   0.169   8.295  0.0293  0.4881  1.4284
 2596SOL     OW19246   2.676   3.525   1.939  0.3319  0.6502 -0.5713
 2596SOL    HW119247   2.683   3.462   2.010  0.0551 -2.0739 -2.9497
 2596SOL    HW219248   2.648   3.599   1.994  1.9322  0.4373  0.5175
 2597SOL     OW19249   1.142   3.308   1.696  0.1138  0.2243  0.6684
 2597SOL    HW119250   1.121   3.353   1.614 -0.0023 -0.8447  0.1192
 2597SOL    HW219251   1.106   3.362   1.767 -1.9401 -1.2901  0.7985
 2598SOL     OW19252   2.089   0.805  12.695  0.2483 -0.5699 -0.1866
 2598SOL    HW119253   2.136   0.723  12.680 -0.4847 -1.2285  1.0902
 2598SOL    HW219254   2.075   0.839  12.607  0.8109 -1.8874 -0.7912
 2599SOL     OW19255   3.967   1.265   6.211  0.5455 -0.3234 -0.0447
 2599SOL    HW119256   3.892   1.231   6.163 -0.6710  1.0529  0.8682
 2599SOL    HW219257   4.000   1.187   6.256 -1.7460 -0.2708  1.7216
 2600SOL     OW19258   1.605   0.357   2.598  0.3865  0.1297 -0.1792
 2600SOL    HW119259   1.661   0.286   2.564  0.8283 -0.2008  1.2095
 2600SOL    HW219260   1.576   0.398   2.517 -0.3894 -0.4165 -0.1683
 2601SOL     OW19261   3.357   1.212   5.994 -0.1535  0.2509  0.4723
 2601SOL    HW119262   3.381   1.219   5.901 -0.0861 -0.8135  0.4107
 2601SOL    HW219263   3.268   1.248   5.994 -0.5007 -0.5673 -1.1529
 2602SOL     OW19264   3.381   1.242   0.044  0.1294  0.5150 -0.6390
 2602SOL    HW119265   3.309   1.304   0.056  1.3826  2.0905 -1.2590
 2602SOL    HW219266   3.328   1.175   0.002  0.8735 -0.9681  0.7702
 2603SOL     OW19267   1.216   4.007   3.413 -0.2596  0.2675  0.2901
 2603SOL    HW119268   1.123   3.999   3.432 -0.1488 -1.4025  0.1007
 2603SOL    HW219269   1.250   4.057   3.488  0.2975  0.5563 -0.1575
 2604SOL     OW19270   3.182   1.076   1.393 -0.1422 -0.1068 -0.0975
 2604SOL    HW119271   3.223   1.158   1.418 -0.7794 -0.6609  2.8447
 2604SOL    HW219272   3.234   1.006   1.433 -0.4287 -1.2325 -1.7202
 2605SOL     OW19273   4.221   0.505   5.357 -0.4208 -0.2299 -0.0759
 2605SOL    HW119274   4.304   0.500   5.310 -0.4038 -1.0142  0.0461
 2605SOL    HW219275   4.174   0.498   5.274 -0.3537  1.2238 -0.2331
 2606SOL     OW19276   1.864   4.185  10.830  0.2936 -0.4770 -0.0476
 2606SOL    HW119277   1.817   4.268  10.843  1.0682  0.1079 -0.9902
 2606SOL    HW219278   1.796   4.119  10.847 -0.1434 -0.5495 -2.0616
 2607SOL     OW19279   0.282   3.138   5.032  0.0591 -0.1089 -0.4014
 2607SOL    HW119280   0.315   3.073   5.093  0.2240  0.0772 -0.2949
 2607SOL    HW219281   0.190   3.127   5.055  0.4039  2.4077  2.1640
 2608SOL     OW19282   1.140   3.446   3.275 -0.4496  0.7131 -0.0144
 2608SOL    HW119283   1.130   3.530   3.321 -1.8855  1.3948 -1.6052
 2608SOL    HW219284   1.062   3.444   3.221 -1.0449  1.9907  0.8063
 2609SOL     OW19285   2.740   2.423   8.328  0.2542  0.0388  0.7260
 2609SOL    HW119286   2.682   2.496   8.309  1.4128  0.6673 -0.3918
 2609SOL    HW219287   2.786   2.455   8.405  3.0670 -1.0023 -0.4813
 2610SOL     OW19288   2.007   3.611   3.426 -0.5104 -0.3256  0.7731
 2610SOL    HW119289   1.940   3.663   3.381  0.5495  1.1376  0.8725
 2610SOL    HW219290   1.974   3.522   3.430 -0.7346 -0.2250  1.2696
 2611SOL     OW19291   0.597   0.372   3.638  0.2483 -0.0802 -0.3761
 2611SOL    HW119292   0.531   0.441   3.638 -1.0350 -1.3115 -1.0653
 2611SOL    HW219293   0.537   0.299   3.625 -0.4594  0.2390  1.1488
 2612SOL     OW19294   1.764   0.269  13.591 -0.2890  0.1785  0.0238
 2612SOL    HW119295   1.731   0.247  13.678 -1.8788  0.8864 -0.4011
 2612SOL    HW219296   1.712   0.213  13.533 -0.4613 -1.2837  1.5936
 2613SOL     OW19297   0.298   4.491   4.726  0.1960 -0.5869  0.0525
 2613SOL    HW119298   0.327   4.567   4.676 -0.5886  1.5609  2.8491
 2613SOL    HW219299   0.386   4.458   4.747 -0.0619 -0.6744  1.0208
 2614SOL     OW19300   4.473   2.447  15.505  0.8295  0.3662 -0.1725
 2614SOL    HW119301   4.491   2.412  15.418  1.5404 -1.2745  0.6405
 2614SOL    HW219302   4.467   2.540  15.482 -1.4699 -0.1094 -1.4707
 2615SOL     OW19303   2.338   3.802   6.360 -0.6022 -0.5145  0.1282
 2615SOL    HW119304   2.400   3.791   6.288 -0.0326  1.4142  0.3377
 2615SOL    HW219305   2.383   3.775   6.440  0.1576 -2.4397 -0.9609
 2616SOL     OW19306   0.025   2.818  13.629 -0.0229 -0.4826  0.3666
 2616SOL    HW119307   0.083   2.746  13.657 -0.3588 -0.6751  0.5596
 2616SOL    HW219308   0.088   2.890  13.624 -0.9791  0.3104 -0.1973
 2617SOL     OW19309   1.259   3.798   7.261  0.8390  0.5218  0.3192
 2617SOL    HW119310   1.232   3.881   7.298  0.1327  0.1374  0.6651
 2617SOL    HW219311   1.193   3.796   7.191  1.4329  0.3895 -0.2411
 2618SOL     OW19312   1.689   2.343   0.144  0.1888 -0.2927  0.0402
 2618SOL    HW119313   1.607   2.319   0.101 -0.3665  0.7378  0.5260
 2618SOL    HW219314   1.756   2.337   0.077 -0.2376 -0.4891 -0.3647
 2619SOL     OW19315   3.995   3.158   1.896  0.1006 -0.1732  0.2261
 2619SOL    HW119316   3.948   3.168   1.979  2.1443  2.4366  1.0691
 2619SOL    HW219317   3.919   3.175   1.841  0.1241 -1.9046 -0.3561
 2620SOL     OW19318   3.922   1.765   4.953  0.3973 -0.2554  0.3316
 2620SOL    HW119319   3.905   1.855   4.981 -1.7134 -0.6639  0.4056
 2620SOL    HW219320   4.011   1.748   4.983  0.9020 -0.1774 -1.0895
 2621SOL     OW19321   4.021   4.137  12.362  0.5051 -0.2513  0.8855
 2621SOL    HW119322   4.023   4.208  12.298 -0.0228 -0.4084  0.6974
 2621SOL    HW219323   4.101   4.087  12.345  0.3480 -0.0027 -0.5785
 2622SOL     OW19324   3.607   2.119   9.877  0.6139  0.1699  0.2001
 2622SOL    HW119325   3.591   2.123   9.783  0.8861 -1.9856  0.0629
 2622SOL    HW219326   3.702   2.103   9.880  1.2218  3.4404 -1.4695
 2623SOL     OW19327   1.296   2.471  15.213 -0.0839  0.2175 -0.2975
 2623SOL    HW119328   1.356   2.507  15.147  0.5825 -2.6378 -1.2856
 2623SOL    HW219329   1.275   2.387  15.171 -2.7453  0.8101 -0.1660
 2624SOL     OW19330   0.459   2.456   2.575 -0.1275 -0.7861  0.2920
 2624SOL    HW119331   0.427   2.477   2.663 -0.2304 -0.7407  0.2445
 2624SOL    HW219332   0.515   2.381   2.591  1.5916  0.8982  2.1651
 2625SOL     OW19333   4.528   3.859   7.622  0.2930  0.3995  0.0038
 2625SOL    HW119334   4.476   3.782   7.646  0.2764  0.1814 -0.7205
 2625SOL    HW219335   4.462   3.917   7.584  1.5129  1.1409 -1.0152
 2626SOL     OW19336   1.595   2.827   7.492  0.0806  0.6729  0.3091
 2626SOL    HW119337   1.508   2.803   7.459  1.3387  0.8127 -3.1712
 2626SOL    HW219338   1.646   2.815   7.412  0.0473 -0.2109  0.4218
 2627SOL     OW19339   3.040   0.576   6.500 -0.3590 -0.1902  0.3400
 2627SOL    HW119340   2.977   0.504   6.499 -1.1491  0.4837  0.8162
 2627SOL    HW219341   3.110   0.533   6.549  0.2698 -0.8917 -1.1847
 2628SOL     OW19342   4.381   2.175  11.744 -0.0315  0.1329 -0.7573
 2628SOL    HW119343   4.329   2.095  11.737  1.3596 -1.1695  3.8335
 2628SOL    HW219344   4.371   2.205  11.654  1.9311  0.4236 -0.8823
 2629SOL     OW19345   0.405   1.682   0.247 -0.6070 -0.2731  1.3308
 2629SOL    HW119346   0.316   1.711   0.227 -0.0448 -0.2228 -1.0595
 2629SOL    HW219347   0.417   1.711   0.337  1.0673  0.4553  0.8732
 2630SOL     OW19348   3.062   4.509   7.241  0.2878 -0.1948  0.2141
 2630SOL    HW119349   3.076   4.596   7.205  0.4702  0.7356  2.4959
 2630SOL    HW219350   2.985   4.519   7.297 -0.6512  0.0347 -1.1303
 2631SOL     OW19351   0.293   3.883   7.505  0.4407 -0.4569  0.2777
 2631SOL    HW119352   0.374   3.868   7.554  0.7675 -1.9429 -0.7145
 2631SOL    HW219353   0.229   3.840   7.562  0.4997  0.6458  1.1682
 2632SOL     OW19354   3.875   2.734  16.127  0.2920 -0.5919  0.6221
 2632SOL    HW119355   3.831   2.654  16.157 -0.1816  0.5060  2.8702
 2632SOL    HW219356   3.826   2.808  16.163  0.9177 -0.3298  0.9273
 2633SOL     OW19357   4.718   4.093   4.546 -0.7267  0.1700 -0.3128
 2633SOL    HW119358   0.063   4.030   4.568  0.5332  1.8943  0.7358
 2633SOL    HW219359   4.662   4.048   4.483 -1.2994  0.1128  0.2307
 2634SOL     OW19360   0.655   0.669   8.500  0.5615 -0.6485 -0.3258
 2634SOL    HW119361   0.699   0.588   8.475  0.7015 -0.5556 -0.3822
 2634SOL    HW219362   0.681   0.681   8.592 -0.8350 -1.7983  0.2238
 2635SOL     OW19363   4.168   2.846   7.831 -0.5698  0.4315 -0.1549
 2635SOL    HW119364   4.222   2.925   7.826 -4.7983  3.4072  0.9882
 2635SOL    HW219365   4.162   2.825   7.738 -0.2461 -1.6754  0.2846
 2636SOL     OW19366   0.084   2.267   1.784  0.6784  0.1057  0.5312
 2636SOL    HW119367   0.093   2.183   1.829 -3.6566 -1.8042 -2.1353
 2636SOL    HW219368   0.132   2.328   1.840  0.1129 -0.2765  1.4327
 2637SOL     OW19369   2.929   3.718   2.132 -0.2044 -0.2407  0.2610
 2637SOL    HW119370   2.889   3.722   2.045 -0.5446 -0.1733  0.4216
 2637SOL    HW219371   2.976   3.634   2.131 -0.0175 -0.1198 -1.3185
 2638SOL     OW19372   1.802   3.714   6.910 -0.1765 -0.2530  0.2817
 2638SOL    HW119373   1.755   3.666   6.978  1.5280  0.4153  1.9230
 2638SOL    HW219374   1.875   3.740   6.966  0.7696  0.6562 -1.3746
 2639SOL     OW19375   1.652   4.010  10.846  0.5540 -0.0701  0.4481
 2639SOL    HW119376   1.610   3.999  10.761  0.7755  2.2758  0.0500
 2639SOL    HW219377   1.576   3.993  10.902 -0.1645 -0.0384 -0.5176
 2640SOL     OW19378   2.686   0.437   8.326  0.2720 -0.6309 -0.4077
 2640SOL    HW119379   2.757   0.477   8.275  1.7166 -2.2509  0.3610
 2640SOL    HW219380   2.671   0.348   8.296 -1.0103  0.1359 -2.0687
 2641SOL     OW19381   2.193   0.090   7.329  0.0823 -0.0428 -0.0337
 2641SOL    HW119382   2.144   0.140   7.264 -1.1659  2.3641  2.7702
 2641SOL    HW219383   2.181   0.158   7.395 -0.1519 -1.3682  1.2668
 2642SOL     OW19384   2.474   4.278   9.402 -0.1605  0.1962  0.4071
 2642SOL    HW119385   2.471   4.219   9.477  0.7377 -0.0044  0.2945
 2642SOL    HW219386   2.387   4.262   9.365 -0.1971 -1.1139  1.0704
 2643SOL     OW19387   4.365   1.032   1.684 -0.1614 -0.1745 -0.5998
 2643SOL    HW119388   4.338   0.941   1.692  1.5549 -0.5681  0.7622
 2643SOL    HW219389   4.448   1.029   1.732 -0.1790 -2.3042 -0.7015
 2644SOL     OW19390   2.322   1.491   7.749  0.2689 -0.2226 -0.5591
 2644SOL    HW119391   2.256   1.449   7.805  1.5033  1.4618  2.1161
 2644SOL    HW219392   2.403   1.495   7.800 -0.0830 -1.3663  0.0990
 2645SOL     OW19393   3.226   1.875  15.343  0.4546 -0.0525  0.1662
 2645SOL    HW119394   3.223   1.829  15.259  1.0095 -0.8396  0.5730
 2645SOL    HW219395   3.252   1.804  15.402 -1.2550  0.4522  1.5122
 2646SOL     OW19396   1.291   1.346   5.552  0.0122  0.1229  0.2677
 2646SOL    HW119397   1.370   1.342   5.499  1.1136 -0.1190  1.9208
 2646SOL    HW219398   1.249   1.425   5.517 -0.9487  0.6332  2.5449
 2647SOL     OW19399   1.103   4.634  10.832 -0.2032  0.4608 -0.4996
 2647SOL    HW119400   1.034   4.578  10.866  0.0639  1.8102  2.2286
 2647SOL    HW219401   1.066   4.688  10.762 -1.1345 -0.2489 -0.5661
 2648SOL     OW19402   3.825   3.758   2.919 -0.8577 -0.0670 -0.3632
 2648SOL    HW119403   3.871   3.838   2.941  2.2420 -2.2567  1.0425
 2648SOL    HW219404   3.885   3.691   2.950 -0.3020  0.3879 -0.4694
 2649SOL     OW19405   1.326   3.838   5.756  0.7019  0.7275 -0.2202
 2649SOL    HW119406   1.408   3.846   5.707 -0.3502  1.6537 -1.8495
 2649SOL    HW219407   1.256   3.834   5.691  1.0276  0.7218 -0.5710
 2650SOL     OW19408   4.652   4.710   3.270  0.5252 -0.1493  0.2489
 2650SOL    HW119409   4.667   4.616   3.256  0.5561 -0.1807  0.4925
 2650SOL    HW219410   4.572   4.709   3.322  2.2006  0.3277  2.8383
 2651SOL     OW19411   3.261   4.317  16.519  0.0444  0.3749 -0.0704
 2651SOL    HW119412   3.190   4.371  16.484 -0.4603 -0.1535  0.1466
 2651SOL    HW219413   3.219   4.233  16.538  1.2260  0.4106  2.6576
 2652SOL     OW19414   1.028   0.004   3.153 -0.4348  0.7988  0.3644
 2652SOL    HW119415   0.935   0.021   3.134 -0.3502  0.5654 -0.2442
 2652SOL    HW219416   1.054   4.690   3.069 -0.7190 -1.8996  1.4836
 2653SOL     OW19417   2.278   2.726   5.528 -0.1244  0.9932  0.2443
 2653SOL    HW119418   2.336   2.661   5.568 -2.7621 -0.8284  1.1264
 2653SOL    HW219419   2.202   2.725   5.586  1.6926  0.0536  2.5703
 2654SOL     OW19420   3.883   3.400   7.116 -0.1609  0.0469 -0.0424
 2654SOL    HW119421   3.837   3.461   7.172 -0.5227 -0.9037  0.6917
 2654SOL    HW219422   3.873   3.314   7.157 -0.6789 -0.5632 -1.4470
 2655SOL     OW19423   1.840   4.352   2.593 -0.2107 -0.4050  0.0486
 2655SOL    HW119424   1.896   4.324   2.665 -1.3233  0.8537  1.4023
 2655SOL    HW219425   1.788   4.274   2.578 -0.1202 -0.6923  1.2137
 2656SOL     OW19426   0.150   1.566  13.807 -0.6477 -0.0165 -0.4405
 2656SOL    HW119427   0.173   1.656  13.785 -1.7522  0.5534  0.7835
 2656SOL    HW219428   0.066   1.580  13.850 -0.9162 -2.0210 -0.3110
 2657SOL     OW19429   3.500   0.764   8.528 -0.0735 -0.2454  0.0071
 2657SOL    HW119430   3.583   0.769   8.482 -0.5303 -1.5437 -0.9828
 2657SOL    HW219431   3.460   0.850   8.525  1.2583  0.3650 -0.0923
 2658SOL     OW19432   2.186   3.843   4.612  0.7906  0.2990  0.0599
 2658SOL    HW119433   2.193   3.751   4.637  0.7143  0.0109 -0.9746
 2658SOL    HW219434   2.264   3.886   4.649 -0.1584  1.2868  0.9200
 2659SOL     OW19435   1.786   3.278   7.965 -0.0722 -0.1085 -0.3024
 2659SOL    HW119436   1.738   3.304   7.886 -0.9965  0.5215  0.4752
 2659SOL    HW219437   1.777   3.183   7.978  0.7541 -0.1156  0.1856
 2660SOL     OW19438   2.695   0.029  15.933  0.0083 -0.2894 -0.1824
 2660SOL    HW119439   2.739   0.102  15.890 -0.8581 -0.3349 -1.1245
 2660SOL    HW219440   2.602   0.025  15.913 -0.0044 -0.4152 -0.0959
 2661SOL     OW19441   1.814   2.777   3.563  0.1917 -0.5184 -0.3614
 2661SOL    HW119442   1.848   2.715   3.628  1.1370 -0.5861 -0.9116
 2661SOL    HW219443   1.827   2.863   3.603 -1.6480  0.5523 -2.1097
 2662SOL     OW19444   1.953   4.539   8.860 -0.3400 -0.0663 -0.0329
 2662SOL    HW119445   2.016   4.471   8.835  0.0035  0.5631 -0.8770
 2662SOL    HW219446   1.933   4.557   8.769 -1.0956  1.0224  0.3552
 2663SOL     OW19447   0.293   0.316  14.060  0.3657 -0.2535 -0.2555
 2663SOL    HW119448   0.352   0.244  14.081  1.7836  1.3780  1.3870
 2663SOL    HW219449   0.297   0.305  13.965  0.3179 -1.0576 -0.1661
 2664SOL     OW19450   0.007   3.396  10.625  0.5239  0.3040  0.6466
 2664SOL    HW119451   4.686   3.323  10.583  0.4859  0.2439  0.7925
 2664SOL    HW219452   0.086   3.348  10.650  0.8686  1.3436  1.5598
 2665SOL     OW19453   0.839   4.023   0.955  0.0483 -0.5216  0.1487
 2665SOL    HW119454   0.817   4.112   0.931 -0.2696 -0.4524  0.6937
 2665SOL    HW219455   0.820   4.017   1.049  2.9697  0.1779  0.7892
 2666SOL     OW19456   4.409   1.443   9.751  0.1411 -0.1799 -0.4166
 2666SOL    HW119457   4.320   1.457   9.719 -0.2828 -1.5939  0.1310
 2666SOL    HW219458   4.419   1.501   9.827  0.3197  0.6635 -1.0825
 2667SOL     OW19459   3.899   0.411   4.512  0.3198  0.2678 -0.3645
 2667SOL    HW119460   3.860   0.470   4.447 -0.6025 -1.3661 -1.2977
 2667SOL    HW219461   3.986   0.451   4.514  0.1834  0.6346 -1.7011
 2668SOL     OW19462   0.748   3.089   3.478 -0.1346  0.1886 -0.3525
 2668SOL    HW119463   0.796   3.168   3.500 -1.5854  0.4861  1.8068
 2668SOL    HW219464   0.819   3.036   3.443 -0.1859 -0.8931  1.1472
 2669SOL     OW19465   0.668   3.153   8.874 -0.4666 -0.3934  0.3130
 2669SOL    HW119466   0.639   3.062   8.881  0.2944 -0.5391  1.6013
 2669SOL    HW219467   0.625   3.170   8.790 -0.4088 -1.7965  0.0030
 2670SOL     OW19468   3.260   4.102  15.277 -0.2779  0.1808 -0.5060
 2670SOL    HW119469   3.230   4.130  15.363  0.6281 -2.2007  0.5868
 2670SOL    HW219470   3.303   4.182  15.248 -1.3493  0.6948 -0.6580
 2671SOL     OW19471   2.100   1.043   9.541 -0.6821  0.3065 -0.0530
 2671SOL    HW119472   2.117   1.012   9.630 -0.6687  2.1232  0.5844
 2671SOL    HW219473   2.092   1.136   9.560 -1.8692 -0.3068  2.4634
 2672SOL     OW19474   1.715   0.487   4.267 -0.8412 -0.6128  0.1436
 2672SOL    HW119475   1.690   0.576   4.245  0.2679 -0.8503 -2.1315
 2672SOL    HW219476   1.799   0.499   4.311  0.1403  0.7258 -2.0676
 2673SOL     OW19477   3.996   4.121   0.772 -0.1013  0.3324  0.0128
 2673SOL    HW119478   4.010   4.034   0.809  1.1250  0.4539 -0.1662
 2673SOL    HW219479   4.069   4.131   0.711 -1.5863  1.1337 -1.6844
 2674SOL     OW19480   1.376   3.522  14.336 -0.1417  0.6572 -0.3857
 2674SOL    HW119481   1.404   3.612  14.353 -1.0422  0.6457  1.2192
 2674SOL    HW219482   1.372   3.518  14.241 -2.6968  1.0786 -0.2943
 2675SOL     OW19483   1.414   4.199   5.723  0.2537  0.1251 -0.1884
 2675SOL    HW119484   1.484   4.161   5.670 -0.5414 -1.2222 -0.2650
 2675SOL    HW219485   1.341   4.161   5.674 -1.2357  1.4616  0.9981
 2676SOL     OW19486   3.176   1.358   8.669  0.1611  1.1025 -0.5558
 2676SOL    HW119487   3.131   1.388   8.748  1.2083  1.3208 -0.0453
 2676SOL    HW219488   3.218   1.278   8.701 -2.5300  1.1144  2.9564
 2677SOL     OW19489   2.294   1.307   9.190  0.0720  0.1148  0.5577
 2677SOL    HW119490   2.323   1.340   9.274  0.1275 -2.3223  1.4982
 2677SOL    HW219491   2.283   1.214   9.210 -0.4458 -0.1216 -0.7768
 2678SOL     OW19492   2.307   1.349   7.450 -0.3070 -0.3291  0.2910
 2678SOL    HW119493   2.222   1.370   7.411 -0.6724 -0.7776  0.8530
 2678SOL    HW219494   2.333   1.436   7.482 -0.0834 -0.3918  0.2777
 2679SOL     OW19495   4.300   2.337   3.987  0.3089  0.0862 -0.4426
 2679SOL    HW119496   4.327   2.250   3.958  0.3103  0.0223 -0.2492
 2679SOL    HW219497   4.275   2.383   3.907  1.7987  2.0843  0.2220
 2680SOL     OW19498   1.618   2.728   7.227 -1.7087  0.8104 -0.1204
 2680SOL    HW119499   1.657   2.660   7.172 -1.2555  1.7920 -1.0105
 2680SOL    HW219500   1.547   2.677   7.266 -0.4611 -0.6288  0.2908
 2681SOL     OW19501   2.439   3.116   8.358 -0.0114  0.0677 -0.3685
 2681SOL    HW119502   2.379   3.178   8.316  1.7802  2.2916  0.3962
 2681SOL    HW219503   2.382   3.042   8.379 -0.5354 -0.4665 -3.5770
 2682SOL     OW19504   0.604   0.268   7.909  0.0058  0.0396  0.1976
 2682SOL    HW119505   0.559   0.342   7.949 -2.0155 -1.4949  0.7762
 2682SOL    HW219506   0.577   0.187   7.952  1.9382 -0.7449 -0.0768
 2683SOL     OW19507   1.452   2.584  15.028 -0.1386  0.0857 -0.6614
 2683SOL    HW119508   1.416   2.553  14.945 -2.2172  0.6894 -0.0062
 2683SOL    HW219509   1.529   2.634  15.002  0.0014  0.5964  0.7564
 2684SOL     OW19510   0.078   2.629   1.139 -0.0808 -0.5633 -0.0456
 2684SOL    HW119511   4.706   2.634   1.133 -0.1287 -0.4913  0.7332
 2684SOL    HW219512   0.107   2.714   1.108 -1.6985 -0.2189 -0.6288
 2685SOL     OW19513   2.011   3.869   5.334 -0.0273  0.2281  0.6889
 2685SOL    HW119514   2.008   3.917   5.252  1.3251  2.3275  1.8952
 2685SOL    HW219515   2.037   3.939   5.393  2.5351  1.5239 -2.0297
 2686SOL     OW19516   0.832   2.176   8.614 -0.3080  0.0640  0.4721
 2686SOL    HW119517   0.828   2.260   8.660 -2.7022 -0.2569  0.8728
 2686SOL    HW219518   0.740   2.157   8.596  0.0586 -0.9207 -0.3983
 2687SOL     OW19519   3.284   3.980   9.280 -0.2932  0.2228  0.1956
 2687SOL    HW119520   3.273   4.072   9.304  1.0410  0.2529  0.6972
 2687SOL    HW219521   3.238   3.934   9.349 -0.7137 -0.4944 -0.5603
 2688SOL     OW19522   2.486   0.531   7.228  0.2771 -0.2857 -0.1769
 2688SOL    HW119523   2.520   0.620   7.239 -1.2248  0.2901 -0.1354
 2688SOL    HW219524   2.553   0.471   7.196  1.6272  1.3079 -0.3231
 2689SOL     OW19525   2.197   1.193   4.990  0.3147 -0.8390  0.0794
 2689SOL    HW119526   2.269   1.202   5.052  1.7831 -2.2015 -1.4080
 2689SOL    HW219527   2.235   1.158   4.909  1.0186  1.5296 -0.6464
 2690SOL     OW19528   2.292   3.312  11.629  0.0324 -0.0014  0.0256
 2690SOL    HW119529   2.260   3.255  11.559 -0.0682 -0.0615  0.1201
 2690SOL    HW219530   2.260   3.271  11.709 -2.3494  0.0103 -0.9109
 2691SOL     OW19531   3.203   1.459   9.519 -0.1065 -0.5472 -0.0773
 2691SOL    HW119532   3.175   1.423   9.603  1.3406 -1.1864  0.1393
 2691SOL    HW219533   3.281   1.499   9.556  1.7269 -2.9698 -1.2282
 2692SOL     OW19534   1.955   2.093  11.862 -0.3251 -0.0220 -0.3901
 2692SOL    HW119535   1.915   2.115  11.778  1.4239 -1.8880 -1.6918
 2692SOL    HW219536   2.021   2.029  11.837 -0.3083  0.7816 -2.4233
 2693SOL     OW19537   4.147   3.107   8.916 -0.3957  0.4023  0.0552
 2693SOL    HW119538   4.139   3.036   8.853  0.1737 -0.5634  1.0712
 2693SOL    HW219539   4.214   3.086   8.980 -0.9979 -2.1142 -0.1279
 2694SOL     OW19540   1.590   3.362   4.866  0.4696  0.6397  0.3149
 2694SOL    HW119541   1.558   3.420   4.797 -3.4541 -1.6079  0.2170
 2694SOL    HW219542   1.610   3.429   4.931 -0.3041  1.9105 -0.7352
 2695SOL     OW19543   3.278   2.473   2.248  0.1472  0.0858  0.3983
 2695SOL    HW119544   3.186   2.464   2.222  0.1515 -0.6929  0.6559
 2695SOL    HW219545   3.266   2.468   2.343  0.4395  0.3103  0.4452
 2696SOL     OW19546   2.293   0.384  13.084  0.0409 -0.0227 -0.1520
 2696SOL    HW119547   2.286   0.295  13.120 -0.2343 -0.5703 -1.5567
 2696SOL    HW219548   2.245   0.437  13.148  1.2980  0.5436  0.3266
 2697SOL     OW19549   1.522   1.274   4.852  0.2431  0.1012  0.4783
 2697SOL    HW119550   1.604   1.298   4.895  0.6579 -0.2088 -0.1351
 2697SOL    HW219551   1.526   1.318   4.767 -4.3766  0.9660  0.6883
 2698SOL     OW19552   1.458   1.329   2.913  0.2947  1.1257 -0.3516
 2698SOL    HW119553   1.413   1.372   2.840 -0.6490  0.0851 -0.3776
 2698SOL    HW219554   1.417   1.373   2.988 -0.8739  0.2742 -0.5017
 2699SOL     OW19555   4.642   2.804  15.513 -0.3472  0.3593 -0.3557
 2699SOL    HW119556   4.600   2.889  15.530 -0.2397  0.8490 -2.5242
 2699SOL    HW219557   4.569   2.753  15.479  0.6185 -2.6632  2.1241
 2700SOL     OW19558   3.515   3.647  10.766  0.4438 -0.1542 -0.4753
 2700SOL    HW119559   3.514   3.561  10.724 -1.1166 -0.0824 -0.5829
 2700SOL    HW219560   3.550   3.631  10.853 -0.7974 -0.7305 -0.0724
 2701SOL     OW19561   2.125   3.317   4.755  0.0668  0.4546  0.3370
 2701SOL    HW119562   2.086   3.310   4.842 -3.1126 -0.8142 -1.1786
 2701SOL    HW219563   2.192   3.249   4.755 -0.6881 -0.2895 -0.6349
 2702SOL     OW19564   1.303   2.220  17.205 -0.1466 -0.0236 -0.2420
 2702SOL    HW119565   1.241   2.154  17.234  0.6770 -1.4596 -1.7555
 2702SOL    HW219566   1.343   2.162  17.140  1.3183  0.3100  0.3484
 2703SOL     OW19567   1.810   1.780  13.864  0.3523 -0.3806  0.6916
 2703SOL    HW119568   1.876   1.843  13.894  1.4501 -1.8273  1.3050
 2703SOL    HW219569   1.728   1.811  13.901  0.0187 -0.8232  0.3140
 2704SOL     OW19570   3.687   1.850   8.822 -0.5242 -0.3230 -0.2699
 2704SOL    HW119571   3.677   1.942   8.849  2.0728  0.8854 -3.4253
 2704SOL    HW219572   3.779   1.831   8.837 -0.6850  0.6847  2.0260
 2705SOL     OW19573   2.752   2.484   5.092 -0.1122  0.6241  0.2864
 2705SOL    HW119574   2.747   2.417   5.161 -2.9305 -1.2986 -1.7897
 2705SOL    HW219575   2.666   2.476   5.052 -0.1946 -0.3492  0.6495
 2706SOL     OW19576   3.754   2.606  14.967  0.4769 -0.0660  0.0481
 2706SOL    HW119577   3.718   2.668  15.030  1.6109  2.5146 -1.8936
 2706SOL    HW219578   3.704   2.637  14.892 -0.1486 -1.2397 -0.0173
 2707SOL     OW19579   1.634   0.724  16.800 -0.0996  0.2198  0.3102
 2707SOL    HW119580   1.543   0.695  16.797  0.0776 -0.4232  1.3471
 2707SOL    HW219581   1.666   0.722  16.710 -0.9512  0.5956  0.0010
 2708SOL     OW19582   2.375   3.476   7.507  0.1914 -0.7606  0.1606
 2708SOL    HW119583   2.453   3.434   7.470  1.3221  1.2028  0.2828
 2708SOL    HW219584   2.379   3.455   7.600  0.7111  0.5720  0.4469
 2709SOL     OW19585   4.108   1.471   8.770  0.3470  0.3021 -0.0222
 2709SOL    HW119586   4.093   1.552   8.819 -0.6248 -0.1779  0.4753
 2709SOL    HW219587   4.073   1.405   8.830 -0.3302  1.1057  0.4757
 2710SOL     OW19588   2.109   0.461   0.207 -0.0999 -0.0315 -0.3705
 2710SOL    HW119589   2.196   0.438   0.239 -0.3928 -1.9573 -0.9843
 2710SOL    HW219590   2.070   0.377   0.184  0.3053  0.0924 -1.5243
 2711SOL     OW19591   4.086   1.669  16.068 -0.6187  0.0031  0.1590
 2711SOL    HW119592   4.047   1.595  16.021 -1.8626  1.8553 -1.7249
 2711SOL    HW219593   4.136   1.711  15.999 -2.2963  1.6468 -0.0632
 2712SOL     OW19594   3.384   1.374   8.085 -0.0977  0.3990 -0.3419
 2712SOL    HW119595   3.323   1.333   8.146  0.9152  0.6461  0.8329
 2712SOL    HW219596   3.361   1.467   8.090  0.3524  0.4235  1.1734
 2713SOL     OW19597   4.375   2.611   8.869  0.2850  0.3366  0.9489
 2713SOL    HW119598   4.443   2.587   8.932  0.6632 -0.4875  0.2382
 2713SOL    HW219599   4.346   2.529   8.828  0.2780  0.5620  0.5019
 2714SOL     OW19600   4.585   1.295  12.788  0.2614  0.3521 -0.4248
 2714SOL    HW119601   4.525   1.366  12.810  0.4958  0.6376 -0.7106
 2714SOL    HW219602   4.630   1.326  12.710  1.0996  0.7025  0.1965
 2715SOL     OW19603   3.582   2.083   8.915 -0.4433  0.4007  0.2393
 2715SOL    HW119604   3.574   2.139   8.992 -0.1160  0.3736  0.2919
 2715SOL    HW219605   3.551   2.136   8.842 -0.1066  0.5615  0.2119
 2716SOL     OW19606   0.640   2.790   5.709 -0.4532  0.0457  0.0548
 2716SOL    HW119607   0.605   2.750   5.629  1.4138 -1.2836 -0.0853
 2716SOL    HW219608   0.564   2.832   5.750 -2.6084 -2.7877 -0.9527
 2717SOL     OW19609   0.606   4.615   5.533 -0.4723 -0.2188  0.3153
 2717SOL    HW119610   0.685   4.573   5.498 -0.3876  1.0268 -0.9916
 2717SOL    HW219611   0.645   4.699   5.557 -2.5962  0.2980  1.8858
 2718SOL     OW19612   2.286   0.756   9.058  0.1547  0.1427 -0.3399
 2718SOL    HW119613   2.310   0.848   9.055 -0.2685  0.2319 -1.0954
 2718SOL    HW219614   2.202   0.760   9.013 -0.0281  1.5875  0.1351
 2719SOL     OW19615   2.946   2.423  16.532  0.2087  0.1083  0.3504
 2719SOL    HW119616   3.006   2.478  16.482 -1.3022 -1.0265 -2.7175
 2719SOL    HW219617   2.944   2.475  16.613 -0.3774 -0.3219  0.6143
 2720SOL     OW19618   1.404   2.321   1.208  0.3159 -0.3001 -0.4209
 2720SOL    HW119619   1.468   2.385   1.238 -1.7091  1.1958  0.7536
 2720SOL    HW219620   1.415   2.253   1.276  1.7916 -0.6372 -1.0070
 2721SOL     OW19621   0.074   4.386   2.233  0.0994 -0.7148  0.2332
 2721SOL    HW119622   0.129   4.361   2.159 -0.7771 -0.0665 -0.6264
 2721SOL    HW219623   0.132   4.375   2.309  1.3566 -1.0962 -0.7853
 2722SOL     OW19624   2.935   1.471   3.419 -0.3389 -0.2068 -0.5103
 2722SOL    HW119625   2.965   1.398   3.473 -0.7164 -0.6446 -0.9006
 2722SOL    HW219626   2.894   1.430   3.343 -1.0100  1.0604 -0.8264
 2723SOL     OW19627   2.065   2.586   7.988 -0.5543 -0.0111 -0.0304
 2723SOL    HW119628   1.972   2.580   8.011 -0.5955 -0.7421 -0.3849
 2723SOL    HW219629   2.092   2.498   8.015  0.8543  0.0038 -1.3922
 2724SOL     OW19630   3.839   3.112   4.698  0.2506  0.2516 -0.0724
 2724SOL    HW119631   3.770   3.050   4.721  0.2914  0.4646  0.6115
 2724SOL    HW219632   3.834   3.095   4.604  1.7754 -0.2929 -0.0482
 2725SOL     OW19633   1.523   3.834   6.007 -0.4150  0.0638 -0.5772
 2725SOL    HW119634   1.522   3.809   5.915  1.2544 -0.7277 -0.3717
 2725SOL    HW219635   1.455   3.902   6.015  1.4337  1.8491  0.0348
 2726SOL     OW19636   2.732   3.665   7.927 -0.4163 -0.0352 -0.3242
 2726SOL    HW119637   2.807   3.724   7.924 -0.6404  0.3361  1.0893
 2726SOL    HW219638   2.768   3.607   7.994 -1.1069  1.6947  1.5745
 2727SOL     OW19639   1.644   2.371   3.024  0.1720 -0.6411 -0.3842
 2727SOL    HW119640   1.649   2.374   2.928 -1.2344 -0.7363 -0.4591
 2727SOL    HW219641   1.555   2.341   3.041 -0.6638  2.3907  0.5415
 2728SOL     OW19642   3.065   0.383  12.579 -0.5340 -0.3118 -0.0620
 2728SOL    HW119643   3.040   0.449  12.514 -0.1450 -0.3148 -0.2172
 2728SOL    HW219644   3.132   0.335  12.530  0.2919  0.4650  0.2983
 2729SOL     OW19645   2.678   0.160   6.368 -0.5687  0.2798  0.2686
 2729SOL    HW119646   2.700   0.068   6.348  1.2937  0.7006  0.3247
 2729SOL    HW219647   2.621   0.175   6.292  1.8696  0.0204 -1.6434
 2730SOL     OW19648   1.644   0.803   6.761 -0.3107 -0.3018 -0.4000
 2730SOL    HW119649   1.661   0.720   6.716 -2.0446 -1.0731  0.3343
 2730SOL    HW219650   1.549   0.794   6.765 -0.2108 -0.5566  1.4005
 2731SOL     OW19651   1.219   0.198   2.394  0.2621  0.0211  0.0020
 2731SOL    HW119652   1.228   0.104   2.404 -0.3243 -0.1096 -0.7324
 2731SOL    HW219653   1.190   0.211   2.304  0.3297  2.2361  0.2777
 2732SOL     OW19654   1.754   0.210   8.056  0.1924  0.6940  0.3402
 2732SOL    HW119655   1.762   0.139   7.993  1.5952 -0.0502  1.3543
 2732SOL    HW219656   1.828   0.258   8.018  1.5040 -2.6999 -1.3943
 2733SOL     OW19657   4.026   3.544   6.964 -0.4371 -0.4710 -0.1315
 2733SOL    HW119658   3.969   3.600   6.912  0.2740  1.7397  1.4687
 2733SOL    HW219659   3.964   3.492   7.014 -1.1213  0.9022  0.4523
 2734SOL     OW19660   2.093   1.865  13.933  0.1333  0.1833  0.6172
 2734SOL    HW119661   2.164   1.825  13.983  0.8213  3.3135  2.1824
 2734SOL    HW219662   2.042   1.891  14.010 -0.0873  1.4724  0.0359
 2735SOL     OW19663   3.544   2.968   4.337  0.8537 -0.1542 -0.7799
 2735SOL    HW119664   3.479   2.952   4.268  1.1642 -0.1811 -1.0660
 2735SOL    HW219665   3.519   3.057   4.361 -1.5592 -1.1400  0.3340
 2736SOL     OW19666   0.654   4.488   5.812  0.3414 -0.4927 -1.0267
 2736SOL    HW119667   0.690   4.520   5.729  2.1866 -0.1865 -0.1205
 2736SOL    HW219668   0.574   4.538   5.821  0.1567 -1.4408  2.5303
 2737SOL     OW19669   4.536   0.862  15.944  0.0368  0.2046  0.3904
 2737SOL    HW119670   4.597   0.928  15.976  1.0611 -1.7872  2.5225
 2737SOL    HW219671   4.594   0.788  15.926  1.2126  0.7336  2.0562
 2738SOL     OW19672   1.436   3.667   7.405 -0.3845 -0.4263  0.8261
 2738SOL    HW119673   1.487   3.669   7.324  2.2657  1.0537  2.5602
 2738SOL    HW219674   1.353   3.706   7.375 -0.4909 -0.7391  0.7149
 2739SOL     OW19675   3.581   0.430   4.723 -0.2706 -0.6855  0.7620
 2739SOL    HW119676   3.611   0.498   4.783 -1.8509  1.1558 -0.5230
 2739SOL    HW219677   3.551   0.467   4.640 -1.3476 -1.3695  0.8497
 2740SOL     OW19678   0.849   4.531   3.495  0.1267 -0.2402  0.2997
 2740SOL    HW119679   0.808   4.576   3.569 -1.4081  0.2889 -0.8726
 2740SOL    HW219680   0.810   4.579   3.422  1.1029 -1.3430 -0.9488
 2741SOL     OW19681   2.796   3.581   3.723  0.2121 -0.1450 -0.1519
 2741SOL    HW119682   2.811   3.502   3.672 -0.8617  0.1212 -0.8826
 2741SOL    HW219683   2.711   3.553   3.757  0.5134 -0.6082  0.2099
 2742SOL     OW19684   3.193   3.060   3.127 -0.7254  0.4307 -0.0207
 2742SOL    HW119685   3.271   3.004   3.133  0.3655  1.6497 -3.1162
 2742SOL    HW219686   3.234   3.144   3.109 -0.3021  0.2896  0.2668
 2743SOL     OW19687   2.718   3.231   4.374  0.4582 -0.3023 -0.1145
 2743SOL    HW119688   2.778   3.201   4.305  0.1149 -2.8413  0.6919
 2743SOL    HW219689   2.632   3.197   4.350  0.2631  0.6351 -0.7417
 2744SOL     OW19690   3.780   2.085  14.943 -0.0581 -0.4572 -0.3153
 2744SOL    HW119691   3.774   2.069  15.038 -0.4757 -3.5721 -0.8761
 2744SOL    HW219692   3.832   2.166  14.944 -1.4449  0.4122  1.0421
 2745SOL     OW19693   4.139   0.457  17.300  0.9010 -0.2344 -0.3513
 2745SOL    HW119694   4.115   0.402  17.375  1.7557  0.5462  0.5038
 2745SOL    HW219695   4.230   0.437  17.280  0.4312 -0.5026 -2.1871
 2746SOL     OW19696   3.376   2.669   7.889  0.4474  0.6538 -0.4141
 2746SOL    HW119697   3.447   2.633   7.942 -0.2971 -0.2084 -0.0095
 2746SOL    HW219698   3.322   2.710   7.956  0.1644 -1.2196  0.4986
 2747SOL     OW19699   3.316   1.252   4.056 -1.0541  0.8497 -0.1971
 2747SOL    HW119700   3.340   1.195   4.128 -0.8326  0.3458 -0.6695
 2747SOL    HW219701   3.378   1.232   3.986  0.0506  2.4007  0.3399
 2748SOL     OW19702   4.075   1.195   3.712  0.7092  0.6752 -0.0006
 2748SOL    HW119703   4.092   1.174   3.804  0.8175 -0.4619 -0.2886
 2748SOL    HW219704   3.982   1.171   3.711  0.2455  2.2332  3.2852
 2749SOL     OW19705   4.498   3.368  14.561 -0.2472  0.6048  0.1761
 2749SOL    HW119706   4.446   3.288  14.557 -1.5829  1.4895  0.0997
 2749SOL    HW219707   4.469   3.423  14.488  0.9537  3.2662  1.7181
 2750SOL     OW19708   1.014   3.455   6.218  0.4093  0.1515  0.3515
 2750SOL    HW119709   0.932   3.413   6.194  0.0931  0.1548  1.4153
 2750SOL    HW219710   1.073   3.387   6.250 -0.2080  0.1479  1.4799
 2751SOL     OW19711   1.784   2.438   8.202  0.0102 -0.3319  0.2561
 2751SOL    HW119712   1.875   2.440   8.231  0.6527 -1.8476 -1.6551
 2751SOL    HW219713   1.762   2.531   8.197 -0.8454 -0.6997 -2.9049
 2752SOL     OW19714   3.245   2.626   8.201  0.6261 -0.0617  0.1519
 2752SOL    HW119715   3.335   2.644   8.227  0.5928 -0.1806  0.3483
 2752SOL    HW219716   3.211   2.582   8.279 -1.1501  2.0462  0.5718
 2753SOL     OW19717   1.496   2.322   8.355 -0.2791  0.0775  0.2560
 2753SOL    HW119718   1.444   2.291   8.281 -2.2721  1.0094  1.2399
 2753SOL    HW219719   1.477   2.416   8.356  1.1055  0.3433  1.1022
 2754SOL     OW19720   4.441   2.584   7.226 -0.4553 -0.1021  0.4334
 2754SOL    HW119721   4.497   2.661   7.221 -3.8499  2.3761  1.1042
 2754SOL    HW219722   4.352   2.619   7.233 -0.7484 -0.9995  1.2737
 2755SOL     OW19723   3.493   0.672   9.477  0.1847 -0.0924  0.3810
 2755SOL    HW119724   3.517   0.600   9.535 -0.8208 -2.0073 -1.5753
 2755SOL    HW219725   3.448   0.739   9.528  0.8724 -0.3357  1.3042
 2756SOL     OW19726   3.969   3.756   1.947 -0.4682 -0.2073 -0.8000
 2756SOL    HW119727   3.973   3.846   1.916  0.7731  0.0187 -0.0028
 2756SOL    HW219728   3.874   3.743   1.953 -0.5913  1.0070  0.0948
 2757SOL     OW19729   4.517   3.819   2.421  0.6926 -0.1137 -0.0579
 2757SOL    HW119730   4.482   3.760   2.487  1.1805 -0.9044 -0.5075
 2757SOL    HW219731   4.452   3.813   2.351 -1.2331 -2.5123  1.9630
 2758SOL     OW19732   4.003   0.692  14.308 -0.1458  0.2998 -0.0715
 2758SOL    HW119733   3.922   0.659  14.347  0.5151  1.1740  2.0368
 2758SOL    HW219734   4.061   0.657  14.375  0.2065  1.7711  0.3965
 2759SOL     OW19735   4.209   1.453  14.105 -0.5512  0.3410 -0.2456
 2759SOL    HW119736   4.203   1.392  14.179  1.0266  0.3441 -0.1327
 2759SOL    HW219737   4.136   1.423  14.050 -1.8326  0.4386  1.3915
 2760SOL     OW19738   0.971   2.316   5.365 -0.0722 -0.6034 -0.2559
 2760SOL    HW119739   0.981   2.399   5.319  0.8549 -0.4133  0.2926
 2760SOL    HW219740   1.055   2.277   5.343 -0.8873 -1.6837 -1.4080
 2761SOL     OW19741   2.634   4.684   5.837  0.2368 -0.4187  0.1857
 2761SOL    HW119742   2.595   4.598   5.854 -0.4109 -0.4182 -1.3222
 2761SOL    HW219743   2.704   4.694   5.902 -2.1331  0.6957  2.5443
 2762SOL     OW19744   2.664   4.709   3.600 -0.0196  0.1679 -0.1748
 2762SOL    HW119745   2.630   4.663   3.523  0.5044  0.9089 -0.8466
 2762SOL    HW219746   2.726   0.045   3.557 -1.1094 -0.7769 -3.0723
 2763SOL     OW19747   4.123   0.441   5.589  0.2281  0.4360 -0.5731
 2763SOL    HW119748   4.166   0.475   5.511 -1.4157  0.0706 -1.6202
 2763SOL    HW219749   4.033   0.434   5.558  1.1977  1.5979 -3.6808
 2764SOL     OW19750   0.905   4.248   8.650  0.0303 -0.2599  0.2001
 2764SOL    HW119751   0.872   4.189   8.717 -2.4071 -0.1699 -0.9175
 2764SOL    HW219752   0.982   4.278   8.699 -0.9303  2.0812  0.3029
 2765SOL     OW19753   0.763   0.681   1.767  0.1392 -0.5506  0.2514
 2765SOL    HW119754   0.686   0.723   1.805  0.8527  2.6043 -1.8619
 2765SOL    HW219755   0.714   0.617   1.714 -1.7605 -0.8738  2.3958
 2766SOL     OW19756   1.883   4.148   8.619 -0.4482 -0.1059 -0.0772
 2766SOL    HW119757   1.869   4.060   8.652 -0.3743 -0.8892 -2.1109
 2766SOL    HW219758   1.977   4.163   8.621 -0.4408  0.2179 -2.0872
 2767SOL     OW19759   0.191   3.755  12.139 -0.7270 -0.0155 -0.5255
 2767SOL    HW119760   0.180   3.679  12.082  0.4584 -0.9161  0.4527
 2767SOL    HW219761   0.240   3.802  12.072 -0.8314  0.6840 -0.1111
 2768SOL     OW19762   2.918   4.477  15.544 -0.0369 -0.5162  0.2214
 2768SOL    HW119763   2.823   4.468  15.530  0.1603 -1.8399 -0.2538
 2768SOL    HW219764   2.951   4.564  15.520  1.1622 -1.0799 -0.1691
 2769SOL     OW19765   2.502   2.145   8.746 -0.3700 -0.3294 -0.8094
 2769SOL    HW119766   2.519   2.079   8.813  0.4608 -0.6944 -1.3696
 2769SOL    HW219767   2.414   2.181   8.760  0.1736  0.1535  1.2727
 2770SOL     OW19768   0.548   4.131   2.726  0.0295  0.1435 -0.1288
 2770SOL    HW119769   0.629   4.134   2.673  0.1611  0.4543  0.0851
 2770SOL    HW219770   0.553   4.039   2.751 -0.3770  0.8397  2.5157
 2771SOL     OW19771   0.812   1.702   6.194 -0.1059 -0.0994  0.4322
 2771SOL    HW119772   0.814   1.704   6.290  2.6904 -0.9049  0.3964
 2771SOL    HW219773   0.853   1.786   6.173  0.6782 -0.7870 -0.7627
 2772SOL     OW19774   0.437   1.894   0.054  0.2064  0.2264  0.3001
 2772SOL    HW119775   0.421   1.804   0.081 -0.2647  0.9116  2.3106
 2772SOL    HW219776   0.377   1.939   0.113  2.9764  1.6511  2.0902
 2773SOL     OW19777   2.975   0.399   3.312 -0.1895  0.2142  0.5717
 2773SOL    HW119778   3.045   0.381   3.374  2.4159  2.0392 -1.8784
 2773SOL    HW219779   2.978   0.494   3.302  2.5691  0.3357  2.6969
 2774SOL     OW19780   1.958   3.815   5.906  0.2028 -0.1159 -0.2924
 2774SOL    HW119781   1.885   3.756   5.922  0.7094 -1.3429 -2.5516
 2774SOL    HW219782   1.912   3.895   5.879  0.0838  0.4502  1.6164
 2775SOL     OW19783   2.640   3.541   9.237  0.5713  0.5066 -0.4043
 2775SOL    HW119784   2.607   3.455   9.260  0.3606  0.4189 -1.0478
 2775SOL    HW219785   2.729   3.510   9.222  0.7310 -0.2453  2.1462
 2776SOL     OW19786   1.583   1.492   3.765 -0.2188 -0.4883 -0.3906
 2776SOL    HW119787   1.489   1.506   3.770 -0.2918 -0.8509 -0.8535
 2776SOL    HW219788   1.603   1.399   3.782  1.8574 -0.6156 -3.6100
 2777SOL     OW19789   3.267   2.385   4.391  0.6745 -0.2228 -0.1194
 2777SOL    HW119790   3.264   2.296   4.357 -0.1944  1.0599 -3.3875
 2777SOL    HW219791   3.360   2.404   4.383  0.7794 -0.1584  1.1890
 2778SOL     OW19792   2.005   0.674   5.605 -0.0971 -0.1839 -0.6171
 2778SOL    HW119793   1.987   0.699   5.696  0.9176 -1.6402 -0.0183
 2778SOL    HW219794   1.996   0.757   5.558  0.4050  0.9527  1.2976
 2779SOL     OW19795   2.175   4.345   3.493  0.1465 -0.3057  0.5987
 2779SOL    HW119796   2.163   4.395   3.412  1.2257  0.6667  1.0238
 2779SOL    HW219797   2.270   4.336   3.487  0.3273  0.2826  2.4626
 2780SOL     OW19798   3.504   4.629   8.361 -0.7491  0.6291  0.1311
 2780SOL    HW119799   3.521   4.623   8.267  0.5425 -0.4647  0.4222
 2780SOL    HW219800   3.470   4.544   8.388 -1.0802  1.3542  1.9765
 2781SOL     OW19801   2.343   2.903   4.803 -0.2888 -0.5055  0.1509
 2781SOL    HW119802   2.385   2.871   4.883 -0.4814 -1.0265  0.0446
 2781SOL    HW219803   2.355   2.827   4.746  0.7360 -1.3497  1.4977
 2782SOL     OW19804   0.045   3.935  11.788  0.3151  0.1585  0.9199
 2782SOL    HW119805   4.689   3.985  11.806 -0.6261 -0.9458 -0.1959
 2782SOL    HW219806   0.120   3.992  11.804  0.3799  1.0603 -2.7035
 2783SOL     OW19807   3.488   4.101   0.717  0.6095 -0.4225 -0.4836
 2783SOL    HW119808   3.463   4.102   0.625 -0.5129  1.2975 -0.1604
 2783SOL    HW219809   3.583   4.112   0.714  0.5414  0.1890 -0.5269
 2784SOL     OW19810   2.286   3.183   1.452  0.3975 -0.4327 -0.2892
 2784SOL    HW119811   2.375   3.208   1.477 -0.4468  1.5218  0.7929
 2784SOL    HW219812   2.264   3.113   1.513 -2.8013 -0.1335 -1.1101
 2785SOL     OW19813   3.337   4.271   1.339  0.0507 -0.1971 -0.3082
 2785SOL    HW119814   3.396   4.195   1.336 -0.0507 -0.3168  0.8472
 2785SOL    HW219815   3.394   4.331   1.290 -3.2873  1.7692 -1.7461
 2786SOL     OW19816   0.074   0.424  15.937 -0.6165 -0.1806 -0.1661
 2786SOL    HW119817   0.049   0.401  16.026  0.0397 -1.4276 -0.3073
 2786SOL    HW219818   4.719   0.390  15.893  0.7512 -2.4333 -0.8390
 2787SOL     OW19819   3.952   1.067   5.345 -0.2081 -0.0395  0.0905
 2787SOL    HW119820   3.879   1.093   5.290 -0.7484  2.2897  1.9129
 2787SOL    HW219821   3.963   1.137   5.410 -0.4138  0.3217 -0.2652
 2788SOL     OW19822   1.974   2.529  12.753  0.0549 -0.3471  0.1381
 2788SOL    HW119823   1.955   2.452  12.700 -1.2801  1.5174 -2.0984
 2788SOL    HW219824   2.068   2.524  12.769  0.2120 -0.7765 -0.9877
 2789SOL     OW19825   3.700   2.912   3.660 -0.1089 -0.3204 -0.3089
 2789SOL    HW119826   3.628   2.860   3.624 -2.2300  0.7892  2.3883
 2789SOL    HW219827   3.699   2.998   3.619  3.1048  0.3349  1.0003
 2790SOL     OW19828   1.035   3.213   0.223  0.1649  0.8239  0.5211
 2790SOL    HW119829   1.031   3.307   0.243 -3.3685  0.8685 -0.2989
 2790SOL    HW219830   0.957   3.180   0.268  0.1999 -0.8241 -0.6263
 2791SOL     OW19831   0.708   0.197   3.373  0.0145  0.0457 -0.3372
 2791SOL    HW119832   0.722   0.260   3.302  0.5185  1.3483  0.9187
 2791SOL    HW219833   0.797   0.191   3.407  0.3995  0.1416 -1.3281
 2792SOL     OW19834   3.694   1.554   0.031 -0.8552  0.0791  0.1470
 2792SOL    HW119835   3.682   1.470  17.684  1.8129  0.8358 -2.0779
 2792SOL    HW219836   3.719   1.523   0.118 -0.1930  0.7848  0.2063
 2793SOL     OW19837   2.862   0.607   4.392 -0.0654  0.0546 -0.1177
 2793SOL    HW119838   2.807   0.674   4.432  0.6172  0.4138  0.2309
 2793SOL    HW219839   2.820   0.529   4.427 -1.3997  1.3079  1.0306
 2794SOL     OW19840   4.594   4.315   4.851  0.3667 -0.1411  0.1060
 2794SOL    HW119841   4.605   4.405   4.819 -0.3908 -0.2792 -0.5358
 2794SOL    HW219842   4.681   4.277   4.843 -0.5596 -2.3243  0.6283
 2795SOL     OW19843   2.499   4.272   5.122  0.1637 -0.1013  0.2106
 2795SOL    HW119844   2.427   4.327   5.152  0.6346  0.6794 -0.0970
 2795SOL    HW219845   2.448   4.216   5.062  0.9095 -1.3720  0.7542
 2796SOL     OW19846   4.240   4.073   4.789 -0.2102  0.0682 -0.1630
 2796SOL    HW119847   4.294   4.138   4.834 -0.6358  0.8563 -0.8050
 2796SOL    HW219848   4.303   4.002   4.795 -1.0952 -0.5795  1.5247
 2797SOL     OW19849   4.420   3.444   1.896 -0.1701 -0.2721  0.4867
 2797SOL    HW119850   4.347   3.478   1.948 -0.0006  0.3260  0.3326
 2797SOL    HW219851   4.386   3.367   1.851 -1.2067  0.0348  0.7488
 2798SOL     OW19852   1.057   1.980   6.766  0.5358  0.2587 -0.5660
 2798SOL    HW119853   1.120   1.924   6.813 -1.0755 -0.1622  1.0724
 2798SOL    HW219854   1.016   2.025   6.839 -0.0859 -0.3970 -0.5054
 2799SOL     OW19855   2.098   2.540   4.136  0.0318 -0.2267 -0.1961
 2799SOL    HW119856   2.003   2.525   4.129  0.1908 -1.2384 -0.1784
 2799SOL    HW219857   2.128   2.450   4.139 -0.3282 -0.3388  0.0516
 2800SOL     OW19858   0.002   1.588   5.107  0.3707 -0.2761 -0.2209
 2800SOL    HW119859   0.041   1.670   5.076 -2.5732  0.7324 -1.3158
 2800SOL    HW219860   0.051   1.520   5.060 -3.4053 -1.7993 -1.9616
 2801SOL     OW19861   0.871   3.794   5.490  0.7628 -0.4293 -0.5096
 2801SOL    HW119862   0.827   3.709   5.482  0.4519 -0.2781 -0.4048
 2801SOL    HW219863   0.808   3.853   5.450  1.1391  1.1666  1.2332
 2802SOL     OW19864   1.969   0.110   3.425  0.4295 -0.7896  0.2131
 2802SOL    HW119865   2.028   0.182   3.448 -1.2020  0.6298 -0.0937
 2802SOL    HW219866   1.957   0.113   3.331 -0.1459 -1.9460  0.2484
 2803SOL     OW19867   0.455   1.778   9.996 -0.0033  0.3395 -0.0169
 2803SOL    HW119868   0.528   1.836  10.019  1.4114 -0.7751 -1.7929
 2803SOL    HW219869   0.461   1.722  10.073  1.2756 -0.9995 -1.0975
 2804SOL     OW19870   0.658   4.249   8.249  0.2827  0.1040  0.2344
 2804SOL    HW119871   0.716   4.297   8.308 -0.7554 -0.9216  2.0757
 2804SOL    HW219872   0.596   4.320   8.231 -0.0491  0.0966  1.3429
 2805SOL     OW19873   3.325   1.293   5.300 -0.3199  0.0479  0.5321
 2805SOL    HW119874   3.236   1.268   5.327  0.0601 -1.4882  0.3316
 2805SOL    HW219875   3.344   1.341   5.381 -0.7625  0.0945  0.6101
 2806SOL     OW19876   2.431   1.136   8.645  0.0304 -0.2448 -0.4172
 2806SOL    HW119877   2.407   1.222   8.680 -0.5414 -1.4965  2.1857
 2806SOL    HW219878   2.381   1.081   8.705 -0.8578  0.4850 -0.4902
 2807SOL     OW19879   2.808   0.790   8.536 -0.0740 -0.4414 -0.0764
 2807SOL    HW119880   2.902   0.808   8.542  0.3344 -2.2064 -1.3203
 2807SOL    HW219881   2.764   0.873   8.558  0.0549 -0.6534  1.0084
 2808SOL     OW19882   1.694   1.764   8.989 -0.2823 -0.5331  0.4837
 2808SOL    HW119883   1.620   1.703   9.003 -0.9340  0.2318  0.3568
 2808SOL    HW219884   1.743   1.744   9.069 -1.0521  2.5668  1.7108
 2809SOL     OW19885   0.626   4.302   4.152  0.3814  0.1198  0.5701
 2809SOL    HW119886   0.695   4.252   4.195  2.5603  3.4031  0.9524
 2809SOL    HW219887   0.672   4.348   4.082 -0.3211  1.0201  0.6997
 2810SOL     OW19888   0.484   0.030   8.396  0.2848 -0.2072 -0.1335
 2810SOL    HW119889   0.486   0.015   8.491 -1.1368 -0.5087 -0.1517
 2810SOL    HW219890   0.463   4.668   8.361  2.7536 -0.7521 -0.2591
 2811SOL     OW19891   0.357   1.952  12.875  0.4702 -0.6539 -0.4432
 2811SOL    HW119892   0.451   1.958  12.859  0.7905 -2.6300  0.8038
 2811SOL    HW219893   0.353   1.886  12.944 -0.5235  0.9900  1.0833
 2812SOL     OW19894   0.369   4.717   3.307  0.0754 -0.4954 -0.4201
 2812SOL    HW119895   0.298   0.022   3.249  0.2471  0.3695 -0.1977
 2812SOL    HW219896   0.415   4.666   3.241 -0.7255 -0.9619 -0.6170
 2813SOL     OW19897   2.767   3.649   2.485  0.0076  0.1672  0.0821
 2813SOL    HW119898   2.857   3.629   2.462  0.5232  2.2329  0.2835
 2813SOL    HW219899   2.765   3.616   2.575  0.5700  0.6592  0.2750
 2814SOL     OW19900   1.419   1.108  13.784  0.1352  0.1568 -0.0384
 2814SOL    HW119901   1.367   1.027  13.778  0.5731 -0.0348 -1.2572
 2814SOL    HW219902   1.436   1.139  13.695  2.2327  0.5041  0.4822
 2815SOL     OW19903   2.408   0.656   0.075 -0.4367 -0.4452 -0.0793
 2815SOL    HW119904   2.410   0.568   0.113 -0.2354 -0.2321  0.3970
 2815SOL    HW219905   2.325   0.690   0.108  0.3192  2.7461 -1.5306
 2816SOL     OW19906   4.133   1.562  16.524 -0.4240  0.0122 -0.6569
 2816SOL    HW119907   4.172   1.642  16.559  0.5725  0.4498 -2.7509
 2816SOL    HW219908   4.080   1.609  16.460  0.5692  0.4491 -1.1498
 2817SOL     OW19909   3.102   3.829   2.293 -0.3848 -0.1851 -0.7009
 2817SOL    HW119910   3.028   3.786   2.250  1.4767 -1.7253 -2.3739
 2817SOL    HW219911   3.060   3.859   2.373  0.2830 -0.2022 -0.3460
 2818SOL     OW19912   3.471   2.591  15.406 -0.4233 -0.3229 -0.7584
 2818SOL    HW119913   3.492   2.574  15.498 -0.6689  0.8975 -0.4802
 2818SOL    HW219914   3.484   2.686  15.406 -0.0914 -0.3541  1.8302
 2819SOL     OW19915   4.263   3.456   8.071  0.0160  0.2060  0.2415
 2819SOL    HW119916   4.177   3.453   8.112  0.1700  1.7611  0.6560
 2819SOL    HW219917   4.314   3.484   8.147  2.1212  1.9414 -1.7973
 2820SOL     OW19918   4.062   0.372  16.870 -0.2671 -0.5028  1.1386
 2820SOL    HW119919   3.999   0.407  16.807 -0.2417 -0.9781  0.8465
 2820SOL    HW219920   4.020   0.416  16.944  1.4973  1.0803  1.1980
 2821SOL     OW19921   4.145   1.359   0.566  0.4267 -0.5826  0.0248
 2821SOL    HW119922   4.116   1.271   0.590 -0.7417  0.3145  1.9321
 2821SOL    HW219923   4.082   1.408   0.619 -0.6533 -0.4654 -1.3629
 2822SOL     OW19924   2.724   2.473   4.311  0.1227 -0.1070 -0.8241
 2822SOL    HW119925   2.755   2.502   4.225  0.3916 -2.2341 -1.4316
 2822SOL    HW219926   2.759   2.385   4.324 -0.8495 -0.0110  2.3206
 2823SOL     OW19927   3.361   3.222   4.058 -0.4906  0.9634 -0.2743
 2823SOL    HW119928   3.382   3.288   4.124  0.9147 -0.4059  0.6633
 2823SOL    HW219929   3.414   3.149   4.091  0.4364  2.4704  1.4972
 2824SOL     OW19930   1.190   4.607   4.262  0.2039  0.1058  0.1926
 2824SOL    HW119931   1.281   4.578   4.269  0.1603 -0.3114 -0.9497
 2824SOL    HW219932   1.197   4.681   4.201 -0.2930  0.5407  0.6601
 2825SOL     OW19933   0.693   4.558  11.054 -0.1039 -0.1531  0.3950
 2825SOL    HW119934   0.785   4.538  11.036 -0.2149  1.3259 -1.8367
 2825SOL    HW219935   0.657   4.494  10.992  1.8564 -0.0153 -0.8877
 2826SOL     OW19936   0.324   0.366   9.926 -0.0826  0.2408 -0.6977
 2826SOL    HW119937   0.343   0.455   9.954  2.0498 -0.0708 -1.1094
 2826SOL    HW219938   0.346   0.369   9.832  1.0716 -0.1120 -0.4474
 2827SOL     OW19939   4.110   3.584   5.750  0.1940 -0.1685  0.7843
 2827SOL    HW119940   4.072   3.670   5.733  1.1427  0.2006  0.5370
 2827SOL    HW219941   4.075   3.577   5.839 -0.5137 -0.7584  0.4576
 2828SOL     OW19942   4.344   0.880   0.400 -0.1299 -0.1783  0.1937
 2828SOL    HW119943   4.249   0.871   0.391  0.0980 -2.1925 -0.2479
 2828SOL    HW219944   4.379   0.812   0.342  0.6895 -0.0623  0.5564
 2829SOL     OW19945   0.428   1.411   8.787 -0.1835  0.3850 -0.0331
 2829SOL    HW119946   0.419   1.316   8.786 -3.0669  0.6557 -0.0864
 2829SOL    HW219947   0.521   1.433   8.779 -0.2445  1.2813  1.7096
 2830SOL     OW19948   0.785   4.399   9.047  0.1239  0.4066 -0.2097
 2830SOL    HW119949   0.813   4.384   9.138 -0.5910 -1.8251 -0.3558
 2830SOL    HW219950   0.718   4.467   9.056 -1.0336 -1.1501  3.0193
 2831SOL     OW19951   3.723   1.785   6.543  0.2534  0.5525 -0.1214
 2831SOL    HW119952   3.777   1.733   6.604 -0.7394 -0.9198 -0.4932
 2831SOL    HW219953   3.636   1.750   6.560  0.8399 -0.3862  1.0109
 2832SOL     OW19954   4.561   2.973  11.712  1.4184 -0.2051  0.3048
 2832SOL    HW119955   4.522   3.044  11.661 -0.7273 -2.0261 -0.5921
 2832SOL    HW219956   4.551   3.001  11.803  3.6630  1.0416  0.1681
 2833SOL     OW19957   1.057   2.498  17.680  0.2999  0.6638 -0.2572
 2833SOL    HW119958   1.104   2.581  17.691  0.9062  0.2915 -0.1049
 2833SOL    HW219959   0.973   2.525  17.643  0.2032 -0.2661 -0.6919
 2834SOL     OW19960   4.456   1.734  10.382 -0.1762 -0.1202  0.0927
 2834SOL    HW119961   4.379   1.683  10.357 -1.6849  0.9680  2.5194
 2834SOL    HW219962   4.450   1.736  10.478  2.2439 -0.2964  0.2697
 2835SOL     OW19963   0.374   4.268   7.542 -0.2302  0.6183  0.3439
 2835SOL    HW119964   0.324   4.232   7.469 -0.7663  2.8408 -0.3939
 2835SOL    HW219965   0.302   4.295   7.599 -0.6437 -0.3118  0.2621
 2836SOL     OW19966   3.321   0.762  15.024 -0.0054 -0.1399 -0.2300
 2836SOL    HW119967   3.333   0.669  15.004  0.1384 -0.7347  2.6415
 2836SOL    HW219968   3.231   0.742  15.050  0.3338 -0.0274  0.9910
 2837SOL     OW19969   2.715   2.893  16.904  0.3778 -0.4967  0.6870
 2837SOL    HW119970   2.709   2.859  16.993  0.3426 -0.1507  0.8160
 2837SOL    HW219971   2.636   2.860  16.861 -0.9181  2.9823  0.3965
 2838SOL     OW19972   2.439   0.411   6.829  0.5925 -0.4047 -0.0509
 2838SOL    HW119973   2.383   0.384   6.902 -0.4924 -0.3822 -0.8769
 2838SOL    HW219974   2.493   0.475   6.875 -0.1795  0.3557 -0.2044
 2839SOL     OW19975   0.076   4.611   8.948 -0.5285 -0.1087 -0.0364
 2839SOL    HW119976   0.093   4.613   9.042 -0.4224  0.7416 -0.0734
 2839SOL    HW219977   0.125   4.692   8.934 -1.6384 -0.0280 -3.4706
 2840SOL     OW19978   3.264   1.135  13.616  0.2816  0.1929  0.2087
 2840SOL    HW119979   3.300   1.152  13.703  0.0071 -1.4636  0.6518
 2840SOL    HW219980   3.182   1.185  13.623  0.1887  0.1515 -0.6575
 2841SOL     OW19981   0.637   1.715  16.018 -0.2984  0.5071 -0.3721
 2841SOL    HW119982   0.561   1.676  15.977  0.0109 -1.2837  0.7209
 2841SOL    HW219983   0.630   1.676  16.105 -1.6019  0.0149 -0.7001
 2842SOL     OW19984   2.964   4.430  16.462 -0.4609 -0.0696  0.2666
 2842SOL    HW119985   2.880   4.426  16.417  0.3254 -1.2403 -1.0892
 2842SOL    HW219986   3.021   4.436  16.385  1.6962 -1.0411  1.7682
 2843SOL     OW19987   0.796   4.424   7.078  0.0794 -0.7100  0.0080
 2843SOL    HW119988   0.743   4.361   7.028 -1.6812 -1.3492  2.7059
 2843SOL    HW219989   0.822   4.364   7.147  0.4241 -0.2340  0.2821
 2844SOL     OW19990   1.364   3.385  17.424  0.1900 -0.0642 -0.0226
 2844SOL    HW119991   1.403   3.301  17.401 -1.4722 -1.7664  3.4220
 2844SOL    HW219992   1.437   3.445  17.405  0.0596  0.8488  2.3744
 2845SOL     OW19993   1.477   3.220  12.172 -0.3772 -0.0990  0.3171
 2845SOL    HW119994   1.529   3.283  12.223 -0.8655 -0.1902  0.9242
 2845SOL    HW219995   1.524   3.226  12.089 -1.2473  1.9144 -0.0207
 2846SOL     OW19996   1.432   4.528   7.475 -0.3501  0.0532  0.2666
 2846SOL    HW119997   1.511   4.554   7.524  0.1548 -0.7641 -0.1160
 2846SOL    HW219998   1.366   4.520   7.543  0.4705 -2.2276  0.7999
 2847SOL     OW19999   2.833   4.520  12.750  0.1947 -0.3218  0.5454
 2847SOL    HW120000   2.842   4.485  12.661  0.5159  0.3155  0.3317
 2847SOL    HW220001   2.749   4.566  12.743  0.5713  0.2885 -0.0796
 2848SOL     OW20002   1.099   0.093   3.578  0.2945 -0.0423 -0.2676
 2848SOL    HW120003   1.076   0.184   3.597 -0.6086  0.2390 -2.6680
 2848SOL    HW220004   1.191   0.098   3.551  0.5994  1.9202  1.1550
 2849SOL     OW20005   4.698   4.541  11.240 -0.2483  0.6733 -0.7270
 2849SOL    HW120006   0.031   4.516  11.312  2.0725  1.5150 -2.2746
 2849SOL    HW220007   4.628   4.477  11.251  1.3460 -0.8724  0.3558
 2850SOL     OW20008   0.866   0.625   6.725  0.0789  0.4446 -0.5963
 2850SOL    HW120009   0.856   0.697   6.788  2.4449 -2.0830  2.7025
 2850SOL    HW220010   0.789   0.569   6.732 -0.0078  0.5358 -0.8343
 2851SOL     OW20011   1.714   1.141   7.592 -0.0340 -0.0449 -0.5891
 2851SOL    HW120012   1.766   1.126   7.671 -1.0217 -0.4110 -0.0164
 2851SOL    HW220013   1.626   1.123   7.623  0.0069  3.0942  1.3609
 2852SOL     OW20014   2.985   1.997   4.379  0.6662 -0.4348  0.2140
 2852SOL    HW120015   2.958   1.946   4.302 -0.9351  1.1511 -0.2903
 2852SOL    HW220016   2.968   1.932   4.448 -2.6114  0.0911 -0.0836
 2853SOL     OW20017   0.494   4.438   3.278 -0.0205 -0.0023 -0.3391
 2853SOL    HW120018   0.550   4.368   3.244  1.7713  1.5882 -0.6518
 2853SOL    HW220019   0.553   4.499   3.324 -1.7028  2.6156 -1.6826
 2854SOL     OW20020   4.189   3.087   7.033  0.0434  0.4210  0.1323
 2854SOL    HW120021   4.120   3.056   7.091 -0.5489  0.1409 -0.7228
 2854SOL    HW220022   4.240   3.137   7.097  2.0907  1.4826 -2.3193
 2855SOL     OW20023   0.313   1.211   5.902 -0.5718 -0.1760 -0.3103
 2855SOL    HW120024   0.280   1.124   5.881 -0.5393  0.0467 -1.2840
 2855SOL    HW220025   0.323   1.200   5.997  1.2608  3.3130 -0.0890
 2856SOL     OW20026   3.643   0.151   1.773  0.1738  0.2149 -0.5828
 2856SOL    HW120027   3.651   0.245   1.757 -1.6462  0.6439  0.9699
 2856SOL    HW220028   3.717   0.127   1.718  1.4017  0.2928  1.0308
 2857SOL     OW20029   4.013   0.898   0.521 -0.0109  0.0647  0.0303
 2857SOL    HW120030   4.049   0.964   0.580 -1.5274 -0.2535  1.3363
 2857SOL    HW220031   3.964   0.946   0.455 -0.2820 -1.1595 -0.6475
 2858SOL     OW20032   1.997   3.339   4.227 -0.5370 -0.1933  0.5323
 2858SOL    HW120033   2.058   3.319   4.157 -2.8615 -0.5043 -1.4028
 2858SOL    HW220034   2.048   3.383   4.296  1.7161 -0.0972 -1.2125
 2859SOL     OW20035   0.050   1.068  15.690 -0.3217  0.5262 -0.2711
 2859SOL    HW120036   0.044   1.094  15.598 -2.6497  0.1162 -0.2369
 2859SOL    HW220037   4.712   0.995  15.687  0.7653 -0.4256  0.4466
 2860SOL     OW20038   0.173   1.027   3.312  0.4588 -0.8186  0.5063
 2860SOL    HW120039   0.238   0.961   3.288  2.1430  0.8333  0.5117
 2860SOL    HW220040   0.091   0.982   3.294  0.3731  0.8517 -3.3316
 2861SOL     OW20041   1.014   0.762  11.475  0.0117  0.3242 -0.6580
 2861SOL    HW120042   0.987   0.824  11.543  1.1509 -0.1917  0.2546
 2861SOL    HW220043   0.956   0.691  11.500  2.0902 -1.8379 -1.9879
 2862SOL     OW20044   4.454   4.091  12.242 -0.1285  0.3938  0.2391
 2862SOL    HW120045   4.549   4.085  12.253 -0.2332 -0.3562  0.7907
 2862SOL    HW220046   4.452   4.167  12.185  0.5677  1.6800  1.9535
 2863SOL     OW20047   3.461   0.560   7.911 -0.3870 -0.1137  0.0346
 2863SOL    HW120048   3.549   0.535   7.936  0.6930  2.1699 -1.4816
 2863SOL    HW220049   3.468   0.557   7.815  0.3339  0.3309  0.0724
 2864SOL     OW20050   0.600   2.892   7.221  0.0389  0.5206  0.0841
 2864SOL    HW120051   0.553   2.810   7.236 -2.2382  1.9164  0.6352
 2864SOL    HW220052   0.674   2.890   7.281  0.8940  0.0949 -0.9720
 2865SOL     OW20053   0.545   2.793  17.328 -0.3401  0.0591  0.1115
 2865SOL    HW120054   0.547   2.720  17.390 -3.8210 -0.5807 -0.5481
 2865SOL    HW220055   0.636   2.787  17.299 -0.3947  0.5118 -0.1474
 2866SOL     OW20056   4.223   1.625   0.429  0.4909  0.1071 -0.7674
 2866SOL    HW120057   4.313   1.638   0.461  0.1792 -0.1026  0.1775
 2866SOL    HW220058   4.195   1.713   0.456 -0.7402 -0.5494  0.0316
 2867SOL     OW20059   0.256   1.593  17.407 -0.2051  0.0014 -0.1529
 2867SOL    HW120060   0.198   1.663  17.437  0.3231 -0.1241  1.1525
 2867SOL    HW220061   0.195   1.520  17.407  0.4434 -0.5242  3.3694
 2868SOL     OW20062   4.199   2.721   7.564 -0.1393 -0.6242  0.3590
 2868SOL    HW120063   4.122   2.664   7.574 -0.1374 -0.7562 -0.3860
 2868SOL    HW220064   4.171   2.769   7.487 -2.1386 -2.2438  0.0601
 2869SOL     OW20065   2.716   4.125   3.184 -0.2152  0.0574 -0.0141
 2869SOL    HW120066   2.676   4.054   3.134  0.2411 -0.1930 -0.0207
 2869SOL    HW220067   2.722   4.184   3.109 -0.9239 -0.2263 -0.2899
 2870SOL     OW20068   1.098   2.999   0.728 -0.1838  0.1906 -0.3072
 2870SOL    HW120069   1.165   3.054   0.769 -0.2991 -1.0826  1.5890
 2870SOL    HW220070   1.156   2.960   0.662 -0.2553 -0.3240 -0.0675
 2871SOL     OW20071   4.641   3.103  14.385  0.9170 -0.7807  0.0100
 2871SOL    HW120072   4.650   3.009  14.398  0.4631 -0.9055 -0.5784
 2871SOL    HW220073   4.712   3.139  14.439 -0.3156  2.8791 -0.7454
 2872SOL     OW20074   1.129   0.943   6.228  0.1623  0.8644  0.1768
 2872SOL    HW120075   1.110   0.999   6.153 -1.8712 -0.6192 -0.4279
 2872SOL    HW220076   1.046   0.945   6.276  0.2012 -2.3023  0.3798
 2873SOL     OW20077   2.571   1.066  10.710 -0.0660  0.7491 -0.4188
 2873SOL    HW120078   2.477   1.083  10.722 -0.5370 -2.1409  0.0487
 2873SOL    HW220079   2.601   1.149  10.746 -2.0801  1.4729 -0.3910
 2874SOL     OW20080   2.616   1.839   0.890  0.9522  0.1384 -0.3670
 2874SOL    HW120081   2.633   1.847   0.796 -0.1089  2.3504 -0.3690
 2874SOL    HW220082   2.533   1.791   0.880  1.0196 -0.4527  1.8383
 2875SOL     OW20083   3.717   3.587   1.699  0.0561  0.0364  0.3092
 2875SOL    HW120084   3.722   3.658   1.762 -1.3549 -0.5696  1.0940
 2875SOL    HW220085   3.806   3.551   1.700  0.6883  1.6754  1.6737
 2876SOL     OW20086   3.795   4.327  11.416 -0.0128 -0.9945  0.1268
 2876SOL    HW120087   3.866   4.390  11.430 -1.0304 -0.0780  1.1515
 2876SOL    HW220088   3.829   4.249  11.460  0.0092 -2.0519 -1.7625
 2877SOL     OW20089   1.702   3.845   3.027 -0.4685 -0.1311  0.2868
 2877SOL    HW120090   1.718   3.881   3.115 -0.4848 -0.3406  0.3755
 2877SOL    HW220091   1.684   3.931   2.989  1.7908  0.6382  0.9182
 2878SOL     OW20092   0.917   1.302   2.201  0.5594 -0.2042  0.1815
 2878SOL    HW120093   0.917   1.273   2.110  3.3843 -3.5603  1.2111
 2878SOL    HW220094   0.823   1.288   2.207  0.6571 -0.3927  1.3397
 2879SOL     OW20095   3.831   0.081   4.639 -0.3924  0.2694  0.8409
 2879SOL    HW120096   3.877   0.007   4.679 -0.0036  0.5193  0.8542
 2879SOL    HW220097   3.837   0.140   4.714 -1.2190  0.6737  0.5970
 2880SOL     OW20098   3.010   2.346   8.513  0.1803 -0.1046  0.1781
 2880SOL    HW120099   3.072   2.384   8.450 -1.3714  0.8147 -0.8101
 2880SOL    HW220100   3.058   2.264   8.528 -1.2175 -1.3950 -2.3098
 2881SOL     OW20101   3.863   1.509   5.855  0.7891  0.3444 -0.0196
 2881SOL    HW120102   3.903   1.424   5.873 -1.0050 -0.2831  0.9675
 2881SOL    HW220103   3.856   1.506   5.759  0.8058 -0.6391  0.0112
 2882SOL     OW20104   2.407   0.623   8.197 -0.0935  0.1667  0.2101
 2882SOL    HW120105   2.479   0.673   8.235  0.3459  0.0283 -0.4372
 2882SOL    HW220106   2.328   0.660   8.237 -0.1335 -0.8702  1.0831
 2883SOL     OW20107   0.361   0.251   2.136 -0.9050  0.2850 -0.0172
 2883SOL    HW120108   0.352   0.218   2.225  0.2201 -0.8286 -0.3160
 2883SOL    HW220109   0.347   0.170   2.087 -0.5451 -0.1635  0.6231
 2884SOL     OW20110   1.607   2.886   6.298  0.6203 -0.3341  0.8288
 2884SOL    HW120111   1.549   2.813   6.316  0.7724 -0.9268 -1.0872
 2884SOL    HW220112   1.673   2.885   6.368 -0.3390  0.1981  1.7357
 2885SOL     OW20113   0.194   0.926   7.956 -0.2091 -0.1950  0.5839
 2885SOL    HW120114   0.122   0.904   8.014 -1.1816 -0.7306 -0.8464
 2885SOL    HW220115   0.252   0.976   8.014 -0.9788  0.3426  0.8845
 2886SOL     OW20116   2.267   1.717   7.602 -0.3566 -0.0008  0.2554
 2886SOL    HW120117   2.288   1.640   7.655  0.4833  0.4628  0.5910
 2886SOL    HW220118   2.307   1.693   7.518  1.2445  2.4590  0.2993
 2887SOL     OW20119   4.204   4.282   4.550 -0.6366 -0.5803 -0.3597
 2887SOL    HW120120   4.182   4.199   4.508 -0.1304 -1.3115  0.8405
 2887SOL    HW220121   4.295   4.264   4.576 -1.4060 -0.8237  2.1074
 2888SOL     OW20122   2.448   3.211   8.735  0.2819  0.0856  0.2162
 2888SOL    HW120123   2.353   3.199   8.723 -0.0672  0.6632  2.3500
 2888SOL    HW220124   2.474   3.133   8.784 -1.6867 -0.9132 -0.3369
 2889SOL     OW20125   3.026   2.381  10.479 -1.0063 -0.0504  0.2711
 2889SOL    HW120126   2.968   2.305  10.485  0.8217 -1.3537  1.4614
 2889SOL    HW220127   3.058   2.387  10.569 -1.7313 -1.1680  0.6030
 2890SOL     OW20128   0.320   1.809   4.769 -0.0970 -0.4882 -0.3337
 2890SOL    HW120129   0.403   1.816   4.722 -1.3100 -0.5859 -2.5016
 2890SOL    HW220130   0.315   1.885   4.827  0.6622  0.1658 -1.1297
 2891SOL     OW20131   4.410   1.564   4.462  0.3710 -0.8367 -0.2455
 2891SOL    HW120132   4.499   1.600   4.458  0.3426 -0.6945  0.2929
 2891SOL    HW220133   4.435   1.477   4.430  1.5879 -0.7495  0.4673
 2892SOL     OW20134   2.057   2.552  14.827 -0.3526 -0.0566 -0.2575
 2892SOL    HW120135   2.043   2.495  14.751 -1.3896 -1.9261  1.3637
 2892SOL    HW220136   2.111   2.496  14.881 -0.9821  1.3171  1.7905
 2893SOL     OW20137   4.354   2.203   3.606  0.1600 -0.1293 -0.7600
 2893SOL    HW120138   4.264   2.181   3.627  0.1915  1.2162  0.7760
 2893SOL    HW220139   4.391   2.156   3.680  0.7852  0.0381 -0.9629
 2894SOL     OW20140   3.818   0.497  13.299 -0.1849  0.0797  0.2502
 2894SOL    HW120141   3.769   0.564  13.346  1.1812  1.8351 -0.8181
 2894SOL    HW220142   3.820   0.427  13.364  0.7958 -0.7599 -0.6728
 2895SOL     OW20143   3.225   3.944  14.143 -0.1377  0.4519  0.0779
 2895SOL    HW120144   3.140   3.900  14.144 -0.5098  1.2528  2.3434
 2895SOL    HW220145   3.243   3.962  14.235  0.8477  0.8920 -0.2067
 2896SOL     OW20146   2.834   4.474  13.635  0.1761 -1.0869  0.9434
 2896SOL    HW120147   2.815   4.560  13.597 -0.9812 -1.4015  0.7931
 2896SOL    HW220148   2.848   4.425  13.553 -1.7688 -0.2881  0.1352
 2897SOL     OW20149   1.683   2.599   2.302  0.3405 -0.6453 -0.0187
 2897SOL    HW120150   1.604   2.545   2.303 -0.7996  1.0350  0.2082
 2897SOL    HW220151   1.644   2.686   2.308  1.0462 -0.5249  2.9552
 2898SOL     OW20152   3.120   3.477  12.597 -0.2492  0.0505  0.1800
 2898SOL    HW120153   3.049   3.414  12.583  1.1745 -1.3376 -0.7601
 2898SOL    HW220154   3.091   3.526  12.674 -0.0334 -0.2694  0.4647
 2899SOL     OW20155   1.018   2.120  10.133  0.3915  0.1931 -0.4387
 2899SOL    HW120156   1.048   2.201  10.093 -1.7349  1.8705  1.3683
 2899SOL    HW220157   1.077   2.054  10.095  0.8285  0.2831  0.0740
 2900SOL     OW20158   1.315   3.977  11.862  0.2776  0.0203  0.1371
 2900SOL    HW120159   1.336   3.934  11.779 -1.2829  0.3481 -0.4047
 2900SOL    HW220160   1.259   3.908  11.897 -1.1641  1.3093  0.3529
 2901SOL     OW20161   2.118   4.475   3.864 -0.4639  0.4265  0.2128
 2901SOL    HW120162   2.133   4.516   3.779  0.5720 -2.1477 -0.8371
 2901SOL    HW220163   2.026   4.500   3.871 -0.9382 -1.5879  1.0830
 2902SOL     OW20164   1.410   3.949   4.200 -0.1765 -0.2869  0.6666
 2902SOL    HW120165   1.422   3.975   4.292 -0.7709  2.8477 -0.1478
 2902SOL    HW220166   1.400   3.855   4.214 -2.3920 -0.1035  0.2676
 2903SOL     OW20167   1.546   4.591   3.751 -0.0489  0.2906  0.2331
 2903SOL    HW120168   1.621   4.645   3.726 -0.7068 -0.4341 -3.2598
 2903SOL    HW220169   1.514   4.617   3.837 -1.0680 -0.7020  0.1603
 2904SOL     OW20170   0.074   3.124   4.747  0.2806  0.7886 -0.0042
 2904SOL    HW120171   0.081   3.127   4.842  0.7133  4.2129 -0.1267
 2904SOL    HW220172   0.137   3.054   4.733  0.1088  0.3436  1.4764
 2905SOL     OW20173   2.197   3.470  16.159 -0.1543  0.2997 -0.3042
 2905SOL    HW120174   2.287   3.440  16.143 -0.1197  0.0262  0.4160
 2905SOL    HW220175   2.216   3.537  16.225 -0.3322 -1.8850  1.9487
 2906SOL     OW20176   2.307   4.143   8.977  0.1437 -0.5788  0.4343
 2906SOL    HW120177   2.309   4.078   9.047 -0.1976  0.4725  1.4217
 2906SOL    HW220178   2.387   4.122   8.929  0.6829 -0.2830  1.2042
 2907SOL     OW20179   3.577   0.673   7.603  0.0450 -0.1719  0.4430
 2907SOL    HW120180   3.535   0.587   7.593  2.2238 -0.7825 -3.4213
 2907SOL    HW220181   3.650   0.656   7.663  1.4009 -3.1060 -2.0811
 2908SOL     OW20182   1.633   3.714   5.297  0.0191  0.0017 -0.2552
 2908SOL    HW120183   1.706   3.729   5.237 -0.1030 -1.3662 -0.7429
 2908SOL    HW220184   1.623   3.619   5.290  0.6062  0.0770 -2.3665
 2909SOL     OW20185   4.629   2.711   6.938 -0.2035  0.1988 -0.0822
 2909SOL    HW120186   4.600   2.718   7.029 -3.5032 -1.9604 -1.0007
 2909SOL    HW220187   4.546   2.706   6.890 -0.5252 -0.2267  0.5191
 2910SOL     OW20188   3.739   1.542   3.509 -0.1670 -0.4273 -0.5849
 2910SOL    HW120189   3.661   1.552   3.454 -0.9047 -1.6122  0.2403
 2910SOL    HW220190   3.803   1.597   3.464 -1.3815  0.8908 -0.6926
 2911SOL     OW20191   2.206   0.562  12.596  0.7029 -0.4326  0.4681
 2911SOL    HW120192   2.129   0.507  12.582  0.2623  0.1328  0.6522
 2911SOL    HW220193   2.261   0.501  12.645  1.4964  1.6498  2.1696
 2912SOL     OW20194   3.456   2.166   3.750 -0.4974  0.0777  0.3867
 2912SOL    HW120195   3.546   2.189   3.729 -0.7716 -0.4123 -1.4157
 2912SOL    HW220196   3.442   2.102   3.680 -1.4549 -1.1283  1.6771
 2913SOL     OW20197   0.195   4.173   8.204 -0.1221  0.0415  0.2310
 2913SOL    HW120198   0.179   4.176   8.109 -1.4007  2.1019  0.5156
 2913SOL    HW220199   0.290   4.161   8.216  0.4297  1.8146 -2.3827
 2914SOL     OW20200   1.885   2.861  14.226 -0.6212  0.4707  0.2118
 2914SOL    HW120201   1.932   2.783  14.256  0.8301  1.6760  1.0740
 2914SOL    HW220202   1.797   2.834  14.253  0.1778 -1.1141  1.2328
 2915SOL     OW20203   2.707   0.338   5.965  0.4307  0.0623  0.1138
 2915SOL    HW120204   2.746   0.395   6.031 -0.3137 -1.8959  2.2765
 2915SOL    HW220205   2.786   0.309   5.918  1.0253  1.1195  0.4729
 2916SOL     OW20206   0.478   3.051   5.532  0.1999 -0.7577 -0.1773
 2916SOL    HW120207   0.425   3.030   5.608  0.4535 -0.5961  0.0421
 2916SOL    HW220208   0.425   3.124   5.499  1.3691 -0.3535 -1.1532
 2917SOL     OW20209   3.717   1.142   1.586  0.0643 -0.0736  0.4172
 2917SOL    HW120210   3.692   1.051   1.603 -0.5827  0.1731  0.7737
 2917SOL    HW220211   3.751   1.175   1.669  2.7259  0.2517 -0.7898
 2918SOL     OW20212   0.625   3.149   2.615  0.1670  0.2561 -0.3617
 2918SOL    HW120213   0.707   3.197   2.609  0.7416 -0.5969  0.6878
 2918SOL    HW220214   0.584   3.190   2.539 -1.9551  0.6253  0.9951
 2919SOL     OW20215   3.738   1.354   4.519  0.0993 -0.0713 -0.5568
 2919SOL    HW120216   3.779   1.268   4.529 -0.3026 -0.0963  0.8613
 2919SOL    HW220217   3.703   1.356   4.430  1.1760  0.8324 -0.9598
 2920SOL     OW20218   0.766   3.658   1.991  0.2609 -0.1196 -0.7800
 2920SOL    HW120219   0.693   3.596   1.983  0.9645 -0.9269 -0.9303
 2920SOL    HW220220   0.772   3.676   2.084 -1.4318 -4.2053  0.1449
 2921SOL     OW20221   0.725   3.839   8.631 -0.3970 -0.2820  0.5446
 2921SOL    HW120222   0.638   3.841   8.670 -0.8468  3.5038 -0.6265
 2921SOL    HW220223   0.794   3.870   8.690 -1.6009  0.8664  1.3446
 2922SOL     OW20224   2.013   2.006   8.197 -0.0002  0.5274  0.1481
 2922SOL    HW120225   1.982   2.035   8.283 -2.6635 -0.4804 -0.4785
 2922SOL    HW220226   1.937   2.003   8.139 -0.6754  2.0254  0.9356
 2923SOL     OW20227   1.947   4.054   3.043  0.2724  0.2598 -0.3690
 2923SOL    HW120228   1.970   4.145   3.060 -3.3227  0.9443  0.8301
 2923SOL    HW220229   1.998   4.034   2.965 -0.2883 -0.8943 -0.4502
 2924SOL     OW20230   1.459   4.573   8.858 -0.1109 -0.3165  0.3572
 2924SOL    HW120231   1.544   4.552   8.898  0.1106  1.3007  0.7489
 2924SOL    HW220232   1.467   4.662   8.823  4.4893 -0.5097  0.9158
 2925SOL     OW20233   4.421   2.196   7.745  0.0676  0.2149  0.4780
 2925SOL    HW120234   4.381   2.283   7.746  0.6010  0.4254  2.9849
 2925SOL    HW220235   4.342   2.143   7.736 -1.6185  2.6071  1.2431
 2926SOL     OW20236   0.591   3.180   4.005 -0.0540  0.2351  1.1260
 2926SOL    HW120237   0.610   3.167   4.098 -0.3306  1.0189  1.2994
 2926SOL    HW220238   0.654   3.116   3.973  0.1244  1.4363 -0.9346
 2927SOL     OW20239   3.247   1.793   0.933  0.1102  0.3896 -0.1043
 2927SOL    HW120240   3.258   1.851   0.858  1.7378 -1.9508 -1.6629
 2927SOL    HW220241   3.326   1.740   0.926  0.4807  1.0069 -0.5235
 2928SOL     OW20242   2.992   0.846  14.622  0.6044 -0.2697  0.3006
 2928SOL    HW120243   3.003   0.787  14.547  0.9984  0.5365 -0.2684
 2928SOL    HW220244   2.898   0.840  14.639  0.6301  1.8127  1.1736
 2929SOL     OW20245   2.975   1.907   0.998  0.0432 -0.7205 -0.3832
 2929SOL    HW120246   2.933   1.947   0.922 -1.2175 -0.6841  0.3221
 2929SOL    HW220247   3.069   1.916   0.987 -0.2816  1.6657 -1.3330
 2930SOL     OW20248   4.471   3.349   4.691 -0.4673 -0.1862 -0.1620
 2930SOL    HW120249   4.546   3.352   4.751  0.3055 -1.4645 -1.0739
 2930SOL    HW220250   4.419   3.276   4.725  1.3269 -0.2970  2.3082
 2931SOL     OW20251   4.409   1.340   0.020  0.1608 -0.2110  0.2889
 2931SOL    HW120252   4.468   1.278   0.063 -0.0289  0.7132  1.8683
 2931SOL    HW220253   4.326   1.293   0.026  0.7967 -1.4813 -0.8705
 2932SOL     OW20254   4.290   4.626   4.372 -0.0808 -0.4534  0.0813
 2932SOL    HW120255   4.219   4.646   4.311 -0.0575 -0.1089  0.1636
 2932SOL    HW220256   4.348   4.702   4.363  0.6123 -0.9997 -0.1005
 2933SOL     OW20257   1.664   3.141  11.313  0.0780  0.2682  0.2234
 2933SOL    HW120258   1.660   3.165  11.221 -0.4237 -0.6492  0.0038
 2933SOL    HW220259   1.613   3.060  11.317  0.6334  0.0785  3.4318
 2934SOL     OW20260   4.445   2.324   0.561  0.1136 -0.5592  0.3411
 2934SOL    HW120261   4.390   2.395   0.593  0.0930 -0.7900  0.8293
 2934SOL    HW220262   4.473   2.348   0.473  0.0422 -1.2289  0.1305
 2935SOL     OW20263   1.292   0.574   9.205  0.1167 -0.0004 -0.0578
 2935SOL    HW120264   1.322   0.664   9.214 -0.1453 -0.0078  0.8833
 2935SOL    HW220265   1.328   0.542   9.288  0.8875 -2.1404 -1.2422
 2936SOL     OW20266   4.679   1.655   7.937 -0.3055 -0.2818 -0.3892
 2936SOL    HW120267   4.611   1.715   7.905 -0.5381  0.4101  1.4149
 2936SOL    HW220268   4.645   1.632   8.023  0.4707 -1.5059 -0.4200
 2937SOL     OW20269   4.203   0.386   2.056  0.3874  0.7059 -0.1349
 2937SOL    HW120270   4.282   0.373   2.003  0.1342  1.3849 -0.6793
 2937SOL    HW220271   4.139   0.434   2.003  2.0761  2.9874 -0.0832
 2938SOL     OW20272   1.197   4.548   0.939  0.5793 -0.0264 -0.2158
 2938SOL    HW120273   1.150   4.542   0.856 -1.0678 -1.8227  0.8487
 2938SOL    HW220274   1.168   4.639   0.946 -2.9189 -1.1104 -0.6796
 2939SOL     OW20275   4.712   0.012   0.660  0.1039  0.5779  0.3607
 2939SOL    HW120276   0.066   4.684   0.643  1.2216  2.2253  0.4307
 2939SOL    HW220277   4.713   0.064   0.579 -0.7343 -0.2043 -0.1448
 2940SOL     OW20278   2.302   0.534  17.346  0.8424  0.2405  0.2719
 2940SOL    HW120279   2.246   0.514  17.421  3.5129  0.2025  2.2458
 2940SOL    HW220280   2.230   0.539  17.283  2.0322  1.4618 -0.9725
 2941SOL     OW20281   4.163   1.995   6.937 -0.2409  0.1228 -0.0697
 2941SOL    HW120282   4.254   1.997   6.967 -0.4208 -0.7294  0.5152
 2941SOL    HW220283   4.125   1.907   6.939 -2.7213  1.1979  1.0975
 2942SOL     OW20284   0.369   0.066   6.954  0.3649  0.1293  0.1491
 2942SOL    HW120285   0.304   0.091   6.889  0.9862 -0.5892 -0.7473
 2942SOL    HW220286   0.314   0.054   7.032  0.6939 -2.3790  0.0140
 2943SOL     OW20287   0.414   4.179   4.978 -0.1656 -0.3946 -1.0374
 2943SOL    HW120288   0.428   4.243   4.909  2.6881 -2.7234 -2.6207
 2943SOL    HW220289   0.498   4.196   5.021 -0.4931  2.3790 -1.4653
 2944SOL     OW20290   4.221   2.658   3.894  0.5585 -0.2392  0.2305
 2944SOL    HW120291   4.146   2.714   3.874  1.7242  0.4235 -2.2951
 2944SOL    HW220292   4.261   2.716   3.960  0.2198  0.4646 -0.1815
 2945SOL     OW20293   1.124   1.835   5.433  0.0170  0.0681  0.1827
 2945SOL    HW120294   1.084   1.901   5.377  0.6161  0.4307  0.1832
 2945SOL    HW220295   1.136   1.883   5.515 -2.1743  0.9175  0.0026
 2946SOL     OW20296   4.476   4.039   2.612  0.2053 -0.2803  0.0293
 2946SOL    HW120297   4.499   3.968   2.552  0.0909  0.8495 -1.3522
 2946SOL    HW220298   4.395   4.076   2.578 -0.6030 -1.8682  0.2144
 2947SOL     OW20299   2.541   1.071   6.177  0.0913  0.2339 -0.5670
 2947SOL    HW120300   2.499   0.995   6.136  1.3644 -1.1828  0.7820
 2947SOL    HW220301   2.620   1.026   6.208  0.4792  0.7737 -0.7812
 2948SOL     OW20302   3.613   3.719   4.540  0.2353 -0.1074 -0.2405
 2948SOL    HW120303   3.544   3.680   4.595 -0.3078 -0.1542 -0.9590
 2948SOL    HW220304   3.693   3.669   4.557  0.9832  0.9863 -0.5941
 2949SOL     OW20305   3.495   0.060   5.917 -0.0871 -0.1361 -0.2680
 2949SOL    HW120306   3.535   4.712   5.965 -1.3201  0.2470  1.3489
 2949SOL    HW220307   3.551   0.068   5.840  0.5053  0.2815  0.2008
 2950SOL     OW20308   1.957   1.878   0.470 -0.4275 -0.0251  0.4787
 2950SOL    HW120309   1.878   1.914   0.512 -0.4961  1.7795 -1.2154
 2950SOL    HW220310   1.924   1.820   0.402  0.9983 -1.1569  0.7517
 2951SOL     OW20311   1.283   1.484   8.553 -0.0951  0.3974 -0.3022
 2951SOL    HW120312   1.203   1.435   8.534 -0.7279  1.1744  0.4035
 2951SOL    HW220313   1.249   1.573   8.558  0.3644  0.3652  2.9981
 2952SOL     OW20314   0.679   2.493   1.289 -0.3507  0.2586 -0.2645
 2952SOL    HW120315   0.676   2.401   1.262 -2.3039  0.9518 -2.4277
 2952SOL    HW220316   0.743   2.482   1.359 -0.2971  1.1048 -0.1839
 2953SOL     OW20317   2.865   2.571   8.533 -0.0643 -0.2296  0.3610
 2953SOL    HW120318   2.923   2.497   8.552  0.9453  0.7225  0.9530
 2953SOL    HW220319   2.856   2.612   8.618  2.4369 -1.2949  1.1299
 2954SOL     OW20320   2.518   4.348   7.304  0.1701 -0.0390  0.1929
 2954SOL    HW120321   2.485   4.279   7.361  0.0302  2.4773  3.1646
 2954SOL    HW220322   2.443   4.359   7.245 -0.5498  0.3226  1.1886
 2955SOL     OW20323   2.942   2.793   1.903  0.0361 -0.0814 -0.6333
 2955SOL    HW120324   2.946   2.817   1.995 -0.6285 -1.5184 -0.2315
 2955SOL    HW220325   2.918   2.878   1.866  0.1767  0.5222  0.6669
 2956SOL     OW20326   3.150   0.141  14.424 -0.0634  0.2200  0.3135
 2956SOL    HW120327   3.133   0.087  14.347 -0.2590  0.1849  0.3817
 2956SOL    HW220328   3.244   0.126  14.417 -0.0473  2.0035 -3.0251
 2957SOL     OW20329   4.715   3.689   6.966  0.1482 -0.0919 -0.0008
 2957SOL    HW120330   4.708   3.723   6.877 -0.9818  0.6397  0.3699
 2957SOL    HW220331   4.625   3.658   6.978 -0.0957  1.6508  2.5402
 2958SOL     OW20332   0.429   1.676  11.195  0.2827  0.0754  0.2881
 2958SOL    HW120333   0.363   1.629  11.245  0.7204 -0.7518  0.0854
 2958SOL    HW220334   0.460   1.617  11.127  1.1634  0.8212  0.0364
 2959SOL     OW20335   4.662   3.935   3.502 -0.0755 -0.2205  0.0019
 2959SOL    HW120336   4.625   3.857   3.460  0.9321  0.0272 -1.3316
 2959SOL    HW220337   4.667   3.904   3.592  3.1610  1.0706  0.2598
 2960SOL     OW20338   2.344   3.595  11.483  0.5326  0.6122 -0.0099
 2960SOL    HW120339   2.258   3.560  11.505  0.3795  1.6692  1.1146
 2960SOL    HW220340   2.405   3.547  11.538  2.5624  2.1314 -0.9179
 2961SOL     OW20341   4.685   1.103   7.004 -0.0709 -0.0683  0.0796
 2961SOL    HW120342   4.700   1.163   6.931 -0.6897  0.6670  0.5549
 2961SOL    HW220343   0.029   1.036   7.003  0.2600  0.2535  1.4412
 2962SOL     OW20344   4.498   4.471  15.104 -0.7355  0.5882  0.1305
 2962SOL    HW120345   4.434   4.412  15.144 -1.2081  1.5548  0.7901
 2962SOL    HW220346   4.546   4.410  15.047 -1.1567 -0.0905  0.4979
 2963SOL     OW20347   3.320   1.947   8.919 -0.6195 -0.4555 -0.4351
 2963SOL    HW120348   3.345   1.858   8.946 -0.2649 -0.1249  0.3118
 2963SOL    HW220349   3.406   1.985   8.902 -1.5294  0.8635 -2.0153
 2964SOL     OW20350   1.316   0.268   2.628  0.4000 -0.2992  0.3309
 2964SOL    HW120351   1.377   0.337   2.602 -1.9385  1.7367  0.2228
 2964SOL    HW220352   1.273   0.264   2.542 -3.7725  0.9158  2.3447
 2965SOL     OW20353   4.655   0.803   3.490 -0.0079 -0.3170  0.3252
 2965SOL    HW120354   4.648   0.857   3.410  0.6513 -1.4069 -0.4692
 2965SOL    HW220355   4.702   0.724   3.465  0.3877  0.5927 -1.8973
 2966SOL     OW20356   3.274   1.140   8.815 -0.2687  0.3144 -0.1332
 2966SOL    HW120357   3.327   1.153   8.894 -1.7184  1.8602  0.5804
 2966SOL    HW220358   3.216   1.072   8.849 -1.6184  1.7233  0.4236
 2967SOL     OW20359   0.273   3.861   2.495  0.1759 -0.0016  0.2852
 2967SOL    HW120360   0.363   3.830   2.503  0.2216 -0.3724 -1.6736
 2967SOL    HW220361   0.223   3.784   2.467 -0.3161  0.8267 -1.1417
 2968SOL     OW20362   2.734   2.213   4.716 -0.4718 -0.0832  0.2446
 2968SOL    HW120363   2.779   2.263   4.648 -0.1280  0.9445  1.2246
 2968SOL    HW220364   2.728   2.122   4.685 -0.3058 -0.0200  0.0298
 2969SOL     OW20365   2.292   0.343  16.140  0.3210 -0.5004 -0.0995
 2969SOL    HW120366   2.338   0.264  16.113  0.9052  0.9913 -3.5167
 2969SOL    HW220367   2.310   0.399  16.064 -0.0205 -0.6036 -0.2528
 2970SOL     OW20368   0.587   2.773   6.685  0.3338 -0.7654  0.2646
 2970SOL    HW120369   0.534   2.822   6.749  2.4611  1.9402 -0.0154
 2970SOL    HW220370   0.559   2.817   6.605  2.2627 -0.1793 -0.1001
 2971SOL     OW20371   1.231   4.388   1.793  0.2112  0.7889  0.1070
 2971SOL    HW120372   1.145   4.416   1.825  0.6865 -0.5747  2.5818
 2971SOL    HW220373   1.215   4.302   1.754  2.3527  0.7402 -0.6478
 2972SOL     OW20374   1.171   3.592  16.439 -0.0584 -0.1444 -0.3027
 2972SOL    HW120375   1.132   3.596  16.351 -0.3369 -2.9394 -0.3052
 2972SOL    HW220376   1.204   3.682  16.440 -0.9288  0.1324  2.2184
 2973SOL     OW20377   1.526   4.500  16.962 -0.3066 -0.3237 -0.2670
 2973SOL    HW120378   1.439   4.536  16.983 -0.7459 -2.2538  1.1987
 2973SOL    HW220379   1.578   4.515  17.041  0.6391  1.1300 -1.1686
 2974SOL     OW20380   4.640   1.385   7.473 -0.2302 -0.6691  0.6866
 2974SOL    HW120381   4.552   1.420   7.486  0.6890  0.8942  2.6936
 2974SOL    HW220382   4.632   1.333   7.393  0.6363  0.1749  0.0469
 2975SOL     OW20383   4.162   3.366  13.758  0.2089  0.5869  0.1575
 2975SOL    HW120384   4.151   3.445  13.810 -2.0333 -0.0077  0.6023
 2975SOL    HW220385   4.071   3.349  13.733  0.0684  1.3801  0.1204
 2976SOL     OW20386   3.068   1.343   8.948  0.3596  0.5046 -0.3100
 2976SOL    HW120387   3.152   1.340   8.994 -0.2658 -2.8015  0.5943
 2976SOL    HW220388   3.000   1.340   9.016  0.6363  0.3937 -0.0357
 2977SOL     OW20389   1.023   1.321   4.388 -0.4244  0.3024 -0.1240
 2977SOL    HW120390   0.977   1.289   4.311  0.2989  0.1420 -0.4829
 2977SOL    HW220391   1.106   1.354   4.353 -0.9262 -0.2141 -1.7856
 2978SOL     OW20392   0.775   3.897   6.704  0.1166  0.1193  0.1245
 2978SOL    HW120393   0.784   3.989   6.728  0.9438 -0.0508  0.4527
 2978SOL    HW220394   0.798   3.843   6.779  2.0362  0.5127 -0.1925
 2979SOL     OW20395   2.200   4.482   5.890 -0.5251  0.2266  0.3306
 2979SOL    HW120396   2.231   4.395   5.915 -0.0391  0.4354  0.4596
 2979SOL    HW220397   2.112   4.458   5.862 -0.0391 -1.2814  0.1074
 2980SOL     OW20398   0.985   4.521   5.794 -0.2200  0.3654 -0.1630
 2980SOL    HW120399   0.958   4.435   5.760  1.9969  0.3738 -1.9227
 2980SOL    HW220400   1.074   4.499   5.822 -0.5175 -0.3693  0.1998
 2981SOL     OW20401   3.676   0.027  16.500 -0.0631 -0.7960 -0.3920
 2981SOL    HW120402   3.674   4.656  16.515 -3.1501 -0.6934 -0.2182
 2981SOL    HW220403   3.762   0.027  16.456  0.6383  1.0892  0.9853
 2982SOL     OW20404   3.428   4.128   0.160  0.5976  0.3011  0.1164
 2982SOL    HW120405   3.413   4.072   0.084  0.1751 -1.3117  1.3785
 2982SOL    HW220406   3.518   4.153   0.139  0.7103  0.7140  1.0664
 2983SOL     OW20407   1.786   1.069   4.814  0.3453  0.2199 -0.3590
 2983SOL    HW120408   1.784   1.146   4.871  1.6310 -0.2110  0.2747
 2983SOL    HW220409   1.755   0.992   4.863  0.8646  0.8409  0.9590
 2984SOL     OW20410   3.341   3.153  11.525 -0.1946 -0.0019 -0.2999
 2984SOL    HW120411   3.382   3.074  11.561 -0.7570 -0.2940 -0.2997
 2984SOL    HW220412   3.426   3.197  11.522 -0.0043 -0.3337  0.2516
 2985SOL     OW20413   3.906   0.084   6.888 -0.4193  0.5715 -0.3640
 2985SOL    HW120414   3.821   0.096   6.846  0.0726 -1.0224 -1.8284
 2985SOL    HW220415   3.951   0.016   6.836 -0.7909  1.4255 -1.8070
 2986SOL     OW20416   0.587   2.832   0.303 -0.6893  0.1136 -0.6727
 2986SOL    HW120417   0.530   2.864   0.372  0.1890  0.6573 -0.1931
 2986SOL    HW220418   0.524   2.839   0.231 -0.5585  0.9016 -0.7170
 2987SOL     OW20419   2.459   0.479  13.570 -0.6444  0.2965 -0.3701
 2987SOL    HW120420   2.506   0.554  13.607 -1.2045  0.5619 -0.1919
 2987SOL    HW220421   2.458   0.500  13.477  0.5076 -0.7976 -0.6311
 2988SOL     OW20422   4.597   4.340   7.736  0.1749  0.5069  0.1861
 2988SOL    HW120423   4.608   4.333   7.831  0.5936 -0.8910  0.0514
 2988SOL    HW220424   4.540   4.414   7.718  0.4904  0.8466  0.6012
 2989SOL     OW20425   1.512   2.268   7.691  0.4925  0.5498 -0.0694
 2989SOL    HW120426   1.547   2.285   7.779  0.0537 -0.4506  0.2913
 2989SOL    HW220427   1.505   2.357   7.656  0.7277  0.6948  0.2490
 2990SOL     OW20428   0.793   2.482   4.220  0.5573  0.0498  0.4474
 2990SOL    HW120429   0.779   2.569   4.257 -1.3364 -0.1651  0.2320
 2990SOL    HW220430   0.764   2.433   4.297  1.6616 -0.0646  0.8033
 2991SOL     OW20431   2.225   2.293   4.135  0.1806 -0.1049 -0.5765
 2991SOL    HW120432   2.304   2.275   4.186 -0.3841 -2.3633 -0.5028
 2991SOL    HW220433   2.267   2.278   4.050 -1.6562 -2.5695 -1.0513
 2992SOL     OW20434   4.096   3.907   7.060  0.1368  0.1451  0.6275
 2992SOL    HW120435   4.144   3.890   7.141  1.9013 -0.1419 -0.4757
 2992SOL    HW220436   4.009   3.936   7.088  1.4106  2.8243  1.7957
 2993SOL     OW20437   1.345   1.090   4.785 -0.2781 -0.1650  0.5741
 2993SOL    HW120438   1.377   1.010   4.827  1.1241 -0.5994 -1.3115
 2993SOL    HW220439   1.416   1.148   4.816 -0.4328  0.1467  0.3509
 2994SOL     OW20440   0.478   1.015   3.658 -0.1977 -0.5556  0.0504
 2994SOL    HW120441   0.494   1.067   3.737 -0.1616 -0.5608  0.0465
 2994SOL    HW220442   0.556   0.959   3.659  0.1615 -0.0589  0.1082
 2995SOL     OW20443   3.579   1.434   7.885 -0.1763  0.0461  0.3133
 2995SOL    HW120444   3.584   1.393   7.799  0.0317  0.0250  0.3355
 2995SOL    HW220445   3.504   1.399   7.932  0.5694 -1.4169  0.3936
 2996SOL     OW20446   4.228   2.049   7.665 -0.2234  0.4455  0.1747
 2996SOL    HW120447   4.165   2.000   7.717  0.5704  0.7484  1.4380
 2996SOL    HW220448   4.168   2.117   7.634 -1.4735 -1.1122 -0.8213
 2997SOL     OW20449   2.735   4.246   0.935 -0.0429  0.1505  0.3566
 2997SOL    HW120450   2.741   4.151   0.945  0.4518  0.2867  1.3404
 2997SOL    HW220451   2.811   4.256   0.878 -0.7767 -2.3587 -1.0575
 2998SOL     OW20452   3.599   3.794  15.135 -0.0888  0.1838  0.1346
 2998SOL    HW120453   3.576   3.813  15.226  0.0617  1.9730 -0.1942
 2998SOL    HW220454   3.656   3.869  15.116  0.5287 -0.0007  1.2440
 2999SOL     OW20455   4.385   4.162  15.506 -0.3264  0.6043  0.9431
 2999SOL    HW120456   4.457   4.226  15.507  0.2257 -0.0102  0.6056
 2999SOL    HW220457   4.432   4.103  15.447  2.2216  3.1391  0.4068
 3000SOL     OW20458   1.527   2.543  11.853 -0.6062  0.0324  0.3883
 3000SOL    HW120459   1.525   2.631  11.815 -0.5070 -0.2961 -0.3754
 3000SOL    HW220460   1.435   2.516  11.860 -0.4349 -0.3582  1.1969
 3001SOL     OW20461   2.144   3.412   6.410 -0.0526  0.4468 -0.4261
 3001SOL    HW120462   2.103   3.449   6.488 -0.3824  1.6952 -1.1956
 3001SOL    HW220463   2.122   3.476   6.343 -0.4076  0.4171 -0.3387
 3002SOL     OW20464   4.148   1.941   8.103 -0.1108 -0.0008 -0.2001
 3002SOL    HW120465   4.161   1.900   8.189 -1.4208 -1.4131 -0.6732
 3002SOL    HW220466   4.239   1.966   8.088 -0.5554  1.4710 -0.4074
 3003SOL     OW20467   0.454   2.780  12.323  0.1158  0.6339  0.2005
 3003SOL    HW120468   0.462   2.840  12.249  1.1342  0.8542  0.4894
 3003SOL    HW220469   0.374   2.811  12.365  0.1441 -0.6954  1.2324
 3004SOL     OW20470   2.808   1.704  14.292  0.1004 -0.5500 -0.2591
 3004SOL    HW120471   2.824   1.677  14.202 -2.7265  0.1955 -0.9755
 3004SOL    HW220472   2.757   1.634  14.333 -0.8037  0.5939  0.6064
 3005SOL     OW20473   2.801   1.923   0.188  0.1713  0.2275  0.9956
 3005SOL    HW120474   2.772   1.921   0.279 -1.7853 -0.1886  0.3782
 3005SOL    HW220475   2.731   1.979   0.154  0.7041 -1.0560 -2.1900
 3006SOL     OW20476   4.171   3.814  16.072  0.1530 -0.0512 -0.3181
 3006SOL    HW120477   4.158   3.734  16.122  0.4822 -0.7375 -1.3391
 3006SOL    HW220478   4.185   3.887  16.133  0.2051 -1.1223  0.9527
 3007SOL     OW20479   3.321   3.001   6.340 -0.8652  0.1016  0.2252
 3007SOL    HW120480   3.329   2.907   6.325 -2.0543 -0.0493  0.5467
 3007SOL    HW220481   3.327   3.030   6.249 -1.1146 -0.8427 -0.0896
 3008SOL     OW20482   3.310   3.996  12.904 -0.4977 -0.1276  0.1569
 3008SOL    HW120483   3.294   4.072  12.847  0.1959  0.2217  0.4268
 3008SOL    HW220484   3.250   4.019  12.975 -0.8463 -2.5304  0.6191
 3009SOL     OW20485   0.441   3.893   6.972  0.3271 -0.0115 -0.2696
 3009SOL    HW120486   0.381   3.881   7.046  0.0341 -1.2646 -0.7094
 3009SOL    HW220487   0.429   3.986   6.955 -0.2658 -0.2060 -0.9126
 3010SOL     OW20488   0.699   0.086   1.805 -0.3367  0.1061 -0.5658
 3010SOL    HW120489   0.656   0.160   1.848  0.0573 -0.3644  0.6312
 3010SOL    HW220490   0.687   0.011   1.863 -0.5396  0.7282  0.1930
 3011SOL     OW20491   0.978   4.358  15.193 -0.0046  0.2434  0.3138
 3011SOL    HW120492   1.047   4.357  15.127 -1.9576 -0.4515 -1.6793
 3011SOL    HW220493   0.921   4.418  15.147 -1.0309 -1.3543 -0.5022
 3012SOL     OW20494   2.718   1.525   2.726 -0.0478 -0.1525 -0.2731
 3012SOL    HW120495   2.673   1.596   2.773 -4.1062 -1.8622 -1.5923
 3012SOL    HW220496   2.802   1.537   2.770  0.4266 -1.3620 -0.8568
 3013SOL     OW20497   1.249   4.108   6.292 -0.0212 -0.5220  0.0622
 3013SOL    HW120498   1.234   4.038   6.228 -1.1867  0.4052 -0.6839
 3013SOL    HW220499   1.210   4.182   6.246  0.6380  0.3371  0.8935
 3014SOL     OW20500   0.839   4.141   1.931  0.5184  0.7280  0.3904
 3014SOL    HW120501   0.869   4.082   2.001 -0.8006  0.4750  0.7500
 3014SOL    HW220502   0.814   4.075   1.867 -0.6225  0.2076  1.3842
 3015SOL     OW20503   3.592   3.543   6.429 -0.0115  0.0139  0.0668
 3015SOL    HW120504   3.665   3.485   6.453  0.5627  1.5335  1.9927
 3015SOL    HW220505   3.597   3.550   6.334 -0.7831 -2.2353 -0.1388
 3016SOL     OW20506   3.341   1.903  14.235 -0.1640 -0.9849  0.0500
 3016SOL    HW120507   3.267   1.855  14.197 -0.6758  0.3688 -0.6425
 3016SOL    HW220508   3.384   1.927  14.152 -0.2982  2.1643  0.9158
 3017SOL     OW20509   1.582   2.697   1.734 -0.2852  0.3353 -0.3261
 3017SOL    HW120510   1.541   2.704   1.648 -0.8273 -1.4186 -0.2138
 3017SOL    HW220511   1.551   2.610   1.758 -0.2197  0.6025  0.7321
 3018SOL     OW20512   1.739   1.912   1.994 -0.6023  0.0267  0.8858
 3018SOL    HW120513   1.767   1.979   2.056  0.6598 -2.1338  2.6642
 3018SOL    HW220514   1.730   1.835   2.051 -0.5120 -0.5612  0.1157
 3019SOL     OW20515   1.747   4.120  10.551  0.6586  0.3395  0.0129
 3019SOL    HW120516   1.792   4.161  10.625 -0.1711  0.3644  0.4994
 3019SOL    HW220517   1.799   4.040  10.540  0.7711  0.2373  1.2171
 3020SOL     OW20518   0.126   4.139   5.458 -0.0672 -0.3918  0.0568
 3020SOL    HW120519   0.036   4.158   5.432  0.6045  3.5358  0.6546
 3020SOL    HW220520   0.165   4.224   5.438  0.7543  0.0919  3.6488
 3021SOL     OW20521   1.476   3.967   5.322 -0.7287  0.5001  0.1993
 3021SOL    HW120522   1.388   3.930   5.315 -0.8529  0.7306  0.5034
 3021SOL    HW220523   1.532   3.890   5.322 -2.0766 -0.4724  1.4277
 3022SOL     OW20524   1.920   0.063   4.662  0.0682 -0.3247  0.1155
 3022SOL    HW120525   1.893   4.718   4.601  0.1266  1.2025 -1.6198
 3022SOL    HW220526   2.000   0.021   4.694 -0.5671 -1.2509  0.5062
 3023SOL     OW20527   3.346   2.126   2.273  0.6036 -0.1535 -0.3776
 3023SOL    HW120528   3.305   2.112   2.359 -1.4420  1.1796 -1.1287
 3023SOL    HW220529   3.266   2.154   2.228  0.4023  0.8672  0.5995
 3024SOL     OW20530   1.100   1.266   6.223  0.0325 -0.2436 -0.2590
 3024SOL    HW120531   1.018   1.229   6.258  1.2467 -0.6116  2.2003
 3024SOL    HW220532   1.096   1.232   6.134 -0.5057  1.0537 -0.7403
 3025SOL     OW20533   2.157   1.190  12.585 -0.5635  0.4175 -0.2413
 3025SOL    HW120534   2.089   1.142  12.632 -1.2051 -0.0081 -1.6196
 3025SOL    HW220535   2.142   1.147  12.501  0.8039 -0.5084 -0.0160
 3026SOL     OW20536   2.602   4.632   0.475  0.6928  0.3899 -0.3725
 3026SOL    HW120537   2.599   4.695   0.404  2.0043 -0.9297 -1.5918
 3026SOL    HW220538   2.515   4.593   0.484 -0.3349  2.9317  0.7698
 3027SOL     OW20539   4.374   0.754   9.251 -0.1057 -0.0581 -0.3784
 3027SOL    HW120540   4.280   0.735   9.254  0.1077 -0.7173  2.6134
 3027SOL    HW220541   4.396   0.737   9.343  1.1752 -0.8456 -0.8232
 3028SOL     OW20542   1.624   1.868   1.344  0.8835 -0.3191  0.1469
 3028SOL    HW120543   1.640   1.783   1.385 -0.2166 -0.9864 -0.8227
 3028SOL    HW220544   1.711   1.899   1.319 -0.3830  0.8459 -2.6907
 3029SOL     OW20545   4.036   3.615   8.488  0.7871  0.0713  0.4625
 3029SOL    HW120546   4.016   3.674   8.561  3.7484 -0.5059  1.7125
 3029SOL    HW220547   4.086   3.541   8.521  0.4433 -0.3413  0.0599
 3030SOL     OW20548   2.490   4.647   2.258 -0.8476  0.3932  0.4819
 3030SOL    HW120549   2.461   0.009   2.226 -0.8346  0.5567  0.9168
 3030SOL    HW220550   2.427   4.625   2.326 -3.4148  0.8697 -1.7151
 3031SOL     OW20551   1.193   2.581   3.720 -0.1831 -0.4707 -0.3131
 3031SOL    HW120552   1.259   2.646   3.743 -0.1562  0.0187 -1.7535
 3031SOL    HW220553   1.130   2.616   3.782  1.0603  0.4779  0.4111
 3032SOL     OW20554   1.751   1.744  17.074 -0.2464 -0.0347  0.7536
 3032SOL    HW120555   1.816   1.796  17.027 -1.7118  0.9643 -0.1576
 3032SOL    HW220556   1.800   1.743  17.157 -1.5241  1.2382  1.5235
 3033SOL     OW20557   0.106   2.491   1.950  0.1572 -0.0272  0.2130
 3033SOL    HW120558   0.095   2.559   1.883 -0.7107  0.5741  0.9622
 3033SOL    HW220559   0.029   2.516   2.001 -1.1338 -1.4368 -1.0206
 3034SOL     OW20560   3.681   2.268   1.247 -0.4435  0.0929  0.1388
 3034SOL    HW120561   3.762   2.226   1.274  0.1207  2.2042  1.7597
 3034SOL    HW220562   3.698   2.324   1.171 -2.2726 -2.6154 -2.2735
 3035SOL     OW20563   2.619   4.077   9.148 -0.1850 -0.6581  0.1632
 3035SOL    HW120564   2.640   4.171   9.147  1.1689 -0.9783 -0.5228
 3035SOL    HW220565   2.672   4.044   9.221  0.3251  3.4321  1.6662
 3036SOL     OW20566   1.376   2.437   5.932 -0.0398  0.3014 -0.1444
 3036SOL    HW120567   1.368   2.501   5.861 -1.4543  1.3445  0.9584
 3036SOL    HW220568   1.470   2.416   5.926  0.5959  3.4837 -1.4016
 3037SOL     OW20569   0.815   3.624   0.121  0.4653 -0.4359 -0.1617
 3037SOL    HW120570   0.730   3.608   0.080  1.1437 -0.4208 -1.5626
 3037SOL    HW220571   0.870   3.621   0.043  0.7132  2.2551 -0.0905
 3038SOL     OW20572   1.231   0.628   7.691  0.4205 -0.1476  0.4466
 3038SOL    HW120573   1.158   0.629   7.754  1.7159 -2.0872  1.9643
 3038SOL    HW220574   1.188   0.659   7.611  0.2070 -0.0990  0.5778
 3039SOL     OW20575   1.793   1.321  10.450 -0.0511  0.4422  0.0504
 3039SOL    HW120576   1.853   1.249  10.426  1.5154  1.9330 -0.5135
 3039SOL    HW220577   1.722   1.304  10.388  0.0747 -0.3973  0.1251
 3040SOL     OW20578   1.791   0.947   5.869 -0.6283 -0.3049  0.6956
 3040SOL    HW120579   1.704   0.934   5.908 -0.0891  0.0998  2.0242
 3040SOL    HW220580   1.756   1.003   5.799  0.3021  2.1937  2.2340
 3041SOL     OW20581   3.990   4.437   7.642 -0.0311  0.0470  0.1602
 3041SOL    HW120582   4.015   4.528   7.657  1.2279  0.1358 -2.5135
 3041SOL    HW220583   3.941   4.446   7.560  1.2279  2.6198 -0.2786
 3042SOL     OW20584   1.517   1.862   4.467  0.0147  0.2273  0.8367
 3042SOL    HW120585   1.495   1.805   4.541 -1.9417  2.3101  1.8497
 3042SOL    HW220586   1.602   1.891   4.499 -0.0054  1.4874 -0.2228
 3043SOL     OW20587   0.669   1.568  14.710  0.8592  0.3295  0.1996
 3043SOL    HW120588   0.651   1.619  14.631 -1.4974 -1.5853 -0.5004
 3043SOL    HW220589   0.708   1.487  14.674 -0.5611 -0.8027  1.2267
 3044SOL     OW20590   0.997   4.691  13.675  0.5125 -0.0096  0.2050
 3044SOL    HW120591   0.915   4.710  13.721 -0.2125  0.9877 -1.5180
 3044SOL    HW220592   0.976   4.720  13.586  0.6861  3.2391  1.1995
 3045SOL     OW20593   0.392   2.195   5.558  0.0270 -0.1098  0.3018
 3045SOL    HW120594   0.478   2.186   5.517 -0.8585 -0.0300 -1.6128
 3045SOL    HW220595   0.345   2.117   5.527 -2.0265  1.4882 -0.6475
 3046SOL     OW20596   3.052   3.209  13.045  0.1564 -0.1013  0.1119
 3046SOL    HW120597   3.054   3.127  12.995  0.5609 -0.7287  1.1681
 3046SOL    HW220598   2.964   3.201  13.081 -0.5356  2.7409 -0.9443
 3047SOL     OW20599   3.974   1.815   5.794  0.7119 -0.5189  0.6228
 3047SOL    HW120600   3.953   1.834   5.885  0.6260  3.3621 -0.2097
 3047SOL    HW220601   4.044   1.751   5.804  0.9243 -0.5771 -1.0962
 3048SOL     OW20602   2.496   4.317   0.791  0.2787  0.5678 -0.0416
 3048SOL    HW120603   2.448   4.398   0.810 -0.1957  0.6774 -1.6538
 3048SOL    HW220604   2.561   4.324   0.860  1.6165  1.1940 -1.3628
 3049SOL     OW20605   0.666   1.425   7.152 -0.0520 -0.2339  0.3051
 3049SOL    HW120606   0.624   1.341   7.169 -0.6688 -0.2791 -1.3557
 3049SOL    HW220607   0.684   1.456   7.241 -0.5815 -0.4396  0.4843
 3050SOL     OW20608   1.917   1.476  11.457 -0.0582 -0.2298  0.2433
 3050SOL    HW120609   1.932   1.429  11.375 -0.4022 -1.5980  0.9674
 3050SOL    HW220610   1.910   1.405  11.521  1.7533 -0.9818 -0.3717
 3051SOL     OW20611   3.659   2.017   2.189 -0.1271 -0.1574  0.0239
 3051SOL    HW120612   3.618   2.104   2.190  0.7876  0.2939 -1.6058
 3051SOL    HW220613   3.599   1.969   2.246  0.5738 -2.1575 -0.9112
 3052SOL     OW20614   3.909   2.304  14.966  0.3674 -0.1285  0.5323
 3052SOL    HW120615   3.885   2.391  14.935  0.0699  0.4672  2.4946
 3052SOL    HW220616   4.002   2.300  14.942  0.6566 -1.4993  1.8598
 3053SOL     OW20617   1.848   0.659  16.991  0.2455  0.6938  0.0048
 3053SOL    HW120618   1.793   0.636  16.916  0.0661  0.1138  0.3244
 3053SOL    HW220619   1.793   0.648  17.068  0.1772 -1.4343 -0.3617
 3054SOL     OW20620   1.251   4.131   7.102 -0.0758  0.4591  0.1670
 3054SOL    HW120621   1.158   4.113   7.090  0.3300 -1.9687  0.5981
 3054SOL    HW220622   1.264   4.217   7.141  0.1576  1.3385 -1.8841
 3055SOL     OW20623   2.626   2.409   7.964 -0.0791 -0.0405  0.7945
 3055SOL    HW120624   2.664   2.336   8.014  0.6420 -0.4181 -0.3014
 3055SOL    HW220625   2.704   2.464   7.958  0.5596 -0.8728  1.4849
 3056SOL     OW20626   0.776   3.034   5.653  0.2546 -0.3747  0.0495
 3056SOL    HW120627   0.741   2.945   5.655 -0.0943 -0.2245  0.6470
 3056SOL    HW220628   0.804   3.037   5.744 -0.2478  1.7469  0.1309
 3057SOL     OW20629   2.554   1.248   4.896  0.1081 -0.2506  0.3326
 3057SOL    HW120630   2.567   1.239   4.801 -0.5290  0.3390  0.1874
 3057SOL    HW220631   2.563   1.341   4.912 -0.6105 -0.0924 -0.1688
 3058SOL     OW20632   3.394   1.301   7.041  0.4109 -0.1882 -0.5743
 3058SOL    HW120633   3.357   1.330   7.125 -2.0458  3.3181 -2.8831
 3058SOL    HW220634   3.485   1.301   7.072  0.5676  4.2723 -1.0231
 3059SOL     OW20635   1.858   3.077   6.978 -0.5413  0.0930  0.0891
 3059SOL    HW120636   1.803   3.135   7.031  0.1607  0.1742  0.7365
 3059SOL    HW220637   1.861   2.992   7.022  0.3311  0.6911  1.2161
 3060SOL     OW20638   0.810   2.873   1.226  0.5019  0.2064  0.0252
 3060SOL    HW120639   0.824   2.950   1.171  0.2941  1.2047  1.3661
 3060SOL    HW220640   0.725   2.887   1.268  0.9921 -0.2841  1.1774
 3061SOL     OW20641   0.446   1.133   3.269  0.1819 -0.1237  0.4501
 3061SOL    HW120642   0.493   1.051   3.252 -0.1922 -0.1255 -0.5726
 3061SOL    HW220643   0.490   1.171   3.345 -1.4107 -0.9565  1.7524
 3062SOL     OW20644   0.008   0.106   3.549 -0.1055  0.3346  0.0161
 3062SOL    HW120645   0.084   0.051   3.528 -0.2893  0.1647 -0.2097
 3062SOL    HW220646   4.657   0.050   3.528 -1.2556  1.7756  0.3085
 3063SOL     OW20647   1.750   0.985  15.128 -0.1558  0.5373  0.0060
 3063SOL    HW120648   1.843   1.009  15.127  0.2009 -0.7890  1.9600
 3063SOL    HW220649   1.723   1.022  15.044 -0.6609  2.9547  1.2508
 3064SOL     OW20650   0.938   3.790   4.671  0.3598 -0.9679  0.0055
 3064SOL    HW120651   0.902   3.779   4.583 -0.4154 -1.5564  0.3924
 3064SOL    HW220652   0.905   3.717   4.723  0.6464 -1.0755  0.0337
 3065SOL     OW20653   0.564   1.294   1.557  0.4303 -0.0089  0.0832
 3065SOL    HW120654   0.474   1.268   1.577 -0.3543  2.7423  0.1387
 3065SOL    HW220655   0.549   1.282   1.463 -0.2544 -0.3001  0.2317
 3066SOL     OW20656   4.639   1.891   5.611  0.0125  0.9517  0.0378
 3066SOL    HW120657   4.676   1.979   5.609 -1.5276  1.6023 -0.6216
 3066SOL    HW220658   4.715   1.845   5.646 -1.3061 -2.4192 -1.5667
 3067SOL     OW20659   3.446   2.125   6.414 -0.2004  0.1430 -0.6212
 3067SOL    HW120660   3.434   2.129   6.509  0.2602 -3.1156 -0.4400
 3067SOL    HW220661   3.460   2.030   6.410  0.0239  0.2312 -1.7821
 3068SOL     OW20662   3.131   1.651   1.125 -0.0232 -0.3714 -0.0345
 3068SOL    HW120663   3.183   1.707   1.068 -1.8816  1.5828  0.2041
 3068SOL    HW220664   3.055   1.637   1.069 -0.9214 -1.1285  1.3620
 3069SOL     OW20665   1.481   2.506   7.591  0.2131 -0.2857  0.5342
 3069SOL    HW120666   1.478   2.494   7.496  2.7879  0.1223  0.3913
 3069SOL    HW220667   1.488   2.601   7.592 -0.3842 -0.2080 -2.9526
 3070SOL     OW20668   3.160   2.902  17.441 -0.3079  0.0034 -0.3217
 3070SOL    HW120669   3.132   2.904  17.350  3.7703  0.5478 -1.5826
 3070SOL    HW220670   3.075   2.918  17.483  0.5916  1.1986  1.0697
 3071SOL     OW20671   2.138   3.145   9.472 -0.3939  0.6138  0.4256
 3071SOL    HW120672   2.119   3.183   9.558 -0.0285 -1.1752  1.3004
 3071SOL    HW220673   2.054   3.167   9.430 -0.1127  2.4417  0.8227
 3072SOL     OW20674   4.592   0.953   2.637  0.4546  0.2186  0.0038
 3072SOL    HW120675   4.658   0.923   2.700 -1.9452 -0.0584  2.3919
 3072SOL    HW220676   4.556   0.865   2.623  0.7319  0.0463  0.3686
 3073SOL     OW20677   0.384   3.645   6.476 -0.4022  0.6071 -0.1486
 3073SOL    HW120678   0.405   3.730   6.514 -1.7494  0.9926 -0.2486
 3073SOL    HW220679   0.469   3.620   6.441 -0.8898 -1.6214  0.2416
 3074SOL     OW20680   1.283   3.079   7.679 -0.1784 -0.1282  0.4131
 3074SOL    HW120681   1.303   3.154   7.735  0.2907  0.3169 -0.3470
 3074SOL    HW220682   1.326   3.113   7.600  0.2923 -1.7110 -0.0056
 3075SOL     OW20683   2.831   0.828   8.962 -0.0428  0.4564 -0.3046
 3075SOL    HW120684   2.769   0.822   9.034 -0.1615  0.7079 -0.3865
 3075SOL    HW220685   2.852   0.738   8.936 -2.5079 -0.0096 -0.6962
 3076SOL     OW20686   1.841   1.236  10.921  0.8211  0.2842  0.1530
 3076SOL    HW120687   1.765   1.188  10.889  0.2241  1.2622  0.1070
 3076SOL    HW220688   1.919   1.181  10.912 -1.0164 -2.1287 -1.0233
 3077SOL     OW20689   0.823   2.236   1.562 -0.0031 -0.1692  0.3521
 3077SOL    HW120690   0.853   2.321   1.532 -2.9293  0.3553 -1.1152
 3077SOL    HW220691   0.896   2.190   1.521 -1.1004 -2.9969  1.5170
 3078SOL     OW20692   2.082   1.898   4.837  0.1485  0.1205 -0.0966
 3078SOL    HW120693   2.097   1.992   4.829 -0.8033  0.2810 -0.0064
 3078SOL    HW220694   2.062   1.870   4.747  0.8213 -2.2831  0.4930
 3079SOL     OW20695   0.096   4.560   7.103 -0.2019  0.1380 -0.0042
 3079SOL    HW120696   0.071   4.534   7.015 -1.9559 -0.4064  0.6453
 3079SOL    HW220697   0.082   4.481   7.155  1.3931 -0.1043  0.0437
 3080SOL     OW20698   4.409   0.720   8.973  0.3768  0.2909 -0.1687
 3080SOL    HW120699   4.346   0.748   9.040 -0.2758 -1.5412 -0.0288
 3080SOL    HW220700   4.390   0.627   8.965 -0.6973  0.5531 -0.7433
 3081SOL     OW20701   0.475   2.368   5.234  0.9652 -0.3729  0.2353
 3081SOL    HW120702   0.507   2.292   5.186 -4.7933 -1.0064 -2.5165
 3081SOL    HW220703   0.562   2.389   5.270  0.5126  1.3082  0.3530
 3082SOL     OW20704   0.157   3.981   6.485  0.5650 -0.5346 -0.5661
 3082SOL    HW120705   0.207   3.935   6.553  1.4634 -2.1531 -2.3451
 3082SOL    HW220706   0.092   3.915   6.461  0.4405  0.7388 -3.6504
 3083SOL     OW20707   1.494   3.739   8.313  0.3924  0.2402 -0.3564
 3083SOL    HW120708   1.420   3.783   8.355  0.9734  0.9620 -0.0881
 3083SOL    HW220709   1.537   3.681   8.375 -2.1078 -1.6311 -0.3745
 3084SOL     OW20710   1.517   0.394   9.841  0.3867 -0.2569  0.0228
 3084SOL    HW120711   1.482   0.370   9.755 -0.6938 -1.2993  0.7633
 3084SOL    HW220712   1.507   0.318   9.898  0.3079 -0.1357  0.1659
 3085SOL     OW20713   1.237   2.918   6.867 -0.3386  0.0548 -0.0884
 3085SOL    HW120714   1.190   2.841   6.835 -2.6400  1.5945 -0.4143
 3085SOL    HW220715   1.246   2.899   6.961  0.6842  1.6243  0.1355
 3086SOL     OW20716   2.255   2.803   3.113  0.0478  0.4840 -0.0153
 3086SOL    HW120717   2.198   2.729   3.095 -1.7153  1.7754  0.1971
 3086SOL    HW220718   2.290   2.822   3.026 -1.4461 -1.1980 -0.9703
 3087SOL     OW20719   1.939   4.528   0.904 -0.0424 -0.1928  0.1494
 3087SOL    HW120720   1.970   4.574   0.982 -0.1822  0.2640 -0.0608
 3087SOL    HW220721   1.854   4.569   0.890  0.2575  0.2042 -0.5199
 3088SOL     OW20722   2.290   2.684   4.566 -0.0147  0.0376 -0.1036
 3088SOL    HW120723   2.252   2.607   4.608  3.3928 -1.8440 -0.4552
 3088SOL    HW220724   2.347   2.630   4.511  1.3596  0.7172  0.6612
 3089SOL     OW20725   0.692   3.990   7.636 -0.2398  0.2984 -0.1632
 3089SOL    HW120726   0.762   3.968   7.697 -1.4139  1.6751  1.6496
 3089SOL    HW220727   0.742   3.996   7.554  0.2083 -0.3220  0.0631
 3090SOL     OW20728   1.163   2.381   4.822  0.4789  0.8751 -0.2130
 3090SOL    HW120729   1.107   2.447   4.781  1.7037  2.5195  0.8066
 3090SOL    HW220730   1.235   2.373   4.759  0.5781  1.1481 -0.1336
 3091SOL     OW20731   2.165   2.339   2.985 -0.0866  0.7099  0.3208
 3091SOL    HW120732   2.159   2.366   2.894 -0.1864  0.6660  0.3142
 3091SOL    HW220733   2.072   2.316   2.995 -0.2023  0.6000 -0.9899
 3092SOL     OW20734   4.493   2.273   3.008 -0.2381 -0.5889  0.4688
 3092SOL    HW120735   4.450   2.239   2.929 -0.4675 -1.4809  0.9855
 3092SOL    HW220736   4.481   2.203   3.072  2.7091  0.2957  2.0116
 3093SOL     OW20737   0.116   3.503   7.361  0.1126  0.7114 -0.2212
 3093SOL    HW120738   0.063   3.583   7.367  2.1427  1.7356  3.7278
 3093SOL    HW220739   0.155   3.484   7.446 -1.2729  0.1193  0.2767
 3094SOL     OW20740   3.649   2.699  16.341  0.4550 -0.2515  0.1986
 3094SOL    HW120741   3.726   2.644  16.356  0.0367 -0.9726 -0.3392
 3094SOL    HW220742   3.593   2.663  16.409  0.3671 -0.5882 -0.0501
 3095SOL     OW20743   2.140   3.459   2.698  0.2324 -0.3402 -0.1852
 3095SOL    HW120744   2.148   3.537   2.753 -1.1767 -0.5542  0.3278
 3095SOL    HW220745   2.053   3.427   2.723  0.0293  1.6506  1.6785
 3096SOL     OW20746   1.897   0.860   6.706 -0.4051 -0.2196  0.8943
 3096SOL    HW120747   1.940   0.881   6.789  1.2849  0.0595 -0.0617
 3096SOL    HW220748   1.811   0.838   6.742 -1.2004  0.3426 -0.6579
 3097SOL     OW20749   3.891   3.050   4.235  0.2365 -0.7035  0.3092
 3097SOL    HW120750   3.897   2.999   4.315  0.7770  0.7857  1.2283
 3097SOL    HW220751   3.913   2.988   4.166  1.1949  0.4820 -0.4678
 3098SOL     OW20752   0.799   1.649  15.506  0.3792 -0.0810  0.0212
 3098SOL    HW120753   0.754   1.638  15.422  1.0919 -1.4594 -0.1951
 3098SOL    HW220754   0.891   1.643  15.479  0.1479 -1.8586 -0.3627
 3099SOL     OW20755   0.032   1.070   3.781 -0.0665 -0.1198  0.2353
 3099SOL    HW120756   0.037   0.975   3.793  2.7487 -0.2060 -1.5643
 3099SOL    HW220757   0.070   1.088   3.695 -0.9692 -0.9635 -0.3359
 3100SOL     OW20758   2.704   3.853   6.956  0.4350 -0.3082  0.9532
 3100SOL    HW120759   2.685   3.760   6.965 -1.4027 -0.0171  0.0235
 3100SOL    HW220760   2.789   3.864   6.999  0.7205 -1.8202  0.7650
 3101SOL     OW20761   1.252   4.270   6.810  0.0390  0.0919  0.5073
 3101SOL    HW120762   1.283   4.335   6.747 -2.4852 -3.0184 -3.9119
 3101SOL    HW220763   1.217   4.321   6.883  1.3038  1.7501 -0.0427
 3102SOL     OW20764   1.998   1.229  11.651  0.0567  0.1109 -0.7148
 3102SOL    HW120765   2.023   1.174  11.725 -1.8198  1.7442  1.1159
 3102SOL    HW220766   2.084   1.242  11.611 -0.0522  0.6910 -0.7549
 3103SOL     OW20767   0.354   2.335   3.025  0.3251  0.3190 -0.2427
 3103SOL    HW120768   0.347   2.331   3.120  0.1189 -2.2815 -0.3637
 3103SOL    HW220769   0.431   2.389   3.013  0.1842  0.6710  0.4484
 3104SOL     OW20770   0.762   4.152  15.519 -0.2621 -0.1699  0.2248
 3104SOL    HW120771   0.784   4.232  15.471 -0.1899 -0.2708  0.0938
 3104SOL    HW220772   0.840   4.107  15.486 -0.8597 -0.8776 -0.2095
 3105SOL     OW20773   1.377   0.631  15.942  0.0978  0.0332  0.7360
 3105SOL    HW120774   1.463   0.626  15.900 -0.5285 -0.4268 -0.4970
 3105SOL    HW220775   1.327   0.559  15.904  2.4741 -0.8748 -0.6846
 3106SOL     OW20776   2.938   0.789   3.845  0.0636  0.1896 -0.5092
 3106SOL    HW120777   2.884   0.826   3.915 -1.2368  0.3953 -1.6062
 3106SOL    HW220778   2.887   0.709   3.826  0.5152  0.1659 -1.6470
 3107SOL     OW20779   3.640   2.366  11.594 -0.7366 -0.3952  0.3200
 3107SOL    HW120780   3.607   2.442  11.546  0.8478 -1.2609 -2.1786
 3107SOL    HW220781   3.674   2.309  11.525  1.2356 -0.4435  1.3125
 3108SOL     OW20782   1.692   4.714  10.584 -0.4274 -0.2357 -0.1334
 3108SOL    HW120783   1.634   0.040  10.642  0.2936 -0.4893  0.7941
 3108SOL    HW220784   1.725   4.638  10.632 -2.0043 -0.1502  1.0823
 3109SOL     OW20785   3.771   1.882  11.465 -0.1578 -0.0209  0.1364
 3109SOL    HW120786   3.866   1.882  11.470 -0.1735  1.4669  0.4760
 3109SOL    HW220787   3.760   1.828  11.386 -2.5522  0.7068 -0.0266
 3110SOL     OW20788   4.114   2.921  10.808  0.1716 -0.0508  0.0889
 3110SOL    HW120789   4.060   2.994  10.839 -0.8820 -0.8125  0.0240
 3110SOL    HW220790   4.086   2.915  10.717  0.3777  2.0421 -0.1042
 3111SOL     OW20791   2.805   0.089   2.804  0.4724 -0.6252  0.0178
 3111SOL    HW120792   2.711   0.071   2.801  0.2859 -0.2255  2.7943
 3111SOL    HW220793   2.811   0.153   2.875 -1.9220 -0.5182  0.1455
 3112SOL     OW20794   4.628   1.597   2.084 -0.1930  0.1717 -0.1748
 3112SOL    HW120795   4.607   1.653   2.009  2.7687 -0.3101 -1.3465
 3112SOL    HW220796   4.604   1.511   2.049  0.4664 -0.8487  1.8431
 3113SOL     OW20797   4.605   3.238   1.692 -0.1246 -0.0315  0.1230
 3113SOL    HW120798   4.576   3.225   1.602 -0.2114 -2.1046  0.4431
 3113SOL    HW220799   4.580   3.159   1.741 -0.1059 -0.2755 -0.2630
 3114SOL     OW20800   3.068   4.637   1.126  0.3021 -0.0811 -0.7405
 3114SOL    HW120801   3.047   4.625   1.218  0.1666  2.6984 -0.4145
 3114SOL    HW220802   2.991   4.590   1.094 -1.3371  0.8244  1.9475
 3115SOL     OW20803   4.320   0.742  11.313  0.2463  0.1049  0.3278
 3115SOL    HW120804   4.415   0.755  11.300  0.0938  0.9981  0.0965
 3115SOL    HW220805   4.294   0.797  11.387 -2.3672  0.3222 -0.7708
 3116SOL     OW20806   3.612   4.271   8.055 -0.0253  0.2212  0.1612
 3116SOL    HW120807   3.702   4.279   8.023  1.0403 -1.1721  2.8493
 3116SOL    HW220808   3.596   4.184   8.019  2.5947  0.5019 -1.6629
 3117SOL     OW20809   2.202   0.789   8.355  0.4196  0.4376 -0.1294
 3117SOL    HW120810   2.137   0.815   8.419  0.2645  0.4601 -0.2954
 3117SOL    HW220811   2.189   0.851   8.283  0.5703 -0.6540 -1.0993
 3118SOL     OW20812   1.332   4.035   8.897  0.3222  0.2473 -0.6404
 3118SOL    HW120813   1.345   3.962   8.957 -0.6953  1.0264  0.5583
 3118SOL    HW220814   1.294   4.103   8.954  3.2124 -1.1838  2.9610
 3119SOL     OW20815   2.320   0.111  14.709  0.2986 -0.1174  0.8430
 3119SOL    HW120816   2.354   0.193  14.672 -1.4926 -0.0703 -0.7283
 3119SOL    HW220817   2.230   0.098  14.679  0.5573  2.9213 -1.2965
 3120SOL     OW20818   0.166   2.614   6.874 -0.0724  0.2739 -0.0775
 3120SOL    HW120819   0.201   2.701   6.854  0.9635  0.2417  1.5871
 3120SOL    HW220820   0.073   2.629   6.892 -0.1256 -0.7773  0.5501
 3121SOL     OW20821   3.715   0.367   2.622  0.5495  0.1487  0.7176
 3121SOL    HW120822   3.752   0.281   2.600  0.0395  0.6892 -2.2588
 3121SOL    HW220823   3.688   0.361   2.713  0.1020  2.5792  0.7258
 3122SOL     OW20824   4.144   2.708   5.216 -0.7135  0.2446  0.6258
 3122SOL    HW120825   4.222   2.656   5.237 -0.2559  0.4651 -0.4928
 3122SOL    HW220826   4.142   2.760   5.297 -0.0541 -0.0513  0.8326
 3123SOL     OW20827   2.435   3.612   2.946 -0.2461  0.2845  0.2362
 3123SOL    HW120828   2.366   3.545   2.956  1.1291 -1.6455 -3.4778
 3123SOL    HW220829   2.472   3.612   3.034 -0.1826 -0.7097  0.2168
 3124SOL     OW20830   0.121   3.676   3.072 -0.2361 -0.2687 -0.0958
 3124SOL    HW120831   0.111   3.766   3.103  1.0951  0.2750 -1.2444
 3124SOL    HW220832   0.065   3.632   3.136  2.0526 -0.0619  2.0952
 3125SOL     OW20833   1.330   2.148  11.998  0.4008  0.2852 -0.1626
 3125SOL    HW120834   1.360   2.071  11.950  0.5714  0.9413 -1.1089
 3125SOL    HW220835   1.258   2.170  11.939  1.6387  1.1010 -1.3542
 3126SOL     OW20836   1.123   0.256   2.114  0.0261  0.0437  0.0410
 3126SOL    HW120837   1.129   0.222   2.025 -0.2013  0.6199 -0.1922
 3126SOL    HW220838   1.175   0.335   2.101  0.9787 -0.5679  0.1237
 3127SOL     OW20839   0.996   0.455   3.110  0.0613  0.3048 -0.1727
 3127SOL    HW120840   1.017   0.456   3.016  0.4617 -2.1303 -0.1309
 3127SOL    HW220841   1.039   0.371   3.128  0.1673  0.4954  0.4495
 3128SOL     OW20842   3.459   2.623  11.580  0.4801  0.1878 -0.1495
 3128SOL    HW120843   3.364   2.617  11.571  0.3941  1.6986 -0.2829
 3128SOL    HW220844   3.470   2.587  11.668 -2.5600  0.9007  0.5219
 3129SOL     OW20845   2.509   0.230  17.548 -0.2039  0.4454  0.2911
 3129SOL    HW120846   2.532   0.137  17.550 -0.3292  0.3638 -2.2279
 3129SOL    HW220847   2.454   0.235  17.470 -0.2596 -0.0564  0.3037
 3130SOL     OW20848   3.433   2.401  12.144 -0.2678 -0.3478  0.1268
 3130SOL    HW120849   3.446   2.363  12.231 -0.1746  1.1517  0.7775
 3130SOL    HW220850   3.451   2.330  12.083  3.2190 -0.0589  0.8015
 3131SOL     OW20851   0.451   0.893   9.102  0.1582  0.1166  0.0872
 3131SOL    HW120852   0.438   0.983   9.130 -0.7474 -0.3194  1.0491
 3131SOL    HW220853   0.386   0.845   9.153 -0.1185 -0.1474 -0.5198
 3132SOL     OW20854   1.925   3.182   8.309  0.8680 -0.3105 -0.1786
 3132SOL    HW120855   1.907   3.256   8.366  0.0226 -0.9334  0.3429
 3132SOL    HW220856   1.924   3.216   8.219  1.9609  0.6888  0.1909
 3133SOL     OW20857   3.745   0.288  17.257 -0.4726  0.6305  0.2967
 3133SOL    HW120858   3.776   0.239  17.333 -0.6502 -2.3150 -1.5227
 3133SOL    HW220859   3.803   0.364  17.257  3.1355 -2.1134 -2.1392
 3134SOL     OW20860   0.199   4.113   7.007  0.1595  0.7169  0.1302
 3134SOL    HW120861   0.137   4.121   6.934 -1.8447  0.0132  1.7450
 3134SOL    HW220862   0.165   4.034   7.051  2.8318 -1.0032 -0.8869
 3135SOL     OW20863   2.660   0.444  15.524 -0.6897  0.1138  0.3239
 3135SOL    HW120864   2.716   0.504  15.474 -0.3352 -0.7938 -0.3570
 3135SOL    HW220865   2.576   0.450  15.479 -0.4636 -1.4086 -0.2738
 3136SOL     OW20866   3.148   3.782  12.430 -0.0861 -0.3300  1.0598
 3136SOL    HW120867   3.195   3.781  12.514  2.3690  1.4524 -0.3085
 3136SOL    HW220868   3.190   3.711  12.381 -0.9309  0.1958 -0.4106
 3137SOL     OW20869   3.835   3.271   4.429  0.0966 -0.9633 -0.2434
 3137SOL    HW120870   3.848   3.355   4.386  2.1003  0.1005  2.4164
 3137SOL    HW220871   3.816   3.225   4.347  1.9806  2.1935 -2.4291
 3138SOL     OW20872   0.996   3.909   9.924  0.5840 -0.1296 -0.6835
 3138SOL    HW120873   0.918   3.921   9.871  0.6480 -1.4189 -1.0622
 3138SOL    HW220874   0.946   3.898  10.005  1.4353 -0.9914 -0.2763
 3139SOL     OW20875   1.764   1.565  11.046  0.0430  0.3140  0.4343
 3139SOL    HW120876   1.679   1.531  11.073  0.1745 -1.6843 -1.7521
 3139SOL    HW220877   1.826   1.497  11.071 -0.5926 -1.1310 -1.9393
 3140SOL     OW20878   0.702   2.546   9.760 -0.3494  0.5616  0.4577
 3140SOL    HW120879   0.693   2.535   9.854  0.1485  1.9410  0.6504
 3140SOL    HW220880   0.627   2.490   9.737  0.1335 -1.4626  3.7639
 3141SOL     OW20881   2.902   3.835  13.488  0.0834  0.2058  0.0271
 3141SOL    HW120882   2.880   3.748  13.521 -1.6198  1.3834  1.9931
 3141SOL    HW220883   2.822   3.858  13.440  0.7920 -0.1059 -1.3209
 3142SOL     OW20884   3.158   1.898  14.007  0.0283  0.1252 -0.8644
 3142SOL    HW120885   3.123   1.982  14.039 -0.6923 -0.1317 -0.9837
 3142SOL    HW220886   3.081   1.865  13.960  1.8760 -1.5413 -2.6745
 3143SOL     OW20887   0.550   1.179   6.940 -0.2460 -0.0937  0.0502
 3143SOL    HW120888   0.630   1.127   6.949  0.9047  1.6009 -0.3859
 3143SOL    HW220889   0.556   1.200   6.846 -0.1799 -1.4280 -0.2496
 3144SOL     OW20890   1.958   3.975   7.100 -0.0418 -0.1911 -0.1197
 3144SOL    HW120891   1.916   4.058   7.122 -0.0562 -0.5170  1.0946
 3144SOL    HW220892   1.976   3.927   7.181  0.4294  1.3494  0.6914
 3145SOL     OW20893   1.164   0.873   2.620 -0.0510  0.2840  0.5516
 3145SOL    HW120894   1.226   0.854   2.550 -2.8783  1.0457 -2.1122
 3145SOL    HW220895   1.120   0.950   2.584 -0.1496 -0.4530 -0.8899
 3146SOL     OW20896   2.134   0.430   9.311 -0.4084 -0.3026 -0.2260
 3146SOL    HW120897   2.130   0.425   9.215 -0.2175  0.6341 -0.2817
 3146SOL    HW220898   2.209   0.372   9.330 -0.4755 -0.7012 -1.1382
 3147SOL     OW20899   0.956   0.511  13.745 -0.1459 -0.3604  0.6848
 3147SOL    HW120900   0.898   0.454  13.694  1.6213 -1.4331 -0.1377
 3147SOL    HW220901   0.911   0.595  13.744  0.8250  0.1888  3.2259
 3148SOL     OW20902   2.284   3.050   1.157  0.3015  0.4012  0.0090
 3148SOL    HW120903   2.291   3.132   1.109 -2.2828  0.1588 -0.7785
 3148SOL    HW220904   2.280   3.083   1.247  1.7007 -0.9902  0.5735
 3149SOL     OW20905   3.587   4.077   1.020  0.0855  0.9546 -0.1737
 3149SOL    HW120906   3.502   4.035   1.010  1.2601 -1.6527  0.7886
 3149SOL    HW220907   3.638   4.037   0.950 -0.8486  0.5663 -0.6262
 3150SOL     OW20908   1.387   2.042  17.052  0.7022 -0.0464 -0.2215
 3150SOL    HW120909   1.447   1.976  17.017  0.2616  0.2200 -1.4892
 3150SOL    HW220910   1.306   2.026  17.004  0.9156 -1.0540 -0.2440
 3151SOL     OW20911   4.079   0.297  14.665 -0.0142 -0.4726 -0.0342
 3151SOL    HW120912   4.083   0.247  14.747 -1.6693  1.3491  1.1775
 3151SOL    HW220913   4.109   0.381  14.698  0.5681 -0.3957 -0.7734
 3152SOL     OW20914   1.653   1.829  14.572  1.1036 -0.2816 -0.2178
 3152SOL    HW120915   1.627   1.921  14.566 -1.6208 -0.9489  1.4282
 3152SOL    HW220916   1.644   1.807  14.479  0.4254 -2.2701  0.3226
 3153SOL     OW20917   1.338   4.512  12.640  0.3654 -0.7721  0.0758
 3153SOL    HW120918   1.316   4.536  12.731 -1.6483 -0.6290 -0.4478
 3153SOL    HW220919   1.282   4.579  12.600 -0.7350 -2.4341 -1.1516
 3154SOL     OW20920   1.999   2.325   6.391 -0.2560  0.0305 -0.3185
 3154SOL    HW120921   2.014   2.400   6.334 -0.4716  0.8293  0.6793
 3154SOL    HW220922   2.061   2.262   6.353 -0.7100 -0.3619 -0.4096
 3155SOL     OW20923   0.772   2.253   0.107 -0.2037 -1.0216 -0.0134
 3155SOL    HW120924   0.722   2.180   0.071 -0.1538 -1.0117 -0.1035
 3155SOL    HW220925   0.815   2.227   0.188  0.0032 -2.7360 -0.6616
 3156SOL     OW20926   3.750   4.632   0.269 -0.5455 -0.3496 -0.2416
 3156SOL    HW120927   3.776   4.556   0.322 -0.8531  0.3047  0.8672
 3156SOL    HW220928   3.767   4.581   0.191  0.5711 -2.6925  1.5371
 3157SOL     OW20929   3.229   1.744   3.108 -0.1020 -0.1360 -0.3309
 3157SOL    HW120930   3.269   1.789   3.034 -0.4438  1.4896  0.4700
 3157SOL    HW220931   3.208   1.661   3.066  0.3667  0.6310 -2.0870
 3158SOL     OW20932   3.298   4.256   2.987 -0.3580 -0.3307 -0.1029
 3158SOL    HW120933   3.212   4.231   2.954  0.3266 -2.7940 -0.0445
 3158SOL    HW220934   3.342   4.175   2.960  2.5363  0.7653  1.2823
 3159SOL     OW20935   1.828   0.446  17.392  1.1361 -0.0223 -0.4642
 3159SOL    HW120936   1.817   0.439  17.486  1.4945  1.5580 -0.2991
 3159SOL    HW220937   1.886   0.371  17.379  1.9520 -0.1920  4.1750
 3160SOL     OW20938   0.921   0.335  14.908 -0.2275 -0.2240 -0.5055
 3160SOL    HW120939   0.834   0.366  14.885 -0.8383 -0.5688  1.3189
 3160SOL    HW220940   0.937   0.372  14.995  1.2519 -0.7001 -0.5706
 3161SOL     OW20941   1.970   2.574   6.286  0.1350 -0.2818 -0.2849
 3161SOL    HW120942   1.910   2.634   6.243 -0.2712 -0.0562  0.6221
 3161SOL    HW220943   2.048   2.617   6.250 -0.7616  1.4665 -0.0923
 3162SOL     OW20944   2.741   4.338   6.928 -0.2242 -0.7019  0.2670
 3162SOL    HW120945   2.646   4.346   6.917 -0.0045 -1.1329 -2.0590
 3162SOL    HW220946   2.759   4.432   6.923  1.5596 -1.0370  0.2686
 3163SOL     OW20947   3.863   3.128   7.931 -0.1986  0.3493  0.4264
 3163SOL    HW120948   3.958   3.113   7.937 -0.3889 -1.0029 -0.1263
 3163SOL    HW220949   3.828   3.092   8.012  0.3409 -1.3110 -0.0918
 3164SOL     OW20950   2.846   1.179   0.657  0.1065 -0.2156  0.1447
 3164SOL    HW120951   2.762   1.160   0.615 -0.6838  0.9726  1.1718
 3164SOL    HW220952   2.855   1.092   0.698  1.5585  1.5058  3.5192
 3165SOL     OW20953   0.147   3.752   0.898  0.7191 -0.0252 -0.0304
 3165SOL    HW120954   0.068   3.707   0.868 -0.1608  0.0672  2.2044
 3165SOL    HW220955   0.114   3.830   0.942  0.9490 -0.2587  0.5502
 3166SOL     OW20956   0.135   3.469  13.194  0.0457  0.0412  0.8711
 3166SOL    HW120957   0.141   3.418  13.114  1.3823  1.4154  0.0788
 3166SOL    HW220958   0.099   3.401  13.251 -0.6474  0.5412  1.0334
 3167SOL     OW20959   0.204   4.673  13.478  0.2653  0.5283 -0.1072
 3167SOL    HW120960   0.155   4.655  13.558  2.1689 -0.6298  0.8233
 3167SOL    HW220961   0.268   4.603  13.491  1.4414  1.0975 -2.8700
 3168SOL     OW20962   2.656   0.572   8.558  0.3663 -0.3925  0.0634
 3168SOL    HW120963   2.702   0.652   8.533  0.7709 -1.3302 -2.1344
 3168SOL    HW220964   2.666   0.519   8.479 -2.1330 -0.2691 -0.3472
 3169SOL     OW20965   0.532   3.873   6.559  0.0838 -0.0951 -0.1613
 3169SOL    HW120966   0.620   3.868   6.596  0.9127 -3.7730 -2.6165
 3169SOL    HW220967   0.535   3.953   6.507  1.3757  0.1681  0.3214
 3170SOL     OW20968   3.781   0.363  14.551  0.2762 -0.4467 -0.7646
 3170SOL    HW120969   3.754   0.317  14.631  0.6947 -1.7775 -1.3817
 3170SOL    HW220970   3.856   0.309  14.526  1.6041 -0.0038  2.1529
 3171SOL     OW20971   0.884   3.864  10.594  0.1885  0.0195  0.0693
 3171SOL    HW120972   0.912   3.790  10.649 -0.5172 -0.8575 -0.7422
 3171SOL    HW220973   0.906   3.830  10.507 -0.0998 -0.8677  0.3408
 3172SOL     OW20974   3.552   0.202   7.459 -0.0090 -0.3326  0.7627
 3172SOL    HW120975   3.612   0.140   7.502  2.9012  2.1444  0.3245
 3172SOL    HW220976   3.564   0.173   7.369  3.2970  0.8754  0.8042
 3173SOL     OW20977   0.259   0.428   3.318  0.1935 -0.9651  1.0774
 3173SOL    HW120978   0.190   0.373   3.281  0.7496 -0.6018 -0.4788
 3173SOL    HW220979   0.316   0.364   3.361  0.1797 -1.4464  0.3850
 3174SOL     OW20980   1.148   4.077  15.278  0.0001 -0.2734 -0.3646
 3174SOL    HW120981   1.132   4.159  15.231 -1.2743  0.1491  0.7899
 3174SOL    HW220982   1.116   4.027  15.203  1.9847  1.0904 -2.1015
 3175SOL     OW20983   2.640   1.129   5.292  0.0553  0.2084  0.3461
 3175SOL    HW120984   2.705   1.199   5.284  0.9103 -0.4446  1.4253
 3175SOL    HW220985   2.709   1.067   5.318  0.4385 -0.4325 -2.1914
 3176SOL     OW20986   1.098   2.084   1.498 -0.1049 -0.1389 -0.9271
 3176SOL    HW120987   1.094   2.109   1.406 -0.3893 -0.1628 -0.9215
 3176SOL    HW220988   1.149   2.004   1.489 -0.0661  0.0563 -2.3919
 3177SOL     OW20989   0.231   2.788   6.531 -0.6513 -0.4446  0.3269
 3177SOL    HW120990   0.145   2.781   6.572  0.1644 -1.3707  1.8831
 3177SOL    HW220991   0.231   2.705   6.485 -0.6603 -0.6514  0.7000
 3178SOL     OW20992   3.419   4.444   0.314 -0.1779 -0.3681 -0.0812
 3178SOL    HW120993   3.463   4.409   0.391  0.3948  1.4976  0.4178
 3178SOL    HW220994   3.398   4.528   0.353 -1.5060  0.3270 -2.3036
 3179SOL     OW20995   0.855   3.153  14.274 -0.3060 -0.3690  0.4332
 3179SOL    HW120996   0.785   3.088  14.289 -0.0094 -0.2067  2.5365
 3179SOL    HW220997   0.869   3.166  14.368  1.4337  1.7713 -0.1391
 3180SOL     OW20998   1.733   2.141  12.374 -0.1594 -0.0152  0.1998
 3180SOL    HW120999   1.776   2.062  12.405  3.6879  1.2526 -1.9172
 3180SOL    HW221000   1.667   2.113  12.310  1.6963 -1.5948 -1.0309
 3181SOL     OW21001   4.190   0.005   7.476  0.0006  0.0570 -0.1058
 3181SOL    HW121002   4.190   0.101   7.484 -0.2576  0.2099 -1.9612
 3181SOL    HW221003   4.152   0.001   7.388 -0.8813  2.8004  0.1367
 3182SOL     OW21004   3.105   0.824   8.278 -0.1040 -0.1185 -0.3282
 3182SOL    HW121005   3.157   0.830   8.198  0.5261  0.8244  0.1529
 3182SOL    HW221006   3.131   0.742   8.320 -0.3233 -1.7474 -3.3332
 3183SOL     OW21007   2.129   1.652   8.985  0.0733  0.3921 -0.3491
 3183SOL    HW121008   2.081   1.596   8.925 -1.2684 -0.0690  1.1617
 3183SOL    HW221009   2.093   1.637   9.072  0.1993 -0.2594 -0.4109
 3184SOL     OW21010   2.965   4.025   1.764 -0.4237 -0.1223 -0.1503
 3184SOL    HW121011   2.919   4.061   1.689 -0.3212 -0.0461 -0.1767
 3184SOL    HW221012   3.014   4.102   1.791 -0.4504  0.2914 -1.3036
 3185SOL     OW21013   2.920   1.629   7.660 -0.2723  0.3501 -0.0913
 3185SOL    HW121014   2.831   1.596   7.673  0.8758 -2.8910 -0.3691
 3185SOL    HW221015   2.933   1.696   7.727  1.9535  0.5071 -0.6580
 3186SOL     OW21016   4.691   1.759  10.251 -0.1170  0.2034  0.3960
 3186SOL    HW121017   4.596   1.757  10.263 -0.0869  1.5986  0.8998
 3186SOL    HW221018   4.716   1.736  10.340  1.6952  1.2178  0.1460
 3187SOL     OW21019   2.070   0.056  14.616  0.6411 -0.7904 -0.3367
 3187SOL    HW121020   2.088   0.036  14.524  0.7103 -2.5071  0.0467
 3187SOL    HW221021   1.997   0.114  14.595  0.7895 -0.1866  0.8531
 3188SOL     OW21022   0.521   0.011   8.038 -0.3761  0.1610 -0.1519
 3188SOL    HW121023   0.549   4.659   8.090  0.1251  1.3015  1.2391
 3188SOL    HW221024   0.429   4.715   8.020 -0.2611  0.1030 -0.6719
 3189SOL     OW21025   3.197   4.610  16.347  0.2478  0.0646  0.4697
 3189SOL    HW121026   3.195   4.547  16.275 -0.5518  1.4425 -0.7193
 3189SOL    HW221027   3.271   4.665  16.319 -1.2823  0.4255 -2.7887
 3190SOL     OW21028   3.307   1.803   5.684  0.3221  0.2939  0.1689
 3190SOL    HW121029   3.240   1.871   5.686 -0.0368 -0.0142 -1.4041
 3190SOL    HW221030   3.366   1.830   5.613 -0.0654 -0.6867 -0.5306
 3191SOL     OW21031   3.112   0.759   0.686  0.3602  0.0366 -0.2096
 3191SOL    HW121032   3.120   0.848   0.721 -3.1009  0.1311  0.3346
 3191SOL    HW221033   3.064   0.722   0.761 -0.7419 -0.6481 -1.2439
 3192SOL     OW21034   1.017   4.213   7.778 -0.0730  0.6430 -0.1094
 3192SOL    HW121035   0.936   4.185   7.820 -0.0074 -0.8694 -0.9854
 3192SOL    HW221036   1.058   4.275   7.838  1.7705  1.0137 -1.7463
 3193SOL     OW21037   0.690   2.234  15.899 -0.3696  0.2655 -0.2641
 3193SOL    HW121038   0.683   2.145  15.865  1.1010  0.6690 -1.6517
 3193SOL    HW221039   0.617   2.221  15.960  1.1636 -2.6954  0.9803
 3194SOL     OW21040   0.456   0.623   3.364  0.5386 -0.2825  0.3342
 3194SOL    HW121041   0.380   0.565   3.356  0.6621  0.1340 -3.5543
 3194SOL    HW221042   0.464   0.621   3.460  0.9911  0.0235  0.3014
 3195SOL     OW21043   1.369   3.548   4.782  0.3353 -0.1446  0.2159
 3195SOL    HW121044   1.378   3.549   4.686  0.6105  2.5246  0.2872
 3195SOL    HW221045   1.313   3.471   4.791 -1.7148  1.3110 -0.2194
 3196SOL     OW21046   0.648   0.232   7.080  0.1215 -0.3133 -0.3091
 3196SOL    HW121047   0.707   0.288   7.130 -0.2144 -0.0247 -0.2313
 3196SOL    HW221048   0.710   0.162   7.060  0.3862  0.2616 -1.4772
 3197SOL     OW21049   3.126   2.249   6.515 -0.5074  0.1587  0.2635
 3197SOL    HW121050   3.166   2.256   6.602  1.6325 -0.9856 -0.6443
 3197SOL    HW221051   3.095   2.159   6.514  0.6487 -0.2419  0.8956
 3198SOL     OW21052   0.652   3.948   4.115  0.1181  0.1824  0.0426
 3198SOL    HW121053   0.634   3.997   4.035  3.0873 -1.5224 -1.6801
 3198SOL    HW221054   0.579   3.886   4.119  0.5122 -0.2077  1.1825
 3199SOL     OW21055   0.454   3.986  11.437 -0.2857  0.4461 -0.4298
 3199SOL    HW121056   0.400   3.959  11.363  0.9839 -1.8407 -0.5160
 3199SOL    HW221057   0.546   3.963  11.421 -0.3214  0.7311 -1.0006
 3200SOL     OW21058   1.420   2.834   7.762  0.5073  0.6372 -0.3359
 3200SOL    HW121059   1.450   2.880   7.684  1.3129  0.9480  0.1619
 3200SOL    HW221060   1.327   2.825   7.741  0.3827 -1.2220  0.9987
 3201SOL     OW21061   1.355   0.743   8.195 -0.5523 -0.3637 -0.7242
 3201SOL    HW121062   1.367   0.661   8.242  0.8628  0.8912  1.0815
 3201SOL    HW221063   1.363   0.711   8.105  2.4644  1.5765 -1.1184
 3202SOL     OW21064   3.590   4.609   5.019  0.4832 -0.5613  0.0616
 3202SOL    HW121065   3.572   4.525   5.060  0.1563 -0.9461 -0.8636
 3202SOL    HW221066   3.603   4.580   4.929  0.4537 -3.5172  1.0073
 3203SOL     OW21067   0.861   0.582   6.455 -0.0591 -0.0020  0.5762
 3203SOL    HW121068   0.770   0.612   6.449  0.3070  0.9076 -0.4705
 3203SOL    HW221069   0.868   0.595   6.549  1.2992 -0.2388  0.5080
 3204SOL     OW21070   2.279   2.156   6.799  0.0864  0.3040 -0.0825
 3204SOL    HW121071   2.362   2.167   6.754 -1.0719 -1.4591 -2.6551
 3204SOL    HW221072   2.230   2.220   6.746  0.0872  0.3432 -0.0357
 3205SOL     OW21073   3.646   1.951   7.165  0.0106  0.0491 -0.2064
 3205SOL    HW121074   3.640   1.863   7.128 -1.1387  0.5340 -1.1639
 3205SOL    HW221075   3.564   1.989   7.133 -0.7143 -1.0793  0.3080
 3206SOL     OW21076   0.968   4.262   2.365 -0.1693  0.3519 -0.3439
 3206SOL    HW121077   0.919   4.338   2.333 -0.6467  0.2769  0.2180
 3206SOL    HW221078   0.909   4.194   2.333 -0.4621 -0.3696  1.7599
 3207SOL     OW21079   0.934   2.046   3.231  0.3944 -0.0705 -0.2470
 3207SOL    HW121080   0.911   2.094   3.311 -2.4508 -0.9142 -0.5582
 3207SOL    HW221081   0.974   1.966   3.264  1.4252  0.1569 -0.9545
 3208SOL     OW21082   2.331   1.739  15.211  0.0132 -0.3529  0.3783
 3208SOL    HW121083   2.237   1.727  15.203  0.1564 -0.3691 -1.2775
 3208SOL    HW221084   2.373   1.657  15.188 -2.3027 -1.1970 -0.7704
 3209SOL     OW21085   3.561   1.557   6.663  0.2364  0.4224  0.8692
 3209SOL    HW121086   3.491   1.550   6.728 -0.7923  2.6983  0.0068
 3209SOL    HW221087   3.509   1.553   6.583  1.7374  1.5102 -0.1686
 3210SOL     OW21088   3.140   1.628   3.741  0.5282 -0.8613  0.2641
 3210SOL    HW121089   3.204   1.577   3.691  1.4671  0.4408  0.1508
 3210SOL    HW221090   3.147   1.586   3.826  2.3882  1.4459  1.2433
 3211SOL     OW21091   3.171   1.448  15.188 -0.2630  0.1963 -0.7296
 3211SOL    HW121092   3.265   1.439  15.206 -0.1194  2.1999 -0.4989
 3211SOL    HW221093   3.150   1.355  15.188  0.1080  0.1119  1.3282
 3212SOL     OW21094   4.628   2.333   1.106 -0.3008 -0.7338 -0.3623
 3212SOL    HW121095   4.563   2.262   1.104 -0.0140 -1.0112  0.1544
 3212SOL    HW221096   4.658   2.334   1.196 -2.2964 -1.5353  0.3154
 3213SOL     OW21097   1.637   4.209   3.465 -0.4686 -0.2308 -0.5268
 3213SOL    HW121098   1.593   4.276   3.518 -1.6566 -2.6369  1.5543
 3213SOL    HW221099   1.707   4.259   3.423  0.4010 -0.0336  1.1485
 3214SOL     OW21100   3.407   0.867   7.349  0.2250 -0.2958 -0.6216
 3214SOL    HW121101   3.379   0.855   7.440 -0.8758 -0.7501 -1.0081
 3214SOL    HW221102   3.414   0.962   7.344 -0.4794 -0.2711 -1.2156
 3215SOL     OW21103   4.376   3.237   7.926 -0.1858  0.5647  0.3569
 3215SOL    HW121104   4.411   3.192   8.003 -0.6127  0.6913  0.6247
 3215SOL    HW221105   4.318   3.301   7.967 -0.8959 -0.8551  1.5456
 3216SOL     OW21106   2.102   2.867   2.018  0.0445  0.3757  0.2937
 3216SOL    HW121107   2.031   2.929   2.037  0.0717 -0.2029  2.2704
 3216SOL    HW221108   2.059   2.795   1.973  0.1891  1.5226 -1.7268
 3217SOL     OW21109   2.398   1.456   6.208 -0.4877 -0.4333  0.5215
 3217SOL    HW121110   2.361   1.512   6.276  0.2131 -0.1506  0.6634
 3217SOL    HW221111   2.399   1.514   6.132 -2.3823 -1.0011  0.0629
 3218SOL     OW21112   3.211   3.442   3.923  0.3800  0.1403  0.1565
 3218SOL    HW121113   3.272   3.439   3.849 -2.5821  1.0487 -2.3203
 3218SOL    HW221114   3.247   3.379   3.986 -1.6927  0.2294  1.4479
 3219SOL     OW21115   0.326   0.563   2.659 -0.2752 -0.7233  0.5247
 3219SOL    HW121116   0.419   0.589   2.657 -0.3175 -0.4344  2.2325
 3219SOL    HW221117   0.345   0.471   2.673  0.4237 -0.7228 -0.4453
 3220SOL     OW21118   0.220   2.918   4.678  0.8606  0.0295  0.0309
 3220SOL    HW121119   0.214   2.831   4.640  0.9222  1.0160 -2.2105
 3220SOL    HW221120   0.302   2.912   4.728  1.5508  1.7478 -0.9194
 3221SOL     OW21121   4.450   1.949   5.918  0.5035  0.3834  0.0380
 3221SOL    HW121122   4.359   1.961   5.892  0.1500 -0.3271  0.9615
 3221SOL    HW221123   4.442   1.882   5.986  0.6663  1.5403  1.2021
 3222SOL     OW21124   1.842   1.689  10.813 -0.2293  0.3010 -0.3515
 3222SOL    HW121125   1.803   1.651  10.892  0.1259  0.1581 -0.2428
 3222SOL    HW221126   1.812   1.622  10.752 -0.8128  0.0399  0.2144
 3223SOL     OW21127   4.652   2.653   2.102 -0.0096  0.1119  0.1020
 3223SOL    HW121128   4.562   2.625   2.118  0.3903 -2.4806 -2.1760
 3223SOL    HW221129   4.632   2.720   2.037 -1.8241 -2.4539 -1.9869
 3224SOL     OW21130   0.474   2.653   7.362  0.2584  0.8628  0.4568
 3224SOL    HW121131   0.543   2.647   7.428  1.7336 -0.9862 -1.2645
 3224SOL    HW221132   0.471   2.567   7.320  1.0124  2.6229 -3.2349
 3225SOL     OW21133   1.985   2.658   1.898  0.1348  0.6796 -0.2820
 3225SOL    HW121134   1.927   2.603   1.952  0.5939  0.4204 -0.0542
 3225SOL    HW221135   2.026   2.592   1.843  0.8896  2.0162 -1.3292
 3226SOL     OW21136   2.640   2.861  11.786  0.5601 -0.5357  0.3785
 3226SOL    HW121137   2.666   2.949  11.810 -0.5293 -0.1093  0.0183
 3226SOL    HW221138   2.552   2.887  11.758  0.5383  0.2474  1.1906
 3227SOL     OW21139   3.419   1.490   4.221  0.1438 -0.1967 -0.4337
 3227SOL    HW121140   3.505   1.450   4.235  0.9161  1.1730 -1.3101
 3227SOL    HW221141   3.366   1.431   4.275 -0.8374  0.1505 -1.0014
 3228SOL     OW21142   4.573   2.982   7.609  0.2723  0.1117 -0.1310
 3228SOL    HW121143   4.542   2.898   7.576 -1.3655  0.3665  0.7882
 3228SOL    HW221144   4.496   3.016   7.655  1.2168  4.3873 -1.7148
 3229SOL     OW21145   2.815   3.445  14.697 -0.0050  0.0814 -0.0196
 3229SOL    HW121146   2.830   3.502  14.622 -0.5592  1.0970  0.6442
 3229SOL    HW221147   2.808   3.513  14.764 -1.1889 -1.6230  1.6160
 3230SOL     OW21148   1.788   1.989  12.648  0.3148  0.1728  0.5864
 3230SOL    HW121149   1.769   2.049  12.721 -0.3387  1.3300 -0.5409
 3230SOL    HW221150   1.832   1.927  12.707 -0.5197 -1.8762 -0.9488
 3231SOL     OW21151   2.401   2.179   5.233  1.0441 -0.3443  0.4971
 3231SOL    HW121152   2.454   2.255   5.209  0.9744 -0.3854  0.2197
 3231SOL    HW221153   2.373   2.146   5.148 -0.1549 -1.6173  1.4073
 3232SOL     OW21154   0.306   2.818   0.869  0.1147 -0.4114 -0.4312
 3232SOL    HW121155   0.222   2.807   0.912  0.6719 -2.7704  0.0648
 3232SOL    HW221156   0.276   2.887   0.810  2.3076 -0.1360 -1.2233
 3233SOL     OW21157   0.608   3.677   2.334  0.4024  0.2074  0.1889
 3233SOL    HW121158   0.538   3.647   2.391  1.9985  0.1942  2.1197
 3233SOL    HW221159   0.601   3.771   2.351  3.1641  0.7022 -1.4571
 3234SOL     OW21160   0.700   4.169   7.067  0.4067  0.0764 -0.6417
 3234SOL    HW121161   0.650   4.115   7.129 -0.6018  0.5178 -1.0578
 3234SOL    HW221162   0.673   4.118   6.991  0.7352 -2.2669  0.8253
 3235SOL     OW21163   4.633   2.247   5.301  0.3440 -0.4504  0.3808
 3235SOL    HW121164   4.547   2.262   5.263  1.0631 -1.3601 -1.5785
 3235SOL    HW221165   4.646   2.326   5.353  1.2231  0.7117 -1.6034
 3236SOL     OW21166   3.579   4.568   4.383  0.2661  0.0641 -0.6898
 3236SOL    HW121167   3.641   4.639   4.399  1.0523 -0.8567  0.4089
 3236SOL    HW221168   3.503   4.608   4.342 -0.9261 -0.8544  0.6140
 3237SOL     OW21169   3.279   2.904   7.311  0.0081  0.5315 -0.1050
 3237SOL    HW121170   3.311   2.817   7.287 -0.8489 -0.4326  2.2131
 3237SOL    HW221171   3.233   2.929   7.231  0.5264  1.4237 -0.1216
 3238SOL     OW21172   0.444   1.886   4.104 -0.8724 -0.1157 -0.1472
 3238SOL    HW121173   0.441   1.908   4.197 -0.5345  2.3538 -0.7095
 3238SOL    HW221174   0.399   1.966   4.075 -0.4707  0.2544  0.2374
 3239SOL     OW21175   3.972   4.170   8.209 -0.6062  0.4035  0.6016
 3239SOL    HW121176   3.899   4.201   8.155 -2.0072 -1.4166  1.4770
 3239SOL    HW221177   4.044   4.228   8.182 -2.7410  1.5014 -2.8152
 3240SOL     OW21178   4.490   3.250   1.436 -0.1648  0.2646  0.0212
 3240SOL    HW121179   4.443   3.176   1.399  2.6674 -2.2150  1.3508
 3240SOL    HW221180   4.417   3.309   1.452 -0.2387 -0.1779  1.3726
 3241SOL     OW21181   2.186   3.228   8.217  0.2786 -0.0495  0.1064
 3241SOL    HW121182   2.175   3.137   8.190  0.6370  0.3851 -1.4800
 3241SOL    HW221183   2.139   3.268   8.144 -1.1550 -2.2159 -0.1674
 3242SOL     OW21184   4.539   4.585   2.380 -0.2424  0.3565  0.4618
 3242SOL    HW121185   4.543   4.496   2.346  2.5277  0.7316 -0.1801
 3242SOL    HW221186   4.622   4.618   2.347 -0.7996 -1.6591 -2.9063
 3243SOL     OW21187   0.443   0.312   2.746 -0.4709  0.0736  0.1096
 3243SOL    HW121188   0.530   0.331   2.711 -0.5675  2.2720  1.1161
 3243SOL    HW221189   0.407   0.250   2.682  0.4036  0.3237 -0.6209
 3244SOL     OW21190   3.345   1.386   8.401 -0.0981  0.3757 -0.3739
 3244SOL    HW121191   3.423   1.332   8.397 -1.4381 -1.7192  1.9113
 3244SOL    HW221192   3.294   1.333   8.462  3.3610  1.1994  3.2026
 3245SOL     OW21193   3.005   2.952   2.235  0.0149  0.0531  0.4599
 3245SOL    HW121194   2.951   2.879   2.205 -1.0217  0.9238  0.2218
 3245SOL    HW221195   2.981   2.962   2.327 -2.4453  0.1205 -0.1785
 3246SOL     OW21196   3.055   0.379  16.713  0.2776  0.9143 -0.0731
 3246SOL    HW121197   3.149   0.395  16.710  0.4232 -0.1063 -0.9783
 3246SOL    HW221198   3.054   0.344  16.802 -1.3620 -2.2327 -1.3299
 3247SOL     OW21199   0.443   4.638   9.398  0.3160  0.0398  0.2691
 3247SOL    HW121200   0.384   4.569   9.427  1.9213 -0.5568  2.1337
 3247SOL    HW221201   0.519   4.602   9.445 -1.4430 -3.2664  0.5227
 3248SOL     OW21202   0.592   4.117   6.469 -0.0823  0.3143  0.3041
 3248SOL    HW121203   0.611   4.208   6.492 -1.0366  0.5871  0.0323
 3248SOL    HW221204   0.631   4.125   6.382 -1.1639 -0.5441 -0.2585
 3249SOL     OW21205   3.201   2.785   4.018 -0.0442  0.1111 -0.0612
 3249SOL    HW121206   3.235   2.838   3.946  2.1402 -0.8261  0.2762
 3249SOL    HW221207   3.135   2.845   4.054  0.5603  1.0533 -0.5266
 3250SOL     OW21208   4.320   0.653   2.775  0.1811 -0.4181 -0.1687
 3250SOL    HW121209   4.320   0.717   2.847 -0.0715 -1.6245  0.9044
 3250SOL    HW221210   4.411   0.643   2.748  0.4927  1.8247  0.0150
 3251SOL     OW21211   1.780   3.884  10.109  0.4127  0.0131  0.2746
 3251SOL    HW121212   1.814   3.967  10.076 -0.5453  1.0126  1.7887
 3251SOL    HW221213   1.763   3.842  10.025  0.3124 -2.1921  1.3843
 3252SOL     OW21214   1.329   1.566   3.492  0.4807  0.2250  0.2407
 3252SOL    HW121215   1.351   1.570   3.585 -1.8854 -2.0567  0.8791
 3252SOL    HW221216   1.282   1.483   3.497  0.1226  0.4135  0.0177
 3253SOL     OW21217   4.345   3.856   9.916 -0.1852 -0.8463 -0.0071
 3253SOL    HW121218   4.403   3.813   9.853  0.7360  0.0311  0.2405
 3253SOL    HW221219   4.266   3.802   9.917 -1.3692  0.8092 -2.0595
 3254SOL     OW21220   2.794   1.599   8.768  0.2987  0.3747 -0.2286
 3254SOL    HW121221   2.888   1.596   8.785  0.2028 -0.9796  0.0727
 3254SOL    HW221222   2.767   1.512   8.797  1.1074 -0.3520 -1.6543
 3255SOL     OW21223   0.455   1.472   5.371  0.0610  0.2551  0.5608
 3255SOL    HW121224   0.549   1.486   5.362 -0.3183  3.1690  1.0747
 3255SOL    HW221225   0.449   1.379   5.346 -0.0979  0.7712 -1.3096
 3256SOL     OW21226   1.679   2.196   5.866 -0.1163 -0.2304  0.4529
 3256SOL    HW121227   1.626   2.117   5.873 -1.9018  0.9446  0.1913
 3256SOL    HW221228   1.625   2.253   5.922  0.2417  0.3342  0.2254
 3257SOL     OW21229   2.827   4.440   5.387  0.3111  0.0848 -0.0413
 3257SOL    HW121230   2.798   4.431   5.478 -1.8395  2.6644 -0.4645
 3257SOL    HW221231   2.853   4.350   5.368  0.0016 -0.2187  0.9509
 3258SOL     OW21232   3.613   1.671  12.078  0.3077 -0.5192  0.5434
 3258SOL    HW121233   3.585   1.671  11.986  1.1591  1.6119  0.2882
 3258SOL    HW221234   3.706   1.664  12.059  0.2016  4.1391 -1.7585
 3259SOL     OW21235   0.060   3.026   3.127 -0.4236 -0.1428 -0.0240
 3259SOL    HW121236   0.151   3.007   3.149 -1.1492 -0.6483  2.4883
 3259SOL    HW221237   0.048   2.973   3.048  2.2893 -2.0064  0.7946
 3260SOL     OW21238   0.308   4.480   6.401 -0.1755  0.7010 -0.2702
 3260SOL    HW121239   0.383   4.447   6.451 -1.1328 -1.5747 -0.3480
 3260SOL    HW221240   0.256   4.399   6.398  0.3464  0.4017 -1.1382
 3261SOL     OW21241   3.725   0.444  12.143 -0.2565 -0.3799 -0.5289
 3261SOL    HW121242   3.770   0.433  12.059  3.6588 -1.7374  1.7334
 3261SOL    HW221243   3.672   0.522  12.131  0.2723 -0.1543 -1.4017
 3262SOL     OW21244   2.555   1.677   2.943 -0.5088  0.0962 -0.2531
 3262SOL    HW121245   2.615   1.742   2.980 -1.3989  1.4387 -1.1830
 3262SOL    HW221246   2.472   1.723   2.934 -0.0591  0.9983  0.2269
 3263SOL     OW21247   0.978   1.907   3.857 -0.1358 -0.7840  0.3926
 3263SOL    HW121248   0.993   1.812   3.855 -1.3559 -0.9945  0.8549
 3263SOL    HW221249   0.916   1.924   3.786  1.1336 -0.3648 -0.6001
 3264SOL     OW21250   4.192   1.305   8.404 -0.5430  0.0672  0.2510
 3264SOL    HW121251   4.117   1.246   8.405 -0.3087 -0.2504 -0.9012
 3264SOL    HW221252   4.152   1.385   8.437 -1.5649 -0.0071 -0.8333
 3265SOL     OW21253   3.468   0.971   4.489  0.6339 -0.1903  0.0663
 3265SOL    HW121254   3.409   0.983   4.564  1.9372 -0.6419  1.1662
 3265SOL    HW221255   3.548   0.955   4.539  0.8815  2.0079  0.3783
 3266SOL     OW21256   4.500   2.438  12.214 -0.1984  0.0498 -0.6080
 3266SOL    HW121257   4.495   2.352  12.256 -2.6858  0.3035 -0.3311
 3266SOL    HW221258   4.462   2.499  12.278  0.9607  0.5732 -0.4260
 3267SOL     OW21259   2.638   1.232   4.641  0.1147  0.3769  0.5426
 3267SOL    HW121260   2.663   1.284   4.565 -1.8093 -0.6897 -0.8037
 3267SOL    HW221261   2.563   1.183   4.610  1.1098 -2.7158  2.9812
 3268SOL     OW21262   0.661   3.075   8.578 -0.3070 -0.3101 -0.1729
 3268SOL    HW121263   0.605   3.005   8.611 -2.5204  1.3930 -0.2746
 3268SOL    HW221264   0.673   3.038   8.491  1.1454 -1.9842  0.7480
 3269SOL     OW21265   1.944   4.225   4.774 -0.0141 -0.4377  0.2592
 3269SOL    HW121266   2.032   4.260   4.765 -0.1940  0.0811  0.5173
 3269SOL    HW221267   1.923   4.263   4.859 -1.1311 -1.4508  0.4381
 3270SOL     OW21268   4.646   0.305   3.093 -0.1065 -0.3163 -0.1659
 3270SOL    HW121269   4.637   0.400   3.096  0.6865 -0.2003 -1.6056
 3270SOL    HW221270   4.672   0.287   3.184  0.6374 -2.0908 -0.7214
 3271SOL     OW21271   0.979   4.427   4.032 -0.0651 -0.5504  0.6942
 3271SOL    HW121272   0.976   4.433   4.127  1.6808 -2.6505  0.8996
 3271SOL    HW221273   0.977   4.518   4.003  1.2231 -0.3704  1.1565
 3272SOL     OW21274   2.795   0.916   6.230 -0.5077  0.1223 -0.0095
 3272SOL    HW121275   2.853   0.961   6.168  2.0091 -0.6661  1.7542
 3272SOL    HW221276   2.861   0.884   6.293 -0.0502  0.1596 -0.4714
 3273SOL     OW21277   1.769   3.107   9.941 -0.6111  0.5712 -0.0590
 3273SOL    HW121278   1.744   3.141   9.855  0.2923 -2.7308 -1.6073
 3273SOL    HW221279   1.809   3.185   9.979  1.2402 -1.2017  1.5829
 3274SOL     OW21280   1.662   1.624   5.153  0.3049 -0.6544  0.2923
 3274SOL    HW121281   1.726   1.553   5.156 -1.6411 -2.3034  2.4552
 3274SOL    HW221282   1.683   1.663   5.237 -0.4682 -1.0175  0.6522
 3275SOL     OW21283   4.210   2.647   8.580 -0.0634 -0.5806  0.2109
 3275SOL    HW121284   4.159   2.707   8.526  0.4482  0.7203  1.1771
 3275SOL    HW221285   4.283   2.703   8.605 -1.1347  0.8137  0.1983
 3276SOL     OW21286   0.792   2.819   8.747  0.4759  0.2413 -0.2461
 3276SOL    HW121287   0.772   2.882   8.678  0.4088  0.2202 -0.2455
 3276SOL    HW221288   0.793   2.740   8.692  2.5052  0.8470 -1.1107
 3277SOL     OW21289   3.019   0.797  10.141  0.1910  0.2076 -0.1622
 3277SOL    HW121290   2.988   0.814  10.052 -0.4037  1.4265  0.2872
 3277SOL    HW221291   3.038   0.703  10.135 -0.5891  0.0250  0.2502
 3278SOL     OW21292   1.428   0.686   7.894  0.4176 -0.6823  0.4535
 3278SOL    HW121293   1.336   0.667   7.878  0.3127 -0.6627  1.0432
 3278SOL    HW221294   1.431   0.774   7.855  0.8398  0.5213  3.1876
 3279SOL     OW21295   3.228   1.815   7.770 -0.2414  0.2211 -0.4816
 3279SOL    HW121296   3.138   1.805   7.802 -0.0831  3.1160  0.9030
 3279SOL    HW221297   3.254   1.724   7.782  0.9556  0.3700 -1.9864
 3280SOL     OW21298   1.083   3.495   8.301  0.0314 -0.0604 -0.0361
 3280SOL    HW121299   1.044   3.574   8.336  0.0837 -1.1557  2.4708
 3280SOL    HW221300   1.130   3.551   8.239  0.8096  1.0421  1.5856
 3281SOL     OW21301   0.871   1.032   6.416  0.6110 -0.2457 -0.7979
 3281SOL    HW121302   0.833   1.111   6.378  0.5621  0.5808  1.0083
 3281SOL    HW221303   0.867   1.034   6.511  1.2570 -0.4077 -0.7630
 3282SOL     OW21304   1.998   0.908   8.503  0.5355  0.1778  0.3820
 3282SOL    HW121305   1.924   0.965   8.481 -1.0397 -1.6828  0.8671
 3282SOL    HW221306   2.022   0.943   8.589  1.7179 -1.3467  0.6877
 3283SOL     OW21307   2.244   0.480   7.685 -0.0813 -0.1215 -0.0598
 3283SOL    HW121308   2.210   0.557   7.641  3.1035 -0.6809 -3.5327
 3283SOL    HW221309   2.329   0.513   7.714 -0.9197  2.4305 -0.5548
 3284SOL     OW21310   2.480   0.627   6.601  0.1838 -0.5430  0.1366
 3284SOL    HW121311   2.479   0.535   6.626  1.1931 -0.7586 -0.6327
 3284SOL    HW221312   2.464   0.632   6.507 -0.3530  0.4102  0.2799
 3285SOL     OW21313   1.587   4.206  15.799 -0.3638 -0.2139  0.0348
 3285SOL    HW121314   1.598   4.113  15.817  0.8001  0.0345  0.5713
 3285SOL    HW221315   1.671   4.228  15.759 -0.1483  2.4698  1.9207
 3286SOL     OW21316   4.251   0.783   1.718 -0.1263  0.2176  0.6144
 3286SOL    HW121317   4.323   0.728   1.687  0.2043  0.4905  0.9078
 3286SOL    HW221318   4.190   0.713   1.743  1.2854 -1.4078 -0.5014
 3287SOL     OW21319   3.705   0.596   5.159  0.7106 -0.2446  0.2763
 3287SOL    HW121320   3.632   0.603   5.219  0.8008  1.9431  0.1333
 3287SOL    HW221321   3.725   0.504   5.172  2.0774  0.0259  0.1321
 3288SOL     OW21322   2.713   4.621   6.916  0.6780 -0.6199 -0.2273
 3288SOL    HW121323   2.651   4.645   6.985  1.7042  0.3175  0.3615
 3288SOL    HW221324   2.790   4.663   6.953  0.9082  0.3721 -1.8216
 3289SOL     OW21325   1.301   2.871  11.998 -0.2448 -0.3619 -0.0763
 3289SOL    HW121326   1.295   2.799  12.061  0.4483 -0.9278 -0.6641
 3289SOL    HW221327   1.226   2.923  12.029  1.8262  2.0294  0.9479
 3290SOL     OW21328   2.984   1.739   3.343  0.2316  0.0895  0.3958
 3290SOL    HW121329   3.047   1.692   3.287 -0.7182 -0.8961  0.1537
 3290SOL    HW221330   2.950   1.656   3.376 -1.3743  0.2220 -0.8981
 3291SOL     OW21331   3.423   1.073  10.917  0.2990 -0.8470 -0.1347
 3291SOL    HW121332   3.471   1.135  10.972  1.5174 -0.4067 -1.7145
 3291SOL    HW221333   3.482   1.002  10.893 -0.2136 -1.9183  1.7325
 3292SOL     OW21334   1.630   0.989   4.136  0.2236  0.1160  0.3399
 3292SOL    HW121335   1.644   1.023   4.048  1.0981 -1.6067 -0.1973
 3292SOL    HW221336   1.561   1.046   4.170  1.8489  2.0131  0.4511
 3293SOL     OW21337   1.383   2.672   9.085  0.4557  0.1620 -0.3497
 3293SOL    HW121338   1.320   2.627   9.142  1.8343  0.2957  1.2997
 3293SOL    HW221339   1.421   2.600   9.034  1.6918  0.1484  0.5961
 3294SOL     OW21340   2.511   3.227   8.045 -0.0091  0.4216  0.7066
 3294SOL    HW121341   2.454   3.160   8.083 -0.9292  0.1160 -1.2175
 3294SOL    HW221342   2.591   3.175   8.041 -1.2226 -1.1577 -2.2239
 3295SOL     OW21343   3.497   1.712   8.350  0.4599  0.3545  0.3549
 3295SOL    HW121344   3.542   1.752   8.425 -1.7628  1.3189  1.1637
 3295SOL    HW221345   3.413   1.686   8.388  0.9660 -0.5071  0.9045
 3296SOL     OW21346   0.402   0.098   3.770 -0.3100  0.2181  0.2753
 3296SOL    HW121347   0.332   0.162   3.756 -0.0430  0.2579 -0.8636
 3296SOL    HW221348   0.345   0.024   3.788  0.8987 -0.7817  0.0120
 3297SOL     OW21349   0.034   4.460   6.858 -0.4468  0.3057  0.3597
 3297SOL    HW121350   4.678   4.513   6.856 -0.0070  0.9162 -2.1971
 3297SOL    HW221351   0.017   4.393   6.792 -1.8109  1.0265 -0.0175
 3298SOL     OW21352   4.624   2.421  13.993  0.3414 -0.1289  0.4218
 3298SOL    HW121353   4.643   2.334  13.959  1.0023  0.9629 -1.9902
 3298SOL    HW221354   4.541   2.439  13.947  1.3520  1.6178 -0.7031
 3299SOL     OW21355   0.303   0.462  10.539 -1.2345  0.3440  0.3827
 3299SOL    HW121356   0.304   0.531  10.606 -0.4528  1.0295 -0.3356
 3299SOL    HW221357   0.236   0.502  10.484  0.0204 -0.9002 -2.0435
 3300SOL     OW21358   4.438   1.607  10.645  0.3573 -0.2116 -0.0649
 3300SOL    HW121359   4.408   1.557  10.721  0.3960 -0.9954 -0.5609
 3300SOL    HW221360   4.424   1.536  10.582 -0.8711  1.4085 -1.6219
 3301SOL     OW21361   2.745   1.465   7.375  0.3936  0.1088 -0.0572
 3301SOL    HW121362   2.830   1.507   7.361  1.4842 -1.4716  1.6972
 3301SOL    HW221363   2.712   1.525   7.442 -1.9384  1.3832 -2.3641
 3302SOL     OW21364   3.255   4.084  10.294 -1.0423 -0.2074 -0.0142
 3302SOL    HW121365   3.227   4.050  10.209  0.7626  0.5455 -0.9131
 3302SOL    HW221366   3.215   4.171  10.281 -0.5374  0.0078 -0.1197
 3303SOL     OW21367   4.699   2.270   0.834 -0.2058  0.0434  0.0033
 3303SOL    HW121368   4.714   2.247   0.926 -1.1087  2.3191  0.7232
 3303SOL    HW221369   4.628   2.210   0.811 -0.2693  0.6736 -1.4027
 3304SOL     OW21370   0.887   2.117  16.124  0.5078  0.3667 -0.5117
 3304SOL    HW121371   0.833   2.045  16.156  1.6066 -0.4369 -0.4629
 3304SOL    HW221372   0.823   2.167  16.073  0.8620 -2.1997 -3.4357
 3305SOL     OW21373   2.957   2.453   0.912 -0.2771  0.3346 -0.0306
 3305SOL    HW121374   2.985   2.367   0.943  0.6171  1.4759  2.3344
 3305SOL    HW221375   3.025   2.511   0.947 -1.4714  2.6010 -1.4524
 3306SOL     OW21376   2.654   0.397   9.447 -0.7288 -0.6775  0.0758
 3306SOL    HW121377   2.745   0.408   9.472 -1.0426  1.2669  0.3819
 3306SOL    HW221378   2.626   0.489   9.452  1.8178  0.1959 -1.9089
 3307SOL     OW21379   3.376   2.893  16.710 -0.4924 -1.3171  0.2463
 3307SOL    HW121380   3.370   2.806  16.670 -0.8182 -0.2236 -2.0724
 3307SOL    HW221381   3.461   2.874  16.751  0.5728  0.5194 -1.0744
 3308SOL     OW21382   1.690   3.992   6.900 -0.3037 -0.2588 -0.0667
 3308SOL    HW121383   1.772   4.015   6.943  0.3181 -0.6395 -1.0277
 3308SOL    HW221384   1.711   3.903   6.871  0.3438 -1.1412  3.1184
 3309SOL     OW21385   0.684   0.853   4.331 -0.3444 -0.5996 -0.3139
 3309SOL    HW121386   0.771   0.818   4.348 -0.0619  0.0645 -0.3940
 3309SOL    HW221387   0.652   0.840   4.420  1.4954 -1.4726  0.2051
 3310SOL     OW21388   3.966   4.619   8.123  0.1980 -0.1932  0.0921
 3310SOL    HW121389   3.990   4.618   8.216  1.2233  2.5207 -0.1417
 3310SOL    HW221390   4.050   4.642   8.083  1.0117  1.2580  2.6428
 3311SOL     OW21391   3.728   0.145  16.196  0.4268  0.4075 -0.2478
 3311SOL    HW121392   3.806   0.142  16.250 -0.2121 -0.6380  0.6344
 3311SOL    HW221393   3.686   0.062  16.221  0.2173  0.6615  0.2278
 3312SOL     OW21394   0.689   4.249   5.059  0.1917 -0.1562  0.0209
 3312SOL    HW121395   0.710   4.339   5.084 -1.4081 -0.0826  1.1488
 3312SOL    HW221396   0.724   4.190   5.126  2.0511  1.4511  0.4487
 3313SOL     OW21397   1.415   2.555   8.727 -0.1451 -0.2627  0.1179
 3313SOL    HW121398   1.441   2.478   8.675  0.8453 -1.4938  2.4456
 3313SOL    HW221399   1.425   2.515   8.813 -0.1236 -0.3366  0.0815
 3314SOL     OW21400   0.871   2.158   7.230 -0.0837 -0.1731  0.5428
 3314SOL    HW121401   0.928   2.098   7.277 -0.6305 -0.8385  0.3536
 3314SOL    HW221402   0.915   2.160   7.145  2.2632 -0.6373  1.7653
 3315SOL     OW21403   0.143   3.692   4.173  0.1654 -0.6188 -0.0133
 3315SOL    HW121404   0.203   3.618   4.173 -0.5910 -1.2272  0.4164
 3315SOL    HW221405   0.056   3.652   4.180  0.5392 -1.4785 -0.4047
 3316SOL     OW21406   1.037   1.368   1.167  0.1453  0.7733 -0.1666
 3316SOL    HW121407   1.092   1.432   1.120  1.3950 -0.3341 -0.2094
 3316SOL    HW221408   1.028   1.408   1.254  0.9158  0.7700 -0.0796
 3317SOL     OW21409   3.937   1.932   8.654  0.0400  0.3993  0.0204
 3317SOL    HW121410   3.977   1.900   8.735  0.5921  2.3810  0.5280
 3317SOL    HW221411   3.913   2.020   8.682 -3.3121 -1.0713  1.7013
 3318SOL     OW21412   1.692   2.358  12.211  0.1794  0.2218 -0.4474
 3318SOL    HW121413   1.756   2.424  12.239 -3.2550  2.8735  1.1888
 3318SOL    HW221414   1.712   2.286  12.271  1.3634  0.0830 -1.0228
 3319SOL     OW21415   4.167   2.826  12.365  0.4465  0.1347  0.1890
 3319SOL    HW121416   4.230   2.898  12.375 -1.1570  1.6500 -0.7155
 3319SOL    HW221417   4.215   2.774  12.301 -1.6644 -0.0884 -1.1876
 3320SOL     OW21418   2.570   0.360  14.758  0.3788  0.1567 -0.1496
 3320SOL    HW121419   2.536   0.347  14.670  0.9979  1.5890 -0.6105
 3320SOL    HW221420   2.585   0.269  14.781 -1.2131  0.0347  0.4361
 3321SOL     OW21421   1.249   4.548  17.021 -0.7209 -0.1931  0.5403
 3321SOL    HW121422   1.219   4.460  16.998  1.7759 -1.2144  1.2457
 3321SOL    HW221423   1.169   4.595  16.997  0.2416  1.1770  0.0225
 3322SOL     OW21424   4.633   4.123   7.356 -0.1105  0.0763 -0.0853
 3322SOL    HW121425   4.560   4.075   7.315  0.8758 -1.2000 -0.3610
 3322SOL    HW221426   4.585   4.152   7.434  1.0512 -0.1134  0.6959
 3323SOL     OW21427   2.042   0.885   7.827 -0.1161 -0.4293  0.4905
 3323SOL    HW121428   2.048   0.844   7.741  0.5248  0.1767  0.2387
 3323SOL    HW221429   2.012   0.974   7.805  2.0429 -0.5334 -2.8942
 3324SOL     OW21430   0.710   2.624   1.035 -0.3127  0.3984 -0.4073
 3324SOL    HW121431   0.692   2.580   1.118  0.7184  0.4038 -0.1722
 3324SOL    HW221432   0.742   2.711   1.060  1.4824 -0.2914 -0.3397
 3325SOL     OW21433   1.915   3.530  12.420  0.4140 -0.4413 -0.0276
 3325SOL    HW121434   2.005   3.499  12.425  0.2522 -0.8073  0.5050
 3325SOL    HW221435   1.908   3.577  12.503  3.0524 -0.0691 -0.0423
 3326SOL     OW21436   1.447   2.545  15.419  0.4410 -0.0870  0.4689
 3326SOL    HW121437   1.538   2.532  15.394  1.1514  2.1343  1.8553
 3326SOL    HW221438   1.401   2.524  15.338  1.1419  3.6079 -0.9138
 3327SOL     OW21439   0.503   2.082   0.421  0.9910 -0.1830  0.0273
 3327SOL    HW121440   0.576   2.030   0.389  0.5456 -0.3678 -0.6827
 3327SOL    HW221441   0.434   2.075   0.355  0.0291  1.2569  0.8585
 3328SOL     OW21442   3.777   3.637   5.572 -0.6570  0.6882  0.1364
 3328SOL    HW121443   3.753   3.649   5.664 -1.0496 -0.1042  0.1416
 3328SOL    HW221444   3.839   3.564   5.579  0.7933  1.7081 -2.2430
 3329SOL     OW21445   3.617   2.941   2.408 -0.3674  0.4247  0.0553
 3329SOL    HW121446   3.660   2.958   2.492 -0.6956  0.5188  0.2046
 3329SOL    HW221447   3.580   2.854   2.422  1.8617 -0.2368  1.8106
 3330SOL     OW21448   3.128   3.097  15.017  0.9786 -0.0217  0.0391
 3330SOL    HW121449   3.170   3.183  15.013 -2.2847  1.6150  0.4818
 3330SOL    HW221450   3.084   3.104  15.102 -2.0841  1.7378 -1.6764
 3331SOL     OW21451   1.887   4.116  10.025  0.0082 -0.4062  0.1003
 3331SOL    HW121452   1.972   4.160  10.034 -0.0355  0.1251 -2.1749
 3331SOL    HW221453   1.821   4.176  10.060  1.5386  0.7102  1.0920
 3332SOL     OW21454   0.940   2.612   0.325 -0.6198  0.4109 -0.2661
 3332SOL    HW121455   0.845   2.619   0.317 -0.6902 -0.1808  0.0062
 3332SOL    HW221456   0.960   2.621   0.232 -1.7883  0.3883 -0.5250
 3333SOL     OW21457   0.602   4.618   3.072  0.1018  0.5709  0.2178
 3333SOL    HW121458   0.574   4.669   2.995  1.8381  0.6783 -0.3351
 3333SOL    HW221459   0.549   4.539   3.062 -0.3153  0.7554  0.9456
 3334SOL     OW21460   1.110   3.006  14.702 -0.4692 -0.3186 -0.4660
 3334SOL    HW121461   1.022   3.008  14.740 -1.2223 -0.3946 -2.2301
 3334SOL    HW221462   1.107   2.925  14.652  0.0284 -0.6224 -0.0105
 3335SOL     OW21463   3.852   1.207   7.993 -0.3701  0.3089 -0.6682
 3335SOL    HW121464   3.833   1.233   7.903  1.9057 -3.2688 -2.2043
 3335SOL    HW221465   3.923   1.144   7.977  0.5660  1.4479 -0.9957
 3336SOL     OW21466   1.387   2.005   2.892  0.5108  0.5725 -0.5597
 3336SOL    HW121467   1.463   1.979   2.944  1.7143  2.9731 -1.0737
 3336SOL    HW221468   1.347   2.075   2.944 -1.0674 -0.7656  0.0257
 3337SOL     OW21469   1.005   4.069  10.384 -0.0494  0.0637  0.2036
 3337SOL    HW121470   0.944   4.139  10.407 -0.0490  0.1790 -0.1494
 3337SOL    HW221471   0.974   4.046  10.296  2.7669 -0.1186 -0.7303
 3338SOL     OW21472   3.098   2.144  11.831 -0.1364  0.6469  0.4609
 3338SOL    HW121473   3.141   2.111  11.752  0.0040  2.0815 -0.0457
 3338SOL    HW221474   3.010   2.107  11.821 -0.8794  1.7909  2.8922
 3339SOL     OW21475   4.117   0.077  12.822 -0.1810 -0.1240  0.3283
 3339SOL    HW121476   4.166   4.720  12.831 -2.0263 -1.0511  2.1436
 3339SOL    HW221477   4.053   0.053  12.754 -1.8816  0.0652  1.8587
 3340SOL     OW21478   0.735   0.834   9.430 -0.6696 -0.4986  0.1922
 3340SOL    HW121479   0.779   0.749   9.436  0.1392 -0.0451  0.6185
 3340SOL    HW221480   0.644   0.805   9.440 -0.7385 -1.1435 -2.2042
 3341SOL     OW21481   3.114   4.311  10.238  0.4443 -0.1744  0.2593
 3341SOL    HW121482   3.056   4.317  10.162 -3.0313  1.4217  3.0847
 3341SOL    HW221483   3.177   4.377  10.209 -0.2870  1.6945  2.9363
 3342SOL     OW21484   1.836   3.889   6.626 -0.0230 -0.1712 -0.6875
 3342SOL    HW121485   1.809   3.800   6.607  1.3277 -0.8078  0.3825
 3342SOL    HW221486   1.916   3.903   6.575 -0.7993 -0.2788 -1.9433
 3343SOL     OW21487   2.549   1.468   2.010  0.3664  0.0855  0.1103
 3343SOL    HW121488   2.505   1.514   2.082 -0.5194 -2.0677  0.9253
 3343SOL    HW221489   2.542   1.541   1.948  0.5934  1.9394  2.2640
 3344SOL     OW21490   0.743   0.611   5.298 -0.1474 -0.4157 -0.0376
 3344SOL    HW121491   0.779   0.543   5.241 -0.1353 -1.4379  1.1691
 3344SOL    HW221492   0.691   0.564   5.363 -0.6008 -0.9633 -0.7991
 3345SOL     OW21493   1.184   2.981   4.428 -0.0471 -0.2105 -0.5783
 3345SOL    HW121494   1.204   3.062   4.476 -1.4440  0.1450 -0.5904
 3345SOL    HW221495   1.231   2.917   4.481 -0.4816  1.0376  1.3166
 3346SOL     OW21496   2.504   0.789   0.591 -0.1238  0.1027 -0.1351
 3346SOL    HW121497   2.481   0.834   0.672  2.4794 -1.7646  1.6479
 3346SOL    HW221498   2.462   0.836   0.520 -1.8639 -0.4387  0.5416
 3347SOL     OW21499   1.862   4.575   4.478  0.0158  0.4155 -0.1599
 3347SOL    HW121500   1.831   4.604   4.393  0.0797  1.1860  0.0774
 3347SOL    HW221501   1.826   4.486   4.482  1.1611  0.0138  1.6261
 3348SOL     OW21502   0.980   3.195   4.217 -0.0267 -0.3892 -0.6424
 3348SOL    HW121503   0.958   3.278   4.174  0.7108  0.2737  0.2642
 3348SOL    HW221504   0.922   3.184   4.293  1.2056  0.7540  0.4443
 3349SOL     OW21505   2.455   0.589   7.806  0.0009 -0.3671  0.4398
 3349SOL    HW121506   2.422   0.670   7.845 -0.3045 -1.0383  1.5438
 3349SOL    HW221507   2.539   0.623   7.773 -0.8328  1.2160 -0.0849
 3350SOL     OW21508   3.976   0.496   7.497 -0.2910  0.8040  0.1766
 3350SOL    HW121509   3.960   0.482   7.403  0.8654 -1.2243  0.2891
 3350SOL    HW221510   4.066   0.475   7.520 -0.8840 -2.5402 -0.5966
 3351SOL     OW21511   1.881   3.624   8.181  0.3378 -0.2227  0.8250
 3351SOL    HW121512   1.974   3.604   8.171  0.0960 -0.4247 -0.9780
 3351SOL    HW221513   1.882   3.673   8.263 -1.5704  2.7082 -0.9003
 3352SOL     OW21514   1.611   4.514  14.894  0.3491 -0.2920  0.1400
 3352SOL    HW121515   1.701   4.487  14.876  1.3110  2.5279  0.8373
 3352SOL    HW221516   1.560   4.464  14.830  0.2839 -1.9345  1.4736
 3353SOL     OW21517   2.317   3.695   4.942 -0.7261  0.1014  0.3285
 3353SOL    HW121518   2.313   3.777   4.891  0.1670 -0.2065 -0.2340
 3353SOL    HW221519   2.408   3.704   4.970 -0.0279 -2.3097 -1.1321
 3354SOL     OW21520   3.194   4.364   9.679 -0.2691 -0.1135 -0.2427
 3354SOL    HW121521   3.197   4.449   9.722  2.7597 -1.0492  1.3961
 3354SOL    HW221522   3.171   4.307   9.752  0.5460 -1.9295 -1.4030
 3355SOL     OW21523   1.438   2.697   2.815 -0.2489  0.0551 -0.6848
 3355SOL    HW121524   1.344   2.705   2.831 -0.1452 -0.9233  0.4445
 3355SOL    HW221525   1.471   2.786   2.799  0.5105  0.0875  0.9806
 3356SOL     OW21526   0.153   3.164   6.931  0.5164  0.6085 -0.8005
 3356SOL    HW121527   0.104   3.246   6.926  1.0352  0.9780  0.1706
 3356SOL    HW221528   0.160   3.156   7.027 -1.7589  1.8121 -0.5352
 3357SOL     OW21529   3.755   3.272   3.830 -0.6536  0.8643  0.3036
 3357SOL    HW121530   3.805   3.316   3.761 -0.8683  1.5240  0.5684
 3357SOL    HW221531   3.797   3.187   3.845 -0.4635  0.8324 -0.3845
 3358SOL     OW21532   0.081   1.227   4.055  0.1552  0.0647  0.1603
 3358SOL    HW121533   0.136   1.208   3.979 -0.6465 -1.7264  0.0266
 3358SOL    HW221534   0.120   1.310   4.081  0.4364 -0.3379  1.0275
 3359SOL     OW21535   4.518   4.380  12.870 -0.1467  0.2004  0.1261
 3359SOL    HW121536   4.423   4.392  12.873 -0.4662 -2.4855  0.7677
 3359SOL    HW221537   4.530   4.301  12.818  0.5857  0.0350  0.5545
 3360SOL     OW21538   0.126   2.803   5.792 -0.8270  0.0239 -0.0779
 3360SOL    HW121539   0.134   2.713   5.824  0.4072 -0.1980 -1.0390
 3360SOL    HW221540   0.147   2.852   5.871  2.3892 -0.9239 -0.3675
 3361SOL     OW21541   3.932   1.188   9.221 -0.0894 -0.8058 -0.3886
 3361SOL    HW121542   3.923   1.093   9.225 -1.7599 -0.6303 -0.0365
 3361SOL    HW221543   3.982   1.210   9.299  0.1615  0.0155 -0.7812
 3362SOL     OW21544   4.375   2.560   5.246  0.4050  0.3865 -0.2692
 3362SOL    HW121545   4.395   2.564   5.153 -0.0426  1.9189 -0.3007
 3362SOL    HW221546   4.366   2.466   5.258 -1.1210  0.1775 -3.1214
 3363SOL     OW21547   1.876   2.960   9.296 -0.4164  0.1981 -0.3275
 3363SOL    HW121548   1.898   2.918   9.380 -0.4605  0.2444 -0.2929
 3363SOL    HW221549   1.841   2.892   9.238  0.4653  1.0573 -1.8417
 3364SOL     OW21550   3.774   0.389   8.591  0.2482  0.0132 -0.0423
 3364SOL    HW121551   3.870   0.389   8.596  0.2574  1.8954  0.0159
 3364SOL    HW221552   3.753   0.299   8.616  1.7895 -0.5686 -0.8666
 3365SOL     OW21553   2.266   1.936   8.500  0.4880  0.0288 -0.3913
 3365SOL    HW121554   2.278   1.842   8.488 -1.3525 -0.3598  0.9484
 3365SOL    HW221555   2.340   1.961   8.444  0.4021 -1.3143 -1.0912
 3366SOL     OW21556   4.610   0.813  15.021  0.9259 -0.2946  0.1382
 3366SOL    HW121557   4.674   0.863  15.073  1.0277  0.1241 -0.3906
 3366SOL    HW221558   4.667   0.801  14.945 -0.1827 -2.9742 -0.2595
 3367SOL     OW21559   0.550   3.315   2.383  0.3988 -0.5100 -0.0654
 3367SOL    HW121560   0.614   3.253   2.348  1.1021 -0.5188  1.2518
 3367SOL    HW221561   0.532   3.380   2.314 -1.0323 -1.7987 -0.9233
 3368SOL     OW21562   1.903   3.828  15.724 -0.3240 -0.5076 -0.0841
 3368SOL    HW121563   1.968   3.880  15.677 -0.7927 -0.6000 -0.8434
 3368SOL    HW221564   1.959   3.751  15.724 -1.7311 -1.5241 -0.1395
 3369SOL     OW21565   0.881   0.655   4.001 -0.7256  0.2128  0.2489
 3369SOL    HW121566   0.893   0.665   3.906  2.7888  3.0015  0.9828
 3369SOL    HW221567   0.824   0.578   3.999 -2.9633  1.8002  4.1267
 3370SOL     OW21568   2.099   1.977   0.147  0.2928  0.5531  0.5602
 3370SOL    HW121569   2.114   2.068   0.121 -4.2245  0.6651 -1.7874
 3370SOL    HW221570   2.177   1.960   0.199  0.1039  0.5558  0.8444
 3371SOL     OW21571   4.617   3.036   2.572 -0.0241  0.0327  0.1499
 3371SOL    HW121572   4.609   3.042   2.667  1.5746 -0.7115  0.3419
 3371SOL    HW221573   4.567   2.956   2.557 -0.1554  0.2582 -0.6096
 3372SOL     OW21574   1.493   0.072   4.560  0.5037  0.3604 -0.5037
 3372SOL    HW121575   1.401   0.065   4.587  1.1692 -2.7159  0.9960
 3372SOL    HW221576   1.485   0.050   4.467  0.2506  0.5189 -0.5204
 3373SOL     OW21577   2.048   1.723   4.322  0.0408 -0.2504 -0.1589
 3373SOL    HW121578   2.013   1.796   4.271  0.1206 -0.9866 -1.2478
 3373SOL    HW221579   2.008   1.645   4.286 -2.4253  1.6102 -1.4471
 3374SOL     OW21580   4.388   3.001  10.590 -0.2992 -0.0195 -0.2714
 3374SOL    HW121581   4.369   2.986  10.497  0.2551 -2.5705  0.0273
 3374SOL    HW221582   4.383   2.907  10.610 -2.2124  0.3358  0.8138
 3375SOL     OW21583   4.011   3.758  15.141 -0.0566  0.4772 -0.3564
 3375SOL    HW121584   4.007   3.844  15.185 -0.5096  1.2057 -1.8159
 3375SOL    HW221585   3.941   3.771  15.077  0.1490 -1.2811 -0.9167
 3376SOL     OW21586   1.702   4.570   7.554  0.9245  0.1740  0.6765
 3376SOL    HW121587   1.696   4.648   7.499 -3.7842 -1.1919 -0.7695
 3376SOL    HW221588   1.735   4.506   7.492 -2.4457 -1.2816  0.3726
 3377SOL     OW21589   2.072   3.854  11.955 -0.1710  0.2386 -0.0042
 3377SOL    HW121590   2.038   3.770  11.988 -1.0707  0.9177  0.7795
 3377SOL    HW221591   2.102   3.908  12.028 -0.3758 -0.5907  0.6957
 3378SOL     OW21592   1.624   2.472   2.723 -0.2149  0.0417 -0.1011
 3378SOL    HW121593   1.597   2.447   2.635  0.2226  1.2861 -0.5875
 3378SOL    HW221594   1.580   2.556   2.738  0.0644  0.2862 -0.6310
 3379SOL     OW21595   1.850   0.771   4.268  0.2307  0.3094 -0.4500
 3379SOL    HW121596   1.811   0.835   4.209 -1.0203  1.9501  2.1726
 3379SOL    HW221597   1.813   0.807   4.348  0.9710 -1.6654  0.7779
 3380SOL     OW21598   4.088   3.853   5.660  0.2163 -0.2021  0.1225
 3380SOL    HW121599   4.161   3.914   5.658  0.8661 -0.9882 -0.3491
 3380SOL    HW221600   4.017   3.917   5.666  1.6803  1.2993  1.4240
 3381SOL     OW21601   1.405   0.359  10.554  0.5190 -0.6451  0.5271
 3381SOL    HW121602   1.485   0.354  10.503  0.4475 -1.0474  0.4569
 3381SOL    HW221603   1.432   0.424  10.619  1.2032 -1.6637  1.2580
 3382SOL     OW21604   2.244   3.551  13.590 -0.0456 -0.1268  0.3316
 3382SOL    HW121605   2.296   3.631  13.603 -0.5727 -0.2222  2.9445
 3382SOL    HW221606   2.312   3.497  13.551 -0.5999 -0.3479 -0.3208
 3383SOL     OW21607   1.313   1.514   0.670  0.5520 -0.2631 -0.1561
 3383SOL    HW121608   1.224   1.532   0.638  0.5280 -1.6750 -0.8809
 3383SOL    HW221609   1.314   1.421   0.692  0.0329 -0.3432 -0.4705
 3384SOL     OW21610   1.850   4.146   2.310  0.1868 -0.3445  0.2285
 3384SOL    HW121611   1.923   4.130   2.370 -0.0851  0.8608  0.8901
 3384SOL    HW221612   1.775   4.133   2.368 -1.4842  2.4891 -1.2830
 3385SOL     OW21613   4.135   3.160  14.403  0.4370 -0.0702  0.4849
 3385SOL    HW121614   4.053   3.201  14.430  0.3082 -0.3894  0.5829
 3385SOL    HW221615   4.121   3.066  14.391  1.9033 -0.0489 -1.4609
 3386SOL     OW21616   3.031   1.880   8.866 -0.1743 -0.1705 -0.4010
 3386SOL    HW121617   3.111   1.915   8.904  1.0547 -0.8365 -2.3329
 3386SOL    HW221618   3.034   1.794   8.909 -0.6031 -1.8938 -3.7556
 3387SOL     OW21619   2.593   0.780   7.655 -0.3925  0.0279  0.0960
 3387SOL    HW121620   2.650   0.857   7.650 -0.8418  0.2616 -1.5644
 3387SOL    HW221621   2.513   0.831   7.667 -0.5350 -0.1085 -0.2685
 3388SOL     OW21622   3.208   2.386  13.981  0.1923  0.4585 -0.1168
 3388SOL    HW121623   3.190   2.467  13.932  2.5200  2.0384  1.6206
 3388SOL    HW221624   3.289   2.361  13.936  0.7087  2.6510 -0.4399
 3389SOL     OW21625   3.871   3.810  14.935  0.0046 -0.3869 -0.1929
 3389SOL    HW121626   3.779   3.820  14.910  0.2449 -0.9620 -1.2825
 3389SOL    HW221627   3.890   3.900  14.963 -1.8837  0.5730 -2.0203
 3390SOL     OW21628   3.818   2.785   8.865  0.0479 -0.7419  0.7885
 3390SOL    HW121629   3.890   2.730   8.896  1.9248  1.9231  1.1191
 3390SOL    HW221630   3.851   2.828   8.786 -0.5364  1.1728  1.5868
 3391SOL     OW21631   1.967   1.631   6.237  0.2391  0.2249 -0.0684
 3391SOL    HW121632   1.918   1.559   6.198  0.6939 -1.2405  2.0222
 3391SOL    HW221633   2.029   1.648   6.167 -0.5830  2.4548 -0.2535
 3392SOL     OW21634   0.097   2.683   2.845  0.1458  0.2336 -0.2111
 3392SOL    HW121635   0.033   2.658   2.778  0.0667 -0.0612 -0.0240
 3392SOL    HW221636   0.069   2.768   2.879 -2.4742 -0.4969 -0.5727
 3393SOL     OW21637   2.456   3.946   1.100  0.5827 -0.3369  0.2145
 3393SOL    HW121638   2.401   3.892   1.042  0.5209  0.6374 -0.6307
 3393SOL    HW221639   2.393   4.005   1.142  0.2793 -0.6763  0.2454
 3394SOL     OW21640   0.970   3.772  16.928  0.4259  0.2765 -0.2476
 3394SOL    HW121641   1.011   3.843  16.879 -1.8092  1.3266 -0.5951
 3394SOL    HW221642   0.900   3.820  16.972  0.0818  0.4565 -1.0051
 3395SOL     OW21643   4.103   3.254   5.802 -0.2191 -0.1982  0.5481
 3395SOL    HW121644   4.192   3.277   5.828  0.8306 -2.5825 -0.9403
 3395SOL    HW221645   4.053   3.328   5.836 -0.0760 -0.4089  1.2174
 3396SOL     OW21646   0.886   1.067   8.231 -0.1403  0.1404  0.1263
 3396SOL    HW121647   0.923   0.983   8.204 -1.6520  0.3338 -2.5895
 3396SOL    HW221648   0.905   1.061   8.324  0.7382  1.4147  0.0321
 3397SOL     OW21649   4.252   3.948   7.530  0.2903 -0.0191  0.3425
 3397SOL    HW121650   4.169   3.993   7.520  0.9291  0.6260 -2.0357
 3397SOL    HW221651   4.261   3.894   7.451 -1.6972  0.1483  0.0125
 3398SOL     OW21652   3.753   1.919   7.817  0.2234 -0.0024 -0.4115
 3398SOL    HW121653   3.705   1.850   7.771  0.1535 -0.5458  0.4614
 3398SOL    HW221654   3.733   1.897   7.908 -0.2790 -1.4959 -0.8803
 3399SOL     OW21655   3.456   0.182   2.676  0.1691 -0.1305 -0.0770
 3399SOL    HW121656   3.368   0.159   2.705 -0.5732  1.5936 -1.0316
 3399SOL    HW221657   3.511   0.103   2.674 -0.6676 -0.6665 -1.4467
 3400SOL     OW21658   4.509   3.739   3.386 -0.2964  0.1481  0.1611
 3400SOL    HW121659   4.450   3.775   3.452 -1.3296 -0.8100 -0.2388
 3400SOL    HW221660   4.464   3.705   3.308 -0.0533  2.2382 -0.8824
 3401SOL     OW21661   3.866   2.517  16.321 -0.1166 -0.0386  0.0857
 3401SOL    HW121662   3.822   2.436  16.295  0.7060 -0.3415 -0.3738
 3401SOL    HW221663   3.935   2.488  16.381 -1.9718 -1.9561  1.3164
 3402SOL     OW21664   0.179   2.538   5.773 -0.2346  0.0990 -0.1123
 3402SOL    HW121665   0.192   2.446   5.749  1.6004  0.4366 -0.4414
 3402SOL    HW221666   0.105   2.532   5.833  0.7232 -0.1220  1.0505
 3403SOL     OW21667   1.096   2.549   5.537  0.0321  0.4463 -0.3681
 3403SOL    HW121668   1.173   2.579   5.585  1.6020 -2.3675 -1.1026
 3403SOL    HW221669   1.037   2.503   5.597 -0.1934  1.0311 -0.1497
 3404SOL     OW21670   2.097   1.241   3.434 -0.4254 -0.0207 -0.2879
 3404SOL    HW121671   2.130   1.294   3.506  0.4651 -0.0989 -0.6486
 3404SOL    HW221672   2.051   1.171   3.482 -0.0129 -0.7278 -0.9317
 3405SOL     OW21673   2.450   3.823   6.593  0.1540  0.8209 -0.3087
 3405SOL    HW121674   2.437   3.872   6.674 -0.2257 -1.6480  1.1177
 3405SOL    HW221675   2.544   3.839   6.588  0.2671  0.3265  0.2474
 3406SOL     OW21676   0.346   3.794   7.227 -0.4075  0.2474  0.8903
 3406SOL    HW121677   0.277   3.735   7.195 -0.9622  1.9754 -1.1072
 3406SOL    HW221678   0.316   3.825   7.313  0.7866  0.6118  1.1708
 3407SOL     OW21679   0.125   2.451   9.079 -0.0447 -0.3649  0.3715
 3407SOL    HW121680   0.133   2.419   9.169 -0.3536 -2.7587 -0.4558
 3407SOL    HW221681   0.192   2.400   9.035  1.9704 -1.2553  4.4802
 3408SOL     OW21682   1.262   0.934   4.208 -0.0584 -0.1762 -0.3860
 3408SOL    HW121683   1.242   0.858   4.153 -0.2615  0.3550 -1.0410
 3408SOL    HW221684   1.202   0.926   4.281  2.1577  1.5443  1.6162
 3409SOL     OW21685   0.272   2.788   8.718  0.1686 -0.0056  0.3974
 3409SOL    HW121686   0.226   2.830   8.645 -0.5989  0.9414  1.4219
 3409SOL    HW221687   0.197   2.739   8.751  0.0131 -0.4644 -0.6455
 3410SOL     OW21688   0.514   2.350   9.793  0.0580 -0.0195 -0.4680
 3410SOL    HW121689   0.450   2.291   9.753 -0.3183  0.9145 -1.2428
 3410SOL    HW221690   0.568   2.286   9.840 -1.9797 -1.3468  0.0655
 3411SOL     OW21691   4.439   3.600   6.960 -0.4683  0.0074  0.4803
 3411SOL    HW121692   4.417   3.507   6.948 -0.5607  0.1972 -0.7733
 3411SOL    HW221693   4.357   3.648   6.947 -1.4488 -1.8495 -0.2168
 3412SOL     OW21694   0.735   0.662  10.179 -0.2089 -0.1904 -0.6675
 3412SOL    HW121695   0.698   0.685  10.264  1.4534 -0.3916  0.1128
 3412SOL    HW221696   0.821   0.633  10.209  0.7826  3.9388  0.5272
 3413SOL     OW21697   2.018   0.518  16.747  0.5949 -0.5388 -0.7673
 3413SOL    HW121698   1.958   0.482  16.683  0.9977  0.5054 -1.7408
 3413SOL    HW221699   2.100   0.476  16.720  0.6526 -1.6437  1.1480
 3414SOL     OW21700   3.886   0.188   2.960 -0.1125  0.5444 -0.5132
 3414SOL    HW121701   3.814   0.232   2.915 -0.8403  1.9631  2.0273
 3414SOL    HW221702   3.956   0.239   2.919 -0.0097  2.0261  1.5338
 3415SOL     OW21703   0.714   1.569   7.367 -0.3689  0.2925 -0.7023
 3415SOL    HW121704   0.746   1.651   7.405 -1.5005 -0.1762  1.2413
 3415SOL    HW221705   0.660   1.533   7.437 -1.8281  1.8009 -1.0415
 3416SOL     OW21706   1.775   3.920   4.743 -0.5847 -0.1473 -0.4715
 3416SOL    HW121707   1.814   3.832   4.745 -0.6722 -0.1203  1.9062
 3416SOL    HW221708   1.829   3.961   4.675  0.7966 -0.6212  0.3400
 3417SOL     OW21709   4.448   2.422   4.447  0.2670  0.4010 -0.0487
 3417SOL    HW121710   4.380   2.395   4.386  0.0363  0.4807  0.1721
 3417SOL    HW221711   4.439   2.517   4.440 -1.6125  0.2120 -0.1419
 3418SOL     OW21712   1.148   1.967   9.940 -0.5464 -0.0945 -0.2251
 3418SOL    HW121713   1.085   1.960   9.869 -1.2010  1.4915  0.1889
 3418SOL    HW221714   1.130   1.880   9.976 -0.0543 -0.6163 -1.2354
 3419SOL     OW21715   2.278   0.962   4.792 -0.3683 -0.1900 -0.2399
 3419SOL    HW121716   2.209   0.984   4.729 -0.1996 -0.0366 -0.3742
 3419SOL    HW221717   2.331   0.908   4.733  1.2891 -0.3541  1.3836
 3420SOL     OW21718   3.012   0.972   8.668  0.1847 -0.0222 -0.2515
 3420SOL    HW121719   2.986   1.006   8.754  0.8108 -3.9067  1.4805
 3420SOL    HW221720   3.044   0.885   8.691  0.6935  0.5685  1.2858
 3421SOL     OW21721   3.152   1.039   2.823 -0.6782  0.0133  0.7077
 3421SOL    HW121722   3.151   0.996   2.738  0.5238 -0.3753  0.8953
 3421SOL    HW221723   3.212   0.987   2.876 -1.1813 -0.3368  0.9367
 3422SOL     OW21724   0.735   2.913  11.077 -0.1248  0.1356 -0.0554
 3422SOL    HW121725   0.788   2.986  11.110  2.8586 -2.1281  0.0760
 3422SOL    HW221726   0.753   2.924  10.984  0.6163 -0.7829 -0.0128
 3423SOL     OW21727   0.327   4.569   2.963 -0.3965  0.1243 -0.0527
 3423SOL    HW121728   0.363   4.490   2.924 -1.6117  0.1185 -1.1855
 3423SOL    HW221729   0.313   4.618   2.882 -0.5824 -2.1192 -1.3699
 3424SOL     OW21730   4.079   2.558   4.839 -0.4216 -0.6767  0.3829
 3424SOL    HW121731   4.103   2.536   4.929  1.6241 -0.4695 -0.0905
 3424SOL    HW221732   3.985   2.556   4.851 -0.6392  0.7623 -1.0530
 3425SOL     OW21733   2.863   1.216   5.839 -0.4663  0.8234  0.1755
 3425SOL    HW121734   2.838   1.124   5.838  4.0804 -0.3933 -0.4933
 3425SOL    HW221735   2.857   1.239   5.932  3.5212 -1.0556  0.9229
 3426SOL     OW21736   0.307   3.986   0.043 -0.6129 -0.3388 -0.4056
 3426SOL    HW121737   0.228   3.934   0.027 -2.8726  2.8592  0.1940
 3426SOL    HW221738   0.375   3.924   0.018  1.0296  1.0470  0.6520
 3427SOL     OW21739   0.128   3.969   2.141 -0.1403  0.5110 -0.3642
 3427SOL    HW121740   0.119   3.904   2.071  0.9319  2.8956 -2.7106
 3427SOL    HW221741   0.217   3.957   2.173 -1.2456  0.4784  2.7650
 3428SOL     OW21742   1.282   0.262   3.003  0.4287  0.2477  0.2872
 3428SOL    HW121743   1.239   0.340   2.968 -0.1641 -0.7850 -1.3181
 3428SOL    HW221744   1.366   0.277   2.959  0.1582 -0.0477 -0.3381
 3429SOL     OW21745   0.711   3.357   7.502  0.3871 -0.2881 -0.1880
 3429SOL    HW121746   0.658   3.278   7.491  0.1344 -0.2088  0.4948
 3429SOL    HW221747   0.780   3.318   7.556  0.0433 -1.4461 -0.5876
 3430SOL     OW21748   3.687   0.653  13.487 -0.1657 -0.5528 -0.0307
 3430SOL    HW121749   3.717   0.742  13.467 -0.7774  0.1371  2.0433
 3430SOL    HW221750   3.609   0.665  13.542 -0.4474  0.9815 -0.7632
 3431SOL     OW21751   3.599   1.497   5.912 -0.0387  0.7303  0.6391
 3431SOL    HW121752   3.558   1.581   5.893  1.7090  1.7076  1.1790
 3431SOL    HW221753   3.690   1.527   5.912  0.0898  0.2779 -2.6122
 3432SOL     OW21754   1.558   2.036   9.697  0.1628  0.0594  0.3225
 3432SOL    HW121755   1.598   1.956   9.732 -0.5048  0.1484  1.2907
 3432SOL    HW221756   1.506   2.065   9.772  0.9485  1.3027  0.3862
 3433SOL     OW21757   1.324   2.436   2.436 -0.0330  0.3276 -0.3414
 3433SOL    HW121758   1.386   2.418   2.365 -0.5968 -1.5325 -0.3465
 3433SOL    HW221759   1.265   2.504   2.402 -1.8138 -0.6571  0.7860
 3434SOL     OW21760   1.483   3.506   8.940 -0.1597  0.1794 -0.1516
 3434SOL    HW121761   1.543   3.434   8.958 -1.0514 -0.9051 -1.5522
 3434SOL    HW221762   1.526   3.545   8.864  2.5995 -1.7570  0.4101
 3435SOL     OW21763   0.571   0.079   4.222 -0.5061  0.7049 -0.7256
 3435SOL    HW121764   0.627   0.015   4.178 -0.4106  1.2430 -1.3756
 3435SOL    HW221765   0.490   0.034   4.201  0.7565 -1.4797 -0.9275
 3436SOL     OW21766   0.932   1.045   8.485 -0.3675 -0.5348  0.2341
 3436SOL    HW121767   0.919   0.964   8.534  1.9607 -2.7790 -2.8749
 3436SOL    HW221768   0.878   1.106   8.535 -0.8249 -0.2692 -0.5836
 3437SOL     OW21769   3.677   1.038   0.481 -0.0035 -0.1786  0.8741
 3437SOL    HW121770   3.648   0.997   0.562 -3.2812  1.3834  0.4983
 3437SOL    HW221771   3.744   1.094   0.520  0.4022  0.0968 -0.2153
 3438SOL     OW21772   0.916   2.915   4.320  0.0467 -0.0203  0.0483
 3438SOL    HW121773   1.004   2.938   4.349  0.5563 -0.0804 -1.4536
 3438SOL    HW221774   0.868   2.996   4.338 -1.0589 -0.8151  0.7086
 3439SOL     OW21775   1.711   3.934  13.977 -0.4025 -0.1276  0.1610
 3439SOL    HW121776   1.639   3.907  13.920 -1.1660  0.1647  0.9814
 3439SOL    HW221777   1.787   3.923  13.920  0.5813  0.0502  1.4357
 3440SOL     OW21778   4.419   1.818   6.735 -0.2104  0.3129  0.2271
 3440SOL    HW121779   4.355   1.780   6.796  0.1403  0.4329  0.6684
 3440SOL    HW221780   4.351   1.830   6.669  0.6084  0.8416 -0.5215
 3441SOL     OW21781   0.154   4.290  11.774 -0.4577  0.2410  0.8297
 3441SOL    HW121782   0.144   4.362  11.711  0.1102 -0.6588 -0.2649
 3441SOL    HW221783   0.189   4.223  11.716 -2.7736 -0.5065  0.3014
 3442SOL     OW21784   1.510   0.983  14.298 -0.1788  0.0751 -0.6641
 3442SOL    HW121785   1.587   0.971  14.243  1.4220  0.9443  1.4086
 3442SOL    HW221786   1.500   0.897  14.339  1.1490  0.2950  0.1281
 3443SOL     OW21787   4.200   3.962   7.804  0.3455 -0.0099  0.4608
 3443SOL    HW121788   4.245   3.957   7.719  0.1752 -0.2081  0.3841
 3443SOL    HW221789   4.265   3.999   7.865  0.6180  0.5295 -0.1568
 3444SOL     OW21790   2.795   3.118  10.100  0.1812  0.2249 -0.2465
 3444SOL    HW121791   2.709   3.140  10.135  0.8753 -0.5951  1.9849
 3444SOL    HW221792   2.796   3.025  10.122 -0.1543 -1.0365 -5.4490
 3445SOL     OW21793   2.269   2.790  10.548 -0.7276  0.0736  0.4024
 3445SOL    HW121794   2.199   2.769  10.486 -1.6488 -0.0136  1.4683
 3445SOL    HW221795   2.343   2.793  10.487 -0.6828 -1.0282  0.4101
 3446SOL     OW21796   2.951   4.525  12.983  0.4943  0.3538 -0.0341
 3446SOL    HW121797   3.007   4.453  13.012 -1.5545 -0.8876  0.8781
 3446SOL    HW221798   2.909   4.484  12.908  0.7172  1.4508 -0.7492
 3447SOL     OW21799   3.335   2.509  10.824 -0.0156 -0.7163 -0.3071
 3447SOL    HW121800   3.401   2.538  10.761  1.8782 -3.5794  0.3696
 3447SOL    HW221801   3.379   2.442  10.876  0.8775  1.2091  1.4445
 3448SOL     OW21802   4.430   0.458   8.398  0.5379 -0.5117  0.0320
 3448SOL    HW121803   4.353   0.452   8.341 -0.0623 -0.9418  0.8874
 3448SOL    HW221804   4.450   0.364   8.405  0.5334 -0.4615  0.6505
 3449SOL     OW21805   1.812   0.666  15.003 -0.3591 -0.1033  0.0762
 3449SOL    HW121806   1.767   0.581  14.996  0.1038 -0.5119  1.9523
 3449SOL    HW221807   1.826   0.694  14.913  0.2281 -0.2958  0.1090
 3450SOL     OW21808   1.115   4.034   9.240 -0.0383 -0.2104 -0.2339
 3450SOL    HW121809   1.094   3.967   9.175 -2.5888  2.8323 -2.5439
 3450SOL    HW221810   1.123   3.975   9.314  0.4952  1.1617  0.7969
 3451SOL     OW21811   4.328   2.137   8.424  0.3559  0.5211 -0.1404
 3451SOL    HW121812   4.335   2.062   8.366 -1.0266  0.4331 -0.1994
 3451SOL    HW221813   4.247   2.118   8.471 -0.2303  1.5462 -0.7395
 3452SOL     OW21814   0.595   4.528   9.622  0.5137 -0.2228  0.2202
 3452SOL    HW121815   0.690   4.541   9.628  0.3951  0.7131  0.1123
 3452SOL    HW221816   0.574   4.577   9.702  0.6940 -1.5227  1.0629
 3453SOL     OW21817   0.595   2.926   5.328  0.1332 -0.1633 -0.1891
 3453SOL    HW121818   0.546   2.947   5.407 -2.6566 -0.9382 -1.7184
 3453SOL    HW221819   0.666   2.868   5.356  0.7223  1.5723  1.9034
 3454SOL     OW21820   1.576   0.539   8.056 -0.5516  0.0699  0.3030
 3454SOL    HW121821   1.536   0.593   7.986 -2.1751  0.3264  1.4302
 3454SOL    HW221822   1.659   0.584   8.071  0.3638 -1.3560 -0.4866
 3455SOL     OW21823   2.698   3.914  13.258  0.6420  0.6556 -0.9123
 3455SOL    HW121824   2.704   3.946  13.168 -2.0222  0.1826 -1.2745
 3455SOL    HW221825   2.632   3.973  13.294  0.3797 -1.3340  1.8270
 3456SOL     OW21826   0.470   2.182   7.077 -0.4926  1.0717  0.1870
 3456SOL    HW121827   0.513   2.107   7.117 -0.1888  0.6821 -0.8624
 3456SOL    HW221828   0.542   2.237   7.044 -0.1480  2.3022  2.9930
 3457SOL     OW21829   0.752   3.632   3.926 -0.2860 -0.5859 -0.2833
 3457SOL    HW121830   0.681   3.579   3.890 -2.0384  2.2234 -0.9323
 3457SOL    HW221831   0.765   3.687   3.849  1.3522  0.8760  1.0402
 3458SOL     OW21832   2.162   0.405  15.106 -0.7440 -0.1584  0.5073
 3458SOL    HW121833   2.179   0.404  15.012 -0.4214 -1.3387  0.5748
 3458SOL    HW221834   2.095   0.474  15.110 -1.7998 -1.1178 -0.4869
 3459SOL     OW21835   0.955   0.807   5.981 -0.5819  0.2658  0.4179
 3459SOL    HW121836   0.900   0.837   6.053 -0.5168  1.3917 -0.0051
 3459SOL    HW221837   0.909   0.728   5.952  0.0558  0.5830 -1.4578
 3460SOL     OW21838   4.042   4.579   1.238 -0.0549 -0.7908 -0.1302
 3460SOL    HW121839   4.082   4.615   1.159  0.3056 -3.3540 -1.0987
 3460SOL    HW221840   3.964   4.542   1.197 -0.6044 -0.2328  0.4055
 3461SOL     OW21841   0.800   4.512   2.285  0.0248 -0.2401  0.0928
 3461SOL    HW121842   0.793   4.518   2.190 -1.8244  1.6196  0.3600
 3461SOL    HW221843   0.853   4.588   2.309 -0.7755 -0.6319  3.0688
 3462SOL     OW21844   4.150   2.321   4.727 -0.2972  0.2228  0.3490
 3462SOL    HW121845   4.100   2.397   4.757  0.9074  2.0376 -2.2390
 3462SOL    HW221846   4.124   2.307   4.636 -4.1164  0.0165  1.4761
 3463SOL     OW21847   3.890   1.953   2.322  0.3848  0.5280 -0.7837
 3463SOL    HW121848   3.810   1.976   2.274  0.0281  0.3587 -0.2666
 3463SOL    HW221849   3.846   1.906   2.393 -0.1078 -0.4222 -1.7251
 3464SOL     OW21850   1.148   3.479   5.673 -0.2321  0.2213  0.5521
 3464SOL    HW121851   1.226   3.532   5.657  0.0263  0.4637  2.7135
 3464SOL    HW221852   1.142   3.426   5.593 -0.3512  1.5228 -0.3162
 3465SOL     OW21853   0.067   4.648  13.714 -0.3146 -0.0117 -0.2509
 3465SOL    HW121854   4.696   4.659  13.710 -0.3933 -0.5561  0.1151
 3465SOL    HW221855   0.103   4.721  13.764 -1.5880 -0.0305  0.6999
 3466SOL     OW21856   0.202   3.218  14.914  0.3110 -0.0727  0.3920
 3466SOL    HW121857   0.186   3.199  15.006 -1.1717 -1.8965 -0.2436
 3466SOL    HW221858   0.285   3.174  14.895 -0.0712 -2.3826  4.1121
 3467SOL     OW21859   0.554   2.474   6.809 -0.2923  0.2785 -0.1939
 3467SOL    HW121860   0.533   2.405   6.746  1.5774 -0.9506  0.5389
 3467SOL    HW221861   0.565   2.552   6.754  0.2166  0.1990 -0.1991
 3468SOL     OW21862   3.546   1.862   5.504  0.3524  0.4833  0.9718
 3468SOL    HW121863   3.625   1.839   5.552  2.2726  1.6208 -1.6700
 3468SOL    HW221864   3.574   1.948   5.473  2.2573 -0.4763  0.0381
 3469SOL     OW21865   3.111   1.525   1.373  0.5462 -0.0237  0.6870
 3469SOL    HW121866   3.134   1.581   1.299 -1.7711 -1.0831 -0.8186
 3469SOL    HW221867   3.031   1.570   1.398 -0.7949 -0.9194 -1.9493
 3470SOL     OW21868   3.865   2.144   7.310 -0.0102  0.3085 -0.0056
 3470SOL    HW121869   3.782   2.187   7.332 -0.5357 -0.1175 -1.1852
 3470SOL    HW221870   3.858   2.093   7.230  0.4191  1.1410 -0.5696
 3471SOL     OW21871   4.561   0.356   7.949 -0.2075  0.0432 -0.6755
 3471SOL    HW121872   4.469   0.378   7.963  0.1591  0.0049  1.9222
 3471SOL    HW221873   4.572   0.293   8.021 -2.7715 -3.0176 -2.9651
 3472SOL     OW21874   3.133   1.289   5.824  0.4091 -0.3541 -0.1942
 3472SOL    HW121875   3.038   1.298   5.813  0.3735 -1.8780 -1.1114
 3472SOL    HW221876   3.162   1.379   5.809  0.2863  0.0599  2.0900
 3473SOL     OW21877   2.999   2.136   9.877 -0.1879  0.0732 -0.0374
 3473SOL    HW121878   3.030   2.046   9.874 -0.9552 -0.1343 -1.3446
 3473SOL    HW221879   3.066   2.180   9.930  0.9993 -2.7594  0.8125
 3474SOL     OW21880   0.550   3.090  15.378  0.2069 -0.3459  0.3834
 3474SOL    HW121881   0.518   3.110  15.290  1.2332  1.6387  0.4424
 3474SOL    HW221882   0.497   3.154  15.425  0.0266 -0.1554 -0.0765
 3475SOL     OW21883   3.983   2.596   9.123  0.3827 -0.3085 -0.2739
 3475SOL    HW121884   4.035   2.628   9.197 -0.2856  1.0399 -0.3862
 3475SOL    HW221885   3.986   2.503   9.146 -0.9482 -0.0156  1.1056
 3476SOL     OW21886   1.089   4.364   2.726 -0.9934 -0.0769  0.5021
 3476SOL    HW121887   1.077   4.276   2.762 -2.7315  1.0249  2.6313
 3476SOL    HW221888   1.177   4.361   2.690 -1.1606  0.8859  0.0027
 3477SOL     OW21889   2.201   0.225   7.970 -0.4358 -0.2817  0.3778
 3477SOL    HW121890   2.274   0.287   7.966 -0.2831 -0.5362 -0.7667
 3477SOL    HW221891   2.240   0.149   8.011 -0.0952  1.3032  2.9547
 3478SOL     OW21892   4.110   0.756  15.925 -0.2955  0.1865  0.5077
 3478SOL    HW121893   4.141   0.828  15.870 -2.7995  0.4682 -0.5009
 3478SOL    HW221894   4.034   0.799  15.965  0.8452  1.5437  1.2424
 3479SOL     OW21895   4.647   3.260   3.881 -0.2589 -0.5975  0.4785
 3479SOL    HW121896   4.699   3.270   3.800  0.5830  1.6650  1.2973
 3479SOL    HW221897   4.698   3.310   3.944  0.9312 -1.5432  0.2621
 3480SOL     OW21898   2.354   3.357   3.426  0.0234  0.2775  0.2633
 3480SOL    HW121899   2.311   3.282   3.385  1.2765  0.6927 -1.8015
 3480SOL    HW221900   2.432   3.310   3.454  1.7136  1.7244 -2.0407
 3481SOL     OW21901   1.528   1.722   6.303 -0.1436 -0.5289  0.1414
 3481SOL    HW121902   1.592   1.651   6.312 -1.1177 -1.6695 -1.9861
 3481SOL    HW221903   1.478   1.683   6.232  2.3523 -0.7374 -1.5274
 3482SOL     OW21904   0.771   4.699   7.024  0.2590  0.1099  0.5108
 3482SOL    HW121905   0.689   4.664   7.060 -1.3769  1.6098 -1.7883
 3482SOL    HW221906   0.832   4.626   7.015  0.2660  0.0162  1.3297
 3483SOL     OW21907   0.539   2.352   7.777 -0.3069  0.5551  0.1236
 3483SOL    HW121908   0.489   2.411   7.720  0.5707 -0.2963 -1.5224
 3483SOL    HW221909   0.593   2.303   7.715  0.2643  0.8019  0.4288
 3484SOL     OW21910   1.938   4.704   5.977  0.4201 -0.6447 -0.4617
 3484SOL    HW121911   1.988   4.652   6.040 -1.1855 -0.3192  1.0963
 3484SOL    HW221912   2.000   0.017   5.914  0.0534  4.1907  2.0384
 3485SOL     OW21913   1.164   3.274   6.337  0.8629  0.3651  0.2832
 3485SOL    HW121914   1.207   3.290   6.421  0.4295 -0.5334  0.6699
 3485SOL    HW221915   1.180   3.180   6.333 -0.5422  0.0715  1.4542
 3486SOL     OW21916   1.855   2.457   0.658 -0.2846  0.0755 -0.3719
 3486SOL    HW121917   1.821   2.400   0.728 -1.1207  0.7474 -0.2262
 3486SOL    HW221918   1.947   2.432   0.648 -0.2080 -0.7489  2.1991
 3487SOL     OW21919   0.196   1.877   8.258  0.4195 -0.4284 -0.2371
 3487SOL    HW121920   0.274   1.871   8.202 -0.0514 -1.6800 -0.7538
 3487SOL    HW221921   0.177   1.969   8.239 -1.9564 -0.3283  2.6819
 3488SOL     OW21922   2.679   2.165   6.160 -0.2029 -0.0579  0.2064
 3488SOL    HW121923   2.610   2.231   6.170 -1.2113 -1.1769  0.6263
 3488SOL    HW221924   2.752   2.201   6.209  0.7777  0.0091 -1.3064
 3489SOL     OW21925   0.594   1.986   8.006 -0.3742 -1.2736  0.3714
 3489SOL    HW121926   0.527   1.992   7.938 -0.1380  0.5069  0.2843
 3489SOL    HW221927   0.670   1.960   7.952  1.5575  0.6128  2.1770
 3490SOL     OW21928   2.413   3.643  10.975 -0.5261  0.2372  0.0674
 3490SOL    HW121929   2.413   3.547  10.969  2.8187  0.1079  2.2035
 3490SOL    HW221930   2.424   3.653  11.070 -2.5308  1.2670  0.1824
 3491SOL     OW21931   1.240   3.082  10.213  0.2195 -0.5943  0.0699
 3491SOL    HW121932   1.276   3.040  10.135 -0.9763 -1.6031  0.0647
 3491SOL    HW221933   1.288   3.164  10.196 -0.6710  0.0782  0.8146
 3492SOL     OW21934   0.712   3.719   3.102  0.4750  0.1557  0.3722
 3492SOL    HW121935   0.804   3.722   3.128  0.3468 -0.7324  0.9504
 3492SOL    HW221936   0.676   3.773   3.172  1.1136  0.8656  0.1450
 3493SOL     OW21937   1.285   1.696   2.717 -0.4157  0.1659 -0.6044
 3493SOL    HW121938   1.210   1.715   2.660 -0.1984  1.4219 -0.4762
 3493SOL    HW221939   1.268   1.603   2.731  2.4079  0.0923  2.1265
 3494SOL     OW21940   2.946   1.124   6.788  0.4159 -0.2132  0.3053
 3494SOL    HW121941   2.998   1.198   6.821 -0.3132  0.1930  0.5443
 3494SOL    HW221942   2.869   1.124   6.844  1.1807  2.9174  1.3663
 3495SOL     OW21943   1.808   2.569   3.163 -0.4058  0.2981 -0.4233
 3495SOL    HW121944   1.760   2.490   3.138  1.8790 -1.7333  1.6988
 3495SOL    HW221945   1.761   2.627   3.102 -0.0334  1.0700  0.0244
 3496SOL     OW21946   0.514   2.575  17.490 -0.2452 -0.0585  0.1114
 3496SOL    HW121947   0.554   2.488  17.494 -0.3870 -0.1196  0.1625
 3496SOL    HW221948   0.433   2.580  17.540  0.6796 -0.6104  1.6831
 3497SOL     OW21949   3.812   3.353   2.373  0.2928 -0.6977  0.3728
 3497SOL    HW121950   3.821   3.304   2.455 -0.7609  1.5739  1.8364
 3497SOL    HW221951   3.716   3.354   2.377  0.2044 -0.2543 -1.4620
 3498SOL     OW21952   2.721   1.752   3.857  0.7352 -0.5904 -0.0100
 3498SOL    HW121953   2.767   1.702   3.789  1.4325  0.5162 -0.3594
 3498SOL    HW221954   2.650   1.785   3.802 -1.2685  1.2481  3.7350
 3499SOL     OW21955   4.433   2.181   9.467 -0.5929 -0.6693 -0.2960
 3499SOL    HW121956   4.516   2.132   9.470  0.3353  0.9066 -0.2013
 3499SOL    HW221957   4.376   2.105   9.460 -1.1069 -0.1333 -1.8711
 3500SOL     OW21958   3.462   4.408   9.198  0.1562  0.0062  0.4977
 3500SOL    HW121959   3.448   4.370   9.284 -1.7967  2.1900  1.1440
 3500SOL    HW221960   3.493   4.490   9.235  1.0447 -0.5232  0.9198
 3501SOL     OW21961   2.236   2.725   7.518 -0.2278  0.4333  0.0534
 3501SOL    HW121962   2.224   2.675   7.598 -1.9820  1.2027  0.2794
 3501SOL    HW221963   2.260   2.650   7.464  3.1341 -0.0005  2.1862
 3502SOL     OW21964   3.682   1.293   9.202 -0.7125  0.4626 -0.2143
 3502SOL    HW121965   3.672   1.264   9.111  0.3686  1.0129 -0.5166
 3502SOL    HW221966   3.773   1.263   9.211 -1.0906 -0.4828  0.3383
 3503SOL     OW21967   3.339   4.223   7.565  0.0600  0.1018  0.8495
 3503SOL    HW121968   3.245   4.237   7.568  0.9087  5.1811  3.4298
 3503SOL    HW221969   3.373   4.309   7.541  0.4388 -0.6603 -1.2761
 3504SOL     OW21970   3.228   1.136  16.873  0.4149  0.3751 -0.6641
 3504SOL    HW121971   3.297   1.084  16.832  0.6106 -0.0220  0.1692
 3504SOL    HW221972   3.281   1.207  16.907 -1.1151  0.4144  1.6685
 3505SOL     OW21973   1.316   2.520  12.582 -0.2078 -0.2683  0.5787
 3505SOL    HW121974   1.266   2.475  12.514  0.3010 -1.9362  1.3146
 3505SOL    HW221975   1.250   2.533  12.650 -1.4842 -1.8459 -0.3679
 3506SOL     OW21976   1.517   4.476  16.407  0.1947  0.3756 -0.2980
 3506SOL    HW121977   1.601   4.456  16.449 -0.5086 -1.3694  0.3030
 3506SOL    HW221978   1.537   4.456  16.316  2.0554  1.7344 -0.1993
 3507SOL     OW21979   1.368   4.212  15.368 -0.3400  0.0494 -0.0951
 3507SOL    HW121980   1.433   4.175  15.427 -0.4414  2.0716  1.2978
 3507SOL    HW221981   1.308   4.140  15.355  0.5834 -0.9712  1.3100
 3508SOL     OW21982   2.260   4.619  17.511 -0.1674 -0.0837 -0.3661
 3508SOL    HW121983   2.280   4.538  17.559 -0.9343  0.1648  0.3805
 3508SOL    HW221984   2.346   4.660  17.518 -0.6707  1.1268 -1.3913
 3509SOL     OW21985   1.145   4.344   6.153  0.4348 -0.4887  0.0138
 3509SOL    HW121986   1.099   4.416   6.197  2.6752 -0.0691  1.6915
 3509SOL    HW221987   1.076   4.301   6.103 -0.4489 -0.5484  1.3100
 3510SOL     OW21988   0.086   1.962   2.350 -0.1001 -0.2270  0.7163
 3510SOL    HW121989   0.012   1.901   2.349  0.8621 -1.3858  1.1445
 3510SOL    HW221990   0.117   1.958   2.259 -2.3889  2.5399 -0.2028
 3511SOL     OW21991   0.920   0.320   1.828 -0.2906 -0.5460 -0.3395
 3511SOL    HW121992   1.008   0.289   1.850  0.2177  1.5142  0.4976
 3511SOL    HW221993   0.898   0.258   1.758 -1.2723  0.3872 -0.8589
 3512SOL     OW21994   1.245   2.864   3.838 -0.1006  0.0241  0.2448
 3512SOL    HW121995   1.287   2.908   3.912 -1.2101 -0.0508  0.9145
 3512SOL    HW221996   1.166   2.832   3.881  0.6555 -1.8013  0.2762
 3513SOL     OW21997   3.728   2.581   6.441  0.1044 -0.2079 -0.3492
 3513SOL    HW121998   3.661   2.600   6.507  1.1179  0.7905  0.3879
 3513SOL    HW221999   3.806   2.596   6.494  0.8147 -0.7519 -1.2274
 3514SOL     OW22000   4.535   1.655   8.269  0.3141 -0.1296  0.0648
 3514SOL    HW122001   4.575   1.739   8.246 -0.3143  0.1024 -0.1836
 3514SOL    HW222002   4.547   1.649   8.364  1.0431 -2.1750 -0.1577
 3515SOL     OW22003   3.234   0.453  17.121 -0.2746 -0.6349  0.0188
 3515SOL    HW122004   3.163   0.389  17.113 -0.9728  0.1782 -0.3425
 3515SOL    HW222005   3.297   0.400  17.171  2.6026  1.8271 -1.0077
 3516SOL     OW22006   1.866   4.132   7.824  0.4126 -0.8618  0.2028
 3516SOL    HW122007   1.831   4.050   7.858 -2.6286  0.1512 -0.4719
 3516SOL    HW222008   1.929   4.113   7.754 -1.5432  0.2218 -1.8862
 3517SOL     OW22009   4.677   0.266   4.307 -0.1994 -0.0426 -0.7399
 3517SOL    HW122010   4.717   0.179   4.305  0.2166  0.1399 -0.2830
 3517SOL    HW222011   4.653   0.271   4.215  1.1100  0.0771 -1.0752
 3518SOL     OW22012   4.533   2.337   1.408  0.6923 -0.3843  0.0155
 3518SOL    HW122013   4.582   2.255   1.420 -1.7060 -1.5375  1.9077
 3518SOL    HW222014   4.580   2.401   1.461 -0.5886  2.1566 -1.9585
 3519SOL     OW22015   2.495   4.631  14.658  0.2914 -0.0003  0.0608
 3519SOL    HW122016   2.421   4.691  14.652  0.1891 -0.0512  0.7975
 3519SOL    HW222017   2.576   4.681  14.646 -0.3857  1.5469  1.9219
 3520SOL     OW22018   2.955   1.735   5.530 -0.2659  0.1665  0.7031
 3520SOL    HW122019   2.948   1.821   5.487 -0.4136  0.7656  1.9330
 3520SOL    HW222020   3.029   1.692   5.487  0.7848  2.1253  0.5656
 3521SOL     OW22021   2.793   2.671   9.698  0.5519  0.0521 -0.1842
 3521SOL    HW122022   2.810   2.723   9.619 -1.1551 -1.8756 -1.8025
 3521SOL    HW222023   2.879   2.628   9.698 -0.2870 -1.6222 -1.1370
 3522SOL     OW22024   2.467   2.291   0.930 -0.3681  0.2612  0.7307
 3522SOL    HW122025   2.385   2.330   0.959  0.1797  1.3421  0.8455
 3522SOL    HW222026   2.437   2.213   0.884  1.7606 -0.3503  0.3546
 3523SOL     OW22027   1.146   0.987  12.616  0.2130  0.0704 -0.1991
 3523SOL    HW122028   1.207   0.928  12.661 -3.5141 -2.5001  1.4932
 3523SOL    HW222029   1.174   0.969  12.526  1.0956  0.2316  0.0367
 3524SOL     OW22030   2.421   3.086   2.835  0.3702 -0.0128 -0.1796
 3524SOL    HW122031   2.364   3.131   2.772 -1.7506 -0.0107  1.7386
 3524SOL    HW222032   2.500   3.092   2.782  1.6423 -0.0218  1.7159
 3525SOL     OW22033   3.336   0.944  17.217  0.1756 -0.5238  0.1814
 3525SOL    HW122034   3.305   0.861  17.182  0.7637 -0.8208  0.3678
 3525SOL    HW222035   3.262   0.982  17.265 -0.4836 -1.5015 -0.0727
 3526SOL     OW22036   2.440   2.932   0.855 -0.2946  0.1867 -0.1873
 3526SOL    HW122037   2.491   2.960   0.779  1.5927 -1.2706  0.5273
 3526SOL    HW222038   2.504   2.942   0.925 -1.5231  0.1621  0.9303
 3527SOL     OW22039   1.186   4.543   6.960 -0.3095  0.6566  0.4670
 3527SOL    HW122040   1.124   4.544   7.033 -1.6492 -0.5043 -0.6499
 3527SOL    HW222041   1.269   4.531   7.006  0.4451  2.7265 -0.3180
 3528SOL     OW22042   1.458   2.558  15.699 -0.3102  0.4819 -0.4327
 3528SOL    HW122043   1.433   2.530  15.611  0.2146 -0.3612 -0.3137
 3528SOL    HW222044   1.497   2.480  15.740 -1.0605  0.0900 -0.4632
 3529SOL     OW22045   2.646   1.298   8.093  0.3741 -0.4222  0.2024
 3529SOL    HW122046   2.594   1.357   8.148 -0.4584 -1.2560  0.3077
 3529SOL    HW222047   2.687   1.260   8.170 -0.3958  2.6176  2.1300
 3530SOL     OW22048   2.438   2.713   5.295 -0.0556  0.6885  0.0217
 3530SOL    HW122049   2.523   2.720   5.339  0.1616 -1.9288  0.0723
 3530SOL    HW222050   2.378   2.708   5.369 -0.8629  2.0927 -0.5657
 3531SOL     OW22051   0.578   2.191   5.915  0.1795  0.1833 -0.5243
 3531SOL    HW122052   0.657   2.165   5.868 -1.7874 -4.1110 -1.4476
 3531SOL    HW222053   0.567   2.283   5.890 -1.0538 -0.3187 -1.8270
 3532SOL     OW22054   1.759   0.165   2.467 -0.1045 -0.4856  0.0065
 3532SOL    HW122055   1.844   0.196   2.436  0.4522 -1.2538  0.7556
 3532SOL    HW222056   1.705   0.171   2.388  0.1176  3.0885  0.1591
 3533SOL     OW22057   3.653   2.868  13.745 -0.0820  0.4641  0.1596
 3533SOL    HW122058   3.665   2.774  13.736  0.9019  0.5234  0.8516
 3533SOL    HW222059   3.610   2.880  13.829 -1.5308  3.9265 -1.0724
 3534SOL     OW22060   1.239   1.913   3.937  0.2396 -0.2644 -0.0773
 3534SOL    HW122061   1.212   1.837   3.989 -0.8048  0.7980  0.9240
 3534SOL    HW222062   1.151   1.949   3.924 -1.1486 -3.1433  1.1602
 3535SOL     OW22063   2.737   1.232   6.444 -0.2052  0.5416 -0.1043
 3535SOL    HW122064   2.799   1.290   6.487  1.7314 -0.7488 -1.1808
 3535SOL    HW222065   2.789   1.153   6.438 -0.5430  0.2318  1.1542
 3536SOL     OW22066   1.598   0.802   2.986 -0.8557 -0.2123  0.1464
 3536SOL    HW122067   1.641   0.745   2.922 -2.6677 -1.4350  0.0201
 3536SOL    HW222068   1.632   0.776   3.072  0.7672  1.6785  0.0675
 3537SOL     OW22069   1.967   0.501   9.522  0.6599 -0.0808  0.4839
 3537SOL    HW122070   2.003   0.461   9.443 -0.6611  2.4018 -1.3906
 3537SOL    HW222071   2.015   0.583   9.510 -0.0902  0.1812 -0.7817
 3538SOL     OW22072   1.521   2.638  10.337  0.3194  0.1036  0.5393
 3538SOL    HW122073   1.538   2.545  10.324 -2.1797 -0.2958  0.0864
 3538SOL    HW222074   1.506   2.663  10.246  1.3466  2.3033  0.9884
 3539SOL     OW22075   4.417   1.381   0.554  0.3539  0.2222 -0.0953
 3539SOL    HW122076   4.324   1.401   0.564  0.8472  3.3724 -1.7535
 3539SOL    HW222077   4.415   1.332   0.472  0.6696 -0.0425  0.0507
 3540SOL     OW22078   3.011   4.306   0.903  0.1594  0.4400  0.7476
 3540SOL    HW122079   3.084   4.248   0.879 -0.8317  0.4477 -2.1934
 3540SOL    HW222080   3.020   4.379   0.843  1.2468  0.4864  0.9609
 3541SOL     OW22081   0.071   3.762  13.199 -0.2132 -0.6007 -0.1660
 3541SOL    HW122082   0.004   3.765  13.131 -0.3359 -0.7815 -0.0517
 3541SOL    HW222083   0.106   3.673  13.196  0.8680 -0.2372  1.4999
 3542SOL     OW22084   4.182   2.993   5.940 -0.5759  0.2049 -0.3678
 3542SOL    HW122085   4.119   3.028   6.004 -0.5529 -1.6365  0.6557
 3542SOL    HW222086   4.227   3.072   5.911 -1.4735  0.8494  0.0075
 3543SOL     OW22087   0.734   0.880   6.246  0.2144  0.2545 -0.0525
 3543SOL    HW122088   0.687   0.828   6.310 -2.7930  2.4463 -0.4570
 3543SOL    HW222089   0.804   0.917   6.300 -0.1886  3.9139 -1.9705
 3544SOL     OW22090   2.722   1.254  12.265 -0.7891 -0.6155 -0.2849
 3544SOL    HW122091   2.674   1.233  12.345  0.3121  1.1921  0.8718
 3544SOL    HW222092   2.706   1.173  12.217  0.0951 -0.6362 -0.5577
 3545SOL     OW22093   2.577   2.936   3.710  0.1760 -0.2877 -0.6749
 3545SOL    HW122094   2.596   2.884   3.788  1.3809 -0.5017 -1.1247
 3545SOL    HW222095   2.604   2.869   3.648 -1.7843 -0.2560 -1.5685
 3546SOL     OW22096   0.701   3.885  11.393  0.4650 -0.0418 -0.2554
 3546SOL    HW122097   0.783   3.935  11.394  1.0533 -1.0403  1.2246
 3546SOL    HW222098   0.732   3.798  11.417 -1.5967 -0.0951  2.2007
 3547SOL     OW22099   2.632   3.543   8.580 -0.3641  0.1419 -0.0972
 3547SOL    HW122100   2.563   3.603   8.608  0.1530  0.3936  0.6238
 3547SOL    HW222101   2.620   3.466   8.636 -2.9175  1.0748  0.6270
 3548SOL     OW22102   3.200   4.099  10.566  0.5043 -0.3930  0.3629
 3548SOL    HW122103   3.135   4.036  10.597 -1.0389  0.1910 -1.7363
 3548SOL    HW222104   3.209   4.073  10.475  1.6873 -1.7291  0.8595
 3549SOL     OW22105   2.745   1.070   8.854 -0.0526  0.8571  0.1279
 3549SOL    HW122106   2.752   0.977   8.876  0.5852  1.3981  2.2021
 3549SOL    HW222107   2.662   1.086   8.899  0.2167 -1.5637  1.4704
 3550SOL     OW22108   0.257   1.946   2.750  0.4017  0.0654 -0.2302
 3550SOL    HW122109   0.270   2.008   2.678 -0.2691 -0.9297 -1.2189
 3550SOL    HW222110   0.260   2.002   2.828 -1.5584 -1.0605  0.6517
 3551SOL     OW22111   2.761   3.619   4.862  0.0717 -0.2897 -0.7720
 3551SOL    HW122112   2.750   3.543   4.805 -1.1672  0.4388 -1.4974
 3551SOL    HW222113   2.841   3.596   4.909 -0.6768 -1.2009  0.0455
 3552SOL     OW22114   0.974   4.024   3.477  0.5437  0.4486  0.7016
 3552SOL    HW122115   0.942   4.003   3.564 -1.8840 -1.5892 -0.6936
 3552SOL    HW222116   0.980   4.120   3.477 -0.0716  0.4876  1.7851
 3553SOL     OW22117   2.137   0.294   7.513  0.8656  0.0072  0.3993
 3553SOL    HW122118   2.090   0.266   7.592  3.6207  0.3081  2.1490
 3553SOL    HW222119   2.202   0.353   7.552  0.3912  1.0134 -0.3388
 3554SOL     OW22120   4.630   2.318  12.777 -0.2468 -0.5626  0.1795
 3554SOL    HW122121   0.001   2.312  12.790 -0.1505 -1.0901 -0.7547
 3554SOL    HW222122   4.612   2.284  12.865 -0.9964 -1.3721 -0.2835
 3555SOL     OW22123   2.564   0.457   1.892 -0.4328 -0.1460 -0.5779
 3555SOL    HW122124   2.585   0.465   1.799  0.2965 -0.7757 -0.4694
 3555SOL    HW222125   2.650   0.425   1.921 -1.7994 -0.7370  2.8051
 3556SOL     OW22126   0.573   1.002   6.529  0.2010 -1.0203 -0.3792
 3556SOL    HW122127   0.613   1.088   6.539 -0.8176 -0.4707 -1.1089
 3556SOL    HW222128   0.492   1.008   6.579  0.7996  0.5120  0.4072
 3557SOL     OW22129   1.413   2.922   8.070 -0.5728  0.3942 -0.1095
 3557SOL    HW122130   1.424   2.844   8.125  3.5015  1.3356  0.4084
 3557SOL    HW222131   1.349   2.892   8.005 -0.4101  1.0415 -0.5725
 3558SOL     OW22132   3.399   0.973   9.208  0.3869 -0.3995  0.2991
 3558SOL    HW122133   3.396   0.897   9.265 -0.3013 -0.6868 -0.1201
 3558SOL    HW222134   3.438   1.036   9.268  0.3397 -1.2470  1.2046
 3559SOL     OW22135   1.042   0.056   8.244  0.4903  0.1858  0.4200
 3559SOL    HW122136   1.050   0.070   8.150  1.7613  0.4511  0.5757
 3559SOL    HW222137   0.951   0.028   8.249  0.5397 -0.0632 -0.1739
 3560SOL     OW22138   1.959   2.973  13.042 -0.2289  0.0029  0.1345
 3560SOL    HW122139   1.870   3.003  13.023 -0.1968  0.7964  1.2332
 3560SOL    HW222140   1.981   2.916  12.969 -1.0848  0.3417 -0.3914
 3561SOL     OW22141   4.396   4.235  12.478 -0.0035  0.2738 -0.2103
 3561SOL    HW122142   4.487   4.244  12.506 -1.2311  1.5111  3.3282
 3561SOL    HW222143   4.412   4.161  12.419  0.1577  0.7251 -0.7337
 3562SOL     OW22144   0.124   1.802  10.021  0.3778  0.2153 -0.3672
 3562SOL    HW122145   0.045   1.789  10.072  1.6000 -1.5163  1.0789
 3562SOL    HW222146   0.173   1.720  10.033 -1.8976 -0.9850  0.7740
 3563SOL     OW22147   1.113   3.960   4.114  0.7503 -0.4182 -0.0112
 3563SOL    HW122148   1.147   3.946   4.203 -0.5735 -0.6386  0.4621
 3563SOL    HW222149   1.034   3.907   4.114 -0.3393  1.1732 -2.1785
 3564SOL     OW22150   3.034   4.493   5.965  0.1204  0.1475 -0.3306
 3564SOL    HW122151   3.111   4.540   5.997  0.4211 -0.7575  0.2764
 3564SOL    HW222152   3.003   4.457   6.048  2.1425 -2.4154 -0.6832
 3565SOL     OW22153   0.357   1.409   3.093 -0.6055  0.3446  0.7621
 3565SOL    HW122154   0.420   1.446   3.156  1.0792 -1.9074  0.4359
 3565SOL    HW222155   0.372   1.459   3.013  0.5543 -1.1469  0.0458
 3566SOL     OW22156   4.723   1.075   8.920  0.3012 -0.4194 -0.5842
 3566SOL    HW122157   4.663   1.122   8.862 -0.0532  0.3562  0.4116
 3566SOL    HW222158   4.658   1.023   8.968  2.6155 -2.0060  0.7916
 3567SOL     OW22159   1.864   2.926  10.901  0.1101  0.1881  0.5814
 3567SOL    HW122160   1.915   2.987  10.849 -0.2047  0.1315  0.2043
 3567SOL    HW222161   1.821   2.879  10.829 -0.2860 -1.4864  1.9091
 3568SOL     OW22162   0.564   0.787   7.502  0.0527 -0.6692 -0.0486
 3568SOL    HW122163   0.580   0.694   7.485  0.8064 -0.7208  0.9392
 3568SOL    HW222164   0.632   0.799   7.569  0.2672 -0.6445 -0.2716
 3569SOL     OW22165   3.178   1.147   4.632  1.0310  0.3140  0.1487
 3569SOL    HW122166   3.132   1.070   4.667 -0.3731  0.9661 -0.2711
 3569SOL    HW222167   3.234   1.168   4.706  0.1257  0.0573  0.9164
 3570SOL     OW22168   0.879   2.871   2.431  0.1903 -0.7523  0.5859
 3570SOL    HW122169   0.903   2.844   2.343  0.7013 -1.3890  0.9140
 3570SOL    HW222170   0.808   2.808   2.442  0.0092 -0.4279  1.3353
 3571SOL     OW22171   0.584   1.529  10.189  0.6014  0.4480 -0.1370
 3571SOL    HW122172   0.551   1.488  10.109  0.9244 -0.1199  0.0180
 3571SOL    HW222173   0.550   1.459  10.245  1.6956  1.4116  1.7642
 3572SOL     OW22174   3.240   4.124  12.406  0.3907  0.0877  0.6492
 3572SOL    HW122175   3.293   4.170  12.471 -0.2165 -0.0303  1.2300
 3572SOL    HW222176   3.232   4.038  12.449  0.1704  0.5384  1.5044
 3573SOL     OW22177   1.482   0.748   4.161 -0.1787 -0.3181  0.0709
 3573SOL    HW122178   1.498   0.842   4.150  1.2185 -0.5945 -0.2838
 3573SOL    HW222179   1.529   0.742   4.244 -0.8791  2.4328  0.6738
 3574SOL     OW22180   4.402   0.129  14.620  0.0941 -0.0402  0.4656
 3574SOL    HW122181   4.336   0.101  14.683  1.5994 -0.1819  1.9687
 3574SOL    HW222182   4.445   0.047  14.593 -0.5335 -0.3260  0.3336
 3575SOL     OW22183   0.710   1.342  15.796  0.1849 -0.1554 -0.7177
 3575SOL    HW122184   0.671   1.258  15.775 -0.6305  0.4650 -1.7122
 3575SOL    HW222185   0.655   1.362  15.871  1.4507  0.7329 -0.0173
 3576SOL     OW22186   1.703   4.461   1.986 -0.0693 -0.1619  0.2684
 3576SOL    HW122187   1.611   4.464   1.960 -0.1007  1.3213  0.6061
 3576SOL    HW222188   1.699   4.372   2.023  0.8356 -0.1273  0.4444
 3577SOL     OW22189   3.206   4.253   6.056 -0.2379  0.2196 -0.4097
 3577SOL    HW122190   3.173   4.180   6.109  0.4509  1.3807  1.6210
 3577SOL    HW222191   3.271   4.284   6.119  1.5229 -0.5587 -1.8407
 3578SOL     OW22192   0.291   0.935   8.677  0.4720 -0.1180  0.2513
 3578SOL    HW122193   0.219   0.966   8.622  2.8778  3.0515 -1.1557
 3578SOL    HW222194   0.343   0.882   8.616 -0.3116 -1.0397  0.3885
 3579SOL     OW22195   2.815   1.738   2.507  0.8429 -0.2424  0.3256
 3579SOL    HW122196   2.807   1.665   2.445  0.2655 -0.1511  0.2969
 3579SOL    HW222197   2.876   1.696   2.569  1.1635  2.3154  1.7313
 3580SOL     OW22198   0.553   1.221   2.775  0.0116 -0.3063 -0.0291
 3580SOL    HW122199   0.503   1.139   2.780 -1.4591  0.5467 -0.7444
 3580SOL    HW222200   0.577   1.241   2.865  0.4977 -2.1066  0.2398
 3581SOL     OW22201   3.170   1.590  11.213  0.0707 -0.0203  0.2060
 3581SOL    HW122202   3.229   1.548  11.149 -2.0337  1.4381 -2.6830
 3581SOL    HW222203   3.233   1.615  11.281  1.0245 -1.3179 -0.1820
 3582SOL     OW22204   2.142   2.467   0.645 -0.2161 -0.1605  0.3034
 3582SOL    HW122205   2.117   2.516   0.723  0.2106 -1.4035  1.2103
 3582SOL    HW222206   2.211   2.529   0.621 -1.2529  1.2987  1.0647
 3583SOL     OW22207   4.562   1.257   9.573  0.2893 -0.3329 -0.4932
 3583SOL    HW122208   4.625   1.212   9.629  0.3354  0.8977  0.4570
 3583SOL    HW222209   4.514   1.309   9.638 -0.0785 -1.3262  0.0286
 3584SOL     OW22210   4.118   2.671   4.574 -0.2176 -0.2006 -0.1137
 3584SOL    HW122211   4.038   2.626   4.543 -0.1744 -1.3804  1.4716
 3584SOL    HW222212   4.128   2.630   4.660  0.6813 -0.9308 -0.5598
 3585SOL     OW22213   1.436   1.358  12.046  0.4791  0.3219 -0.0126
 3585SOL    HW122214   1.531   1.373  12.046  0.2788  1.5614  1.5716
 3585SOL    HW222215   1.435   1.304  12.125 -0.6664 -1.7327 -1.4388
 3586SOL     OW22216   1.972   0.554   4.111 -0.3813  0.6842 -0.6268
 3586SOL    HW122217   1.939   0.638   4.144 -0.7274  0.4159 -0.2815
 3586SOL    HW222218   1.985   0.516   4.198  0.1392  0.6065 -0.7406
 3587SOL     OW22219   2.149   0.885  10.664 -0.5963  0.2814  0.2833
 3587SOL    HW122220   2.187   0.803  10.634 -2.1201 -1.0889  2.1342
 3587SOL    HW222221   2.150   0.935  10.582 -4.2071 -0.1082  0.0071
 3588SOL     OW22222   2.060   1.984   7.366 -0.3712 -0.0953 -0.0219
 3588SOL    HW122223   2.077   2.015   7.277  0.9526  0.6462  0.4874
 3588SOL    HW222224   2.078   1.891   7.349  2.4696  0.1366  1.7286
 3589SOL     OW22225   3.281   1.584  13.352 -0.1103 -0.8751 -0.2123
 3589SOL    HW122226   3.299   1.490  13.363  1.0318 -0.7348 -1.0236
 3589SOL    HW222227   3.345   1.620  13.413 -0.3345 -2.3904  0.9388
 3590SOL     OW22228   4.543   4.628  10.264 -0.4144 -0.4612  0.5147
 3590SOL    HW122229   4.525   4.588  10.349 -1.9008  0.3626  0.6055
 3590SOL    HW222230   4.549   4.721  10.286  2.7947 -0.8697  1.2551
 3591SOL     OW22231   3.888   0.507   3.902 -0.2571  0.4909 -0.0029
 3591SOL    HW122232   3.800   0.513   3.937  0.0055 -4.0079  1.4434
 3591SOL    HW222233   3.889   0.585   3.846  0.3802  0.7827  0.4150
 3592SOL     OW22234   1.558   2.903  17.588 -0.2904  0.2813 -0.0615
 3592SOL    HW122235   1.596   2.966  17.527  0.0025  0.2840  0.1196
 3592SOL    HW222236   1.622   2.832  17.596 -0.1908  0.5269  1.3646
 3593SOL     OW22237   1.630   1.585   6.825  0.0580 -0.1683  0.1274
 3593SOL    HW122238   1.539   1.610   6.840  0.4262  0.2467  1.6421
 3593SOL    HW222239   1.676   1.650   6.772  1.0546 -1.4363 -0.5724
 3594SOL     OW22240   1.445   2.045  10.191  0.5148 -0.2022  0.4634
 3594SOL    HW122241   1.465   1.966  10.240 -0.6257 -0.0583  1.1514
 3594SOL    HW222242   1.511   2.108  10.222  0.5340 -0.1184  0.2554
 3595SOL     OW22243   3.094   1.406   5.189 -0.0114 -0.4282 -0.1314
 3595SOL    HW122244   3.077   1.496   5.162 -0.8703 -0.7102 -0.5300
 3595SOL    HW222245   3.177   1.387   5.146  1.3944  0.1575  2.3459
 3596SOL     OW22246   1.039   2.819  14.084 -0.1942  0.5932 -0.6978
 3596SOL    HW122247   1.114   2.846  14.136 -1.5979 -1.1810  2.2138
 3596SOL    HW222248   1.039   2.884  14.013  1.2166 -0.0623 -1.3080
 3597SOL     OW22249   0.783   0.796   6.919 -0.0813  0.8379  0.2141
 3597SOL    HW122250   0.778   0.886   6.954 -2.0578  0.8463 -0.0959
 3597SOL    HW222251   0.688   0.789   6.920 -0.0437  0.4542  0.8514
 3598SOL     OW22252   2.322   4.160   7.065  0.3071  0.0388 -0.1354
 3598SOL    HW122253   2.412   4.131   7.083  0.2097  0.7753  1.5474
 3598SOL    HW222254   2.317   4.138   6.972  0.7267 -0.2953 -0.0768
 3599SOL     OW22255   2.042   1.544   8.650  0.3572  0.0874 -0.3311
 3599SOL    HW122256   2.028   1.635   8.676  3.3586 -0.1150  1.9846
 3599SOL    HW222257   1.984   1.510   8.718 -0.6727  1.3815 -0.5578
 3600SOL     OW22258   0.692   0.712   7.225  0.0566 -0.2972  0.4629
 3600SOL    HW122259   0.746   0.784   7.259  0.3236 -1.0819  1.7288
 3600SOL    HW222260   0.751   0.674   7.160 -2.3112 -0.1443 -1.7356
 3601SOL     OW22261   0.746   2.829   6.000 -0.1793  0.4189 -0.5072
 3601SOL    HW122262   0.734   2.809   6.093  0.3069 -1.9887 -0.9771
 3601SOL    HW222263   0.656   2.816   5.969 -0.5404 -1.6106  1.4524
 3602SOL     OW22264   0.492   2.757   2.447 -0.4481 -0.7251 -0.0506
 3602SOL    HW122265   0.580   2.732   2.419  0.1307  1.5572 -0.3153
 3602SOL    HW222266   0.433   2.682   2.435 -0.8752 -0.3435 -0.3317
 3603SOL     OW22267   1.389   0.110   8.828  0.6237  0.3096  0.0322
 3603SOL    HW122268   1.462   0.172   8.839  0.2470  0.4859  1.5580
 3603SOL    HW222269   1.325   0.136   8.894  1.1570  2.1843 -0.1850
 3604SOL     OW22270   1.458   4.483   2.798 -0.0279  0.1632  0.1489
 3604SOL    HW122271   1.435   4.562   2.847  0.8582  1.0904 -0.9361
 3604SOL    HW222272   1.549   4.467   2.825 -1.0790  0.2200  3.7228
 3605SOL     OW22273   0.200   0.800   6.792  0.0841  0.2105 -0.0213
 3605SOL    HW122274   0.165   0.818   6.879 -1.4304  0.8619 -0.7771
 3605SOL    HW222275   0.174   0.878   6.744 -0.0310 -0.4028 -0.9461
 3606SOL     OW22276   3.580   1.869   8.538  0.4568  0.3331 -0.8704
 3606SOL    HW122277   3.625   1.826   8.612 -0.5065 -0.7216 -0.8907
 3606SOL    HW222278   3.562   1.957   8.569  0.7569 -0.0932  0.5229
 3607SOL     OW22279   1.763   2.379  15.044 -0.6116  0.1035  0.0302
 3607SOL    HW122280   1.730   2.298  15.082  0.3176 -0.5884 -0.6558
 3607SOL    HW222281   1.858   2.383  15.052 -0.7625  0.7852  1.3792
 3608SOL     OW22282   0.136   2.152   6.157  0.0581  0.4170  0.3457
 3608SOL    HW122283   0.043   2.139   6.177  0.1819  0.2648  0.8310
 3608SOL    HW222284   0.154   2.086   6.091  0.1203 -0.2728  1.0442
 3609SOL     OW22285   1.598   4.658   2.490  0.2682  0.6985  0.3140
 3609SOL    HW122286   1.653   0.010   2.510  2.7153 -0.7806 -0.7904
 3609SOL    HW222287   1.524   4.672   2.549  0.5953 -0.1765  0.9407
 3610SOL     OW22288   3.276   0.129   8.818  0.6802  0.3155  0.5720
 3610SOL    HW122289   3.354   0.185   8.809  0.0367  0.9515 -1.0191
 3610SOL    HW222290   3.292   0.064   8.749 -1.0861  0.7958 -0.2701
 3611SOL     OW22291   1.625   3.243   5.148 -0.3045  0.2161  0.4274
 3611SOL    HW122292   1.604   3.237   5.055 -1.4897  2.6734  0.5497
 3611SOL    HW222293   1.644   3.152   5.168  1.0180  0.2235 -0.8077
 3612SOL     OW22294   1.784   2.140   1.728  0.0898 -0.0045 -0.2654
 3612SOL    HW122295   1.726   2.071   1.696 -0.4466  0.5998 -0.6211
 3612SOL    HW222296   1.726   2.176   1.795  0.1082  0.0319 -0.2687
 3613SOL     OW22297   1.228   2.512  11.898 -1.1222  0.5155 -0.1534
 3613SOL    HW122298   1.144   2.554  11.919 -2.8347 -1.3691 -3.1372
 3613SOL    HW222299   1.208   2.426  11.936  0.2402  0.8760  1.3615
 3614SOL     OW22300   0.088   1.802   3.997  0.3004  0.4448  0.2467
 3614SOL    HW122301   0.018   1.769   4.054 -2.9322  3.2277 -2.1071
 3614SOL    HW222302   0.050   1.862   3.933 -1.5508  3.2263  3.9637
 3615SOL     OW22303   3.623   1.872   3.635  0.5516 -0.7015  0.4603
 3615SOL    HW122304   3.677   1.951   3.626 -0.6662  0.2415  1.4230
 3615SOL    HW222305   3.589   1.881   3.546  0.1092  1.6843  0.8599
 3616SOL     OW22306   3.540   3.391   1.706  0.4374 -0.3205 -0.2143
 3616SOL    HW122307   3.596   3.469   1.711  1.0789 -0.6105 -2.7425
 3616SOL    HW222308   3.598   3.327   1.746  0.0118  1.0657  2.6544
 3617SOL     OW22309   4.570   3.390  15.919  0.2529 -0.9571  0.0150
 3617SOL    HW122310   4.599   3.442  15.845 -0.5117  0.5924  0.8177
 3617SOL    HW222311   4.478   3.383  15.894  0.6008  0.3864 -1.6315
 3618SOL     OW22312   2.910   3.000  17.470  0.1906  0.4350 -0.0676
 3618SOL    HW122313   2.877   3.080  17.512 -0.2193  0.8216 -1.1129
 3618SOL    HW222314   2.852   2.940  17.517 -0.3160  1.6773  0.8963
 3619SOL     OW22315   0.417   3.532   4.709  0.1152 -0.1637  0.3625
 3619SOL    HW122316   0.389   3.464   4.770  0.0607  0.3083  0.8702
 3619SOL    HW222317   0.513   3.531   4.713  0.2082 -0.7564 -2.0142
 3620SOL     OW22318   2.842   0.226   6.927 -0.1738  0.6158  0.2031
 3620SOL    HW122319   2.779   0.279   6.879 -2.3728 -1.5218  0.7227
 3620SOL    HW222320   2.926   0.273   6.924  0.2113  0.0077  1.3538
 3621SOL     OW22321   0.021   4.644  15.734 -0.0167  0.1141  0.0429
 3621SOL    HW122322   0.029   4.674  15.825 -0.1208  1.6850 -0.4616
 3621SOL    HW222323   0.084   4.572  15.738  1.7179  1.4282 -3.1353
 3622SOL     OW22324   1.331   2.620   5.719  0.2608 -0.1526  0.1941
 3622SOL    HW122325   1.404   2.651   5.666 -1.7312  0.6825 -2.0912
 3622SOL    HW222326   1.319   2.697   5.775 -3.4580 -0.2574 -0.4221
 3623SOL     OW22327   4.213   2.094  10.624  0.3584  0.0677 -0.7266
 3623SOL    HW122328   4.126   2.123  10.652  0.8737  1.3827 -0.4771
 3623SOL    HW222329   4.260   2.125  10.701 -0.0680  0.9981 -0.8344
 3624SOL     OW22330   4.548   0.258   5.652  0.4146  0.1236 -0.3676
 3624SOL    HW122331   4.605   0.314   5.599  1.5931 -1.0826 -0.3717
 3624SOL    HW222332   4.466   0.305   5.640  0.3586  0.1646  0.2008
 3625SOL     OW22333   0.970   4.002  15.457  0.5410  0.4260 -0.4607
 3625SOL    HW122334   1.005   3.917  15.485 -1.4802 -0.1082  0.3834
 3625SOL    HW222335   1.032   4.047  15.399  0.8523 -0.0346 -0.4905
 3626SOL     OW22336   1.502   0.161  10.721  0.5877 -0.6440  0.4604
 3626SOL    HW122337   1.546   0.216  10.786  0.1736  1.2861 -0.8619
 3626SOL    HW222338   1.450   0.220  10.667  2.2104 -0.2029 -0.6251
 3627SOL     OW22339   3.884   0.763   5.716 -0.2433 -0.1118 -0.0194
 3627SOL    HW122340   3.875   0.698   5.646 -1.6888  0.1036 -0.0190
 3627SOL    HW222341   3.887   0.716   5.799 -1.1042 -1.8352 -0.9728
 3628SOL     OW22342   0.953   1.957   1.684 -0.2724  0.1388  0.3285
 3628SOL    HW122343   1.000   2.018   1.627  4.3121 -2.1212  1.7175
 3628SOL    HW222344   1.024   1.906   1.724 -0.4526 -0.9277 -0.7210
 3629SOL     OW22345   3.124   4.650   4.347  0.6847 -0.3113 -0.0505
 3629SOL    HW122346   3.158   4.677   4.433  1.8325 -0.2175 -0.5291
 3629SOL    HW222347   3.197   4.661   4.287 -0.9700  0.7646 -1.8477
 3630SOL     OW22348   3.363   1.389   5.039  0.3416  0.2894 -0.1351
 3630SOL    HW122349   3.375   1.382   5.134  1.0700 -0.5684 -0.2945
 3630SOL    HW222350   3.442   1.346   5.007  1.3258  2.6770 -0.9244
 3631SOL     OW22351   1.457   3.472  14.059  0.0366 -0.7310  0.5054
 3631SOL    HW122352   1.540   3.520  14.055 -0.0151 -0.7110 -0.4757
 3631SOL    HW222353   1.486   3.384  14.035 -1.8114 -0.8946 -1.1277
 3632SOL     OW22354   2.514   3.993  14.226  0.1728 -0.3143 -0.1089
 3632SOL    HW122355   2.604   3.987  14.258 -0.5016 -0.5230  1.7506
 3632SOL    HW222356   2.480   4.063  14.281 -0.4883 -1.1653  0.5629
 3633SOL     OW22357   3.791   0.083   7.539 -0.4594 -0.1148  0.3072
 3633SOL    HW122358   3.882   0.113   7.535 -0.2866 -0.5516  1.0021
 3633SOL    HW222359   3.789   4.720   7.499  0.5766  0.0864 -0.1892
 3634SOL     OW22360   2.119   2.064   0.608  0.4908 -0.1765 -0.1271
 3634SOL    HW122361   2.054   2.050   0.677 -0.0165 -1.6208 -0.9059
 3634SOL    HW222362   2.092   2.001   0.541 -0.0653 -1.3770  1.2317
 3635SOL     OW22363   4.061   0.866   2.761 -0.1979  0.3175 -0.1244
 3635SOL    HW122364   4.059   0.791   2.702  0.8736 -0.3749  0.7097
 3635SOL    HW222365   4.021   0.813   2.829  3.2242 -0.9547  0.9215
 3636SOL     OW22366   1.981   0.435   7.753  0.0857  0.9915 -0.5073
 3636SOL    HW122367   1.963   0.411   7.843  0.1326 -1.4839 -1.1641
 3636SOL    HW222368   2.076   0.448   7.750  0.3674 -0.8710  0.5824
 3637SOL     OW22369   2.837   3.056   1.879  0.1505  0.5293 -0.0791
 3637SOL    HW122370   2.751   3.078   1.915  0.0695 -1.6822  1.0369
 3637SOL    HW222371   2.839   3.104   1.796 -0.0480  1.5596  0.5013
 3638SOL     OW22372   0.965   1.840  13.490  0.9466 -0.0341 -0.9777
 3638SOL    HW122373   0.904   1.904  13.527 -1.8568 -3.6127  0.5443
 3638SOL    HW222374   0.946   1.756  13.532  1.2194 -1.1326 -3.0327
 3639SOL     OW22375   0.068   1.531   6.859  0.9566  0.0800  0.3180
 3639SOL    HW122376   0.018   1.453   6.834 -1.2288  0.6113  3.0474
 3639SOL    HW222377   0.006   1.602   6.876  1.4266  0.3398  0.9100
 3640SOL     OW22378   4.436   2.216   8.993  0.5911  0.3758 -0.1724
 3640SOL    HW122379   4.503   2.168   9.042 -1.9893 -3.4776 -0.4393
 3640SOL    HW222380   4.458   2.308   9.009  1.7203  0.1943 -0.6177
 3641SOL     OW22381   1.339   2.185   8.565 -0.1531 -0.8048  0.4043
 3641SOL    HW122382   1.384   2.210   8.485 -0.1028  2.0996  1.3281
 3641SOL    HW222383   1.395   2.235   8.624 -0.2938  0.5524 -0.6214
 3642SOL     OW22384   2.871   2.599   2.413  0.1783  0.3624  0.5785
 3642SOL    HW122385   2.848   2.512   2.448  0.8031  0.3484  0.9649
 3642SOL    HW222386   2.966   2.607   2.428  0.8947 -3.9103 -1.4214
 3643SOL     OW22387   3.337   3.593   0.969 -0.1841  0.8566 -0.2196
 3643SOL    HW122388   3.327   3.499   0.955  1.7339  0.6367 -0.0647
 3643SOL    HW222389   3.395   3.605   1.044  2.3088 -1.8094 -1.7248
 3644SOL     OW22390   1.141   2.202   1.219  0.3094  0.2538 -0.0896
 3644SOL    HW122391   1.223   2.248   1.238  1.4792 -1.4653 -1.0006
 3644SOL    HW222392   1.094   2.277   1.181 -1.7875  0.1382  2.3184
 3645SOL     OW22393   3.140   1.027   4.373 -0.2113  0.4924  0.4077
 3645SOL    HW122394   3.099   0.953   4.417  0.5650 -0.6647 -0.8205
 3645SOL    HW222395   3.169   1.076   4.450 -0.1714 -0.0225  0.7188
 3646SOL     OW22396   3.594   4.333  11.224  0.3991 -0.1418 -0.6905
 3646SOL    HW122397   3.610   4.247  11.183 -0.8885 -1.5470  1.7327
 3646SOL    HW222398   3.668   4.341  11.283  0.4947 -2.4429 -0.4812
 3647SOL     OW22399   2.452   1.234   9.991  0.3096  0.2253  0.1371
 3647SOL    HW122400   2.484   1.274  10.072  1.4806 -0.9046  0.2463
 3647SOL    HW222401   2.508   1.156   9.984  0.7234  0.5481 -0.1304
 3648SOL     OW22402   1.626   4.567   8.107  0.6410 -0.1220  0.1065
 3648SOL    HW122403   1.640   4.543   8.016 -1.1951 -0.8360  0.0339
 3648SOL    HW222404   1.552   4.627   8.104  0.2903 -0.5710 -0.1777
 3649SOL     OW22405   4.056   2.368   9.225  0.2454  0.0510  0.9470
 3649SOL    HW122406   4.024   2.328   9.306 -1.2138 -0.7413 -0.0075
 3649SOL    HW222407   4.125   2.421   9.265 -0.4508 -0.6838  3.1383
 3650SOL     OW22408   1.031   0.803  14.615 -0.0497  0.0225  0.7826
 3650SOL    HW122409   1.012   0.832  14.704 -2.3502 -0.3137  0.4078
 3650SOL    HW222410   1.127   0.808  14.616  0.0821 -1.8937 -1.1108
 3651SOL     OW22411   2.527   3.465  13.530  0.0340  0.4558 -0.3126
 3651SOL    HW122412   2.608   3.512  13.506 -0.2270  1.2167  0.3033
 3651SOL    HW222413   2.537   3.388  13.474  0.9641  2.1760 -2.5193
 3652SOL     OW22414   2.572   1.051   5.631 -0.1774 -0.8383  0.4158
 3652SOL    HW122415   2.647   1.087   5.584 -1.7682  1.8152 -0.0934
 3652SOL    HW222416   2.609   1.010   5.710  1.3788 -1.1129 -0.4598
 3653SOL     OW22417   1.176   2.567  13.177 -0.4962  0.0274  0.1245
 3653SOL    HW122418   1.270   2.585  13.168 -0.5517  0.6584  0.7965
 3653SOL    HW222419   1.150   2.635  13.239 -2.3399 -0.0294 -0.5911
 3654SOL     OW22420   2.458   4.322  10.097 -0.3351  0.1910  0.1278
 3654SOL    HW122421   2.394   4.253  10.113 -2.0246  1.5884 -0.6628
 3654SOL    HW222422   2.416   4.406  10.115  0.5668  0.9772 -1.4310
 3655SOL     OW22423   1.284   2.314  13.071  0.1368 -0.1037  0.5244
 3655SOL    HW122424   1.309   2.321  12.979 -0.7950  2.0925  0.4309
 3655SOL    HW222425   1.201   2.361  13.081  0.5051  0.6107  0.1856
 3656SOL     OW22426   2.476   2.539  11.926 -0.3630 -0.2194  0.3635
 3656SOL    HW122427   2.567   2.561  11.906 -0.7273  0.6670 -0.3472
 3656SOL    HW222428   2.434   2.625  11.929  1.0919  0.5382 -0.7705
 3657SOL     OW22429   4.366   4.513  13.114 -0.6516  0.0982 -0.3223
 3657SOL    HW122430   4.429   4.447  13.140 -1.1331 -0.0710  0.4138
 3657SOL    HW222431   4.430   4.585  13.109 -1.4020  0.8750  1.3067
 3658SOL     OW22432   3.237   1.876   2.576  0.1616  0.4508  0.1932
 3658SOL    HW122433   3.197   1.790   2.582 -0.1852  0.4187 -2.2944
 3658SOL    HW222434   3.305   1.871   2.642  2.4361 -1.0086 -2.2490
 3659SOL     OW22435   3.753   3.326   7.777  0.5073 -0.3196 -0.3043
 3659SOL    HW122436   3.758   3.275   7.857 -1.4376 -0.4341 -0.2779
 3659SOL    HW222437   3.826   3.388   7.788 -0.4341  0.5579  1.0389
 3660SOL     OW22438   1.357   2.053  12.459 -0.1793 -0.1711  0.0318
 3660SOL    HW122439   1.349   1.972  12.409  0.1643 -0.7699  0.9440
 3660SOL    HW222440   1.419   2.035  12.530  2.7825 -0.5379 -2.6404
 3661SOL     OW22441   0.757   4.152   2.217  0.4311  0.7826 -0.1494
 3661SOL    HW122442   0.816   4.078   2.200 -1.3424 -0.3502 -1.4118
 3661SOL    HW222443   0.676   4.114   2.249  0.6925  0.0499 -0.3487
 3662SOL     OW22444   0.588   0.835   2.631 -0.0945  0.1921 -0.3694
 3662SOL    HW122445   0.587   0.813   2.538 -1.0602  0.9040 -0.5221
 3662SOL    HW222446   0.661   0.778   2.656 -2.3660 -3.6962 -2.5473
 3663SOL     OW22447   0.184   0.942   6.515 -0.5277 -0.1719  0.5190
 3663SOL    HW122448   0.264   0.964   6.563 -0.6166 -0.8142  0.9629
 3663SOL    HW222449   0.169   1.025   6.472  1.8589 -0.4020 -0.7798
 3664SOL     OW22450   2.634   1.364  11.408 -0.3698  0.1473  0.3175
 3664SOL    HW122451   2.700   1.431  11.428 -1.9924  1.0116  2.7341
 3664SOL    HW222452   2.576   1.381  11.483 -0.4368  2.9394 -0.3674
 3665SOL     OW22453   4.281   3.931   4.310  0.1626 -0.5681  0.1815
 3665SOL    HW122454   4.277   3.848   4.357  1.6150 -0.7590 -0.0339
 3665SOL    HW222455   4.187   3.947   4.300  0.7796  3.2500  0.3087
 3666SOL     OW22456   2.513   3.413   5.086  0.1782  0.2077 -0.1340
 3666SOL    HW122457   2.500   3.328   5.045 -0.3613  0.6737 -0.9365
 3666SOL    HW222458   2.481   3.404   5.175 -2.5076  0.1254 -1.1197
 3667SOL     OW22459   2.572   4.478  10.865  0.6138 -0.4478 -0.4220
 3667SOL    HW122460   2.562   4.474  10.961  0.6659 -1.1006 -0.4478
 3667SOL    HW222461   2.613   4.564  10.856  1.9560 -1.0754 -0.2432
 3668SOL     OW22462   1.576   3.575  17.362  0.3645  0.6235  0.2960
 3668SOL    HW122463   1.570   3.652  17.419 -1.1007  1.8194 -1.4614
 3668SOL    HW222464   1.524   3.602  17.286 -0.1565 -1.9509 -0.2558
 3669SOL     OW22465   1.333   1.123   8.657 -0.4022 -0.2422  0.1414
 3669SOL    HW122466   1.415   1.082   8.682  0.2041  1.3704  0.7744
 3669SOL    HW222467   1.330   1.191   8.724 -0.1598  2.4562 -2.5878
 3670SOL     OW22468   1.950   0.314   9.736  0.2148  0.1434 -0.4124
 3670SOL    HW122469   1.944   0.391   9.680 -1.9688  1.3824  1.5179
 3670SOL    HW222470   2.039   0.328   9.768 -0.3214  2.0340  0.1903
 3671SOL     OW22471   3.392   0.179   9.662 -0.0303 -0.2940  0.0254
 3671SOL    HW122472   3.410   0.093   9.625 -0.1603  0.7643 -2.4700
 3671SOL    HW222473   3.447   0.176   9.740 -2.1570 -1.1275  1.5049
 3672SOL     OW22474   2.557   4.458   2.080  0.6015  0.3293  0.1667
 3672SOL    HW122475   2.520   4.525   2.137 -2.9287  0.0340 -1.7807
 3672SOL    HW222476   2.487   4.466   2.015  1.6404 -0.4047 -1.0483
 3673SOL     OW22477   4.025   2.548  13.469  0.2350  0.1437  0.5497
 3673SOL    HW122478   4.029   2.638  13.437  0.6028  0.4600  1.4883
 3673SOL    HW222479   3.998   2.558  13.561  0.7374 -1.8697  0.9143
 3674SOL     OW22480   1.086   4.283   7.506 -0.4599  0.5588  0.0345
 3674SOL    HW122481   1.016   4.348   7.509 -0.9348  0.1255 -1.3124
 3674SOL    HW222482   1.079   4.246   7.594  1.2861  0.1339 -0.0081
 3675SOL     OW22483   4.301   0.933  15.830 -0.4320 -0.3962 -0.1112
 3675SOL    HW122484   4.377   0.915  15.885 -0.5579 -2.4787 -0.6110
 3675SOL    HW222485   4.348   0.970  15.756  1.0538  1.8168  1.9419
 3676SOL     OW22486   0.091   3.138   4.471 -0.1392 -0.4216  0.2200
 3676SOL    HW122487   0.076   3.122   4.564 -0.8211 -1.6869 -0.1098
 3676SOL    HW222488   0.100   3.233   4.467 -0.5491 -0.3080  1.9661
 3677SOL     OW22489   4.101   1.559  10.576 -0.7203 -0.1566 -0.2920
 3677SOL    HW122490   4.017   1.580  10.534 -1.0811 -3.3903 -1.2143
 3677SOL    HW222491   4.155   1.575  10.498 -2.0377  0.6140 -1.0535
 3678SOL     OW22492   4.465   1.179   2.577  0.6251 -0.2867  0.3920
 3678SOL    HW122493   4.385   1.132   2.554 -0.1946  1.6255 -0.7366
 3678SOL    HW222494   4.529   1.117   2.611  0.4525 -0.7263 -0.0947
 3679SOL     OW22495   0.273   1.168   6.967  0.1536  0.2805 -0.7211
 3679SOL    HW122496   0.307   1.247   7.008  0.1436  0.9032 -1.9269
 3679SOL    HW222497   0.346   1.110   6.987  1.2070  0.7009 -3.3483
 3680SOL     OW22498   1.435   2.533   7.306 -0.6156 -0.4173 -0.4628
 3680SOL    HW122499   1.434   2.455   7.249 -1.2089 -1.2571  0.7124
 3680SOL    HW222500   1.344   2.559   7.316 -0.5175 -0.1686 -0.2445
 3681SOL     OW22501   0.874   1.788   1.460 -0.2228 -0.5243  0.6466
 3681SOL    HW122502   0.964   1.760   1.442  0.1719  0.3756  1.1911
 3681SOL    HW222503   0.891   1.855   1.527 -1.3477 -1.6794  2.0778
 3682SOL     OW22504   3.747   0.786   9.391 -0.6067 -0.4599 -0.0210
 3682SOL    HW122505   3.777   0.790   9.482 -3.4340 -2.4940  0.9738
 3682SOL    HW222506   3.660   0.748   9.392 -1.5991  1.8909  2.9345
 3683SOL     OW22507   1.921   4.676   1.861  0.1918 -0.1581 -0.0160
 3683SOL    HW122508   1.918   4.704   1.953  0.2869 -1.8128  0.4822
 3683SOL    HW222509   1.925   0.035   1.813 -2.8739  1.1376  1.8900
 3684SOL     OW22510   3.693   4.630   9.084 -0.2515 -0.6743  0.0452
 3684SOL    HW122511   3.757   4.568   9.050  2.2217  3.1484 -2.3872
 3684SOL    HW222512   3.695   4.613   9.178  2.1040  1.4579  0.4161
 3685SOL     OW22513   2.516   0.356   7.485  0.1671  0.4405 -0.1761
 3685SOL    HW122514   2.586   0.317   7.433 -0.5012 -1.1506  0.1349
 3685SOL    HW222515   2.468   0.404   7.419 -2.6125 -0.2527  1.3460
 3686SOL     OW22516   0.774   2.507  11.067  0.0274  0.3509 -0.1392
 3686SOL    HW122517   0.782   2.418  11.103  1.5887  0.6442  0.2299
 3686SOL    HW222518   0.858   2.515  11.022 -0.0914  0.1186 -0.4040
 3687SOL     OW22519   3.711   3.725   5.858 -0.3304 -0.5943  0.0978
 3687SOL    HW122520   3.740   3.817   5.860 -3.0101  0.2354  1.0968
 3687SOL    HW222521   3.648   3.739   5.929  0.4204  0.9634  0.4594
 3688SOL     OW22522   0.433   0.046   6.576 -0.4024 -0.3713 -0.1111
 3688SOL    HW122523   0.357   0.074   6.524 -0.1598 -1.7761 -1.2130
 3688SOL    HW222524   0.401   4.693   6.622  0.3658 -0.2010  0.7186
 3689SOL     OW22525   3.508   2.698   2.421 -0.1346  0.5563 -0.4433
 3689SOL    HW122526   3.530   2.626   2.480  2.3815  1.4498 -0.2971
 3689SOL    HW222527   3.511   2.650   2.338 -1.2992  0.0917 -0.2198
 3690SOL     OW22528   2.024   3.153   3.954 -0.0835  0.8502  0.5121
 3690SOL    HW122529   1.971   3.198   3.889  0.0012  1.2496  0.7189
 3690SOL    HW222530   1.971   3.074   3.969  0.0538  1.2526  3.1608
 3691SOL     OW22531   1.428   3.462   5.883  0.4204  0.5131 -0.1877
 3691SOL    HW122532   1.347   3.502   5.915  0.1303 -0.7148  0.6146
 3691SOL    HW222533   1.394   3.392   5.828 -0.6884 -1.4106  2.9256
 3692SOL     OW22534   0.725   2.639   2.351  0.2487 -0.5811  0.0904
 3692SOL    HW122535   0.787   2.570   2.373 -2.1645 -2.1794  1.8327
 3692SOL    HW222536   0.660   2.597   2.294  0.4924 -1.4312  0.4423
 3693SOL     OW22537   0.144   4.559   4.933 -0.5392 -0.0969  0.0531
 3693SOL    HW122538   0.198   4.523   4.863  1.0911 -0.4061  1.4556
 3693SOL    HW222539   0.178   4.503   5.003  0.5590 -0.7711 -1.0120
 3694SOL     OW22540   4.553   2.067   6.923 -0.3742 -0.1730  0.0594
 3694SOL    HW122541   4.573   2.079   6.831  2.3416  1.1882  0.8266
 3694SOL    HW222542   4.574   2.152   6.960  1.9412 -0.3295 -0.9434
 3695SOL     OW22543   1.918   0.828   6.447 -0.0345 -0.2916  0.3848
 3695SOL    HW122544   1.981   0.895   6.419 -0.8165  0.9606  1.6598
 3695SOL    HW222545   1.931   0.818   6.541  1.3362 -0.3831  0.1846
 3696SOL     OW22546   2.856   2.663   3.301  0.1955  0.0729 -0.4293
 3696SOL    HW122547   2.849   2.665   3.397 -0.2646 -3.2546 -0.4030
 3696SOL    HW222548   2.945   2.629   3.293 -0.6475 -2.1808 -0.1503
 3697SOL     OW22549   2.846   3.604   8.756 -0.0424  0.3830  0.3248
 3697SOL    HW122550   2.824   3.518   8.792 -1.4057 -0.2048 -1.8581
 3697SOL    HW222551   2.783   3.609   8.683  0.8792  0.2461 -0.4838
 3698SOL     OW22552   1.172   1.403   2.264 -0.2024 -0.2551 -0.0353
 3698SOL    HW122553   1.078   1.383   2.254 -0.5049  1.4983 -0.7012
 3698SOL    HW222554   1.162   1.497   2.252 -0.1722 -0.1451  0.8222
 3699SOL     OW22555   0.005   0.690  15.810  0.0864 -0.4337 -0.7863
 3699SOL    HW122556   0.094   0.724  15.820 -0.2144 -0.3269  1.4505
 3699SOL    HW222557   0.015   0.603  15.849 -1.5312 -0.1284  0.2522
 3700SOL     OW22558   4.367   3.610   7.869  0.0188  0.0331  0.4795
 3700SOL    HW122559   4.354   3.546   7.939  1.9560 -1.2917 -0.3629
 3700SOL    HW222560   4.463   3.607   7.873  0.1255 -0.7103 -2.0986
 3701SOL     OW22561   4.097   2.197  16.393 -0.2651 -0.2655  0.2330
 3701SOL    HW122562   4.092   2.283  16.435 -0.1937 -0.6709  1.0883
 3701SOL    HW222563   4.082   2.221  16.302 -0.5111 -2.5164 -0.3012
 3702SOL     OW22564   4.633   0.248   5.218  0.4959 -0.1308 -0.0185
 3702SOL    HW122565   4.550   0.211   5.189 -0.8548  2.2280  0.9530
 3702SOL    HW222566   4.675   0.267   5.134  3.3668 -0.9730  1.1929
 3703SOL     OW22567   4.063   4.386   7.101  0.4374  0.4542  0.4516
 3703SOL    HW122568   4.069   4.481   7.110 -0.9716  0.7487 -1.6621
 3703SOL    HW222569   4.005   4.373   7.025 -0.1516 -0.9546  1.1499
 3704SOL     OW22570   0.579   0.450   5.481  0.2777  0.3797 -0.1365
 3704SOL    HW122571   0.650   0.385   5.481 -0.8184 -0.8158 -2.3341
 3704SOL    HW222572   0.557   0.452   5.574 -2.5420 -1.3842 -0.7669
 3705SOL     OW22573   2.620   3.714  14.734  0.9769 -0.1884 -0.1639
 3705SOL    HW122574   2.607   3.809  14.737 -0.9229 -0.4591 -0.2715
 3705SOL    HW222575   2.592   3.688  14.821 -0.0701  0.3672 -0.3342
 3706SOL     OW22576   4.431   3.240   2.444  0.2996 -0.1136 -0.3074
 3706SOL    HW122577   4.394   3.214   2.360 -0.4914 -1.2824  0.4055
 3706SOL    HW222578   4.474   3.157   2.466  2.8592  0.9254 -1.2996
 3707SOL     OW22579   0.326   0.072   0.209  0.1293 -0.5417 -0.9166
 3707SOL    HW122580   0.394   0.078   0.276 -1.5117 -0.8789  0.7816
 3707SOL    HW222581   0.373   0.111   0.135  0.3067 -1.4446 -1.2832
 3708SOL     OW22582   2.363   3.665   1.390  0.3397 -0.0757 -0.7989
 3708SOL    HW122583   2.403   3.633   1.471  0.3940 -0.8092 -1.1201
 3708SOL    HW222584   2.303   3.591   1.386 -0.8329  0.7289  1.3920
 3709SOL     OW22585   4.041   0.102   8.440  0.2514  0.0161 -0.3624
 3709SOL    HW122586   4.107   0.042   8.473  1.5854  1.6613 -0.0188
 3709SOL    HW222587   4.031   0.167   8.510 -4.4060  0.3456 -1.3558
 3710SOL     OW22588   0.651   4.399  12.905  0.5666  0.3345  0.1549
 3710SOL    HW122589   0.678   4.483  12.867 -0.3736 -0.1579 -1.5794
 3710SOL    HW222590   0.705   4.387  12.984  0.0591  0.6867  0.5564
 3711SOL     OW22591   1.723   4.149  16.061  0.0878  0.1372 -0.2693
 3711SOL    HW122592   1.697   4.183  16.147 -0.7252  0.6971 -0.7294
 3711SOL    HW222593   1.770   4.228  16.035 -0.9744  0.7701 -0.2902
 3712SOL     OW22594   2.645   1.922  17.301 -0.0432 -0.4818  0.4356
 3712SOL    HW122595   2.639   2.007  17.257  1.8068  0.1798  1.4617
 3712SOL    HW222596   2.670   1.951  17.388  0.1786 -0.1443  0.2622
 3713SOL     OW22597   1.189   4.109   8.353 -0.1381 -0.1730 -0.0663
 3713SOL    HW122598   1.257   4.167   8.317 -0.5685 -1.4630 -2.9976
 3713SOL    HW222599   1.216   4.105   8.445 -1.5074 -1.8963  0.2434
 3714SOL     OW22600   2.213   3.439   5.410 -0.0109  0.6346  0.4127
 3714SOL    HW122601   2.283   3.441   5.345  1.0207  0.3024  1.5093
 3714SOL    HW222602   2.196   3.532   5.423  0.9942  1.3830 -3.7346
 3715SOL     OW22603   3.965   0.023   5.758 -0.0272  0.1675  0.1062
 3715SOL    HW122604   4.003   0.019   5.846  1.4564 -2.7162 -0.6636
 3715SOL    HW222605   4.051   0.010   5.717 -1.3949 -0.7219 -2.4529
 3716SOL     OW22606   2.486   0.524   4.591 -0.4633  0.3395  0.7580
 3716SOL    HW122607   2.439   0.510   4.509  1.5475 -1.7607 -0.0085
 3716SOL    HW222608   2.562   0.576   4.566 -0.1677 -0.9141 -0.8893
 3717SOL     OW22609   3.824   1.136   3.066 -0.6149  0.2440  0.2718
 3717SOL    HW122610   3.836   1.051   3.022 -1.4658  0.9320 -1.2943
 3717SOL    HW222611   3.825   1.193   2.989 -1.1525 -0.2079 -0.0785
 3718SOL     OW22612   3.137   0.215   5.631 -0.5750  0.3600 -0.2040
 3718SOL    HW122613   3.226   0.220   5.667 -0.3204 -2.3548 -0.4596
 3718SOL    HW222614   3.154   0.201   5.538 -1.7830  0.8422 -0.4963
 3719SOL     OW22615   2.950   3.432  10.784  0.0136  0.2669  0.1219
 3719SOL    HW122616   2.902   3.385  10.852  0.6220 -1.2460 -0.4792
 3719SOL    HW222617   2.892   3.504  10.761 -0.7363  0.4852  2.7545
 3720SOL     OW22618   1.304   2.724   4.254  0.5397  0.5015 -0.4812
 3720SOL    HW122619   1.369   2.794   4.259  2.9043 -1.8079  1.2448
 3720SOL    HW222620   1.222   2.768   4.230 -1.2444 -1.4824  1.8886
 3721SOL     OW22621   2.665   3.318   8.829 -0.3528 -0.3766  0.1235
 3721SOL    HW122622   2.590   3.278   8.785 -0.7046  0.1915  0.2047
 3721SOL    HW222623   2.675   3.253   8.898  0.5685 -0.8296 -0.4365
 3722SOL     OW22624   3.247   3.814   5.918 -0.0637  0.6751 -0.2819
 3722SOL    HW122625   3.158   3.818   5.884 -0.0092  1.1254 -0.3820
 3722SOL    HW222626   3.243   3.876   5.990  1.0323  1.1175 -0.6045
 3723SOL     OW22627   2.631   0.672  14.613 -0.2516 -0.3852 -0.0597
 3723SOL    HW122628   2.647   0.758  14.652  1.0461  0.2512 -1.9760
 3723SOL    HW222629   2.704   0.665  14.551  2.4813  2.4737  2.8388
 3724SOL     OW22630   4.184   2.271   3.053 -0.0797  0.0079  0.2132
 3724SOL    HW122631   4.277   2.280   3.035 -0.0900 -1.1143 -0.4192
 3724SOL    HW222632   4.145   2.339   2.998 -1.0787 -0.7017  0.0262
 3725SOL     OW22633   1.279   4.220  12.710 -0.5121  0.1063 -0.7881
 3725SOL    HW122634   1.316   4.308  12.698  1.1150 -0.4529  0.0823
 3725SOL    HW222635   1.246   4.212  12.799  0.8637  0.6540 -0.2250
 3726SOL     OW22636   0.439   2.796  10.670  0.6798 -0.5409  0.0040
 3726SOL    HW122637   0.457   2.860  10.601 -2.3242  0.2239 -0.0455
 3726SOL    HW222638   0.395   2.724  10.625  0.3386 -1.0821  1.2331
 3727SOL     OW22639   0.915   0.427   7.488  0.6539  0.3346 -0.2263
 3727SOL    HW122640   0.849   0.374   7.533  1.2737 -1.5352 -1.5108
 3727SOL    HW222641   0.997   0.401   7.530 -0.4964 -2.0186  0.5391
 3728SOL     OW22642   2.545   2.797   8.129 -0.5417  0.0588 -0.3263
 3728SOL    HW122643   2.579   2.790   8.040  0.0790 -0.3509 -0.0581
 3728SOL    HW222644   2.486   2.872   8.122  1.2706  1.6168  1.2602
 3729SOL     OW22645   1.074   3.573   1.803 -0.4330  0.5577 -0.5698
 3729SOL    HW122646   1.109   3.586   1.891 -2.2489 -1.2260  0.4083
 3729SOL    HW222647   0.993   3.527   1.823  0.3280 -1.0891 -1.2683
 3730SOL     OW22648   0.676   1.612   3.784 -0.6261  0.2227 -0.3270
 3730SOL    HW122649   0.741   1.627   3.715 -2.2276  1.2919 -1.6028
 3730SOL    HW222650   0.726   1.558   3.845  1.6395  0.2601 -2.1227
 3731SOL     OW22651   4.310   3.776   8.673  0.1732 -0.0835  0.3332
 3731SOL    HW122652   4.347   3.766   8.761  1.0052 -0.2175 -0.0349
 3731SOL    HW222653   4.349   3.694   8.643  0.0753 -0.6500  1.7454
 3732SOL     OW22654   0.923   2.617   6.438  0.5292  0.5225 -0.4516
 3732SOL    HW122655   1.000   2.586   6.486 -0.6316 -2.0126 -0.2082
 3732SOL    HW222656   0.859   2.578   6.498  3.0751 -1.3102  1.0841
 3733SOL     OW22657   3.642   2.803   7.423 -0.5505  0.0310  0.3717
 3733SOL    HW122658   3.573   2.856   7.462 -1.0362 -1.1708  1.1373
 3733SOL    HW222659   3.710   2.866   7.399 -0.6135  0.3690  1.0993
 3734SOL     OW22660   3.919   0.162   1.619  0.0654  0.4878 -0.3750
 3734SOL    HW122661   3.983   0.175   1.548 -2.0450  0.0707 -2.3594
 3734SOL    HW222662   3.899   0.068   1.625  1.4357  0.2590  0.7097
 3735SOL     OW22663   0.412   0.101  10.585 -0.1861  0.2906  0.4473
 3735SOL    HW122664   0.465   0.049  10.526  0.0319  1.4286 -0.3554
 3735SOL    HW222665   0.331   0.060  10.554  0.3120 -0.5176  0.2133
 3736SOL     OW22666   4.567   4.373   8.014  0.1893  0.4216 -0.8481
 3736SOL    HW122667   4.486   4.381   8.065  0.0719  0.3183 -1.0198
 3736SOL    HW222668   4.618   4.336   8.087  2.1359  2.0510 -1.3754
 3737SOL     OW22669   0.119   3.767   5.571  0.5364  0.4624 -0.4383
 3737SOL    HW122670   0.041   3.728   5.531 -0.4587  2.5843 -0.5613
 3737SOL    HW222671   0.065   3.814   5.634  1.4216  0.8097  0.0554
 3738SOL     OW22672   1.803   0.753  11.104  0.1928  0.3250 -0.7042
 3738SOL    HW122673   1.738   0.822  11.103  1.9877  2.0372  0.4764
 3738SOL    HW222674   1.886   0.790  11.072  2.3604 -2.5692  1.5327
 3739SOL     OW22675   0.648   2.278   2.813 -0.3813  0.5803  0.3107
 3739SOL    HW122676   0.623   2.192   2.780 -1.0743  1.0246 -0.3157
 3739SOL    HW222677   0.611   2.276   2.901 -0.0326 -0.1816  0.4378
 3740SOL     OW22678   3.914   2.242  13.062 -0.2662 -0.0892  0.0776
 3740SOL    HW122679   3.992   2.273  13.107 -0.6873  0.4082  0.4602
 3740SOL    HW222680   3.845   2.298  13.097  1.3392  1.4292  0.8202
 3741SOL     OW22681   2.343   3.234   0.824  0.5049 -0.1928  0.6270
 3741SOL    HW122682   2.392   3.154   0.842  0.8344 -0.0651  0.2813
 3741SOL    HW222683   2.341   3.262   0.915 -1.9429  1.6277  0.0376
 3742SOL     OW22684   3.400   1.559  16.418 -0.0237  0.1194  0.1415
 3742SOL    HW122685   3.482   1.536  16.463  0.2201  1.5515  0.4418
 3742SOL    HW222686   3.332   1.527  16.476  1.4513 -1.7869  0.8132
 3743SOL     OW22687   4.502   2.780   8.678  0.5851 -0.2107  0.4877
 3743SOL    HW122688   4.453   2.750   8.754 -0.7474  1.1098  0.1416
 3743SOL    HW222689   4.592   2.755   8.702  0.1261 -0.3283  2.0447
 3744SOL     OW22690   0.960   1.510   7.663  0.1137  0.2308 -0.6674
 3744SOL    HW122691   1.012   1.587   7.684 -2.3793  2.5748 -3.2850
 3744SOL    HW222692   0.906   1.536   7.589 -1.2038  1.1081  0.5993
 3745SOL     OW22693   0.215   3.728   3.369  0.5021 -0.4123  0.3177
 3745SOL    HW122694   0.183   3.797   3.311  2.0579 -2.2454 -2.7011
 3745SOL    HW222695   0.308   3.724   3.351  0.3446  0.2492 -0.6791
 3746SOL     OW22696   1.198   2.733   7.971 -0.1236  0.9132 -0.2784
 3746SOL    HW122697   1.182   2.740   7.877 -1.2587  0.2546 -0.1411
 3746SOL    HW222698   1.131   2.794   8.002  1.2005  1.3434  1.7260
 3747SOL     OW22699   3.141   1.773   6.554 -0.2192  0.0205  0.0803
 3747SOL    HW122700   3.113   1.841   6.493  0.2009  0.6811  0.6249
 3747SOL    HW222701   3.064   1.748   6.606  1.2006 -3.0780  0.7349
 3748SOL     OW22702   3.488   0.560   7.238  0.0721 -0.0817 -0.4296
 3748SOL    HW122703   3.500   0.646   7.199 -1.2596  0.7659  1.0473
 3748SOL    HW222704   3.576   0.529   7.260 -0.3733 -2.1705 -1.6107
 3749SOL     OW22705   3.413   4.241   6.264  0.1919  0.1768  0.2730
 3749SOL    HW122706   3.498   4.277   6.241 -0.0247  0.9114  0.6188
 3749SOL    HW222707   3.391   4.292   6.342  1.7885  0.6240  0.4372
 3750SOL     OW22708   4.597   2.481   5.658  0.0663  0.0979  0.4522
 3750SOL    HW122709   4.589   2.466   5.753  2.5383  1.8050  0.9426
 3750SOL    HW222710   4.535   2.554   5.653  0.8649  0.6669 -1.0811
 3751SOL     OW22711   4.286   0.029   3.728  0.0333 -0.2176  0.0090
 3751SOL    HW122712   4.194   0.002   3.730  0.6680 -2.5804 -2.5345
 3751SOL    HW222713   4.280   0.123   3.743  0.6620  0.0464 -1.4059
 3752SOL     OW22714   4.414   4.482   9.048  0.9548  0.2044  0.4550
 3752SOL    HW122715   4.374   4.396   9.035 -0.2314  0.6383  1.2483
 3752SOL    HW222716   4.443   4.470   9.138 -1.0906  1.7452  1.3167
 3753SOL     OW22717   4.625   3.265   6.542 -0.0175 -0.7287 -0.5944
 3753SOL    HW122718   4.534   3.260   6.569 -0.2683  0.7587 -1.1866
 3753SOL    HW222719   4.657   3.182   6.577 -3.1228 -2.6712 -2.3335
 3754SOL     OW22720   4.562   0.214   9.191 -0.4673  0.4523  0.3226
 3754SOL    HW122721   4.580   0.120   9.198 -3.3675 -0.1131  0.4070
 3754SOL    HW222722   4.615   0.246   9.264  3.3031  0.0431 -2.2678
 3755SOL     OW22723   2.549   4.387   8.531 -0.2538 -0.1252  0.0742
 3755SOL    HW122724   2.604   4.425   8.463  2.0261 -1.4760  1.1815
 3755SOL    HW222725   2.607   4.403   8.605 -0.4489  0.6498  0.0600
 3756SOL     OW22726   3.199   3.961   1.476  0.2166  0.3513 -0.7028
 3756SOL    HW122727   3.184   4.053   1.453  0.1884  0.6018  0.3259
 3756SOL    HW222728   3.123   3.927   1.430  0.0912 -1.3715  0.7958
 3757SOL     OW22729   2.323   3.896   2.950  0.6245 -0.8224 -0.7377
 3757SOL    HW122730   2.361   3.939   2.875 -0.0118  0.3752 -0.3678
 3757SOL    HW222731   2.321   3.802   2.928 -0.7318 -1.2433  1.1129
 3758SOL     OW22732   0.521   2.019   9.219  0.1405  0.1211 -0.1104
 3758SOL    HW122733   0.517   1.923   9.220  0.6255  0.0949 -0.3527
 3758SOL    HW222734   0.454   2.040   9.155  1.7073  0.9786 -1.4899
 3759SOL     OW22735   1.275   3.244  16.009 -0.3936 -0.1901  0.3578
 3759SOL    HW122736   1.232   3.219  15.927  1.4509 -0.4020 -0.5461
 3759SOL    HW222737   1.334   3.169  16.007 -0.9683 -0.6024 -1.2205
 3760SOL     OW22738   1.489   4.508   8.341  1.2225 -0.4686 -0.7263
 3760SOL    HW122739   1.432   4.482   8.268  0.6814  2.8564 -1.4830
 3760SOL    HW222740   1.566   4.534   8.291  0.8948 -0.4207 -1.2108
 3761SOL     OW22741   4.712   4.066   6.841  0.8213 -0.2644 -0.5918
 3761SOL    HW122742   4.682   4.143   6.793  0.9575  0.7171  0.9115
 3761SOL    HW222743   0.003   4.002   6.771  0.9477  0.0991 -0.8947
 3762SOL     OW22744   1.434   1.594   6.067  0.1589 -0.1880 -0.7222
 3762SOL    HW122745   1.433   1.671   6.009 -1.4268  0.1437 -0.2618
 3762SOL    HW222746   1.456   1.528   6.002  2.3088 -2.2189  2.0601
 3763SOL     OW22747   1.784   3.773   1.974  0.5154 -0.4352  0.5456
 3763SOL    HW122748   1.748   3.739   1.893  1.3707 -1.0366  0.4129
 3763SOL    HW222749   1.838   3.843   1.938 -0.8532  0.0336 -0.6057
 3764SOL     OW22750   3.545   1.110   9.383  0.2308 -0.2260 -0.0104
 3764SOL    HW122751   3.563   1.204   9.374  0.1994 -0.1528  0.6708
 3764SOL    HW222752   3.635   1.088   9.405 -1.0634 -0.0242  5.5216
 3765SOL     OW22753   0.255   2.257   2.038 -0.1139  0.0645  0.4303
 3765SOL    HW122754   0.207   2.339   2.027  2.2776  0.9317 -3.7287
 3765SOL    HW222755   0.331   2.286   2.088  0.9722 -0.9187 -0.6420
 3766SOL     OW22756   1.219   4.086   5.517 -0.0175  0.2090 -0.0048
 3766SOL    HW122757   1.279   4.108   5.446 -0.0844  3.0095  0.7984
 3766SOL    HW222758   1.137   4.126   5.489  0.8377  1.3869 -0.8090
 3767SOL     OW22759   2.326   0.530   1.965 -0.0345  0.3736 -0.1327
 3767SOL    HW122760   2.349   0.611   2.010  1.8860 -0.2317 -0.0221
 3767SOL    HW222761   2.415   0.509   1.937 -0.2001 -0.4590 -0.0270
 3768SOL     OW22762   1.071   4.360   4.335  0.5341  0.8136 -0.2750
 3768SOL    HW122763   1.052   4.347   4.428  1.2979 -0.7491 -0.3234
 3768SOL    HW222764   1.111   4.447   4.325  0.6197  1.0147  1.8048
 3769SOL     OW22765   4.662   2.080   1.429 -0.2248  0.6153  0.0318
 3769SOL    HW122766   4.573   2.049   1.410  1.1296 -1.3124 -3.1252
 3769SOL    HW222767   4.723   2.014   1.397 -0.7301  0.6378 -0.9640
 3770SOL     OW22768   2.270   3.680  16.294  0.1147 -0.2712  0.0907
 3770SOL    HW122769   2.346   3.703  16.241 -0.7050  0.4356 -0.7789
 3770SOL    HW222770   2.212   3.748  16.261 -0.7460 -1.2197 -0.3790
 3771SOL     OW22771   0.437   0.172   9.531  0.0121  0.0081 -0.3830
 3771SOL    HW122772   0.408   0.091   9.491  0.9203 -0.1819 -0.6590
 3771SOL    HW222773   0.530   0.156   9.550 -0.4919  0.5042  2.6357
 3772SOL     OW22774   4.334   1.796   1.049 -0.5048  0.1409  0.3881
 3772SOL    HW122775   4.323   1.795   0.954 -0.1501 -0.4857  0.3552
 3772SOL    HW222776   4.422   1.827   1.069 -1.3417  2.8660 -0.1101
 3773SOL     OW22777   0.930   1.635  13.667 -0.4862 -0.2851  0.2544
 3773SOL    HW122778   0.915   1.663  13.757 -1.6041  0.7302 -0.2445
 3773SOL    HW222779   0.915   1.542  13.682 -2.7837 -0.2830 -1.9521
 3774SOL     OW22780   2.822   4.120   7.954  0.5099  0.2347 -0.3596
 3774SOL    HW122781   2.837   4.166   8.036  1.4827  0.3826 -0.6223
 3774SOL    HW222782   2.798   4.193   7.896  0.9403  0.5272 -0.1666
 3775SOL     OW22783   4.318   3.580  14.421  0.2055  0.6218 -0.9855
 3775SOL    HW122784   4.287   3.509  14.366  0.8200 -0.0157 -0.4989
 3775SOL    HW222785   4.295   3.654  14.364  4.3090  1.1840 -1.8697
 3776SOL     OW22786   1.791   2.560  14.188  0.2732  0.7337 -0.2197
 3776SOL    HW122787   1.724   2.624  14.211  1.4910  1.2353  1.9747
 3776SOL    HW222788   1.823   2.530  14.273  1.4240 -0.2922 -1.0091
 3777SOL     OW22789   4.160   3.312   1.745 -0.0954  0.6653 -0.1893
 3777SOL    HW122790   4.120   3.276   1.824  1.3142  1.0001  0.6732
 3777SOL    HW222791   4.162   3.230   1.696  0.2583 -0.2239  1.3046
 3778SOL     OW22792   1.821   4.514   2.366 -0.9785 -0.3147  0.7410
 3778SOL    HW122793   1.824   4.444   2.431  0.6702  0.8245  1.8801
 3778SOL    HW222794   1.744   4.554   2.405 -1.7219 -0.9381 -0.0784
 3779SOL     OW22795   2.496   4.599  12.827  0.0030  0.3081  0.3381
 3779SOL    HW122796   2.402   4.613  12.837 -0.4304 -0.6706 -2.3761
 3779SOL    HW222797   2.543   4.682  12.821  1.2883 -0.5137 -1.0992
 3780SOL     OW22798   2.979   1.765   4.586  0.2269  0.3864  0.0292
 3780SOL    HW122799   2.954   1.748   4.677 -0.1373 -1.4101 -0.4051
 3780SOL    HW222800   3.072   1.789   4.595  0.6256 -0.4231 -1.9147
 3781SOL     OW22801   0.871   2.375   8.812 -0.1128 -0.1939  0.3574
 3781SOL    HW122802   0.807   2.351   8.879 -0.2206 -0.2110  0.2481
 3781SOL    HW222803   0.941   2.411   8.868 -1.0932  1.5314  0.4820
 3782SOL     OW22804   4.331   1.249   7.610  0.0966 -0.1112  0.1275
 3782SOL    HW122805   4.346   1.216   7.521 -1.3584 -0.0738 -0.1335
 3782SOL    HW222806   4.391   1.191   7.657  0.7136  0.7921  0.4566
 3783SOL     OW22807   0.355   0.450   6.058 -0.1258  0.0448  0.7509
 3783SOL    HW122808   0.312   0.492   6.132 -0.2579  2.5508 -0.7134
 3783SOL    HW222809   0.424   0.515   6.049  1.2231 -1.7290 -1.7220
 3784SOL     OW22810   0.761   1.166   9.989  0.1476 -0.3811  0.2277
 3784SOL    HW122811   0.758   1.151   9.894 -0.0637  0.4157  0.1116
 3784SOL    HW222812   0.827   1.236   9.988 -0.6984  0.4405  1.7676
 3785SOL     OW22813   3.881   1.705  12.033 -0.3004  0.3643  0.3089
 3785SOL    HW122814   3.967   1.739  12.060 -1.0836  1.4736  1.4581
 3785SOL    HW222815   3.892   1.619  12.073  1.7516  0.7205  0.5177
 3786SOL     OW22816   4.339   3.190   7.232  0.5170  0.4532 -0.2057
 3786SOL    HW122817   4.433   3.169   7.231  0.4922  0.4522 -1.8463
 3786SOL    HW222818   4.337   3.270   7.284 -0.8829  0.8693 -0.9117
 3787SOL     OW22819   2.529   3.557   8.912 -0.1320  0.8062  0.3557
 3787SOL    HW122820   2.545   3.463   8.912  0.9749  0.9884  0.1736
 3787SOL    HW222821   2.486   3.560   8.826  0.0811  1.1539  0.2576
 3788SOL     OW22822   2.284   4.118   6.411 -0.2148  0.6414 -0.0289
 3788SOL    HW122823   2.377   4.141   6.408 -0.4008  1.5326  1.0867
 3788SOL    HW222824   2.283   4.023   6.419 -1.0137  0.6134 -0.4563
 3789SOL     OW22825   0.139   1.778  10.904  0.1475 -0.1799 -0.4332
 3789SOL    HW122826   0.067   1.790  10.843 -0.8394 -0.4237  0.6661
 3789SOL    HW222827   0.092   1.797  10.986  0.3110  0.4864 -0.4966
 3790SOL     OW22828   1.943   1.842   6.424 -0.3118 -0.3470  0.8105
 3790SOL    HW122829   2.020   1.805   6.467  1.1358 -0.1414 -1.5882
 3790SOL    HW222830   1.933   1.765   6.368 -0.2563 -0.7836  1.3950
 3791SOL     OW22831   0.007   2.598   5.991  0.9520  0.4163 -0.0764
 3791SOL    HW122832   4.677   2.618   6.067 -1.9023 -1.2508 -1.6481
 3791SOL    HW222833   4.681   2.520   5.967  0.3095  0.6960  0.3665
 3792SOL     OW22834   4.151   1.503   9.678  0.0373 -0.2879 -0.3732
 3792SOL    HW122835   4.133   1.580   9.625  1.0699  1.2453  1.4708
 3792SOL    HW222836   4.061   1.472   9.679 -1.1064  3.0038 -1.7263
 3793SOL     OW22837   0.612   1.420   8.517 -0.5648  0.3977  0.4564
 3793SOL    HW122838   0.531   1.369   8.507  1.6127 -2.3927 -2.5597
 3793SOL    HW222839   0.659   1.409   8.435 -2.4384  0.1289 -0.5896
 3794SOL     OW22840   2.272   0.374  13.746  0.4830  0.3849  0.2021
 3794SOL    HW122841   2.252   0.312  13.676  0.5942  0.0191  0.4935
 3794SOL    HW222842   2.355   0.402  13.710  1.0663  0.5920  1.6975
 3795SOL     OW22843   0.259   2.781   5.042 -0.2722 -0.2208 -0.4620
 3795SOL    HW122844   0.286   2.850   5.103  0.6491  0.0064 -1.1185
 3795SOL    HW222845   0.164   2.794   5.038 -0.2125  0.0603 -0.9909
 3796SOL     OW22846   3.159   0.964   3.941  0.1153 -0.3442  0.0548
 3796SOL    HW122847   3.078   0.933   3.900 -0.2407  1.4669 -0.6030
 3796SOL    HW222848   3.151   0.937   4.033  0.8423  2.3001  0.8961
 3797SOL     OW22849   0.286   2.325  16.225  0.0366  0.3639  0.4108
 3797SOL    HW122850   0.268   2.240  16.265  0.7213  0.6126  1.2396
 3797SOL    HW222851   0.306   2.378  16.303 -1.3013  0.4978  0.6747
 3798SOL     OW22852   1.966   1.081   2.850  0.6397  0.1113 -0.3700
 3798SOL    HW122853   1.957   0.996   2.807 -0.2329 -0.6098  1.2261
 3798SOL    HW222854   1.918   1.149   2.802  1.1641  0.1673 -0.8111
 3799SOL     OW22855   3.419   4.593   4.656  0.2553  0.3175 -0.1514
 3799SOL    HW122856   3.506   4.589   4.695  0.2782  0.5809 -0.1731
 3799SOL    HW222857   3.423   4.509   4.611  2.1143  0.4142 -0.1513
 3800SOL     OW22858   2.420   4.283   4.792 -0.3906  0.3377  0.1600
 3800SOL    HW122859   2.422   4.275   4.697 -1.6706 -0.3816  0.1939
 3800SOL    HW222860   2.490   4.223   4.818  0.5221  1.3355  0.0421
 3801SOL     OW22861   2.498   2.034   3.527 -0.2676  0.5699  0.4956
 3801SOL    HW122862   2.542   1.995   3.452 -1.1706  2.9477 -1.2673
 3801SOL    HW222863   2.409   2.029   3.491  0.3472  1.4905 -1.1455
 3802SOL     OW22864   4.656   0.614   8.592  0.3213  0.0716 -0.2533
 3802SOL    HW122865   4.575   0.566   8.574  0.2358  0.2602 -0.3700
 3802SOL    HW222866   4.672   0.615   8.686  0.0377  0.4861 -0.2090
 3803SOL     OW22867   2.357   2.656   1.010  0.0543 -0.0098 -0.2836
 3803SOL    HW122868   2.305   2.724   0.966  0.5975  0.0799 -0.7797
 3803SOL    HW222869   2.390   2.718   1.075  0.4695 -1.8108  1.1946
 3804SOL     OW22870   2.032   0.139   5.574 -0.1268 -0.1775 -1.0721
 3804SOL    HW122871   2.087   0.197   5.522 -0.2364  0.5877 -0.3357
 3804SOL    HW222872   2.098   0.076   5.602  0.5339  0.4568 -1.2283
 3805SOL     OW22873   0.794   0.412   7.223 -0.1194  0.0972 -0.0300
 3805SOL    HW122874   0.862   0.387   7.286  0.1210  0.7529 -0.0287
 3805SOL    HW222875   0.839   0.473   7.164  1.0590  1.9680  2.7608
 3806SOL     OW22876   2.834   2.118   4.983 -0.6077 -0.5143 -0.0710
 3806SOL    HW122877   2.819   2.134   4.890  0.3858  0.5975 -0.0325
 3806SOL    HW222878   2.774   2.182   5.020  1.3284  1.7276 -0.8117
 3807SOL     OW22879   2.308   3.795   7.282  0.0183  0.1759  0.1291
 3807SOL    HW122880   2.215   3.809   7.299 -0.1927 -0.4797 -0.4749
 3807SOL    HW222881   2.347   3.797   7.370 -1.3205 -2.1881  0.7907
 3808SOL     OW22882   2.871   0.223   3.843  0.1224 -0.3858 -0.0531
 3808SOL    HW122883   2.918   0.139   3.839 -2.6537 -1.9255 -0.2345
 3808SOL    HW222884   2.806   0.202   3.910 -0.3145  1.3160  0.0516
 3809SOL     OW22885   2.394   0.905   0.368 -1.2788 -0.4014  0.7169
 3809SOL    HW122886   2.336   0.911   0.292 -1.8439  0.4782  1.2221
 3809SOL    HW222887   2.366   0.978   0.423 -0.3801 -0.1559  0.8606
 3810SOL     OW22888   3.122   0.347   3.527  0.3727  0.1007 -0.1111
 3810SOL    HW122889   3.173   0.270   3.552  0.7413 -0.1355 -1.6162
 3810SOL    HW222890   3.146   0.415   3.590  1.4589  0.6555 -1.1285
 3811SOL     OW22891   4.334   0.275  15.052  0.4250  0.0051 -0.3102
 3811SOL    HW122892   4.382   0.274  15.134 -0.1635 -0.5185  0.0244
 3811SOL    HW222893   4.321   0.366  15.028 -1.2196 -0.3375 -0.6822
 3812SOL     OW22894   1.864   2.523  17.577  0.6869 -0.6893  0.0990
 3812SOL    HW122895   1.893   2.518  17.486  0.3650  0.8112 -0.0836
 3812SOL    HW222896   1.875   2.431  17.603 -0.3702 -1.5120 -2.3745
 3813SOL     OW22897   0.653   4.377   6.271 -0.3049 -0.2000 -0.2382
 3813SOL    HW122898   0.674   4.356   6.180  1.5313  1.9338 -0.3062
 3813SOL    HW222899   0.568   4.334   6.283  0.8171 -2.1083  0.8717
 3814SOL     OW22900   4.489   1.160   3.507  0.0931 -0.1967 -0.1530
 3814SOL    HW122901   4.488   1.147   3.601  0.4171 -0.6597 -0.2142
 3814SOL    HW222902   4.398   1.178   3.485  0.0099 -0.9619 -0.4234
 3815SOL     OW22903   1.329   2.208  11.413 -0.1501  0.5542 -0.0167
 3815SOL    HW122904   1.314   2.220  11.319 -1.6499  0.6628  0.2458
 3815SOL    HW222905   1.260   2.251  11.462 -1.0533 -0.1837 -0.6418
 3816SOL     OW22906   3.135   0.893  11.583 -0.4443  0.0716  0.1174
 3816SOL    HW122907   3.115   0.933  11.498 -1.8414  0.1632  0.4896
 3816SOL    HW222908   3.177   0.963  11.632 -0.4201  0.5896 -0.6432
 3817SOL     OW22909   3.121   2.986   7.562 -0.6327 -0.2749  0.1791
 3817SOL    HW122910   3.085   2.906   7.600 -1.4887  0.0449  0.0446
 3817SOL    HW222911   3.156   2.967   7.475  1.2200 -0.0337  0.8761
 3818SOL     OW22912   0.827   0.611   8.261 -0.1612  0.1399  0.3470
 3818SOL    HW122913   0.868   0.656   8.187  0.1483  0.7609  0.9043
 3818SOL    HW222914   0.889   0.631   8.331  0.9763  2.0019 -1.2229
 3819SOL     OW22915   0.563   4.170   7.956 -0.0086 -1.0929  0.6129
 3819SOL    HW122916   0.630   4.105   7.975  0.0065 -1.0569  0.6813
 3819SOL    HW222917   0.491   4.115   7.923  0.0323  0.0074 -1.3248
 3820SOL     OW22918   2.963   0.436   1.332 -0.2003 -0.2495 -0.3920
 3820SOL    HW122919   2.891   0.412   1.390 -0.3487 -0.6295 -0.7313
 3820SOL    HW222920   3.031   0.420   1.396 -1.3734 -1.7717  0.4646
 3821SOL     OW22921   4.155   0.520  11.249 -0.1847  0.4746  0.0300
 3821SOL    HW122922   4.204   0.597  11.278  1.1875 -1.0293  1.7310
 3821SOL    HW222923   4.186   0.520  11.158  0.2113 -1.2134  0.1689
 3822SOL     OW22924   4.520   0.165   6.148 -0.3342 -0.1100  0.1750
 3822SOL    HW122925   4.498   0.210   6.067 -0.1660 -0.2103  0.0735
 3822SOL    HW222926   4.598   0.113   6.129 -1.4424 -1.3930 -0.8833
 3823SOL     OW22927   0.787   1.259   6.294 -0.0673  0.2383  0.3036
 3823SOL    HW122928   0.816   1.327   6.233 -0.4085 -0.8601 -1.0853
 3823SOL    HW222929   0.707   1.230   6.251 -0.5252  0.3390  1.0920
 3824SOL     OW22930   2.904   0.234   4.601 -0.4815  0.7820  0.0252
 3824SOL    HW122931   2.867   0.146   4.609 -1.6563  1.5236  2.7113
 3824SOL    HW222932   2.942   0.244   4.688 -3.7272 -2.6976  1.8228
 3825SOL     OW22933   2.518   3.635   7.774  0.0380 -0.1731  0.1310
 3825SOL    HW122934   2.604   3.630   7.818 -0.4105 -0.1409  1.0216
 3825SOL    HW222935   2.497   3.545   7.751  1.2588 -0.1603 -1.0154
 3826SOL     OW22936   3.697   4.488  15.543 -0.4682 -0.2099  0.3227
 3826SOL    HW122937   3.718   4.581  15.545 -0.6575 -0.1743  0.8684
 3826SOL    HW222938   3.605   4.489  15.572 -0.6750 -1.0893 -0.2943
 3827SOL     OW22939   4.001   4.282   2.234  0.3780 -0.1278  0.2285
 3827SOL    HW122940   3.955   4.221   2.291 -1.8036 -0.8987 -2.3145
 3827SOL    HW222941   4.079   4.300   2.286 -0.1499  1.2438  0.5591
 3828SOL     OW22942   4.041   3.987  15.281 -0.1694 -0.3783  0.2616
 3828SOL    HW122943   4.082   4.029  15.205 -0.9428 -0.2580 -0.0933
 3828SOL    HW222944   4.057   4.057  15.345  0.4055 -0.8915  0.6752
 3829SOL     OW22945   1.119   2.311   5.932 -0.4014 -0.1498  0.2198
 3829SOL    HW122946   1.212   2.322   5.949 -0.0100 -2.3246 -0.6497
 3829SOL    HW222947   1.112   2.320   5.837 -0.7936 -1.3270  0.1382
 3830SOL     OW22948   4.288   0.730   8.438 -0.6503  0.3457 -0.0907
 3830SOL    HW122949   4.375   0.692   8.442 -1.0031 -0.5984 -1.5044
 3830SOL    HW222950   4.236   0.660   8.478 -0.9746  1.4003  1.3190
 3831SOL     OW22951   2.355   0.968   3.642 -0.1932 -0.2134  0.0502
 3831SOL    HW122952   2.315   0.882   3.653 -1.3599  0.5825  2.1647
 3831SOL    HW222953   2.289   1.031   3.674  0.6399  1.3048 -1.1962
 3832SOL     OW22954   0.878   1.593   3.607 -0.0981 -0.6269 -0.2261
 3832SOL    HW122955   0.845   1.586   3.518 -0.2809 -0.9413 -0.1335
 3832SOL    HW222956   0.959   1.543   3.597  0.1972 -0.2305  0.1602
 3833SOL     OW22957   2.012   2.949   6.093 -0.5453  0.2784  0.0099
 3833SOL    HW122958   2.023   2.961   5.998  0.6008 -0.9409 -0.0096
 3833SOL    HW222959   2.005   3.036   6.133 -2.0234  0.4092 -0.5207
 3834SOL     OW22960   0.425   0.955   5.461  0.5842 -0.2571 -0.4035
 3834SOL    HW122961   0.448   1.048   5.457  0.2974 -0.0654  2.2393
 3834SOL    HW222962   0.339   0.957   5.503  0.9394 -1.2065  0.3666
 3835SOL     OW22963   2.940   2.859   3.638  0.2344 -0.3355  1.1001
 3835SOL    HW122964   2.859   2.831   3.594 -0.2809  2.2534  0.3808
 3835SOL    HW222965   2.916   2.877   3.729 -0.0236 -1.0665  1.1771
 3836SOL     OW22966   1.028   4.617  14.732 -0.1391 -0.1266 -0.1172
 3836SOL    HW122967   1.047   4.672  14.808 -1.7239  2.0921 -1.3062
 3836SOL    HW222968   0.944   4.576  14.754  0.8020 -2.4194 -0.8448
 3837SOL     OW22969   1.966   1.316   3.206  0.4922 -0.3467 -0.6476
 3837SOL    HW122970   1.968   1.232   3.161  0.0313 -0.9535  0.4832
 3837SOL    HW222971   2.006   1.291   3.289 -2.6253 -4.2528 -0.3340
 3838SOL     OW22972   2.059   1.587   9.508 -0.0319 -0.0202 -0.4734
 3838SOL    HW122973   2.130   1.597   9.572  0.4558  1.0809 -1.1740
 3838SOL    HW222974   1.985   1.633   9.548  0.9564  0.4313  0.8512
 3839SOL     OW22975   2.416   4.196  14.377 -0.0289  0.5995 -0.1439
 3839SOL    HW122976   2.325   4.219  14.358 -1.4153 -2.7766  2.3414
 3839SOL    HW222977   2.431   4.259  14.446 -0.8037  0.1933  0.3956
 3840SOL     OW22978   1.988   1.947   3.733  0.1124 -0.7396 -0.1466
 3840SOL    HW122979   1.948   2.004   3.667 -2.4522 -3.2029 -0.7705
 3840SOL    HW222980   1.950   1.983   3.813 -1.6869 -3.5347  0.2783
 3841SOL     OW22981   1.959   0.108   3.125 -0.6373  0.1294  0.1154
 3841SOL    HW122982   2.048   0.075   3.113  0.1268  1.7174  1.5105
 3841SOL    HW222983   1.966   0.172   3.055 -1.5484 -2.8793 -2.7326
 3842SOL     OW22984   2.334   0.865   4.525  0.1005  0.1662 -0.2420
 3842SOL    HW122985   2.287   0.782   4.516  1.5216 -0.4499 -1.8581
 3842SOL    HW222986   2.387   0.866   4.446  0.4463  3.8447  0.0249
 3843SOL     OW22987   1.701   4.681   0.960 -0.0099 -0.5512 -0.3448
 3843SOL    HW122988   1.683   0.051   0.970  2.3056 -0.0661 -0.6791
 3843SOL    HW222989   1.698   4.640   1.047 -3.8367  1.2843  0.3963
 3844SOL     OW22990   1.518   1.571  10.718 -0.6008 -0.1005  0.2108
 3844SOL    HW122991   1.481   1.520  10.647 -1.3756 -0.6956  1.0331
 3844SOL    HW222992   1.602   1.526  10.718 -0.2962  0.4505  1.1922
 3845SOL     OW22993   0.626   3.831   5.124  0.6025  0.1297 -0.3624
 3845SOL    HW122994   0.532   3.842   5.107  0.5621 -0.6730 -0.6694
 3845SOL    HW222995   0.629   3.736   5.114  1.8780  0.3141 -1.7633
 3846SOL     OW22996   0.848   2.456  17.274 -0.1580 -0.1993  0.3339
 3846SOL    HW122997   0.815   2.487  17.190  0.5536  2.2110  0.9595
 3846SOL    HW222998   0.829   2.365  17.251  0.6100 -0.8258  2.1338
 3847SOL     OW22999   3.470   2.715   7.245  0.5283 -0.0221 -0.0523
 3847SOL    HW123000   3.534   2.734   7.314 -1.9302 -0.4079  2.3557
 3847SOL    HW223001   3.400   2.681   7.300  0.5993 -0.4016 -0.1934
 3848SOL     OW23002   1.128   4.626   5.425 -0.2852 -1.0741 -0.0214
 3848SOL    HW123003   1.181   4.602   5.502  0.2291  1.5315  0.4366
 3848SOL    HW223004   1.087   4.709   5.450 -2.6703 -3.9394  5.5376
 3849SOL     OW23005   2.850   3.334   5.489  0.0547 -0.0113 -0.0364
 3849SOL    HW123006   2.803   3.405   5.534 -0.9757 -1.2805  0.8611
 3849SOL    HW223007   2.913   3.388   5.441 -0.6168  0.3243 -0.5574
 3850SOL     OW23008   2.272   2.741   6.748 -0.2147  0.1636 -0.3922
 3850SOL    HW123009   2.291   2.835   6.746 -1.2808  0.3387 -2.8607
 3850SOL    HW223010   2.179   2.740   6.768 -0.8016 -1.2522 -3.0884
 3851SOL     OW23011   1.787   4.365   4.119  0.9236  0.0832  0.3541
 3851SOL    HW123012   1.717   4.300   4.108  0.9767 -0.2747  2.1077
 3851SOL    HW223013   1.817   4.372   4.028 -1.2692 -1.3147 -0.4876
 3852SOL     OW23014   4.498   3.403   5.464 -0.0038  0.3726  0.3058
 3852SOL    HW123015   4.450   3.344   5.405 -0.9934  0.6368  0.8517
 3852SOL    HW223016   4.485   3.369   5.552  0.4962 -1.1624 -0.2218
 3853SOL     OW23017   0.789   4.642   8.297 -0.3658 -0.0615 -0.2556
 3853SOL    HW123018   0.821   4.584   8.366 -2.2063  0.3394  0.9223
 3853SOL    HW223019   0.712   4.688   8.331  0.2914 -0.4672  1.7654
 3854SOL     OW23020   0.129   4.106   2.882 -0.6846 -0.1774 -0.6910
 3854SOL    HW123021   0.136   4.176   2.947 -0.5163 -0.9839  0.1445
 3854SOL    HW223022   0.036   4.111   2.860 -0.3845  1.9895 -1.4673
 3855SOL     OW23023   4.272   3.823   6.845 -0.0588 -0.4438  0.0532
 3855SOL    HW123024   4.187   3.843   6.885  1.1561  0.1530  2.3654
 3855SOL    HW223025   4.336   3.869   6.899  0.0664 -2.4096  1.6060
 3856SOL     OW23026   2.487   2.167  13.614  0.3514  0.4137 -0.2752
 3856SOL    HW123027   2.401   2.193  13.645  0.8791 -1.9509  3.1762
 3856SOL    HW223028   2.501   2.253  13.572  0.0936  2.3935  3.6779
 3857SOL     OW23029   1.753   0.225  13.230  0.6943  0.3494 -0.0653
 3857SOL    HW123030   1.732   0.165  13.301  2.4331  0.7999  0.8348
 3857SOL    HW223031   1.677   0.282  13.238 -0.1580 -0.7212 -0.5875
 3858SOL     OW23032   3.019   1.958   0.033  0.4781 -0.1475  0.0464
 3858SOL    HW123033   2.995   2.050   0.026  1.4457 -0.0015 -1.4008
 3858SOL    HW223034   2.951   1.926   0.092 -0.1429 -1.8667 -1.6318
 3859SOL     OW23035   2.025   0.850   5.104 -0.3014  0.1547  0.0278
 3859SOL    HW123036   2.120   0.839   5.104 -0.3292 -0.0391 -0.6400
 3859SOL    HW223037   1.999   0.757   5.104 -0.0665  0.0948 -0.9892
 3860SOL     OW23038   3.221   3.380   6.478 -0.7621  0.0859  0.3594
 3860SOL    HW123039   3.203   3.320   6.550 -1.2542  0.1476  0.2883
 3860SOL    HW223040   3.159   3.350   6.411  0.3447 -0.3971 -0.4401
 3861SOL     OW23041   3.822   4.626   3.246  0.1684 -0.3209  0.0421
 3861SOL    HW123042   3.749   4.660   3.194  0.9307  1.0860 -0.1044
 3861SOL    HW223043   3.837   4.697   3.308 -1.2076 -0.2118  0.2368
 3862SOL     OW23044   3.732   2.488   7.135  0.8353  0.3522  0.1354
 3862SOL    HW123045   3.711   2.418   7.073 -1.0506  0.4204  0.6848
 3862SOL    HW223046   3.711   2.450   7.220 -0.0799  0.0193 -0.2417
 3863SOL     OW23047   2.800   1.753   1.157 -0.9401  0.3798 -0.3505
 3863SOL    HW123048   2.798   1.681   1.093 -2.1213 -2.7789  3.2233
 3863SOL    HW223049   2.864   1.810   1.115 -0.1409  0.4214  0.9176
 3864SOL     OW23050   1.640   1.050   7.192 -0.2272  0.1706 -0.2716
 3864SOL    HW123051   1.556   1.014   7.221  0.4126 -0.2067  1.1120
 3864SOL    HW223052   1.619   1.041   7.100 -3.7591  0.8273  0.4798
 3865SOL     OW23053   2.490   1.346   3.400 -0.2118  0.9834 -0.0801
 3865SOL    HW123054   2.548   1.406   3.448 -0.3634  2.0458 -1.2275
 3865SOL    HW223055   2.478   1.276   3.465 -2.2509  0.8814 -0.5698
 3866SOL     OW23056   4.100   0.601   7.837 -0.1209  0.5710 -0.0153
 3866SOL    HW123057   4.148   0.540   7.781  0.6710  2.2304 -1.1546
 3866SOL    HW223058   4.138   0.595   7.924 -1.9219 -2.9646  0.5025
 3867SOL     OW23059   2.274   1.044   2.949 -0.5323 -0.5785  0.2430
 3867SOL    HW123060   2.299   1.090   3.029 -0.3146 -1.5679  0.7420
 3867SOL    HW223061   2.187   1.080   2.934  0.4980  1.4944 -0.7963
 3868SOL     OW23062   4.192   4.153  11.845 -1.3006 -0.5740  0.2966
 3868SOL    HW123063   4.112   4.199  11.819 -0.1911  1.6067  0.7056
 3868SOL    HW223064   4.148   4.105  11.916 -2.9827  0.0161 -0.3480
 3869SOL     OW23065   3.056   3.201   4.887  0.8602 -0.8336  0.1496
 3869SOL    HW123066   2.982   3.208   4.828  0.8692 -0.1359  0.2226
 3869SOL    HW223067   3.110   3.266   4.843 -0.9507  1.6676  1.6552
 3870SOL     OW23068   2.586   3.876  11.367 -0.2919 -0.3157 -0.2062
 3870SOL    HW123069   2.511   3.889  11.425 -0.8355  2.5408 -1.5440
 3870SOL    HW223070   2.655   3.848  11.428 -0.3756 -0.9147 -0.3847
 3871SOL     OW23071   2.854   0.120   2.541  0.1064 -0.4215  0.0278
 3871SOL    HW123072   2.878   0.032   2.510  0.8513  0.3767 -1.6660
 3871SOL    HW223073   2.860   0.111   2.636 -0.9486  1.5240  0.2690
 3872SOL     OW23074   2.663   4.599   7.341  0.6332 -0.2684 -0.0976
 3872SOL    HW123075   2.596   4.652   7.298  0.2642 -0.1429  0.6327
 3872SOL    HW223076   2.621   4.513   7.331  2.6687 -1.0023 -2.2132
 3873SOL     OW23077   1.467   3.149  15.045  0.3071  0.0249  0.1602
 3873SOL    HW123078   1.563   3.141  15.045  0.2578 -0.4893  1.6972
 3873SOL    HW223079   1.449   3.170  14.953 -0.5020  2.1885  0.8273
 3874SOL     OW23080   2.274   1.690   6.768  0.2407  0.0949 -0.3652
 3874SOL    HW123081   2.264   1.598   6.791  1.9280 -0.4920 -2.0092
 3874SOL    HW223082   2.369   1.702   6.774  0.0009  1.9345 -0.0662
 3875SOL     OW23083   4.447   1.212   6.566 -0.2187 -0.7235  0.7289
 3875SOL    HW123084   4.429   1.247   6.479  0.1115 -0.4498  0.7688
 3875SOL    HW223085   4.361   1.185   6.598 -0.6676 -1.2482 -0.8926
 3876SOL     OW23086   0.038   3.078  17.098 -0.6854  0.8830 -0.1063
 3876SOL    HW123087   0.078   3.113  17.019 -0.4379  2.6485  0.8008
 3876SOL    HW223088   4.720   3.148  17.147 -1.8776  0.3324 -0.3390
 3877SOL     OW23089   2.163   4.496  14.454  0.0491  0.5134 -0.5334
 3877SOL    HW123090   2.172   4.590  14.442  0.4249  0.5741  0.2391
 3877SOL    HW223091   2.105   4.477  14.379 -0.5410  1.3984 -0.3039
 3878SOL     OW23092   3.580   1.864   0.926 -0.0891  0.2494 -0.0236
 3878SOL    HW123093   3.517   1.907   0.868  0.7967  0.4329 -0.8634
 3878SOL    HW223094   3.524   1.820   0.990  1.0115  2.2673  2.3476
 3879SOL     OW23095   1.850   1.311  12.233  0.1612 -0.4079 -0.2024
 3879SOL    HW123096   1.889   1.396  12.255  0.2656 -0.0300 -1.8871
 3879SOL    HW223097   1.784   1.341  12.171  0.5538 -0.9215 -0.8613
 3880SOL     OW23098   0.612   1.453   2.590 -0.0851  0.2856  0.2745
 3880SOL    HW123099   0.536   1.511   2.580 -0.7662 -0.5975  0.2576
 3880SOL    HW223100   0.574   1.403   2.662  0.2015  0.5069  0.5803
 3881SOL     OW23101   4.587   2.332   4.671  0.2337  0.0685 -0.1053
 3881SOL    HW123102   4.606   2.259   4.611 -1.2097 -0.9512  0.6876
 3881SOL    HW223103   4.538   2.384   4.608  2.1498  2.4499  0.3601
 3882SOL     OW23104   1.355   3.816   3.248 -0.4098 -0.3705  1.1406
 3882SOL    HW123105   1.316   3.762   3.316 -2.5779 -0.8155 -0.4444
 3882SOL    HW223106   1.345   3.904   3.282 -0.5777  1.1564 -2.8329
 3883SOL     OW23107   2.378   3.845  14.513  0.6288 -0.1732  0.4225
 3883SOL    HW123108   2.371   3.776  14.447 -0.2330  0.3638 -0.0599
 3883SOL    HW223109   2.473   3.853  14.520  0.7578 -1.4462  0.1842
 3884SOL     OW23110   2.630   3.684   5.790 -0.0140  0.5939  0.3333
 3884SOL    HW123111   2.678   3.642   5.861 -0.2403  0.4227  0.3852
 3884SOL    HW223112   2.670   3.659   5.707  0.8093 -0.4291  1.0422
 3885SOL     OW23113   1.615   1.096   3.879 -0.0362 -0.0053  0.4488
 3885SOL    HW123114   1.664   1.149   3.816 -1.4604  1.0709  0.2494
 3885SOL    HW223115   1.545   1.056   3.827  0.6839 -1.0016  0.2456
 3886SOL     OW23116   0.988   0.979   4.413 -0.0945  0.0982 -0.2607
 3886SOL    HW123117   0.986   0.946   4.503  0.4569  2.3735  0.5917
 3886SOL    HW223118   1.052   1.050   4.421 -0.4929  0.1565  2.3040
 3887SOL     OW23119   4.244   2.624   8.126  0.8163 -0.0806 -0.0015
 3887SOL    HW123120   4.250   2.545   8.179 -0.8232 -0.1371  0.1209
 3887SOL    HW223121   4.263   2.587   8.039  0.5892  0.8915 -0.4624
 3888SOL     OW23122   2.588   0.682   3.735 -0.0902  0.2633 -0.0424
 3888SOL    HW123123   2.557   0.627   3.807  0.4216  1.9868  1.4975
 3888SOL    HW223124   2.581   0.766   3.782 -0.9758  0.2209 -0.1033
 3889SOL     OW23125   2.432   1.497   4.917 -0.3065 -0.1912  0.0077
 3889SOL    HW123126   2.404   1.501   4.825  2.4442  0.0586 -0.8151
 3889SOL    HW223127   2.346   1.480   4.954  0.2054 -1.7738  0.4607
 3890SOL     OW23128   1.106   1.472   6.445  0.3013 -0.0539 -0.3769
 3890SOL    HW123129   1.133   1.399   6.390  1.4273  1.9994 -2.5184
 3890SOL    HW223130   1.074   1.522   6.369 -2.0981 -1.8652 -0.5665
 3891SOL     OW23131   3.670   2.465   9.806 -0.2248 -0.0118 -0.4535
 3891SOL    HW123132   3.743   2.405   9.794 -1.2083 -0.7794 -2.7808
 3891SOL    HW223133   3.702   2.544   9.761 -1.8167 -0.5157 -2.4757
 3892SOL     OW23134   3.844   4.057   2.570  0.3656  0.1675 -0.0944
 3892SOL    HW123135   3.921   4.067   2.513  1.4548 -1.7235  1.0544
 3892SOL    HW223136   3.773   4.080   2.510  0.1426  0.0238  0.1139
 3893SOL     OW23137   2.671   2.203   3.631  0.1527  0.0876  0.0588
 3893SOL    HW123138   2.633   2.272   3.577  0.2973  0.4879  0.4712
 3893SOL    HW223139   2.616   2.140   3.584  0.8981 -0.2888 -0.3196
 3894SOL     OW23140   0.594   2.349  10.876 -0.2711  0.1692 -0.1963
 3894SOL    HW123141   0.610   2.344  10.782  1.1608  1.9276 -0.0328
 3894SOL    HW223142   0.548   2.267  10.894 -2.4833  0.9953 -2.1144
 3895SOL     OW23143   3.655   2.453  15.252 -0.3148 -0.5943  0.4425
 3895SOL    HW123144   3.668   2.487  15.163 -1.8294  0.0759  0.4727
 3895SOL    HW223145   3.594   2.519  15.286 -0.0175 -0.2620  0.3320
 3896SOL     OW23146   3.784   1.211   3.313 -0.4306 -0.2476 -0.1229
 3896SOL    HW123147   3.821   1.299   3.320  0.0422 -0.6591  2.5719
 3896SOL    HW223148   3.800   1.195   3.220 -2.2335 -2.3240 -0.0600
 3897SOL     OW23149   0.798   0.641   2.695  0.2801 -0.2380 -0.3148
 3897SOL    HW123150   0.879   0.678   2.731 -0.6056  2.5144 -1.1086
 3897SOL    HW223151   0.778   0.582   2.767  0.6395  0.3528  0.2733
 3898SOL     OW23152   1.365   2.818   3.349 -0.2325 -0.3746  0.2409
 3898SOL    HW123153   1.296   2.816   3.416  0.3608  0.5602  0.8904
 3898SOL    HW223154   1.328   2.879   3.286  0.7639 -0.1913 -0.1732
 3899SOL     OW23155   2.736   2.080   1.018 -0.3617 -0.2334  0.4152
 3899SOL    HW123156   2.736   2.053   0.926 -0.3057  0.0613  0.3304
 3899SOL    HW223157   2.822   2.115   1.042  0.3660 -2.4752  1.1174
 3900SOL     OW23158   2.830   4.489   8.406 -0.1603 -0.5412 -0.1580
 3900SOL    HW123159   2.841   4.460   8.315 -2.1632 -1.6667 -0.0249
 3900SOL    HW223160   2.890   4.429   8.450 -0.9255 -2.7438 -2.1062
 3901SOL     OW23161   1.281   1.616   6.570  0.4621 -0.0257 -1.1267
 3901SOL    HW123162   1.351   1.591   6.511 -1.0956  1.8376 -3.7305
 3901SOL    HW223163   1.209   1.559   6.543  0.0144 -0.5208  1.0764
 3902SOL     OW23164   2.726   0.609   3.509  0.8947 -0.1618 -0.1151
 3902SOL    HW123165   2.687   0.616   3.596  2.9425 -1.0059  0.9026
 3902SOL    HW223166   2.788   0.535   3.519  0.5811 -0.6414 -1.7905
 3903SOL     OW23167   2.617   1.119   3.999 -0.0494  0.4040 -0.1472
 3903SOL    HW123168   2.589   1.188   4.060  2.2440  1.4337 -0.2791
 3903SOL    HW223169   2.678   1.163   3.940  0.8849 -0.9511 -0.2036
 3904SOL     OW23170   2.440   3.964   2.728  0.1569  0.1328 -0.5123
 3904SOL    HW123171   2.382   3.985   2.655 -0.1686  0.2037 -0.2310
 3904SOL    HW223172   2.453   3.870   2.716 -0.1547 -0.0870  0.9552
 3905SOL     OW23173   3.772   3.977   5.075 -0.3454 -0.5548  0.0721
 3905SOL    HW123174   3.722   3.954   4.997  1.6988  0.3267 -1.4732
 3905SOL    HW223175   3.851   4.012   5.035 -0.4470  0.2385  0.5577
 3906SOL     OW23176   4.009   0.296   5.850  0.6349 -0.3159 -0.0627
 3906SOL    HW123177   3.948   0.230   5.815 -0.0144  0.1406  0.2062
 3906SOL    HW223178   4.086   0.281   5.794  0.6786 -0.5048  0.0491
 3907SOL     OW23179   0.135   2.487   3.055  0.0509 -0.3261 -0.0818
 3907SOL    HW123180   0.115   2.531   2.972 -1.5222  0.5796  0.7788
 3907SOL    HW223181   0.193   2.412   3.045 -1.4504 -1.6857  1.6332
 3908SOL     OW23182   2.078   0.421  17.048 -0.2855 -0.0381  0.0218
 3908SOL    HW123183   2.020   0.354  17.083  1.2969 -0.5265  1.6916
 3908SOL    HW223184   2.158   0.372  17.029 -0.0840  0.6799 -0.9965
 3909SOL     OW23185   2.149   0.717   9.360 -0.0843  0.4366  0.2749
 3909SOL    HW123186   2.184   0.628   9.364  0.2144  0.5938  1.1098
 3909SOL    HW223187   2.070   0.696   9.310 -0.4246  0.4663  0.7927
 3910SOL     OW23188   2.140   0.899   6.863 -0.0634  0.1091 -0.1670
 3910SOL    HW123189   2.181   0.984   6.844  1.6657 -0.1164  2.5729
 3910SOL    HW223190   2.182   0.837   6.804 -1.1927 -1.8172  1.0672
 3911SOL     OW23191   1.938   3.629   2.147 -0.8526  0.3960  1.1695
 3911SOL    HW123192   1.978   3.714   2.166 -1.5423  0.8388  0.6718
 3911SOL    HW223193   1.865   3.665   2.097  1.0234  1.7944 -0.5586
 3912SOL     OW23194   0.326   3.229   4.109  0.5145  0.0660  0.1542
 3912SOL    HW123195   0.323   3.157   4.173  1.0467  0.0804  0.1968
 3912SOL    HW223196   0.418   3.222   4.082  0.1779  0.3160 -1.0538
 3913SOL     OW23197   1.058   2.772  15.067  0.4313  0.1125 -0.2547
 3913SOL    HW123198   1.113   2.703  15.029  0.7698  0.2955 -0.1001
 3913SOL    HW223199   1.134   2.829  15.082  0.1133  0.4364  0.1243
 3914SOL     OW23200   0.049   4.719  11.005  0.1031 -0.4660  0.5506
 3914SOL    HW123201   4.716   0.065  11.038  0.0694  0.1885 -0.9016
 3914SOL    HW223202   0.045   4.667  11.086  3.9316 -2.1173 -0.3416
 3915SOL     OW23203   1.013   0.316   2.860 -0.4577  0.2499  0.0941
 3915SOL    HW123204   0.979   0.247   2.804 -1.1265  0.5899  0.0806
 3915SOL    HW223205   1.082   0.342   2.799 -2.4076  1.0457 -1.7721
 3916SOL     OW23206   0.498   2.084   2.068  0.6791  0.1019  0.2132
 3916SOL    HW123207   0.500   2.093   1.973 -1.3530  1.3398  0.2910
 3916SOL    HW223208   0.493   2.171   2.108 -1.4899  0.1964 -0.2921
 3917SOL     OW23209   2.321   1.512  17.046 -0.3978 -0.0456 -0.1260
 3917SOL    HW123210   2.350   1.489  16.958  1.7274  2.7119 -0.1304
 3917SOL    HW223211   2.407   1.501  17.088 -1.2205  3.2945  2.3881
 3918SOL     OW23212   2.731   4.035   0.626 -0.0295 -0.4955 -0.0573
 3918SOL    HW123213   2.686   4.016   0.543 -1.1528  0.5288  0.3383
 3918SOL    HW223214   2.659   4.045   0.688 -0.3982 -1.5440 -0.3137
 3919SOL     OW23215   1.372   0.140   3.516  0.1516 -0.6873 -0.1402
 3919SOL    HW123216   1.377   0.177   3.604  0.8851 -1.1721  0.0225
 3919SOL    HW223217   1.446   0.181   3.472 -0.1135 -1.6236 -1.4891
 3920SOL     OW23218   2.140   3.224   5.567  0.3431  0.1507  0.2019
 3920SOL    HW123219   2.197   3.150   5.547  0.9118  0.2717  1.4045
 3920SOL    HW223220   2.168   3.289   5.503  1.5263 -0.5763 -0.0187
 3921SOL     OW23221   4.681   1.789   6.285 -0.1820  0.0434 -0.0105
 3921SOL    HW123222   0.012   1.812   6.361 -1.4140 -1.0785  1.2210
 3921SOL    HW223223   4.707   1.864   6.231 -0.3821 -0.2737 -0.5434
 3922SOL     OW23224   3.375   1.064   5.155 -0.2079 -0.0948 -0.0179
 3922SOL    HW123225   3.452   1.096   5.108 -1.2310  0.2671 -1.4441
 3922SOL    HW223226   3.365   1.139   5.213  0.0799  2.5927 -3.4370
 3923SOL     OW23227   0.177   3.928   9.164 -0.3584 -0.7937  0.4249
 3923SOL    HW123228   0.156   4.010   9.120  0.4033 -2.0792 -2.3028
 3923SOL    HW223229   0.119   3.931   9.240  0.5567 -0.3215  1.0999
 3924SOL     OW23230   0.551   0.024  13.965  0.8099  0.2555  0.1883
 3924SOL    HW123231   0.522   0.049  14.053 -1.1958  0.9254 -0.6643
 3924SOL    HW223232   0.548   4.652  13.975  1.4572  0.2974  0.7603
 3925SOL     OW23233   1.262   0.188   4.866 -0.4076  0.1383 -0.3561
 3925SOL    HW123234   1.329   0.235   4.816 -0.6003  1.2320  0.4250
 3925SOL    HW223235   1.273   0.238   4.946  2.6824 -2.0310  0.5587
 3926SOL     OW23236   2.329   1.589  11.397 -0.2558  0.0078  0.1513
 3926SOL    HW123237   2.297   1.529  11.330 -0.2680 -1.3601  1.3831
 3926SOL    HW223238   2.399   1.633  11.350  2.5910 -1.5130  2.9532
 3927SOL     OW23239   4.181   2.739   6.956  0.0691  0.2583 -0.2044
 3927SOL    HW123240   4.220   2.663   6.913  0.0653  1.5298 -2.4506
 3927SOL    HW223241   4.091   2.742   6.925  0.3075  0.2844 -0.8945
 3928SOL     OW23242   0.192   1.343   0.490  0.4114  0.3961 -0.1007
 3928SOL    HW123243   0.280   1.333   0.451  0.5343  0.4455  0.1637
 3928SOL    HW223244   0.135   1.357   0.415  0.9639  0.3394 -0.5357
 3929SOL     OW23245   2.115   0.923  10.352 -0.3273  0.4304  0.4241
 3929SOL    HW123246   2.202   0.925  10.310 -1.4264 -1.2090 -1.9418
 3929SOL    HW223247   2.086   0.833  10.340  2.6612 -0.1817 -2.1765
 3930SOL     OW23248   1.103   4.389   7.984  0.0985  0.5404  0.0269
 3930SOL    HW123249   1.034   4.355   8.041  0.9451  0.9082  1.2795
 3930SOL    HW223250   1.070   4.475   7.957 -0.2051  0.5239  0.3466
 3931SOL     OW23251   2.614   1.579  11.737 -0.2339  0.1184  0.1201
 3931SOL    HW123252   2.569   1.531  11.668  0.4957 -2.1077  1.1657
 3931SOL    HW223253   2.554   1.652  11.749  0.5378  0.6620  0.6863
 3932SOL     OW23254   2.062   4.279   9.389 -0.3496 -0.4635  0.4787
 3932SOL    HW123255   2.110   4.313   9.313 -2.9181 -0.2034 -1.0391
 3932SOL    HW223256   2.051   4.194   9.347  0.1888  0.7461 -2.1307
 3933SOL     OW23257   3.154   2.404   4.860  0.3491  0.3486  0.1022
 3933SOL    HW123258   3.099   2.426   4.935 -0.5588 -0.3277 -0.3636
 3933SOL    HW223259   3.089   2.388   4.790  2.1533 -2.0934 -1.0478
 3934SOL     OW23260   3.644   1.051   5.415 -0.5313 -0.1847 -0.0517
 3934SOL    HW123261   3.553   1.035   5.437 -0.2423 -0.8580  0.6723
 3934SOL    HW223262   3.679   0.962   5.405 -1.7037 -0.5957 -0.4826
 3935SOL     OW23263   0.740   1.713  11.236 -0.7040 -0.3380  0.4532
 3935SOL    HW123264   0.729   1.769  11.313  2.4654 -1.5726  1.7869
 3935SOL    HW223265   0.725   1.764  11.157 -1.6139 -1.3960 -0.0548
 3936SOL     OW23266   1.242   3.633   2.853  0.4233  0.0267 -0.0053
 3936SOL    HW123267   1.325   3.666   2.886  1.3785 -1.5915 -0.8059
 3936SOL    HW223268   1.262   3.542   2.873  0.8918  0.0300 -0.4712
 3937SOL     OW23269   3.731   0.474   7.356 -0.6195  0.1555  0.0097
 3937SOL    HW123270   3.723   0.416   7.432  0.9805 -1.7065 -1.2437
 3937SOL    HW223271   3.764   0.557   7.390  4.4433 -0.9935 -2.0098
 3938SOL     OW23272   4.530   2.737  16.792 -0.0047  0.2120  0.0109
 3938SOL    HW123273   4.468   2.673  16.756 -1.5195  1.9872 -0.5354
 3938SOL    HW223274   4.472   2.813  16.800  0.6328  0.8070 -1.0156
 3939SOL     OW23275   2.353   2.490   6.771 -0.0797 -0.0584 -0.0300
 3939SOL    HW123276   2.328   2.583   6.769  0.5991  0.1137 -0.6224
 3939SOL    HW223277   2.269   2.444   6.766  0.2936 -0.5767 -1.5178
 3940SOL     OW23278   4.024   1.239   9.480 -0.3682  0.4219 -0.3677
 3940SOL    HW123279   4.118   1.256   9.483 -0.1672 -0.7693 -0.0670
 3940SOL    HW223280   3.995   1.325   9.510 -0.8665  0.2525 -0.3610
 3941SOL     OW23281   2.327   3.624  15.292 -0.1839 -0.4319  0.3173
 3941SOL    HW123282   2.283   3.540  15.280  1.2778 -1.0023 -1.0244
 3941SOL    HW223283   2.336   3.661  15.204  0.6709  3.1416  1.9109
 3942SOL     OW23284   2.744   2.421   6.796  0.1781 -0.2266 -0.5074
 3942SOL    HW123285   2.820   2.367   6.774  1.3857  0.6963  1.4311
 3942SOL    HW223286   2.711   2.449   6.711  1.3582  2.1869 -0.1637
 3943SOL     OW23287   1.733   3.146  14.977  0.2655  0.3911 -0.0885
 3943SOL    HW123288   1.780   3.161  14.895  1.4182 -0.2433  0.4546
 3943SOL    HW223289   1.765   3.060  15.003  1.8991  1.1354  0.3555
 3944SOL     OW23290   1.840   2.813   5.434  0.6154  0.2298 -0.0059
 3944SOL    HW123291   1.845   2.740   5.495  0.1725 -0.1573 -0.4307
 3944SOL    HW223292   1.783   2.876   5.478 -0.4359  0.0470 -1.0908
 3945SOL     OW23293   0.958   3.891   6.509 -0.2362 -0.7717  0.1878
 3945SOL    HW123294   0.984   3.982   6.491 -1.7446 -0.3326  0.2191
 3945SOL    HW223295   0.882   3.905   6.565 -0.3775 -0.9236  0.0346
 3946SOL     OW23296   2.019   2.614   3.447  0.1676  0.6167 -0.8276
 3946SOL    HW123297   1.945   2.674   3.439 -2.2574 -2.2262 -0.0023
 3946SOL    HW223298   2.076   2.672   3.497  0.7579  1.2142 -2.2037
 3947SOL     OW23299   2.167   2.127   1.076  0.1230 -0.0160  0.2553
 3947SOL    HW123300   2.176   2.220   1.096  0.8827 -0.0252 -0.0273
 3947SOL    HW223301   2.104   2.104   1.144  0.7263  0.9535  1.1395
 3948SOL     OW23302   1.839   3.424   2.720  0.2252  0.2416  0.1128
 3948SOL    HW123303   1.828   3.503   2.772  1.4250  1.0753 -0.9016
 3948SOL    HW223304   1.836   3.464   2.633 -0.3161 -0.3237 -0.1273
 3949SOL     OW23305   2.007   4.314   3.159 -0.2123 -0.2275 -0.3329
 3949SOL    HW123306   1.931   4.355   3.200 -0.2529 -0.5676 -0.0667
 3949SOL    HW223307   2.074   4.378   3.184 -0.0271 -0.1759 -0.9532
 3950SOL     OW23308   1.003   0.638   6.214 -0.1762 -0.0928  0.7055
 3950SOL    HW123309   0.920   0.647   6.167  2.0493  2.1072 -2.8162
 3950SOL    HW223310   0.965   0.615   6.298 -0.2439  2.3380  1.3434
 3951SOL     OW23311   4.394   2.333   4.877 -0.4354 -0.2872  0.2775
 3951SOL    HW123312   4.458   2.313   4.809 -0.5868 -1.4156  0.4625
 3951SOL    HW223313   4.318   2.328   4.817  1.2337 -2.1730 -1.6728
 3952SOL     OW23314   1.949   0.089   6.335 -0.1563 -0.3888 -0.1739
 3952SOL    HW123315   2.002   0.013   6.312  0.5181 -0.4933  1.6809
 3952SOL    HW223316   1.937   0.082   6.430  1.2254  1.0142  0.1210
 3953SOL     OW23317   2.129   2.861   0.805 -0.1376  0.0495 -0.6978
 3953SOL    HW123318   2.214   2.888   0.771 -0.3006 -0.9999 -1.9380
 3953SOL    HW223319   2.120   2.928   0.873 -0.0874 -0.8640  0.2231
 3954SOL     OW23320   3.704   3.812   2.352  0.2363 -0.5112  0.1105
 3954SOL    HW123321   3.752   3.729   2.343  0.9087 -0.1880  0.7400
 3954SOL    HW223322   3.737   3.872   2.285  0.0068 -0.8242 -0.2841
 3955SOL     OW23323   2.175   1.013   8.194  0.6604 -0.0912  0.4790
 3955SOL    HW123324   2.265   1.027   8.164 -0.0178  1.2973 -0.9156
 3955SOL    HW223325   2.165   1.094   8.245  0.8734 -0.5006  1.1658
 3956SOL     OW23326   0.707   2.970  12.106  0.3810 -0.4230 -0.3144
 3956SOL    HW123327   0.744   2.956  12.019 -2.3009 -0.6009 -1.4282
 3956SOL    HW223328   0.617   2.939  12.105  0.6259 -1.1439  1.5153
 3957SOL     OW23329   1.229   3.072   8.239 -0.4073 -0.1590  0.3227
 3957SOL    HW123330   1.255   3.033   8.155  0.3779  2.1200 -0.4831
 3957SOL    HW223331   1.303   3.124   8.269 -0.6354  2.5227 -3.6946
 3958SOL     OW23332   4.341   1.513   7.002  0.6934 -0.5252 -0.0277
 3958SOL    HW123333   4.282   1.504   6.927 -0.4384 -1.6566  0.9906
 3958SOL    HW223334   4.314   1.599   7.033  0.8936 -0.3468 -0.3462
 3959SOL     OW23335   4.456   2.010   0.028  1.2484  0.3407  0.1352
 3959SOL    HW123336   4.382   1.952   0.044  1.1192  0.2219 -0.9031
 3959SOL    HW223337   4.427   2.076   0.091 -1.2266 -1.0559  0.4137
 3960SOL     OW23338   4.591   4.434  11.816  0.3989 -0.2088 -0.3476
 3960SOL    HW123339   4.655   4.363  11.817 -0.8363 -1.3188  1.2347
 3960SOL    HW223340   4.531   4.391  11.755  1.4070  0.0459 -1.5101
 3961SOL     OW23341   3.047   2.212  12.142  0.2097 -0.1043 -0.2666
 3961SOL    HW123342   3.067   2.289  12.089  0.0868  0.3209  0.3067
 3961SOL    HW223343   3.126   2.158  12.141  0.4932  0.3343 -2.7521
 3962SOL     OW23344   0.804   3.602   2.675 -0.4652 -0.4704  0.1179
 3962SOL    HW123345   0.731   3.552   2.638 -0.3012  0.0105 -0.8598
 3962SOL    HW223346   0.876   3.543   2.655 -0.1644 -0.5031  1.2843
 3963SOL     OW23347   3.022   1.563   7.432  0.2157 -0.6252 -1.1891
 3963SOL    HW123348   3.087   1.512   7.482 -0.6662 -0.1792  0.3948
 3963SOL    HW223349   2.974   1.594   7.509  2.4711  0.3822 -0.1833
 3964SOL     OW23350   3.415   4.023   2.141 -0.2774  0.3047  0.0758
 3964SOL    HW123351   3.445   3.998   2.054 -0.2398 -0.3818  0.2901
 3964SOL    HW223352   3.325   4.039   2.113  0.0729 -0.8834 -1.7270
 3965SOL     OW23353   2.108   2.319   6.667 -1.1426 -0.0351 -0.0617
 3965SOL    HW123354   2.053   2.394   6.688 -0.7054  0.1346  0.4607
 3965SOL    HW223355   2.089   2.295   6.576  2.9283 -1.2416 -0.5992
 3966SOL     OW23356   3.520   2.544   2.909 -0.4234  0.5351 -0.5587
 3966SOL    HW123357   3.474   2.516   2.829 -1.7560 -0.3801  0.5338
 3966SOL    HW223358   3.587   2.600   2.869  1.2842 -0.7002  0.5918
 3967SOL     OW23359   0.343   3.970   9.917  0.0651  0.5083 -0.0661
 3967SOL    HW123360   0.316   4.022   9.992  0.7023  0.3034  0.3066
 3967SOL    HW223361   0.357   3.886   9.961 -0.0392 -0.0350 -1.0678
 3968SOL     OW23362   4.580   4.119   3.271  0.3248  0.2579 -0.3349
 3968SOL    HW123363   4.599   4.056   3.341 -0.5401  0.0143 -0.3179
 3968SOL    HW223364   4.485   4.120   3.267  0.3387  0.2434 -0.6541
 3969SOL     OW23365   4.204   1.992   4.625  0.1355 -0.2133 -0.4417
 3969SOL    HW123366   4.281   1.996   4.568  1.3426 -2.7772  0.9726
 3969SOL    HW223367   4.181   2.082   4.603 -0.1217 -0.3097 -0.5627
 3970SOL     OW23368   0.953   2.121   9.199  0.0512 -0.1057  0.3781
 3970SOL    HW123369   0.986   2.138   9.111 -1.3950 -0.8003 -0.3083
 3970SOL    HW223370   1.015   2.148   9.266  0.3315 -3.0425  1.3126
 3971SOL     OW23371   2.902   0.201  12.693 -0.4406  0.3394 -0.1537
 3971SOL    HW123372   2.843   0.266  12.731 -0.3815  0.0158  0.4972
 3971SOL    HW223373   2.955   0.261  12.640 -0.7976 -0.1602 -1.0781
 3972SOL     OW23374   4.012   1.626  11.533 -0.3609  0.1833 -0.0257
 3972SOL    HW123375   3.917   1.636  11.537 -0.4481 -1.0642  0.8256
 3972SOL    HW223376   4.038   1.627  11.625 -3.0218  2.2935  0.7059
 3973SOL     OW23377   1.372   4.033   4.963 -0.1114  0.6251  0.0707
 3973SOL    HW123378   1.280   4.053   4.978 -0.5019  0.3221 -1.9103
 3973SOL    HW223379   1.417   4.116   4.979  1.6262 -0.3057  0.0517
 3974SOL     OW23380   0.297   0.199  13.511 -0.5369 -0.0412 -0.4501
 3974SOL    HW123381   0.377   0.204  13.459 -0.3356 -1.9737 -0.3316
 3974SOL    HW223382   0.263   0.111  13.490 -4.6853  1.7610 -1.3794
 3975SOL     OW23383   3.573   3.059   6.424  0.0613  0.2535  0.7516
 3975SOL    HW123384   3.583   2.968   6.396 -0.4715 -0.2811  2.2710
 3975SOL    HW223385   3.480   3.052   6.404  0.6000 -0.0104 -1.6650
 3976SOL     OW23386   4.251   2.560   0.538 -0.7529  0.0929 -0.0167
 3976SOL    HW123387   4.247   2.538   0.445 -1.7994  0.4441 -0.0598
 3976SOL    HW223388   4.160   2.540   0.561 -0.3818 -1.1236  0.3704
 3977SOL     OW23389   4.472   0.726   3.885 -0.5223 -0.1634 -0.0241
 3977SOL    HW123390   4.545   0.788   3.881  0.3935 -1.2612 -0.2129
 3977SOL    HW223391   4.433   0.752   3.802 -0.0198  2.3963  0.5373
 3978SOL     OW23392   0.315   2.405   0.114  0.4635 -0.3378  0.5189
 3978SOL    HW123393   0.254   2.411   0.041  1.7530  0.1127 -0.5136
 3978SOL    HW223394   0.395   2.379   0.068  0.7421  0.7759  0.3933
 3979SOL     OW23395   4.312   3.944  12.708  0.2512  0.4225 -0.4305
 3979SOL    HW123396   4.238   3.894  12.674  0.6684  0.9612 -2.1297
 3979SOL    HW223397   4.384   3.916  12.651  2.3835  1.3062  1.8506
 3980SOL     OW23398   1.220   2.278   9.513 -0.6354  0.1906  0.1953
 3980SOL    HW123399   1.133   2.314   9.496  0.9658  3.3484 -1.2511
 3980SOL    HW223400   1.204   2.191   9.549 -0.4945  0.8821  1.9373
 3981SOL     OW23401   3.715   4.375   2.331 -0.4542 -0.0619  0.4113
 3981SOL    HW123402   3.739   4.373   2.239  0.4719  0.4181  0.6476
 3981SOL    HW223403   3.669   4.291   2.342  1.1935 -1.1931 -1.4724
 3982SOL     OW23404   3.989   0.313   9.353 -0.0447  0.8176 -0.3366
 3982SOL    HW123405   4.042   0.238   9.377 -0.8142  1.1540  2.3757
 3982SOL    HW223406   4.047   0.388   9.358  1.9759 -1.0243  3.4855
 3983SOL     OW23407   0.095   3.944   3.767 -0.1279 -0.6135 -0.2287
 3983SOL    HW123408   0.101   3.951   3.862 -2.1864 -0.3986 -0.1157
 3983SOL    HW223409   0.091   3.851   3.746  0.6475 -1.0282  1.5090
 3984SOL     OW23410   0.418   2.533  11.529  0.0439  0.2606 -0.1345
 3984SOL    HW123411   0.461   2.611  11.494  0.1282  0.0690 -0.4516
 3984SOL    HW223412   0.360   2.575  11.594 -0.4382 -1.0125  0.2462
 3985SOL     OW23413   3.369   0.252   6.064  0.0655 -0.2620 -0.1675
 3985SOL    HW123414   3.400   0.185   6.003  0.0132  1.7647 -2.4229
 3985SOL    HW223415   3.331   0.318   6.006 -0.9923 -0.4213  0.3385
 3986SOL     OW23416   4.658   3.665   4.680 -0.0700  0.2378  0.9629
 3986SOL    HW123417   4.700   3.655   4.594 -0.8532  0.4404  0.5550
 3986SOL    HW223418   4.697   3.591   4.727  0.0500  0.7701  1.6985
 3987SOL     OW23419   0.065   2.633   1.431  0.0084  0.4173 -0.1537
 3987SOL    HW123420   4.703   2.648   1.471 -0.5856  1.2084 -1.7446
 3987SOL    HW223421   0.062   2.697   1.360 -0.0451  0.0781 -0.4590
 3988SOL     OW23422   1.356   2.478   4.355 -0.1774  0.0550  0.1552
 3988SOL    HW123423   1.337   2.539   4.284  3.4037  2.6155  1.3877
 3988SOL    HW223424   1.288   2.411   4.345 -1.2902  1.2623 -0.4585
 3989SOL     OW23425   3.090   1.686  12.719 -0.2625  0.6262  0.4398
 3989SOL    HW123426   3.080   1.724  12.806 -1.3178 -0.9963  1.0139
 3989SOL    HW223427   3.043   1.746  12.661 -2.1022 -1.1133  0.1349
 3990SOL     OW23428   1.158   2.319  11.602 -0.1239  0.4102  0.0573
 3990SOL    HW123429   1.130   2.294  11.690 -2.3002 -0.8529 -0.9937
 3990SOL    HW223430   1.113   2.401  11.585 -0.1687  0.3136 -0.2827
 3991SOL     OW23431   0.170   1.748   8.511  0.1159 -0.2030 -0.2441
 3991SOL    HW123432   0.249   1.797   8.531 -1.3155  1.0902  2.3353
 3991SOL    HW223433   0.148   1.778   8.423  2.0141 -0.5248 -0.8208
 3992SOL     OW23434   1.168   2.570   3.034 -0.4018 -0.0682  0.2299
 3992SOL    HW123435   1.124   2.640   3.083 -2.1050  1.2597 -3.1673
 3992SOL    HW223436   1.256   2.576   3.070 -0.5907  1.2465  0.4895
 3993SOL     OW23437   4.621   1.686   1.840 -0.5472  0.7165  0.1553
 3993SOL    HW123438   4.690   1.648   1.786 -0.6657  1.7428 -0.7077
 3993SOL    HW223439   4.545   1.649   1.795  1.5332  0.8141 -3.3558
 3994SOL     OW23440   3.042   1.497   8.138 -0.2765  0.1191 -0.3452
 3994SOL    HW123441   3.035   1.497   8.043 -0.3563 -1.4507 -0.3499
 3994SOL    HW223442   3.072   1.408   8.157 -0.2305 -0.3232 -2.4358
 3995SOL     OW23443   2.984   4.317   9.031 -0.1752  0.4517  0.7979
 3995SOL    HW123444   3.068   4.360   9.043  0.0852 -0.5472  2.5078
 3995SOL    HW223445   3.000   4.253   8.962 -1.7980 -1.0561  1.8139
 3996SOL     OW23446   3.076   1.202   9.201 -0.8956 -0.1306  0.2021
 3996SOL    HW123447   3.028   1.259   9.261  0.6962 -0.3164  1.6427
 3996SOL    HW223448   3.107   1.133   9.260  1.3284 -0.7779 -1.7098
 3997SOL     OW23449   0.616   2.293  14.362 -0.3601  0.3398  0.3364
 3997SOL    HW123450   0.644   2.371  14.314 -0.3657 -0.8230 -1.5786
 3997SOL    HW223451   0.575   2.330  14.440 -1.9729 -1.2170  0.2174
 3998SOL     OW23452   4.401   3.993  15.125  0.1677  0.0432 -0.4840
 3998SOL    HW123453   4.361   3.907  15.112 -1.9147  1.0941 -1.0654
 3998SOL    HW223454   4.339   4.050  15.080 -2.1058 -1.0324  1.2581
 3999SOL     OW23455   3.404   2.924   9.623  0.9058 -0.7210 -0.3095
 3999SOL    HW123456   3.497   2.943   9.609  0.9796 -0.5947  0.3456
 3999SOL    HW223457   3.378   2.977   9.698  0.2089  1.3966 -2.0153
 4000SOL     OW23458   3.223   4.155   4.621  0.1171 -0.1343  0.4991
 4000SOL    HW123459   3.276   4.230   4.593 -0.1775  0.4774  1.5946
 4000SOL    HW223460   3.176   4.131   4.541 -1.5539  1.1962  1.0663
 4001SOL     OW23461   0.456   4.476   7.756 -0.3983  0.1669 -0.1626
 4001SOL    HW123462   0.417   4.398   7.717  0.1006 -0.2747  0.2088
 4001SOL    HW223463   0.544   4.452   7.727 -1.6769 -1.4079 -2.7401
 4002SOL     OW23464   2.655   4.324   5.600  0.0303 -0.0002 -0.2489
 4002SOL    HW123465   2.694   4.236   5.603  1.9418  0.8165 -1.4956
 4002SOL    HW223466   2.574   4.302   5.647 -1.0206  1.7310 -1.2407
 4003SOL     OW23467   2.504   3.993   4.463 -0.4881  0.4671 -0.4969
 4003SOL    HW123468   2.512   3.905   4.498 -0.7421  0.7165  0.1918
 4003SOL    HW223469   2.593   4.027   4.467 -0.8143  1.3515 -0.7681
 4004SOL     OW23470   0.402   1.005   7.397 -0.1800 -0.4489  0.2820
 4004SOL    HW123471   0.450   0.966   7.324 -2.9764 -0.4242 -1.5479
 4004SOL    HW223472   0.425   0.948   7.471 -2.4367  0.7066  1.8568
 4005SOL     OW23473   3.368   1.521   2.988 -0.4609  0.1087 -0.6302
 4005SOL    HW123474   3.329   1.435   2.971  0.5448  0.1771 -3.2202
 4005SOL    HW223475   3.455   1.489   3.013  0.2938  2.5107 -0.1325
 4006SOL     OW23476   0.044   4.714  11.477 -0.1547  0.0769  0.1775
 4006SOL    HW123477   4.701   0.025  11.535 -1.4582 -0.9607 -0.7006
 4006SOL    HW223478   0.098   0.070  11.472  1.4114 -0.8613  2.1743
 4007SOL     OW23479   0.266   1.785   1.582  0.2521 -0.0620  0.1442
 4007SOL    HW123480   0.332   1.754   1.643  1.1833  0.9873 -0.3229
 4007SOL    HW223481   0.231   1.860   1.630  0.2780 -0.5768  0.9648
 4008SOL     OW23482   4.455   3.681  10.937  0.1641 -0.2786  0.3035
 4008SOL    HW123483   4.497   3.699  10.853 -2.8879  1.2012 -0.8700
 4008SOL    HW223484   4.525   3.635  10.985 -1.3123  0.0937  2.7971
 4009SOL     OW23485   1.940   0.716   5.876 -0.3374  0.2430  0.0704
 4009SOL    HW123486   2.019   0.703   5.928 -1.3431  0.9843  1.7677
 4009SOL    HW223487   1.893   0.778   5.931 -2.2946  0.6915 -2.1031
 4010SOL     OW23488   0.865   1.791   8.962  0.7443  0.4142 -0.5509
 4010SOL    HW123489   0.943   1.735   8.959 -1.6809 -2.9874  0.2722
 4010SOL    HW223490   0.894   1.867   8.912  0.8875 -0.7963 -2.3194
 4011SOL     OW23491   1.761   1.291   8.009  0.5332 -0.2603 -0.1947
 4011SOL    HW123492   1.766   1.347   7.931 -0.8037 -1.2686 -1.0067
 4011SOL    HW223493   1.776   1.355   8.078 -2.1991 -0.9318  0.9982
 4012SOL     OW23494   4.687   0.599   7.924 -0.4179 -0.0250  0.0173
 4012SOL    HW123495   4.660   0.507   7.922  0.6841 -0.3233 -1.1865
 4012SOL    HW223496   4.628   0.610   7.999  0.4931 -0.2507  0.7681
 4013SOL     OW23497   1.919   1.082  15.579  0.4271  0.3467 -0.0300
 4013SOL    HW123498   1.927   0.989  15.559  0.1338  0.1791  0.6539
 4013SOL    HW223499   1.885   1.076  15.668  0.0912  2.0341 -0.0310
 4014SOL     OW23500   0.304   0.563  15.863  0.1313  0.5078 -0.3074
 4014SOL    HW123501   0.328   0.628  15.930 -0.4750 -1.0054  1.3578
 4014SOL    HW223502   0.226   0.523  15.899 -0.5009  0.1099 -2.1128
 4015SOL     OW23503   3.858   4.041   5.621 -0.0778 -0.4947  0.5078
 4015SOL    HW123504   3.777   4.003   5.587  0.9226 -0.4006 -1.9946
 4015SOL    HW223505   3.819   4.111   5.672  2.9152  0.9145  0.8422
 4016SOL     OW23506   4.301   4.524   6.244  0.6838  0.1374  0.4384
 4016SOL    HW123507   4.298   4.617   6.220 -2.1312  0.3007  1.3584
 4016SOL    HW223508   4.394   4.506   6.231  0.2794 -2.3283  0.8877
 4017SOL     OW23509   2.895   4.340  10.058  0.0577 -0.0017 -0.3588
 4017SOL    HW123510   2.830   4.334  10.127 -1.5053  2.1295 -1.6099
 4017SOL    HW223511   2.831   4.346   9.987  1.6482  0.5997 -1.7612
 4018SOL     OW23512   3.646   1.745   6.974  0.0270 -0.4924 -0.3535
 4018SOL    HW123513   3.717   1.681   6.961  2.0139  1.5956  0.1977
 4018SOL    HW223514   3.574   1.695   6.936  0.0615  0.3336 -1.5127
 4019SOL     OW23515   4.134   0.752   3.165 -0.3495  0.6945 -0.4751
 4019SOL    HW123516   4.132   0.656   3.165  1.4378  0.6779  2.5333
 4019SOL    HW223517   4.059   0.768   3.108  1.2263  0.9300 -2.4867
 4020SOL     OW23518   1.074   1.521   0.572 -0.0242 -0.3611  0.2297
 4020SOL    HW123519   1.020   1.490   0.500 -0.0017 -0.3092  0.1904
 4020SOL    HW223520   1.067   1.614   0.550  0.1531 -0.6994 -1.2444
 4021SOL     OW23521   4.612   3.693  14.317 -0.2021 -0.2283  0.1334
 4021SOL    HW123522   4.624   3.598  14.326  1.3473  0.1309  2.0731
 4021SOL    HW223523   4.696   3.719  14.279  0.4430 -0.6814  1.2572
 4022SOL     OW23524   1.273   3.757   7.839  0.0082  0.1287  0.0842
 4022SOL    HW123525   1.368   3.745   7.833 -0.4396 -2.3296 -2.2597
 4022SOL    HW223526   1.264   3.853   7.839 -1.3229 -0.0007 -2.0644
 4023SOL     OW23527   3.873   4.255   4.300  0.2429 -0.2329  0.6253
 4023SOL    HW123528   3.794   4.202   4.304  0.1874 -0.1842  0.2027
 4023SOL    HW223529   3.924   4.234   4.222  1.7759  0.8343  1.3192
 4024SOL     OW23530   0.667   2.754   7.566  0.0883 -0.1072  0.0741
 4024SOL    HW123531   0.596   2.798   7.614  2.2122  1.1723  2.0287
 4024SOL    HW223532   0.706   2.707   7.639  1.8731  1.3018  0.0266
 4025SOL     OW23533   1.603   4.675  16.752  0.5652 -0.6323  0.4275
 4025SOL    HW123534   1.613   4.594  16.803 -1.9916  0.1329  2.1562
 4025SOL    HW223535   1.688   4.681  16.708  0.4641 -0.2289  0.2964
 4026SOL     OW23536   2.064   2.788   4.405 -0.7746  0.5503  0.6418
 4026SOL    HW123537   2.143   2.782   4.459 -1.9853  0.3560  2.3792
 4026SOL    HW223538   2.009   2.719   4.442  0.4416 -0.9119 -0.2617
 4027SOL     OW23539   2.548   0.178   4.411  0.5611 -0.2726  0.3300
 4027SOL    HW123540   2.626   0.232   4.422  1.2523 -1.5509  1.7789
 4027SOL    HW223541   2.579   0.105   4.357  3.3031 -0.1765  1.7778
 4028SOL     OW23542   2.435   1.392   8.774 -0.4100  0.0719  0.1673
 4028SOL    HW123543   2.419   1.434   8.858 -0.5160  0.1091  0.1295
 4028SOL    HW223544   2.431   1.463   8.710  1.3966 -0.6605 -0.7593
 4029SOL     OW23545   4.495   3.882  14.177  0.4866 -0.2465 -0.5004
 4029SOL    HW123546   4.530   3.808  14.227 -0.4848  1.7541  3.1279
 4029SOL    HW223547   4.402   3.863  14.173  0.4369  0.0885 -0.9585
 4030SOL     OW23548   3.382   0.300   9.157  0.4101  0.8817  0.5104
 4030SOL    HW123549   3.397   0.206   9.146 -2.6861  0.4738 -0.2167
 4030SOL    HW223550   3.412   0.332   9.072  1.0253 -1.3394 -0.1017
 4031SOL     OW23551   4.226   0.704   6.273  0.2806  0.3996  0.4542
 4031SOL    HW123552   4.160   0.716   6.205  1.4882  0.6232 -0.6820
 4031SOL    HW223553   4.298   0.682   6.213 -0.5229  3.5062 -1.6310
 4032SOL     OW23554   4.418   2.557   2.177 -0.1725 -0.1379 -0.4915
 4032SOL    HW123555   4.363   2.609   2.236 -0.8940  0.3233 -1.5575
 4032SOL    HW223556   4.359   2.538   2.104 -0.5699  1.0987 -0.5065
 4033SOL     OW23557   4.089   4.090   5.163 -0.1935 -0.2269  0.4724
 4033SOL    HW123558   4.051   4.097   5.075  2.0545  0.2016 -0.4627
 4033SOL    HW223559   4.148   4.016   5.149  0.8004  0.8308 -0.9580
 4034SOL     OW23560   2.573   2.514   2.709  0.2391  0.8478  0.1516
 4034SOL    HW123561   2.572   2.597   2.662 -1.5344 -0.2727 -1.7672
 4034SOL    HW223562   2.578   2.543   2.801  0.2126 -1.6285  0.9356
 4035SOL     OW23563   1.553   3.056   5.890 -0.3763 -0.0257  0.5754
 4035SOL    HW123564   1.621   2.989   5.877 -0.7809 -0.1619 -0.8584
 4035SOL    HW223565   1.545   3.060   5.985 -0.1332  1.8239  0.5080
 4036SOL     OW23566   3.330   0.957   6.077  0.2916 -0.1305  0.3344
 4036SOL    HW123567   3.357   0.971   5.986 -1.9812 -0.9375 -0.4448
 4036SOL    HW223568   3.301   1.046   6.099  0.4450  0.1539 -0.5831
 4037SOL     OW23569   3.971   2.563   7.459 -0.1650  0.2035  0.3142
 4037SOL    HW123570   3.923   2.528   7.535  0.4487  2.2352  1.6284
 4037SOL    HW223571   4.013   2.478   7.443 -2.0006 -1.3604  3.7116
 4038SOL     OW23572   1.013   3.456   8.654 -0.2016  0.1294  0.1220
 4038SOL    HW123573   1.087   3.417   8.699 -0.5779 -1.3997 -0.5860
 4038SOL    HW223574   0.973   3.383   8.607  0.0766  1.7266 -2.6369
 4039SOL     OW23575   0.968   2.824   2.171 -0.0304 -0.1876  1.1061
 4039SOL    HW123576   0.956   2.835   2.077 -0.0326 -1.6897  0.9227
 4039SOL    HW223577   1.014   2.740   2.169 -2.2280 -1.3456 -1.3498
 4040SOL     OW23578   2.431   1.411  11.590  0.0776  0.2593 -0.6831
 4040SOL    HW123579   2.377   1.456  11.525 -0.3277  1.7653  0.7049
 4040SOL    HW223580   2.363   1.351  11.619  0.1235  0.4251 -0.2358
 4041SOL     OW23581   3.317   4.467   0.667  0.2911 -0.6865 -0.8337
 4041SOL    HW123582   3.304   4.407   0.740  0.2356  0.2483 -0.0621
 4041SOL    HW223583   3.324   4.547   0.720  0.7081 -0.3402 -1.4223
 4042SOL     OW23584   1.160   3.871   9.463  0.2546  0.3711  0.5832
 4042SOL    HW123585   1.162   3.817   9.542 -1.3057  1.4369  1.3435
 4042SOL    HW223586   1.157   3.795   9.405 -3.0121  0.3031  0.8564
 4043SOL     OW23587   1.442   2.598   0.071  0.2068  0.2371 -0.1174
 4043SOL    HW123588   1.401   2.635  17.690 -1.9827 -1.1029  0.3935
 4043SOL    HW223589   1.419   2.666   0.134  1.7511 -1.2288  2.0144
 4044SOL     OW23590   4.259   0.588   7.234  0.8326  1.0615 -0.0021
 4044SOL    HW123591   4.349   0.556   7.248 -0.3138 -1.1971  2.1581
 4044SOL    HW223592   4.248   0.576   7.140  1.0052 -0.6508  0.1957
 4045SOL     OW23593   4.200   1.709   2.870  0.5335  0.2465  0.0648
 4045SOL    HW123594   4.239   1.792   2.897  0.7875  0.3916 -0.7472
 4045SOL    HW223595   4.112   1.720   2.906  0.4529  1.3988 -0.4875
 4046SOL     OW23596   0.679   1.467   8.849 -0.6076  0.3163 -0.4325
 4046SOL    HW123597   0.665   1.548   8.898 -1.7227  0.0139 -0.2585
 4046SOL    HW223598   0.757   1.492   8.800 -1.3460 -1.3795 -2.4706
 4047SOL     OW23599   1.594   2.379  14.805 -0.4335  0.0094  0.4107
 4047SOL    HW123600   1.607   2.291  14.771  2.3870  1.4781 -2.3439
 4047SOL    HW223601   1.654   2.389  14.879  0.8543  0.7571 -0.7279
 4048SOL     OW23602   3.517   1.232   6.526  0.2427 -0.2405 -0.7438
 4048SOL    HW123603   3.486   1.310   6.481  1.2484  1.6158  1.7644
 4048SOL    HW223604   3.516   1.270   6.614 -2.9454 -3.5084  0.6632
 4049SOL     OW23605   2.805   4.269   3.414 -0.6140 -0.3466 -0.5996
 4049SOL    HW123606   2.786   4.222   3.495 -1.7086 -0.3961 -0.8853
 4049SOL    HW223607   2.836   4.203   3.352  0.1623 -2.1786  1.7221
 4050SOL     OW23608   4.457   2.133  14.114 -0.5395 -0.3547 -0.0115
 4050SOL    HW123609   4.376   2.136  14.063 -0.5593  0.7883  0.0816
 4050SOL    HW223610   4.525   2.113  14.050  0.6907  1.9797  0.5485
 4051SOL     OW23611   4.594   0.906   6.761  0.4952  0.9352  0.5417
 4051SOL    HW123612   4.498   0.909   6.764  0.4652  0.1615  0.4666
 4051SOL    HW223613   4.619   0.875   6.848  0.3616 -0.1504  0.1986
 4052SOL     OW23614   0.800   3.743   3.663 -0.5542 -0.2057  0.3082
 4052SOL    HW123615   0.819   3.837   3.664  1.1679 -0.5437 -1.1620
 4052SOL    HW223616   0.706   3.746   3.646 -0.4319  0.5170 -0.2332
 4053SOL     OW23617   0.169   2.262   3.726 -0.1824 -0.3467 -0.1406
 4053SOL    HW123618   0.252   2.216   3.713  0.0320  0.2621 -0.9506
 4053SOL    HW223619   0.126   2.226   3.804  0.6623 -0.1050  0.4361
 4054SOL     OW23620   0.853   2.593  17.511 -0.0639 -0.8188  0.4950
 4054SOL    HW123621   0.767   2.553  17.522 -1.1070  1.4809  0.5542
 4054SOL    HW223622   0.883   2.543  17.435 -1.4179 -0.0690 -0.5231
 4055SOL     OW23623   0.400   0.424  17.535  0.1624 -0.1786  0.0890
 4055SOL    HW123624   0.317   0.377  17.547 -0.4161  0.8963  0.2746
 4055SOL    HW223625   0.438   0.380  17.458 -1.9939  3.1082 -2.8630
 4056SOL     OW23626   1.196   2.084   4.176 -0.2223 -0.1709 -0.0430
 4056SOL    HW123627   1.227   2.148   4.111 -0.3156 -1.6630 -1.5487
 4056SOL    HW223628   1.264   2.017   4.169  0.8004  0.8684 -0.2327
 4057SOL     OW23629   2.547   4.109   5.343 -0.4957  0.2629  0.1990
 4057SOL    HW123630   2.516   4.020   5.327 -2.3665  0.6832  1.4355
 4057SOL    HW223631   2.496   4.162   5.281  2.5473  2.3523 -0.5143
 4058SOL     OW23632   3.738   0.811   8.379 -0.0705  0.0324  0.1529
 4058SOL    HW123633   3.700   0.842   8.297  1.2183 -1.3102 -0.9499
 4058SOL    HW223634   3.829   0.841   8.376  0.1979 -0.7079  0.7661
 4059SOL     OW23635   1.056   1.206  12.447 -0.5953  0.2922 -0.4687
 4059SOL    HW123636   1.111   1.179  12.374 -1.5960 -3.8200  0.3072
 4059SOL    HW223637   0.988   1.141  12.429 -0.1455 -0.4519  0.5295
 4060SOL     OW23638   2.763   4.242   5.893 -0.6981 -0.3265 -0.0676
 4060SOL    HW123639   2.766   4.198   5.978 -0.1130 -0.9347 -0.4023
 4060SOL    HW223640   2.751   4.167   5.835  1.6379 -0.3241 -0.5415
 4061SOL     OW23641   4.531   3.052  12.001 -1.0242 -0.8715  0.5165
 4061SOL    HW123642   4.538   2.958  12.014  0.5618 -0.7899  0.2305
 4061SOL    HW223643   4.602   3.079  12.060 -2.1013  3.3954 -0.1473
 4062SOL     OW23644   1.061   0.925  14.872 -0.6358  0.3238  0.0584
 4062SOL    HW123645   1.044   1.012  14.909 -0.4967 -0.7002  2.4658
 4062SOL    HW223646   1.109   0.888  14.945 -0.8222  0.1443  0.0879
 4063SOL     OW23647   2.951   0.130   8.293  0.0524  0.0145 -0.6864
 4063SOL    HW123648   2.943   0.075   8.371 -0.2863  1.6456  0.4324
 4063SOL    HW223649   3.045   0.151   8.292  0.0565  0.0284 -0.2958
 4064SOL     OW23650   4.325   4.229   9.094  0.3114 -0.4987  0.3650
 4064SOL    HW123651   4.315   4.258   9.185  0.7528 -1.5232  0.7355
 4064SOL    HW223652   4.366   4.145   9.111  2.1083  0.2662 -0.2654
 4065SOL     OW23653   2.472   0.163  17.280  0.0944 -0.1759 -0.1249
 4065SOL    HW123654   2.398   0.146  17.222 -2.7808  2.4426  2.7627
 4065SOL    HW223655   2.542   0.108  17.245  1.7255  1.5289  0.4451
 4066SOL     OW23656   0.891   3.268  11.621  0.8706 -0.3423  0.0344
 4066SOL    HW123657   0.968   3.229  11.663  0.9219 -0.1482  0.1211
 4066SOL    HW223658   0.845   3.306  11.695  0.7247  0.7437 -0.6146
 4067SOL     OW23659   4.421   2.051   0.476  0.3492 -0.1573 -0.4499
 4067SOL    HW123660   4.403   2.143   0.496 -2.9244 -0.4913 -1.8557
 4067SOL    HW223661   4.477   2.057   0.398  0.8715 -1.8332 -0.2126
 4068SOL     OW23662   3.088   0.846  12.825  0.5649 -0.0713 -0.8153
 4068SOL    HW123663   3.109   0.867  12.734 -1.1108  1.0585 -0.9466
 4068SOL    HW223664   3.041   0.926  12.849 -2.1967 -1.4362 -1.6738
 4069SOL     OW23665   2.006   3.853   7.342 -0.0600  0.0189  0.0911
 4069SOL    HW123666   2.038   3.773   7.384  0.2372  0.2441  0.3029
 4069SOL    HW223667   1.957   3.897   7.412 -1.8150 -1.4095 -0.2481
 4070SOL     OW23668   1.273   0.084   7.617  0.4812  0.5717 -0.4436
 4070SOL    HW123669   1.242   0.028   7.546 -2.5691 -0.0699  1.4153
 4070SOL    HW223670   1.355   0.039   7.639 -1.2836 -2.1771  0.4871
 4071SOL     OW23671   3.550   3.158  13.598  0.0646  0.1512  0.4213
 4071SOL    HW123672   3.525   3.167  13.506 -0.2095 -2.1767  0.2495
 4071SOL    HW223673   3.627   3.104  13.581  0.3187  0.5526  0.3004
 4072SOL     OW23674   1.052   4.517   6.715 -0.0041 -0.2560  0.3908
 4072SOL    HW123675   1.080   4.540   6.803 -2.0891  0.6395  0.8116
 4072SOL    HW223676   0.996   4.444   6.743  0.7498 -1.5319 -1.3795
 4073SOL     OW23677   3.494   1.418  15.376  0.8503 -0.2880  0.6624
 4073SOL    HW123678   3.546   1.352  15.330  0.4863  0.2434 -0.5261
 4073SOL    HW223679   3.524   1.498  15.333  0.1110  0.0817  0.8205
 4074SOL     OW23680   3.794   4.464  16.989  0.3316  0.4669 -0.8940
 4074SOL    HW123681   3.775   4.555  17.013  1.1494  0.6808 -1.0530
 4074SOL    HW223682   3.885   4.461  17.019 -0.1895  0.9338  0.7333
 4075SOL     OW23683   1.789   3.602   5.907  0.1319 -0.1336 -0.0235
 4075SOL    HW123684   1.751   3.542   5.971  1.5950 -0.2484  0.7302
 4075SOL    HW223685   1.878   3.567   5.902  1.3009  2.8171  0.2496
 4076SOL     OW23686   0.314   2.534  13.337 -0.0303 -0.0284 -0.0160
 4076SOL    HW123687   0.389   2.515  13.393 -0.1011 -0.6915 -0.1434
 4076SOL    HW223688   0.357   2.515  13.253 -1.5020  0.6696 -0.9126
 4077SOL     OW23689   3.190   1.534  16.239 -0.2702 -0.0920 -0.3905
 4077SOL    HW123690   3.183   1.629  16.235 -0.3339  0.0132  1.9131
 4077SOL    HW223691   3.250   1.526  16.313  0.7895 -0.5089 -1.2960
 4078SOL     OW23692   0.494   2.073  15.108 -0.1305  0.2018  0.0497
 4078SOL    HW123693   0.424   2.022  15.149  1.4866 -0.6477  1.7741
 4078SOL    HW223694   0.573   2.067  15.162  0.0284 -1.1252 -0.3191
 4079SOL     OW23695   0.892   1.437   6.105 -0.2958 -0.1152 -0.6195
 4079SOL    HW123696   0.841   1.517   6.111 -0.8564 -0.4582 -0.8364
 4079SOL    HW223697   0.982   1.467   6.113 -0.4222  0.5678 -1.6742
 4080SOL     OW23698   1.682   2.849  12.879 -0.1014  0.2512  0.4706
 4080SOL    HW123699   1.770   2.822  12.855  0.6861  3.7839 -0.5751
 4080SOL    HW223700   1.691   2.943  12.890 -0.5067 -0.1474  4.3337
 4081SOL     OW23701   4.435   1.327   6.328 -0.0553 -0.1678  0.0686
 4081SOL    HW123702   4.475   1.252   6.283 -2.1695 -0.9024 -0.5775
 4081SOL    HW223703   4.426   1.384   6.253 -0.2913  0.9581  0.9533
 4082SOL     OW23704   0.942   2.751   8.954 -0.6978 -0.1858  0.1342
 4082SOL    HW123705   0.893   2.676   8.988 -0.6543 -0.9440 -1.4889
 4082SOL    HW223706   0.889   2.780   8.880  0.0070 -1.7357 -0.9892
 4083SOL     OW23707   1.589   1.947   7.836  0.4471  1.0046  0.5683
 4083SOL    HW123708   1.585   1.945   7.740  2.8133 -0.3764  0.4834
 4083SOL    HW223709   1.641   2.025   7.852  0.8375  1.5700 -3.4645
 4084SOL     OW23710   4.246   0.402   1.484  0.4708 -0.2924 -0.1855
 4084SOL    HW123711   4.335   0.429   1.460  1.0123 -0.9080  1.1407
 4084SOL    HW223712   4.212   0.488   1.508  0.5482 -0.4814  0.5890
 4085SOL     OW23713   3.085   1.401   2.719  0.5154 -0.2916  0.0705
 4085SOL    HW123714   3.151   1.395   2.788  0.0088  2.8675  0.8264
 4085SOL    HW223715   3.027   1.328   2.742  0.3824 -0.4119 -0.6343
 4086SOL     OW23716   0.968   2.386   8.285 -0.0607 -0.2689 -0.5418
 4086SOL    HW123717   1.010   2.332   8.352  1.0082  0.5862 -0.5258
 4086SOL    HW223718   0.922   2.322   8.230  2.0103 -1.3370 -1.0203
 4087SOL     OW23719   0.970   3.708   2.915 -0.3120 -0.2105  0.6551
 4087SOL    HW123720   1.051   3.697   2.864  0.5532 -0.0321  1.9890
 4087SOL    HW223721   1.015   3.712   3.000 -1.7168 -1.9470  1.4709
 4088SOL     OW23722   4.711   3.432  10.315 -0.6917  0.3434  0.0648
 4088SOL    HW123723   0.008   3.358  10.371 -1.2937 -0.7643 -1.1812
 4088SOL    HW223724   0.065   3.483  10.341  1.1726 -1.4119 -2.0858
 4089SOL     OW23725   2.020   2.534   1.150  0.3531  0.5222  0.7916
 4089SOL    HW123726   2.076   2.611   1.136  1.6069 -0.7590 -1.2519
 4089SOL    HW223727   2.081   2.476   1.196  0.2474  0.1774  0.4936
 4090SOL     OW23728   2.200   1.301   5.301  0.2578 -0.0409 -0.0743
 4090SOL    HW123729   2.291   1.274   5.319  0.7448  1.6078 -0.0249
 4090SOL    HW223730   2.161   1.215   5.286 -0.1382  0.0974  0.1823
 4091SOL     OW23731   3.219   3.316   7.866  0.0618  0.6721 -0.2370
 4091SOL    HW123732   3.270   3.238   7.843  1.1548  1.7147 -1.3556
 4091SOL    HW223733   3.260   3.393   7.827 -1.9143  1.6406 -0.3644
 4092SOL     OW23734   1.410   0.152   6.624  0.4159 -0.0091 -0.0346
 4092SOL    HW123735   1.490   0.098   6.624 -0.0242 -0.6657  1.2717
 4092SOL    HW223736   1.340   0.086   6.626  0.5685 -0.2760 -3.7348
 4093SOL     OW23737   1.576   1.094   7.976 -0.0353 -0.0890 -0.1935
 4093SOL    HW123738   1.641   1.160   8.002  0.8461  0.0114 -2.7005
 4093SOL    HW223739   1.605   1.012   8.015  0.3653 -0.1851 -0.6949
 4094SOL     OW23740   4.439   1.977  14.337 -0.5752 -0.0146 -0.1536
 4094SOL    HW123741   4.445   2.058  14.285 -1.2777  0.2411  0.1691
 4094SOL    HW223742   4.347   1.956  14.324 -0.0526 -2.2375 -0.2812
 4095SOL     OW23743   3.731   1.113   6.125 -0.0161  0.2097  0.0785
 4095SOL    HW123744   3.682   1.049   6.177 -0.5974  0.6767  0.1198
 4095SOL    HW223745   3.671   1.181   6.093  0.6792  0.1807 -1.2804
 4096SOL     OW23746   2.438   0.142  13.385  0.2079  0.4593 -0.0487
 4096SOL    HW123747   2.495   0.072  13.356 -1.1432 -0.9972  0.7849
 4096SOL    HW223748   2.480   0.219  13.347  0.8787  0.5129  0.7894
 4097SOL     OW23749   4.710   0.583   5.930 -0.5276 -1.3624 -0.3161
 4097SOL    HW123750   0.011   0.675   5.933 -2.1149 -0.8997 -1.5997
 4097SOL    HW223751   4.687   0.576   6.023  0.6900  0.3907  0.1273
 4098SOL     OW23752   1.494   0.635   6.990  0.3206  0.0284  0.3260
 4098SOL    HW123753   1.447   0.551   6.990 -0.8354  0.6804 -1.0297
 4098SOL    HW223754   1.451   0.674   6.914 -1.2723 -0.4628  0.9798
 4099SOL     OW23755   0.124   4.136  14.481 -0.1420  0.1806 -0.3891
 4099SOL    HW123756   0.147   4.052  14.521  2.0775  0.5370 -0.9155
 4099SOL    HW223757   0.045   4.118  14.430 -1.5341  1.4035  1.3315
 4100SOL     OW23758   0.160   0.869   4.973  0.4233 -0.3601 -0.3237
 4100SOL    HW123759   0.129   0.830   4.891 -1.5599  0.5961 -0.0368
 4100SOL    HW223760   0.153   0.960   4.945 -0.3861  0.0634  1.2432
 4101SOL     OW23761   2.292   3.007   8.078 -0.4493  0.0077 -0.1681
 4101SOL    HW123762   2.204   2.974   8.091 -0.4678  0.8936  1.9617
 4101SOL    HW223763   2.314   2.948   8.005 -0.0488 -1.3185  1.0391
 4102SOL     OW23764   1.613   0.269  14.207  0.5462  0.4390  0.6738
 4102SOL    HW123765   1.700   0.285  14.169  0.1732 -0.4845 -0.5765
 4102SOL    HW223766   1.614   0.185  14.253 -0.5536 -0.2130 -0.5089
 4103SOL     OW23767   0.450   1.201   5.255 -0.5763 -0.3633 -0.3077
 4103SOL    HW123768   0.486   1.200   5.166  0.1073 -0.0722 -0.0291
 4103SOL    HW223769   0.415   1.112   5.265 -1.1191 -0.2130 -0.8462
 4104SOL     OW23770   3.948   0.555   5.914 -0.1912  0.8811  0.3983
 4104SOL    HW123771   3.986   0.475   5.877  0.7950  0.2292  2.7795
 4104SOL    HW223772   3.857   0.525   5.910  0.6206 -1.9356  2.2689
 4105SOL     OW23773   1.391   2.257   3.067  0.1705 -0.1505  0.1440
 4105SOL    HW123774   1.385   2.169   3.102  1.7913 -0.4407 -0.3101
 4105SOL    HW223775   1.366   2.315   3.138  1.5197  1.5139 -0.7253
 4106SOL     OW23776   2.784   3.896   4.415 -0.3912  0.0935 -0.6623
 4106SOL    HW123777   2.710   3.860   4.367 -0.4734  0.4531 -0.8013
 4106SOL    HW223778   2.806   3.821   4.471  0.7421 -0.8043 -2.3021
 4107SOL     OW23779   0.487   0.277   3.949 -0.0788 -0.0463 -0.1676
 4107SOL    HW123780   0.489   0.216   3.876  1.8329 -0.6828  0.4096
 4107SOL    HW223781   0.467   0.214   4.018  1.2793  0.2613  0.5191
 4108SOL     OW23782   2.682   3.247   0.965 -0.6865  0.2659  0.0105
 4108SOL    HW123783   2.708   3.298   0.889  1.5958 -1.2083 -0.2114
 4108SOL    HW223784   2.658   3.317   1.025  0.3174  1.3020 -0.7929
 4109SOL     OW23785   0.430   2.049   6.646  0.1377 -0.2011 -0.5148
 4109SOL    HW123786   0.383   1.972   6.677  1.1253 -0.1650  1.1167
 4109SOL    HW223787   0.413   2.050   6.552 -0.2878  2.2806 -0.4337
 4110SOL     OW23788   3.352   0.316   7.065  0.3991 -0.7668 -0.3290
 4110SOL    HW123789   3.378   0.389   7.010  0.3309 -0.4398  0.0724
 4110SOL    HW223790   3.412   0.322   7.140 -2.9885  1.2429  2.2083
 4111SOL     OW23791   2.250   3.878   8.596 -0.1744 -0.8567  0.3293
 4111SOL    HW123792   2.185   3.913   8.656  0.2670 -0.8442  0.8032
 4111SOL    HW223793   2.223   3.907   8.509 -0.4853 -1.4110  0.2479
 4112SOL     OW23794   1.295   2.489   1.455 -0.1224 -0.5793  0.5892
 4112SOL    HW123795   1.200   2.502   1.449 -0.4585 -3.1780  0.3391
 4112SOL    HW223796   1.323   2.530   1.373  2.0780 -2.3812  0.4303
 4113SOL     OW23797   4.009   2.132   5.883 -0.0399 -0.0004  0.4035
 4113SOL    HW123798   3.994   2.212   5.934  0.4746  0.3707 -0.0217
 4113SOL    HW223799   4.049   2.076   5.950  2.9274  2.6130  0.8237
 4114SOL     OW23800   4.073   3.938   3.684  0.4868  0.1669  0.0927
 4114SOL    HW123801   3.999   3.910   3.739 -0.2522  0.1760 -0.8979
 4114SOL    HW223802   4.073   4.032   3.705  0.4604 -0.1758  1.6156
 4115SOL     OW23803   2.676   0.660   5.309  0.2888 -0.2727  0.3953
 4115SOL    HW123804   2.612   0.631   5.373 -1.9206  0.8628 -1.3230
 4115SOL    HW223805   2.646   0.643   5.220 -3.2045 -1.2843  1.7924
 4116SOL     OW23806   4.329   3.664   3.988 -0.0240  0.4049 -0.2747
 4116SOL    HW123807   4.371   3.750   3.980 -0.6070  0.8092  1.0980
 4116SOL    HW223808   4.364   3.604   3.922 -0.7118 -3.1002  2.5330
 4117SOL     OW23809   4.208   2.279   7.928 -0.2142  0.1434 -0.4875
 4117SOL    HW123810   4.275   2.331   7.973  1.0639 -0.5963 -1.5488
 4117SOL    HW223811   4.150   2.265   8.003  1.6849  0.6317  1.0980
 4118SOL     OW23812   1.818   2.499   2.038 -0.1056  0.4611 -0.0251
 4118SOL    HW123813   1.765   2.544   2.104 -0.6988  0.9926 -0.8599
 4118SOL    HW223814   1.756   2.429   2.019 -1.0522  1.3000 -0.0622
 4119SOL     OW23815   2.910   3.688   4.571 -0.1872 -0.0117  0.0623
 4119SOL    HW123816   2.887   3.598   4.550 -0.3438  0.2160 -0.7456
 4119SOL    HW223817   3.003   3.678   4.590  0.1420  1.6322 -0.7213
 4120SOL     OW23818   0.893   2.466   1.458  0.3404 -0.2145  0.6530
 4120SOL    HW123819   0.871   2.551   1.494  0.5915 -1.0103  2.6888
 4120SOL    HW223820   0.941   2.502   1.383  0.1438  1.0831  1.1578
 4121SOL     OW23821   4.220   0.136  14.859 -0.5207 -0.0660 -0.5799
 4121SOL    HW123822   4.245   0.047  14.886  1.0383  0.1864 -1.1844
 4121SOL    HW223823   4.282   0.190  14.908  1.5255  0.1593 -3.3867
 4122SOL     OW23824   4.089   2.905   2.032  0.1562 -0.0287  0.3279
 4122SOL    HW123825   4.166   2.930   1.982 -1.2983 -1.1727 -2.4889
 4122SOL    HW223826   4.027   2.969   1.997  3.0031  0.2140 -4.1948
 4123SOL     OW23827   2.167   1.148   3.742 -0.0637 -0.3046 -0.1821
 4123SOL    HW123828   2.093   1.130   3.801  0.5333  1.1260  0.9780
 4123SOL    HW223829   2.201   1.229   3.778  0.1073  0.4306 -2.0253
 4124SOL     OW23830   4.052   2.402   5.114 -0.1299 -0.1034  0.5136
 4124SOL    HW123831   4.031   2.346   5.189 -1.5737  1.5551  1.3649
 4124SOL    HW223832   4.081   2.485   5.152 -2.1504  0.5154  0.7216
 4125SOL     OW23833   2.958   1.621   4.011 -0.9319  0.1959 -0.2399
 4125SOL    HW123834   2.999   1.696   3.970  0.3140 -1.9071 -2.8122
 4125SOL    HW223835   3.022   1.597   4.078  1.1616  1.0906 -1.9397
 4126SOL     OW23836   1.384   0.015   2.662 -0.0104 -0.1071 -0.0213
 4126SOL    HW123837   1.341   0.003   2.747  0.6928  1.2749  0.5338
 4126SOL    HW223838   1.365   0.108   2.648  3.1077  0.5832  0.2961
 4127SOL     OW23839   1.711   4.264   8.397 -0.1790  0.3372 -0.2063
 4127SOL    HW123840   1.755   4.204   8.337 -0.5172 -0.2676  0.1519
 4127SOL    HW223841   1.647   4.293   8.332  1.2775  0.3278 -1.6483
 4128SOL     OW23842   1.455   1.666   9.311  0.6970 -0.6679  0.5728
 4128SOL    HW123843   1.408   1.661   9.394 -0.7264 -1.6198 -0.3011
 4128SOL    HW223844   1.444   1.759   9.289 -0.2633 -0.1193  3.3837
 4129SOL     OW23845   2.978   1.803   7.853  0.1706  0.1896 -0.0616
 4129SOL    HW123846   2.948   1.809   7.943  0.2585 -0.1262 -0.0096
 4129SOL    HW223847   2.980   1.896   7.831  0.6672 -0.7558 -4.1071
 4130SOL     OW23848   0.204   0.093   5.001  0.0935  0.1470 -0.4939
 4130SOL    HW123849   0.173   0.010   4.964  0.4338  1.3427 -3.4768
 4130SOL    HW223850   0.146   0.153   4.954 -1.4980 -1.0836 -0.1144
 4131SOL     OW23851   1.317   2.743   2.273  0.5542  0.3128 -0.2892
 4131SOL    HW123852   1.221   2.747   2.272  0.5953  1.6096  0.7075
 4131SOL    HW223853   1.342   2.705   2.189  0.1062 -0.0550 -0.2581
 4132SOL     OW23854   3.175   4.654   2.417 -0.3220  0.3245 -0.4289
 4132SOL    HW123855   3.266   4.624   2.409 -0.2011  0.4333  0.6029
 4132SOL    HW223856   3.187   0.025   2.409  0.2031  0.1142 -2.1656
 4133SOL     OW23857   0.923   1.220   7.654  1.0450 -0.3941 -0.4416
 4133SOL    HW123858   0.936   1.313   7.672 -1.9405 -0.0970  0.2267
 4133SOL    HW223859   1.001   1.183   7.695  0.5371  1.7628  2.4081
 4134SOL     OW23860   4.430   2.772   5.421  0.0382 -0.4849  0.2764
 4134SOL    HW123861   4.455   2.757   5.513 -1.4490 -1.0146  0.5854
 4134SOL    HW223862   4.429   2.685   5.382  0.6744 -1.9505  3.4883
 4135SOL     OW23863   0.993   2.027   5.300  0.7898  0.0134  0.3644
 4135SOL    HW123864   0.982   2.076   5.381  1.3545 -1.3576  1.2691
 4135SOL    HW223865   0.913   2.051   5.252 -0.9625 -1.7908  2.3994
 4136SOL     OW23866   0.404   4.244   6.245 -0.1419  0.0176  0.2253
 4136SOL    HW123867   0.352   4.247   6.325 -0.3367  1.0019  0.0638
 4136SOL    HW223868   0.399   4.150   6.228  0.4796  0.2018 -1.0571
 4137SOL     OW23869   3.500   4.529   5.683  0.0189 -0.4956 -0.0743
 4137SOL    HW123870   3.493   4.516   5.777  0.3048  1.3167  0.1937
 4137SOL    HW223871   3.569   4.595   5.681 -1.7092  1.3224 -0.2231
 4138SOL     OW23872   4.069   0.357   2.800  0.4825  0.3935  0.4278
 4138SOL    HW123873   4.037   0.445   2.784  0.8826  0.8811  2.3522
 4138SOL    HW223874   4.111   0.324   2.720 -1.9526  0.0358 -0.7046
 4139SOL     OW23875   2.600   1.455  17.070 -0.0839  0.3242 -0.0581
 4139SOL    HW123876   2.642   1.511  17.005  0.3273 -0.8750 -0.8289
 4139SOL    HW223877   2.675   1.407  17.107  0.9586  1.0555 -1.2434
 4140SOL     OW23878   3.166   0.658   3.694 -1.0082  0.3687  0.2258
 4140SOL    HW123879   3.217   0.650   3.774 -1.5281 -1.1203  0.4263
 4140SOL    HW223880   3.083   0.689   3.732 -1.1433  1.2269 -0.7764
 4141SOL     OW23881   2.615   3.253   8.510  0.0585 -0.1012 -0.1548
 4141SOL    HW123882   2.573   3.207   8.437  1.0627  1.2262 -1.5626
 4141SOL    HW223883   2.548   3.250   8.578 -0.5307  0.7408 -0.6829
 4142SOL     OW23884   2.373   1.727   0.852 -0.3549 -0.0903 -0.1338
 4142SOL    HW123885   2.314   1.798   0.879  2.9772  3.1723 -1.2825
 4142SOL    HW223886   2.346   1.654   0.907 -0.2080 -1.4333 -1.8446
 4143SOL     OW23887   3.100   2.730   9.909  0.3593 -0.1992 -0.6180
 4143SOL    HW123888   3.080   2.674   9.984 -4.2692  1.4032 -0.6368
 4143SOL    HW223889   3.133   2.662   9.851 -0.9882 -2.0427  0.7549
 4144SOL     OW23890   2.298   1.140   5.849 -0.6406 -0.4958  0.4825
 4144SOL    HW123891   2.256   1.096   5.923 -1.1345  0.3709  0.7125
 4144SOL    HW223892   2.288   1.073   5.781 -0.6838  0.3514 -0.3460
 4145SOL     OW23893   3.206   2.046   6.869  0.3055  0.0337  0.1844
 4145SOL    HW123894   3.222   1.991   6.946 -2.1437 -1.9164 -0.7111
 4145SOL    HW223895   3.174   2.128   6.906  1.2047 -0.2911  1.7219
 4146SOL     OW23896   3.835   3.395   6.463 -0.2878  0.3476 -0.1144
 4146SOL    HW123897   3.917   3.386   6.512 -0.5106  0.3725  0.2651
 4146SOL    HW223898   3.771   3.349   6.518 -0.5413  0.1420 -0.5793
 4147SOL     OW23899   4.491   2.080   2.020  0.2597  0.1597  0.7916
 4147SOL    HW123900   4.568   2.029   1.995 -0.1272 -1.0655  2.0665
 4147SOL    HW223901   4.500   2.155   1.962 -0.6801  0.2960  0.8145
 4148SOL     OW23902   4.274   1.300   2.916  0.0033  0.1810 -0.0869
 4148SOL    HW123903   4.328   1.230   2.954  1.4864  1.8452  0.8717
 4148SOL    HW223904   4.336   1.372   2.918 -0.8078  0.8623  0.4068
 4149SOL     OW23905   3.439   3.889   8.561 -0.1581 -0.0785 -0.3122
 4149SOL    HW123906   3.508   3.846   8.612  0.7395  1.1625 -0.4891
 4149SOL    HW223907   3.363   3.904   8.617  0.3251 -0.7876  0.5233
 4150SOL     OW23908   0.069   2.424  15.371 -0.0142 -0.3136 -0.1132
 4150SOL    HW123909   0.053   2.478  15.448 -1.6556 -3.4201  1.7078
 4150SOL    HW223910   0.136   2.462  15.313  0.6017 -0.4512  0.5130
 4151SOL     OW23911   2.696   1.032   8.573  0.0637  0.1493  0.3144
 4151SOL    HW123912   2.613   1.065   8.606 -0.1991  0.0475 -0.2374
 4151SOL    HW223913   2.751   1.103   8.607  0.2342  0.0918  0.1642
 4152SOL     OW23914   2.625   0.125  12.845  0.0528  0.6348 -0.1136
 4152SOL    HW123915   2.713   0.141  12.812  0.0383  0.7074 -0.1172
 4152SOL    HW223916   2.611   0.182  12.920 -2.4370  0.2808 -0.2901
 4153SOL     OW23917   1.560   0.307  10.996 -0.3921  1.0069  0.6873
 4153SOL    HW123918   1.583   0.391  11.035  1.2021  0.6668  0.4962
 4153SOL    HW223919   1.640   0.260  11.017  0.0717  1.1017 -0.8435
 4154SOL     OW23920   0.966   0.762   5.345  0.1903 -0.1705  0.2823
 4154SOL    HW123921   1.048   0.712   5.341  1.1378  1.3454  0.6897
 4154SOL    HW223922   0.897   0.703   5.316 -1.3915  1.5594  0.5106
 4155SOL     OW23923   0.388   2.582   3.423 -0.1976  0.4736 -0.1131
 4155SOL    HW123924   0.470   2.628   3.402  0.0528  0.5459  0.9866
 4155SOL    HW223925   0.323   2.652   3.422 -3.1441 -2.3218 -0.3773
 4156SOL     OW23926   4.294   0.705  12.333 -0.3982 -0.0276  0.0867
 4156SOL    HW123927   4.333   0.764  12.398 -0.2398 -0.6129  0.5191
 4156SOL    HW223928   4.202   0.725  12.350 -0.5061 -1.6262  1.3978
 4157SOL     OW23929   3.634   4.138   3.394 -0.2446 -0.1088 -0.4501
 4157SOL    HW123930   3.563   4.138   3.459 -0.0950  1.1572 -0.2923
 4157SOL    HW223931   3.651   4.232   3.394  1.9229 -0.4813  2.0151
 4158SOL     OW23932   0.078   2.164   3.962 -0.1124 -0.0670  0.4312
 4158SOL    HW123933   0.054   2.140   4.052 -1.1522  0.9824  0.4231
 4158SOL    HW223934   0.012   2.112   3.916 -0.7147  0.3315  0.8399
 4159SOL     OW23935   1.107   3.172   1.293  0.3758  0.4876  0.2138
 4159SOL    HW123936   1.017   3.202   1.301  0.1838  0.5618 -2.1964
 4159SOL    HW223937   1.109   3.161   1.198  0.3601 -1.9789  0.4928
 4160SOL     OW23938   0.295   1.973   9.866 -0.4993 -0.3705  0.1204
 4160SOL    HW123939   0.227   1.951   9.930 -2.7604  1.5824 -1.5739
 4160SOL    HW223940   0.339   1.889   9.858 -0.6138 -0.3785 -0.4408
 4161SOL     OW23941   4.045   1.248   8.980 -0.0146  0.4171  0.1590
 4161SOL    HW123942   4.001   1.255   9.065 -2.0290  1.9809 -1.0339
 4161SOL    HW223943   4.044   1.152   8.972  1.7642  0.4020  0.1862
 4162SOL     OW23944   2.254   1.164  16.689  0.4385 -0.5959 -0.5397
 4162SOL    HW123945   2.327   1.202  16.740  1.0646 -3.0459  0.4027
 4162SOL    HW223946   2.249   1.085  16.743 -0.3901 -0.7341 -0.8223
 4163SOL     OW23947   1.907   4.683  14.347  0.5056 -0.0440 -0.5287
 4163SOL    HW123948   1.988   4.721  14.383  0.5650 -0.8035  0.1265
 4163SOL    HW223949   1.926   4.591  14.329 -0.9562  0.2378 -3.4972
 4164SOL     OW23950   4.324   0.611   6.923  0.6533  0.2186 -0.4751
 4164SOL    HW123951   4.282   0.696   6.911  1.0051  0.8723  2.8671
 4164SOL    HW223952   4.371   0.599   6.841 -1.2353  0.9770 -1.6851
 4165SOL     OW23953   1.469   2.795   5.343 -0.7275 -0.4853 -0.4623
 4165SOL    HW123954   1.482   2.888   5.356  2.1483 -1.1686  1.4552
 4165SOL    HW223955   1.384   2.801   5.300 -1.3640 -1.9385  0.5551
 4166SOL     OW23956   2.410   4.536   1.883 -0.0861 -0.5521  0.2532
 4166SOL    HW123957   2.398   4.631   1.872 -0.9904 -0.6869  0.0987
 4166SOL    HW223958   2.411   4.506   1.793  2.0743  0.6059 -0.0947
 4167SOL     OW23959   3.376   1.982   0.735  0.3856 -0.2220  0.4254
 4167SOL    HW123960   3.350   2.065   0.773 -0.0907 -0.6029  0.9319
 4167SOL    HW223961   3.356   1.993   0.642 -0.7681  1.4858  0.8719
 4168SOL     OW23962   2.931   1.139  14.929  0.4346 -0.3621 -0.0375
 4168SOL    HW123963   2.863   1.133  14.862 -2.3172  1.1348  2.6311
 4168SOL    HW223964   2.882   1.202  14.982  1.9680  1.6975 -1.0170
 4169SOL     OW23965   3.181   3.267   8.133 -0.0463  0.2602  0.2171
 4169SOL    HW123966   3.125   3.324   8.186  1.5334  0.9911  1.1005
 4169SOL    HW223967   3.212   3.316   8.057  1.1133  0.5746  0.8989
 4170SOL     OW23968   3.783   1.550   7.221  0.4221 -0.3060  0.0564
 4170SOL    HW123969   3.879   1.559   7.227  0.3634  1.4542 -1.6635
 4170SOL    HW223970   3.761   1.574   7.311  1.2785 -0.4573  0.3083
 4171SOL     OW23971   1.584   0.438   7.200 -0.1950 -0.1765  0.1735
 4171SOL    HW123972   1.674   0.469   7.214  0.4338 -2.0449  0.3421
 4171SOL    HW223973   1.541   0.520   7.179  1.1163  0.3231 -0.5804
 4172SOL     OW23974   3.436   4.612   9.612 -0.2486  0.1297  0.0511
 4172SOL    HW123975   3.342   4.595   9.607 -0.1143 -0.2871 -1.1140
 4172SOL    HW223976   3.461   4.571   9.529  0.1105 -1.1634  0.8075
 4173SOL     OW23977   4.606   3.044   7.225 -0.0886  0.2104  0.2326
 4173SOL    HW123978   4.639   3.101   7.155  1.1552 -0.7114  0.0636
 4173SOL    HW223979   4.651   3.088   7.297 -1.0215  0.5882  0.5831
 4174SOL     OW23980   2.944   0.111   4.215 -0.4503  0.3628 -0.2127
 4174SOL    HW123981   3.002   0.150   4.150 -1.1800  1.2154 -0.3462
 4174SOL    HW223982   3.007   0.060   4.267  0.7164  0.7389 -1.2733
 4175SOL     OW23983   2.668   4.308   9.898  0.2275 -0.3401  0.1499
 4175SOL    HW123984   2.584   4.349   9.875 -0.5404 -1.2788  1.2627
 4175SOL    HW223985   2.652   4.214   9.907  1.1581 -0.6033 -1.0249
 4176SOL     OW23986   2.258   0.183   9.110  0.5872 -0.0686  0.0443
 4176SOL    HW123987   2.177   0.154   9.069  0.1310  0.3231  0.6675
 4176SOL    HW223988   2.230   0.174   9.201 -0.0900 -0.8348 -0.2406
 4177SOL     OW23989   1.685   0.351  12.538 -0.4011 -0.4070  0.2001
 4177SOL    HW123990   1.717   0.381  12.623 -2.8818  2.3375  0.1522
 4177SOL    HW223991   1.590   0.356  12.550 -0.3386  0.6308  0.2807
 4178SOL     OW23992   1.344   4.554   6.216  0.1651  0.1519 -0.0894
 4178SOL    HW123993   1.367   4.483   6.156 -1.3968 -1.6911  1.4397
 4178SOL    HW223994   1.251   4.540   6.236  0.3817  0.3160  1.0271
 4179SOL     OW23995   2.141   3.643   2.932  0.1900  0.2310 -0.2286
 4179SOL    HW123996   2.051   3.668   2.953 -0.6807 -0.0193 -3.7888
 4179SOL    HW223997   2.160   3.603   3.017 -2.0264 -0.5742 -0.1231
 4180SOL     OW23998   4.518   2.924  12.569  0.6062  0.4582  0.2380
 4180SOL    HW123999   4.529   2.955  12.659  1.7357 -0.9758  0.5748
 4180SOL    HW224000   4.606   2.902  12.538  0.3620  1.1424 -0.9693
 4181SOL     OW24001   2.759   4.073   8.907 -0.5562 -0.5510 -0.4098
 4181SOL    HW124002   2.685   4.122   8.943 -2.5263 -4.1364  0.4060
 4181SOL    HW224003   2.751   3.990   8.955 -0.5932 -0.0084  0.5316
 4182SOL     OW24004   3.633   1.386  11.254  0.0231 -0.7069  0.2724
 4182SOL    HW124005   3.681   1.334  11.318  2.7021  1.7916  0.2978
 4182SOL    HW224006   3.630   1.474  11.292 -2.2704  0.0912 -1.7544
 4183SOL     OW24007   3.377   1.400   9.316  0.3783 -0.1173  0.0567
 4183SOL    HW124008   3.314   1.433   9.379  0.7476  2.4078 -0.9175
 4183SOL    HW224009   3.407   1.477   9.268 -0.3033  0.7649  1.0473
 4184SOL     OW24010   2.548   2.962   1.622 -0.6688  0.3279 -0.1825
 4184SOL    HW124011   2.456   2.936   1.624 -0.4664 -0.4087 -0.3988
 4184SOL    HW224012   2.558   2.995   1.711 -0.8068  0.6995 -0.3035
 4185SOL     OW24013   0.414   1.615   2.895  0.0881 -0.6200  0.2260
 4185SOL    HW124014   0.462   1.693   2.924 -0.2639 -0.9056  1.5925
 4185SOL    HW224015   0.419   1.630   2.801 -0.6471 -0.2729  0.2393
 4186SOL     OW24016   0.168   2.007   1.734 -0.2484  0.5278 -0.0229
 4186SOL    HW124017   0.264   2.014   1.740 -0.1000 -3.1046  2.0060
 4186SOL    HW224018   0.149   2.080   1.675  0.5928  0.0682 -0.8686
 4187SOL     OW24019   2.173   3.784  10.105 -0.6791  0.3449  0.5464
 4187SOL    HW124020   2.261   3.790  10.067 -1.0669  1.4042 -0.1854
 4187SOL    HW224021   2.132   3.849  10.049 -0.1286  0.2807  0.0629
 4188SOL     OW24022   4.143   2.188   8.664 -0.4434  0.1429  0.4715
 4188SOL    HW124023   4.050   2.203   8.676 -0.3730  0.9578 -0.0126
 4188SOL    HW224024   4.158   2.124   8.734  0.0670 -1.1788 -0.8448
 4189SOL     OW24025   4.341   3.282  16.744  0.3773  0.3132 -0.3443
 4189SOL    HW124026   4.432   3.271  16.719  0.5129  1.3391 -0.2991
 4189SOL    HW224027   4.350   3.287  16.840  2.9867 -1.2618 -0.4993
 4190SOL     OW24028   2.534   0.628   5.549  0.1665 -0.2117  0.0340
 4190SOL    HW124029   2.521   0.721   5.531  0.9078  0.0997  1.1635
 4190SOL    HW224030   2.603   0.630   5.615  0.1216 -1.7705  0.1159
 4191SOL     OW24031   4.425   2.686   4.741  0.1318 -0.3319  0.7407
 4191SOL    HW124032   4.368   2.696   4.665  2.2425  1.4658 -0.6297
 4191SOL    HW224033   4.507   2.731   4.718 -0.5358  0.4867 -0.0353
 4192SOL     OW24034   4.558   2.815   7.978 -0.5941 -0.8397  0.7598
 4192SOL    HW124035   4.557   2.904   7.943 -0.1220 -0.0426  2.7508
 4192SOL    HW224036   4.556   2.837   8.071  0.2758  1.8085  0.1564
 4193SOL     OW24037   2.850   0.010  10.718 -0.1377  0.2190 -0.7630
 4193SOL    HW124038   2.788   0.053  10.777  1.2519 -0.3299  1.1119
 4193SOL    HW224039   2.799   0.004  10.637  0.2163 -1.0534 -0.8909
 4194SOL     OW24040   0.008   1.451  17.079 -0.0133 -0.2673  0.2128
 4194SOL    HW124041   0.019   1.439  17.173 -0.4269 -2.0443  0.0245
 4194SOL    HW224042   4.639   1.457  17.058 -0.1429 -0.2524  0.7943
 4195SOL     OW24043   2.151   0.581   1.196 -0.1251  0.5021  0.2842
 4195SOL    HW124044   2.066   0.619   1.174 -0.0547  1.2473  1.3132
 4195SOL    HW224045   2.144   0.559   1.289 -0.7836 -1.0584 -0.1373
 4196SOL     OW24046   4.075   2.174   5.604 -0.4741  0.0231 -0.4485
 4196SOL    HW124047   4.039   2.188   5.692 -1.6279  2.1801 -1.2714
 4196SOL    HW224048   4.001   2.126   5.565  0.3484  0.7015 -2.8006
 4197SOL     OW24049   3.504   4.223  15.188  0.2741 -0.1591 -0.6720
 4197SOL    HW124050   3.535   4.133  15.173  0.3138  0.0641 -1.9329
 4197SOL    HW224051   3.571   4.254  15.249  0.2434 -2.6006  0.6196
 4198SOL     OW24052   0.619   1.418   4.182  0.0612 -0.0935  0.4341
 4198SOL    HW124053   0.615   1.362   4.259  1.2211 -0.5985  0.1174
 4198SOL    HW224054   0.670   1.493   4.214  2.0541 -1.1317 -0.3317
 4199SOL     OW24055   0.101   3.426   8.823  0.1484  0.3941  0.4054
 4199SOL    HW124056   0.151   3.361   8.775 -0.3018 -0.0696  0.5634
 4199SOL    HW224057   0.036   3.451   8.758  0.7179 -0.2893 -0.4264
 4200SOL     OW24058   0.175   2.019   9.124 -0.3606 -0.2292  0.0818
 4200SOL    HW124059   0.196   2.016   9.031  2.8339  1.1148  0.7359
 4200SOL    HW224060   0.115   1.947   9.144  0.6189 -0.8230  0.9299
 4201SOL     OW24061   4.117   0.626   6.511 -0.4413 -0.3200 -0.2839
 4201SOL    HW124062   4.195   0.573   6.528 -2.7236 -3.1917  1.0200
 4201SOL    HW224063   4.136   0.645   6.419 -1.8981  1.7066 -0.1760
 4202SOL     OW24064   4.575   2.624   7.742 -0.7537  0.2112  0.0925
 4202SOL    HW124065   4.534   2.674   7.672  1.2297  1.5887 -0.1082
 4202SOL    HW224066   4.521   2.647   7.818  3.1548  0.0857  2.9800
 4203SOL     OW24067   0.755   1.718   6.743  0.0511 -0.2091 -0.2657
 4203SOL    HW124068   0.741   1.786   6.809  1.4326  0.0461 -0.2358
 4203SOL    HW224069   0.716   1.645   6.792  2.3209 -0.6848  0.8401
 4204SOL     OW24070   4.098   2.664   6.045  0.1412  0.0650 -0.0398
 4204SOL    HW124071   4.132   2.716   6.117 -2.1476 -1.0513  1.8372
 4204SOL    HW224072   4.005   2.683   6.056  0.2615  0.1763  0.7727
 4205SOL     OW24073   3.206   4.298   8.306  0.7000 -0.3971  0.4725
 4205SOL    HW124074   3.301   4.288   8.294  0.6518 -0.2390 -0.0473
 4205SOL    HW224075   3.198   4.384   8.347 -0.2016 -0.7275  0.9889
 4206SOL     OW24076   2.088   3.699  13.798 -0.1632  0.5294 -0.2457
 4206SOL    HW124077   2.092   3.618  13.746 -0.6238 -1.0230  2.1618
 4206SOL    HW224078   2.178   3.730  13.787  0.3751 -0.2903  1.8831
 4207SOL     OW24079   1.763   4.102   5.248  0.0328  0.1375  0.0465
 4207SOL    HW124080   1.674   4.131   5.269  1.2907  2.4805  2.2428
 4207SOL    HW224081   1.779   4.065   5.336  1.4638 -1.3918 -0.8489
 4208SOL     OW24082   0.286   3.442   2.893 -0.4980  0.3564 -0.1086
 4208SOL    HW124083   0.269   3.400   2.808 -0.8483 -0.2058  0.2381
 4208SOL    HW224084   0.200   3.422   2.931 -0.6902  0.2310 -0.6023
 4209SOL     OW24085   1.257   2.373   7.900  0.2660  0.1422 -0.3974
 4209SOL    HW124086   1.305   2.455   7.890  0.7899 -0.4671 -2.8377
 4209SOL    HW224087   1.275   2.331   7.816  0.5195  1.4899 -1.0107
 4210SOL     OW24088   3.801   0.365  11.902 -0.0992 -0.7420  0.3385
 4210SOL    HW124089   3.825   0.273  11.917 -0.8486 -1.7615 -4.9933
 4210SOL    HW224090   3.872   0.394  11.845  1.4897 -0.3385  2.5170
 4211SOL     OW24091   0.656   1.584   0.301 -0.2770  0.0739 -0.1332
 4211SOL    HW124092   0.615   1.598   0.386  2.5359  2.0509  0.9014
 4211SOL    HW224093   0.599   1.637   0.245 -2.0625 -0.4788  1.1683
 4212SOL     OW24094   0.047   0.050   5.339  0.3316 -0.2050 -0.2778
 4212SOL    HW124095   0.007   0.131   5.307  0.3518 -0.2804 -0.4941
 4212SOL    HW224096   0.129   0.047   5.290  0.4583 -1.7196  0.0522
 4213SOL     OW24097   0.738   3.204   3.128 -0.4486 -0.1070 -0.2267
 4213SOL    HW124098   0.707   3.166   3.046  0.1948 -2.8793  0.8052
 4213SOL    HW224099   0.657   3.191   3.177  1.4495 -0.4910  2.7601
 4214SOL     OW24100   3.293   0.161   7.352  0.9484 -0.1596 -0.3428
 4214SOL    HW124101   3.290   0.256   7.353  2.4966 -0.0813 -2.2820
 4214SOL    HW224102   3.305   0.141   7.445  0.3779 -1.0874 -0.4679
 4215SOL     OW24103   3.296   4.339  11.549  0.2042  0.0373  0.2269
 4215SOL    HW124104   3.258   4.408  11.496  0.5039 -0.3171 -0.4472
 4215SOL    HW224105   3.386   4.366  11.567  0.5380 -0.6632 -0.3805
 4216SOL     OW24106   3.607   0.562   8.742  0.1660  0.2781 -0.5428
 4216SOL    HW124107   3.665   0.525   8.676 -1.3334 -2.4930 -0.3061
 4216SOL    HW224108   3.633   0.654   8.736  3.6013 -0.6679 -0.0372
 4217SOL     OW24109   4.653   4.707   2.970 -0.3476 -0.2101 -0.1232
 4217SOL    HW124110   4.631   0.023   2.885  3.1227  1.7872 -0.0948
 4217SOL    HW224111   4.592   0.038   3.020 -2.5471 -1.4864 -1.4129
 4218SOL     OW24112   4.097   2.249   0.380  0.2120 -0.5701  0.1125
 4218SOL    HW124113   4.093   2.197   0.460 -0.5044 -2.0464 -0.9074
 4218SOL    HW224114   4.054   2.330   0.410  2.1639 -0.0289  1.4491
 4219SOL     OW24115   4.249   1.801  15.898 -0.1691  0.6914 -0.4393
 4219SOL    HW124116   4.247   1.754  15.814 -0.3545 -2.4654  1.3397
 4219SOL    HW224117   4.342   1.815  15.919 -0.6072  0.4858  1.5540
 4220SOL     OW24118   4.008   0.245   4.979 -0.4085 -0.3878 -0.2200
 4220SOL    HW124119   3.969   0.183   5.040 -1.6671 -0.8305 -1.4650
 4220SOL    HW224120   3.941   0.284   4.923 -1.4174 -2.3774 -0.3944
 4221SOL     OW24121   0.304   1.272   2.631  0.1629  0.1796 -0.3333
 4221SOL    HW124122   0.387   1.288   2.676 -0.7112  0.7094  1.0981
 4221SOL    HW224123   0.305   1.179   2.610 -0.7858 -0.1540  1.1178
 4222SOL     OW24124   2.967   4.520  16.752  0.1656  0.5690 -0.4285
 4222SOL    HW124125   2.998   4.545  16.665  0.4229  0.9849 -0.2182
 4222SOL    HW224126   2.970   4.424  16.752 -1.6827  0.5106 -0.8087
 4223SOL     OW24127   4.310   1.259   9.016  0.1092  0.5659  0.7168
 4223SOL    HW124128   4.217   1.251   8.993  0.6179 -0.7461 -0.8915
 4223SOL    HW224129   4.322   1.219   9.102  1.0079 -0.9085 -0.0889
 4224SOL     OW24130   0.100   0.211   0.838  0.0420  0.0481 -0.3166
 4224SOL    HW124131   0.098   0.136   0.898 -0.5733 -0.5077 -1.0365
 4224SOL    HW224132   0.053   0.176   0.763  1.1940 -2.3641  0.0790
 4225SOL     OW24133   3.241   4.189  15.539 -0.1906  0.1186 -0.1308
 4225SOL    HW124134   3.203   4.102  15.550  0.5020 -0.3445 -1.3893
 4225SOL    HW224135   3.331   4.158  15.525  0.0904  0.8132  0.1178
 4226SOL     OW24136   4.703   2.184   5.629  0.1525  0.1616 -0.4198
 4226SOL    HW124137   0.062   2.218   5.662  0.5161 -0.2284 -0.9478
 4226SOL    HW224138   4.658   2.267   5.611  2.4581  1.9553  2.0464
 4227SOL     OW24139   2.925   0.934   3.427 -0.4942  0.1221  0.5330
 4227SOL    HW124140   2.973   0.974   3.355  0.6014 -1.9732  0.0791
 4227SOL    HW224141   2.839   0.925   3.385 -0.2500 -0.0044  0.0564
 4228SOL     OW24142   3.780   4.001  10.534 -0.0639 -0.5909  0.4360
 4228SOL    HW124143   3.727   4.074  10.566  0.7624  0.6681 -1.0966
 4228SOL    HW224144   3.764   3.930  10.597  2.1157  0.3931  2.0952
 4229SOL     OW24145   4.489   4.498   7.027  0.3467 -0.2283 -0.2661
 4229SOL    HW124146   4.578   4.462   7.024  0.3312 -0.4500  1.8410
 4229SOL    HW224147   4.471   4.491   7.121  2.2589  1.1825  0.2125
 4230SOL     OW24148   2.690   4.271   2.962  0.8709 -0.0840  0.5009
 4230SOL    HW124149   2.621   4.237   2.905  1.3483 -0.9862  0.4524
 4230SOL    HW224150   2.726   4.338   2.904  0.5881 -1.7563 -1.6351
 4231SOL     OW24151   0.770   4.326  11.591 -0.4422 -0.5867  0.2589
 4231SOL    HW124152   0.805   4.400  11.542 -2.5871  0.9857  1.1045
 4231SOL    HW224153   0.814   4.322  11.675 -0.6919 -2.4668  0.3013
 4232SOL     OW24154   1.133   2.266  16.896 -0.0066  0.2972 -0.2726
 4232SOL    HW124155   1.118   2.178  16.929 -3.7374  0.7089 -0.8330
 4232SOL    HW224156   1.216   2.268  16.848  0.5915  0.9250  0.7743
 4233SOL     OW24157   2.608   2.869   6.829 -0.3110 -0.1067  0.2784
 4233SOL    HW124158   2.533   2.924   6.807 -1.1689 -0.9344  1.1763
 4233SOL    HW224159   2.581   2.862   6.920  0.7540 -1.8874  0.4530
 4234SOL     OW24160   0.064   0.404   2.759  0.0255 -0.3472 -0.2299
 4234SOL    HW124161   0.095   0.337   2.820  1.6201  0.1680 -0.4658
 4234SOL    HW224162   0.141   0.455   2.734 -0.2800  0.6567  0.8376
 4235SOL     OW24163   0.016   3.075   7.804  0.2946 -0.2945  0.3910
 4235SOL    HW124164   0.103   3.036   7.799  0.4546  0.0885  0.1720
 4235SOL    HW224165   4.706   3.037   7.722  0.0510  0.6345  0.0567
 4236SOL     OW24166   4.228   0.471   3.812  0.2766  0.1983  0.2026
 4236SOL    HW124167   4.195   0.538   3.872 -0.9120  0.0980 -0.3433
 4236SOL    HW224168   4.270   0.519   3.739 -0.7146  1.4520  0.4612
 4237SOL     OW24169   3.698   0.637  13.982  0.4177  0.4660 -0.0689
 4237SOL    HW124170   3.764   0.658  14.049  0.1473  0.1589  0.2955
 4237SOL    HW224171   3.666   0.725  13.962 -1.2129 -0.2557 -0.6170
 4238SOL     OW24172   2.310   1.139  10.702 -0.3269  0.5400 -0.2963
 4238SOL    HW124173   2.223   1.115  10.672  0.7423 -0.8816 -2.2661
 4238SOL    HW224174   2.309   1.234  10.690 -0.2633  0.4527 -0.9915
 4239SOL     OW24175   0.684   2.108   1.832  0.3019 -0.0093  0.7164
 4239SOL    HW124176   0.728   2.144   1.909 -0.0080  1.1265  0.3531
 4239SOL    HW224177   0.753   2.096   1.767  0.5749 -1.0159  1.2003
 4240SOL     OW24178   3.764   1.866  14.787 -0.4586  0.0151  0.2717
 4240SOL    HW124179   3.854   1.874  14.756 -0.7817  1.8663 -0.1826
 4240SOL    HW224180   3.749   1.948  14.834  0.6912  0.7458 -0.6345
 4241SOL     OW24181   2.421   1.997   5.447  0.6199 -0.7803  0.0732
 4241SOL    HW124182   2.423   2.046   5.365 -3.8012 -0.5307  0.1384
 4241SOL    HW224183   2.501   2.019   5.495  0.2522 -1.1225  0.8458
 4242SOL     OW24184   4.261   0.117   7.830 -0.2427  0.0796  0.2524
 4242SOL    HW124185   4.217   0.042   7.790  0.5306 -0.5406  0.5524
 4242SOL    HW224186   4.306   0.150   7.752 -0.6145 -1.9284 -0.8168
 4243SOL     OW24187   1.323   3.261   3.154 -0.3585  0.0458 -0.4685
 4243SOL    HW124188   1.328   3.197   3.225 -0.9798 -0.5701 -0.9762
 4243SOL    HW224189   1.229   3.282   3.160 -0.2290 -0.0997  2.1651
 4244SOL     OW24190   3.674   2.044   3.430  0.6992  0.3005 -0.9971
 4244SOL    HW124191   3.624   2.058   3.350 -0.6826 -0.1614 -0.2074
 4244SOL    HW224192   3.645   2.117   3.485 -3.3319 -1.0677 -1.3051
 4245SOL     OW24193   0.192   0.925  12.843 -0.4013 -0.1352  0.3087
 4245SOL    HW124194   0.275   0.912  12.888 -0.2026 -2.8179 -0.8333
 4245SOL    HW224195   0.175   0.831  12.831 -0.7646 -0.2027  1.3556
 4246SOL     OW24196   0.849   2.220   4.691 -0.1459  0.2198 -0.0223
 4246SOL    HW124197   0.843   2.239   4.784  0.2528 -3.6298  0.7689
 4246SOL    HW224198   0.926   2.165   4.678 -0.0053 -0.1773  2.4815
 4247SOL     OW24199   2.513   0.939   9.395  0.2216  0.2522  0.5104
 4247SOL    HW124200   2.420   0.944   9.371  0.1181  0.2277  0.9095
 4247SOL    HW224201   2.554   0.998   9.332  1.2089  0.5184  1.4165
 4248SOL     OW24202   0.480   2.535  12.415 -0.2243  0.3535 -0.5022
 4248SOL    HW124203   0.513   2.477  12.347  0.4052 -0.0104  0.1174
 4248SOL    HW224204   0.461   2.613  12.363 -0.5753 -1.1041 -2.5932
 4249SOL     OW24205   3.468   1.965   4.447 -0.0133  0.5942  0.1062
 4249SOL    HW124206   3.531   1.960   4.376 -0.3642  1.2220 -0.2453
 4249SOL    HW224207   3.523   2.013   4.509  1.5638 -2.1461  0.8279
 4250SOL     OW24208   3.378   3.105   8.767  0.1963  0.5294 -0.0095
 4250SOL    HW124209   3.289   3.075   8.750  1.2150 -2.4384 -0.1093
 4250SOL    HW224210   3.358   3.178   8.826 -1.6379  0.7740 -0.9392
 4251SOL     OW24211   4.210   3.313   3.928  0.2913 -0.8518  0.3717
 4251SOL    HW124212   4.143   3.381   3.919 -0.3329 -1.8445 -2.4218
 4251SOL    HW224213   4.292   3.352   3.898 -0.4929  0.5358  0.0496
 4252SOL     OW24214   3.719   0.938  10.041  0.3596  0.0342 -0.0072
 4252SOL    HW124215   3.708   0.939  10.136 -1.6763  0.8441 -0.2587
 4252SOL    HW224216   3.775   0.861  10.037  2.4974  1.4271  3.2473
 4253SOL     OW24217   0.423   4.210   9.250  0.0730 -0.7350  0.2367
 4253SOL    HW124218   0.341   4.232   9.292  0.3981 -1.0760  1.0415
 4253SOL    HW224219   0.480   4.212   9.327  2.2552 -2.8631 -1.3106
 4254SOL     OW24220   4.205   1.449   1.979 -0.3252  0.3269 -0.6248
 4254SOL    HW124221   4.181   1.404   2.060 -0.2215  0.9559 -0.2484
 4254SOL    HW224222   4.272   1.397   1.935 -0.6444  0.0815 -0.8274
 4255SOL     OW24223   1.331   0.478  15.264 -0.0923 -0.5694  0.4293
 4255SOL    HW124224   1.313   0.500  15.356  1.4761  0.9543  0.3755
 4255SOL    HW224225   1.411   0.529  15.251 -1.4523  1.7175  0.9671
 4256SOL     OW24226   1.491   3.592   6.120  0.2949 -0.2381  0.7881
 4256SOL    HW124227   1.516   3.680   6.092 -0.8206  0.3276  1.5580
 4256SOL    HW224228   1.519   3.537   6.047  0.3487  0.0256  0.6099
 4257SOL     OW24229   1.440   2.127   2.041  0.1112 -0.1720 -0.2901
 4257SOL    HW124230   1.371   2.149   2.103  0.9339  1.5061  0.0355
 4257SOL    HW224231   1.479   2.061   2.099  2.0375 -0.9294 -2.3986
 4258SOL     OW24232   4.205   3.286   7.561  0.3736  0.5160  1.1704
 4258SOL    HW124233   4.162   3.365   7.594 -0.9513 -1.0174  3.0752
 4258SOL    HW224234   4.270   3.326   7.503  0.8790 -1.8909  0.0893
 4259SOL     OW24235   1.626   4.094   3.191  0.1665 -0.1753  0.0327
 4259SOL    HW124236   1.649   4.181   3.159 -3.4234  0.6201 -0.4350
 4259SOL    HW224237   1.629   4.110   3.285  2.1993  0.3437 -0.1301
 4260SOL     OW24238   2.251   0.014  16.029 -0.1757 -0.3119  0.7718
 4260SOL    HW124239   2.305   0.049  15.958  1.4229 -2.2543  1.0610
 4260SOL    HW224240   2.318   4.702  16.087 -0.0151  0.4261  1.0389
 4261SOL     OW24241   3.870   0.112   6.146 -0.6262 -0.5640 -0.0654
 4261SOL    HW124242   3.835   0.076   6.227 -2.4025  0.0639 -0.5576
 4261SOL    HW224243   3.905   0.033   6.105 -0.4554  0.6292 -2.2624
 4262SOL     OW24244   4.381   4.533  15.893 -0.4949  0.4957 -0.0847
 4262SOL    HW124245   4.384   4.536  15.798  0.6735 -1.1854 -0.1151
 4262SOL    HW224246   4.475   4.524  15.909 -0.5643  2.1285  1.2792
 4263SOL     OW24247   1.612   2.698   3.029  0.1968 -0.3734  0.1916
 4263SOL    HW124248   1.563   2.712   3.110  0.5228  0.7149  0.2058
 4263SOL    HW224249   1.533   2.676   2.980  0.3707 -0.1954 -0.1700
 4264SOL     OW24250   4.593   1.719   4.169 -0.7624  0.1919  0.0098
 4264SOL    HW124251   4.548   1.747   4.248  1.7522  0.0041  1.5272
 4264SOL    HW224252   4.544   1.643   4.137 -2.3333  1.0848  0.3059
 4265SOL     OW24253   1.790   0.974  16.794 -0.9502  0.0485 -0.2530
 4265SOL    HW124254   1.798   1.040  16.725  1.0147 -0.9663 -0.9993
 4265SOL    HW224255   1.734   0.904  16.762  1.4098 -1.5093 -0.9899
 4266SOL     OW24256   3.574   2.398   4.878  0.0474  0.3162 -0.0651
 4266SOL    HW124257   3.517   2.322   4.864  1.4729 -0.8225  0.1793
 4266SOL    HW224258   3.503   2.460   4.890 -1.3163 -1.1334 -0.6835
 4267SOL     OW24259   0.440   3.302   5.174  0.0404 -0.2535 -0.3022
 4267SOL    HW124260   0.529   3.286   5.140 -0.5759 -0.5924 -1.7692
 4267SOL    HW224261   0.392   3.239   5.119 -0.6586  0.4536 -0.5038
 4268SOL     OW24262   2.724   2.034   6.573 -0.0727  0.3644  0.3971
 4268SOL    HW124263   2.716   1.984   6.492  1.4480 -1.1779  1.2151
 4268SOL    HW224264   2.816   2.063   6.572  0.2121 -0.5798 -0.8028
 4269SOL     OW24265   4.301   2.131   2.255 -0.3256 -0.0578  0.0858
 4269SOL    HW124266   4.392   2.160   2.251 -0.7982  1.2226 -1.0945
 4269SOL    HW224267   4.292   2.092   2.168 -2.2230  1.6271 -0.4638
 4270SOL     OW24268   2.163   0.368  11.552 -0.0327 -1.0489 -0.2802
 4270SOL    HW124269   2.249   0.399  11.523 -1.5075  2.0808 -1.1852
 4270SOL    HW224270   2.163   0.383  11.646 -2.6724  1.1043 -0.6389
 4271SOL     OW24271   3.921   2.303   3.452 -0.2483  0.2480  0.1758
 4271SOL    HW124272   3.986   2.372   3.441 -0.2982  0.7553  2.9785
 4271SOL    HW224273   3.877   2.297   3.367  0.5359  0.4416 -0.2417
 4272SOL     OW24274   2.291   3.120   3.297 -0.3993  0.0289 -0.0181
 4272SOL    HW124275   2.365   3.060   3.298 -0.2648  0.1941 -0.1029
 4272SOL    HW224276   2.287   3.133   3.202  1.9063 -1.2370 -0.2973
 4273SOL     OW24277   2.937   0.749  10.411 -0.1516 -0.8957 -0.3960
 4273SOL    HW124278   2.973   0.757  10.323 -1.1512 -1.1907 -0.8338
 4273SOL    HW224279   2.864   0.811  10.421 -0.0953 -1.1486  1.7270
 4274SOL     OW24280   1.450   4.191  16.985 -0.0070  0.0529  0.1858
 4274SOL    HW124281   1.446   4.191  16.889 -0.5834  0.9986  0.2035
 4274SOL    HW224282   1.462   4.286  16.983 -2.3852  0.3195 -2.0048
 4275SOL     OW24283   1.206   2.701   0.590  0.1028 -0.2529  0.1307
 4275SOL    HW124284   1.183   2.738   0.505  0.6745  2.2100  1.0487
 4275SOL    HW224285   1.294   2.668   0.573 -0.4114  0.1220 -3.1496
 4276SOL     OW24286   0.240   1.253   4.590  0.6428 -0.0830  0.2549
 4276SOL    HW124287   0.156   1.212   4.567 -0.3581  2.6459 -1.1002
 4276SOL    HW224288   0.199   1.326   4.637 -0.5845  0.7751 -2.1411
 4277SOL     OW24289   1.293   3.805   8.487  0.1590 -0.2442 -0.2668
 4277SOL    HW124290   1.268   3.897   8.504  1.5339 -0.0855  0.8810
 4277SOL    HW224291   1.206   3.765   8.493  0.4752 -1.0833 -1.3546
 4278SOL     OW24292   2.357   2.951   1.943 -0.2946 -0.3023 -0.1755
 4278SOL    HW124293   2.270   2.939   1.982 -0.2776 -1.5062 -0.5305
 4278SOL    HW224294   2.382   2.859   1.937  0.2296 -0.2351  0.9513
 4279SOL     OW24295   3.905   2.754   3.564  0.4329  0.3331 -0.0067
 4279SOL    HW124296   3.842   2.741   3.493  0.3392  0.5555  0.0340
 4279SOL    HW224297   3.850   2.819   3.608 -0.3970  0.7376 -1.6382
 4280SOL     OW24298   4.381   1.567   4.038 -0.0748 -0.2346  0.0239
 4280SOL    HW124299   4.300   1.538   3.994  1.0293 -3.2128 -0.0599
 4280SOL    HW224300   4.344   1.617   4.111 -1.6221  0.1855 -1.0325
 4281SOL     OW24301   3.507   2.601  10.630 -0.3546  0.9108 -0.2261
 4281SOL    HW124302   3.504   2.690  10.596  0.3014 -0.0480 -2.8143
 4281SOL    HW224303   3.568   2.557  10.571 -0.9712  1.6203 -1.3843
 4282SOL     OW24304   0.313   0.768   1.559  0.5130 -0.3761  0.1294
 4282SOL    HW124305   0.320   0.858   1.592 -2.6572 -0.2781  0.6331
 4282SOL    HW224306   0.251   0.794   1.491  2.0094  1.4706 -0.4997
 4283SOL     OW24307   0.807   1.413   3.038 -0.2154 -0.4733  0.1793
 4283SOL    HW124308   0.821   1.500   3.077  0.4530 -0.9504  1.0221
 4283SOL    HW224309   0.899   1.392   3.022 -0.4363  0.0268 -1.6361
 4284SOL     OW24310   3.712   0.917  10.323 -0.0689 -0.1160  0.1882
 4284SOL    HW124311   3.655   0.878  10.389  1.5402 -0.8531  1.1390
 4284SOL    HW224312   3.800   0.909  10.359 -0.1016  1.9845  0.7578
 4285SOL     OW24313   1.753   0.600   3.914  0.7918  0.2620  0.3741
 4285SOL    HW124314   1.804   0.610   3.833  1.8901  1.3150  1.1911
 4285SOL    HW224315   1.817   0.565   3.976  0.8820  0.8167  0.5894
 4286SOL     OW24316   2.861   3.009   4.490 -0.0256  0.2437  0.0203
 4286SOL    HW124317   2.809   3.089   4.500 -1.5446 -0.7247 -0.0743
 4286SOL    HW224318   2.855   2.992   4.396 -0.6799 -0.6330  0.2192
 4287SOL     OW24319   0.310   2.874   1.320  0.2407 -0.1454 -0.4841
 4287SOL    HW124320   0.215   2.877   1.331  0.2662 -1.0425 -0.0609
 4287SOL    HW224321   0.321   2.779   1.321  1.2116 -0.0072  2.1411
 4288SOL     OW24322   3.676   1.159   8.881  0.1202  0.5835  0.6417
 4288SOL    HW124323   3.607   1.225   8.887  1.9543  2.5163  0.5264
 4288SOL    HW224324   3.716   1.170   8.795  0.8703  0.4212  0.9596
 4289SOL     OW24325   1.615   4.435  17.634 -0.5823 -0.1660  0.1645
 4289SOL    HW124326   1.529   4.409  17.668  0.1524 -1.6097  0.9428
 4289SOL    HW224327   1.591   4.489  17.559 -1.1511  0.0662  0.5096
 4290SOL     OW24328   0.378   3.865   3.809 -0.3604 -0.2248  0.4423
 4290SOL    HW124329   0.312   3.934   3.817  2.0553  2.6116 -4.2973
 4290SOL    HW224330   0.449   3.915   3.848 -0.7039 -0.2078  1.0493
 4291SOL     OW24331   3.864   2.449   2.267 -0.6037 -0.5188  0.0189
 4291SOL    HW124332   3.931   2.412   2.210 -0.8780 -0.2724 -0.4655
 4291SOL    HW224333   3.799   2.478   2.203 -1.8659  0.5962  1.8072
 4292SOL     OW24334   0.087   1.798  17.161 -0.2016 -0.3802  0.5083
 4292SOL    HW124335   0.161   1.738  17.164 -0.9453 -1.2966  0.4649
 4292SOL    HW224336   0.128   1.876  17.123  0.3806 -1.2615 -0.6653
 4293SOL     OW24337   1.689   1.351  16.017  0.5505 -0.3307 -0.3222
 4293SOL    HW124338   1.706   1.436  15.975 -2.6727 -0.5963 -2.1725
 4293SOL    HW224339   1.594   1.362  16.022  0.5173 -0.0361 -1.7079
 4294SOL     OW24340   0.777   0.546   8.758 -0.1693  0.6612 -0.1498
 4294SOL    HW124341   0.694   0.510   8.789  0.4893 -2.2765 -1.8978
 4294SOL    HW224342   0.829   0.468   8.740 -1.0543  0.2117 -0.7686
 4295SOL     OW24343   3.386   1.203   7.762  0.2274 -0.1018  0.5076
 4295SOL    HW124344   3.376   1.205   7.857 -0.1775  0.1088  0.4637
 4295SOL    HW224345   3.326   1.132   7.740 -0.0603  0.6457 -1.1387
 4296SOL     OW24346   2.599   1.719   6.145 -0.2386 -0.2733  0.0261
 4296SOL    HW124347   2.539   1.657   6.187 -0.6456 -0.9161 -1.5217
 4296SOL    HW224348   2.560   1.735   6.059 -0.1047  0.5855  0.1270
 4297SOL     OW24349   1.376   0.917   4.982  0.0901  0.5951 -0.1054
 4297SOL    HW124350   1.320   0.950   5.052 -0.2510 -1.2714  0.4828
 4297SOL    HW224351   1.364   0.823   4.994 -1.3322  0.8495  0.5102
 4298SOL     OW24352   3.512   1.031  11.370 -0.3272  0.3368 -0.0012
 4298SOL    HW124353   3.553   1.084  11.438 -1.7854  1.1886  0.2082
 4298SOL    HW224354   3.446   1.092  11.336  0.2561  1.4809  0.9182
 4299SOL     OW24355   0.916   1.927   6.090 -0.2059  0.1515 -0.0812
 4299SOL    HW124356   0.893   1.946   5.999  1.0239 -3.3835 -1.1153
 4299SOL    HW224357   0.911   2.016   6.126 -0.1048  0.3664 -0.6054
 4300SOL     OW24358   3.549   3.584  10.355 -0.2081 -0.1638 -0.4757
 4300SOL    HW124359   3.537   3.665  10.305 -0.6507 -0.5820 -1.0419
 4300SOL    HW224360   3.640   3.585  10.385 -1.8298  1.6779  4.4129
 4301SOL     OW24361   0.102   4.337   8.943 -0.0612 -0.3021 -0.0101
 4301SOL    HW124362   0.050   4.414   8.919  3.5824  1.8028 -1.1248
 4301SOL    HW224363   0.118   4.308   8.853 -1.3096  0.6834 -0.5537
 4302SOL     OW24364   1.658   2.098   4.202  0.3435 -0.4295 -0.5439
 4302SOL    HW124365   1.705   2.112   4.284  1.7924 -2.4628 -1.0340
 4302SOL    HW224366   1.633   2.185   4.172 -2.6788 -0.5936  1.4701
 4303SOL     OW24367   2.741   2.032  16.152 -0.6883 -0.3997  0.2310
 4303SOL    HW124368   2.694   2.028  16.069 -1.5924 -1.6608  0.8056
 4303SOL    HW224369   2.825   2.070  16.129 -1.7303  1.2084 -0.9147
 4304SOL     OW24370   2.424   1.563   3.228 -0.4355 -0.0501 -0.4211
 4304SOL    HW124371   2.490   1.541   3.162  1.4372 -0.3202  1.5569
 4304SOL    HW224372   2.454   1.498   3.292  2.4113  2.5053  0.8233
 4305SOL     OW24373   4.715   2.227   8.601 -0.3975  0.1691 -0.3439
 4305SOL    HW124374   4.644   2.189   8.550  0.9501 -0.8515 -1.4465
 4305SOL    HW224375   0.042   2.149   8.627 -0.6694  0.1732  0.1956
 4306SOL     OW24376   0.933   0.729   8.882 -0.4056  0.2762  0.3340
 4306SOL    HW124377   0.855   0.775   8.913 -0.9343  0.2362 -0.9458
 4306SOL    HW224378   0.893   0.655   8.837  0.8527 -0.2216  0.0172
 4307SOL     OW24379   4.374   4.240   3.027 -0.0361  0.3461 -0.0894
 4307SOL    HW124380   4.371   4.330   3.058 -0.1123  0.2173  0.2763
 4307SOL    HW224381   4.455   4.232   2.975  0.2157 -1.4194  0.5682
 4308SOL     OW24382   3.132   3.030   8.841 -0.0617  0.2671 -0.3850
 4308SOL    HW124383   3.101   3.016   8.930  0.5916 -0.7157 -0.3142
 4308SOL    HW224384   3.055   3.076   8.807  0.6178  1.4780 -0.2705
 4309SOL     OW24385   1.592   0.712  14.292  0.1483 -0.0923 -0.7956
 4309SOL    HW124386   1.638   0.652  14.233  0.0763  0.4308 -1.3843
 4309SOL    HW224387   1.498   0.707  14.276 -0.1936  1.7774  0.6061
 4310SOL     OW24388   1.245   3.670   6.211  0.2952  0.0563 -0.0376
 4310SOL    HW124389   1.338   3.653   6.200 -0.3801 -2.6744 -1.3054
 4310SOL    HW224390   1.242   3.703   6.301  1.4699  0.6071 -0.2012
 4311SOL     OW24391   1.107   4.154   5.834 -0.0223 -0.4719 -0.3048
 4311SOL    HW124392   1.088   4.216   5.905  1.6724 -0.0525 -0.2297
 4311SOL    HW224393   1.088   4.066   5.866  1.5262 -1.0351 -0.9681
 4312SOL     OW24394   1.026   2.898   8.096  0.1638 -0.3625  0.6050
 4312SOL    HW124395   1.044   2.920   8.187  1.5201  0.1520  0.2167
 4312SOL    HW224396   0.952   2.838   8.105  0.4699 -0.4238  2.7069
 4313SOL     OW24397   4.669   2.026   9.458 -0.5785 -0.2346  0.0339
 4313SOL    HW124398   0.019   2.082   9.434  0.0344 -0.3954  1.5674
 4313SOL    HW224399   4.680   1.950   9.402  0.5145  0.3106 -0.4969
 4314SOL     OW24400   0.099   3.306   5.809 -0.0127  0.6331 -0.3174
 4314SOL    HW124401   0.194   3.308   5.802 -0.1221  0.7837 -1.9154
 4314SOL    HW224402   0.077   3.269   5.723  0.1160  0.3668 -0.2376
 4315SOL     OW24403   2.728   4.514  13.146 -0.1513 -0.1543  0.3718
 4315SOL    HW124404   2.685   4.466  13.076  1.3152  0.0619 -0.6890
 4315SOL    HW224405   2.811   4.531  13.101 -0.9136 -0.1037 -1.0258
 4316SOL     OW24406   3.444   2.777  14.091 -0.1531  0.3336  0.1050
 4316SOL    HW124407   3.498   2.698  14.089  1.7663  1.6508 -0.5192
 4316SOL    HW224408   3.382   2.755  14.161  0.9660  0.6274  1.1828
 4317SOL     OW24409   3.572   4.244   6.544  0.7490 -0.2707  0.1666
 4317SOL    HW124410   3.514   4.295   6.600  0.0038 -1.0596  0.1116
 4317SOL    HW224411   3.589   4.300   6.468 -2.5488  0.2264 -0.1891
 4318SOL     OW24412   4.199   2.791   6.513  0.1423  0.5514 -0.2176
 4318SOL    HW124413   4.196   2.850   6.589 -0.7757 -1.9140  1.6514
 4318SOL    HW224414   4.273   2.733   6.531  0.7635  0.7574 -2.1103
 4319SOL     OW24415   1.202   4.146   2.209 -0.3486 -0.2945 -0.2139
 4319SOL    HW124416   1.166   4.064   2.244 -1.8260  1.0419  1.3904
 4319SOL    HW224417   1.245   4.114   2.130 -0.8999  2.2877 -1.5446
 4320SOL     OW24418   2.575   3.069   0.681  0.5403  0.5413 -0.2408
 4320SOL    HW124419   2.582   3.163   0.698 -2.2447  0.9483 -1.3615
 4320SOL    HW224420   2.547   3.076   0.589 -1.4908  2.1182  0.5152
 4321SOL     OW24421   1.748   1.086   6.464  0.5978 -0.2129  0.0515
 4321SOL    HW124422   1.786   1.102   6.378  0.1392 -0.6003 -0.2213
 4321SOL    HW224423   1.829   1.057   6.507  1.1186 -0.4620 -1.0864
 4322SOL     OW24424   4.090   2.189  10.272 -0.0165 -0.0209 -0.3834
 4322SOL    HW124425   4.118   2.228  10.189  1.4876 -0.3091 -0.0087
 4322SOL    HW224426   4.117   2.097  10.271 -1.6286 -0.4773 -1.5881
 4323SOL     OW24427   3.190   0.296  13.089  0.5465 -0.0353 -0.5948
 4323SOL    HW124428   3.185   0.201  13.079 -0.3832 -0.1364  0.9113
 4323SOL    HW224429   3.211   0.307  13.182 -1.0216 -0.6587 -0.1791
 4324SOL     OW24430   2.348   1.371   3.775 -0.4417  0.3577 -0.2136
 4324SOL    HW124431   2.414   1.435   3.802 -0.7106  0.3127  0.5626
 4324SOL    HW224432   2.414   1.312   3.738 -1.0163  0.6517 -1.7014
 4325SOL     OW24433   1.077   0.379   8.982 -0.3941  0.1205  0.5138
 4325SOL    HW124434   1.075   0.425   8.898  1.6452  0.7306  0.7813
 4325SOL    HW224435   1.136   0.428   9.040 -0.5028 -0.8303  1.4289
 4326SOL     OW24436   1.366   2.855   5.883 -0.4183 -0.1572 -0.1516
 4326SOL    HW124437   1.424   2.928   5.904  2.3214 -2.1373 -0.7939
 4326SOL    HW224438   1.329   2.828   5.967  0.0747 -2.1344 -0.5595
 4327SOL     OW24439   4.323   1.961   2.865  0.5942  0.2440  0.1946
 4327SOL    HW124440   4.295   1.957   2.774  1.4546  1.3699 -0.1216
 4327SOL    HW224441   4.247   2.009   2.898  2.2150  2.0100  1.3586
 4328SOL     OW24442   1.506   0.932   5.872 -0.0527  0.3137  0.8266
 4328SOL    HW124443   1.477   0.997   5.808  1.6304  2.4900  2.2667
 4328SOL    HW224444   1.463   0.966   5.951 -3.6478  0.4892 -1.1811
 4329SOL     OW24445   0.322   4.086  15.786  0.0927  0.2325 -0.3844
 4329SOL    HW124446   0.229   4.065  15.778  0.6483 -2.5628  0.3007
 4329SOL    HW224447   0.356   4.019  15.727  1.8520  0.9718 -0.2191
 4330SOL     OW24448   4.364   2.561   3.144  0.0307  0.1455  0.5316
 4330SOL    HW124449   4.383   2.631   3.082 -0.9602 -0.9863 -1.0745
 4330SOL    HW224450   4.441   2.506   3.131 -2.0356 -2.2256 -1.8682
 4331SOL     OW24451   1.417   3.491   3.265  0.3643 -0.3213  0.2741
 4331SOL    HW124452   1.322   3.493   3.270  0.3578  2.6435 -1.1797
 4331SOL    HW224453   1.422   3.399   3.237  1.9158 -0.2155  0.1930
 4332SOL     OW24454   3.813   0.282  13.083  0.0779 -0.2451 -0.1398
 4332SOL    HW124455   3.841   0.202  13.039  1.3406  0.3023 -0.3421
 4332SOL    HW224456   3.868   0.263  13.159  0.4115 -0.7711 -0.5140
 4333SOL     OW24457   0.544   4.508   6.900 -0.4841 -0.0638  0.2987
 4333SOL    HW124458   0.493   4.579   6.939  1.5148 -0.2125  3.1987
 4333SOL    HW224459   0.526   4.441   6.966  0.1205 -2.0994 -1.5982
 4334SOL     OW24460   2.220   1.106   6.711  0.2905 -0.5603  0.2750
 4334SOL    HW124461   2.232   1.199   6.733  1.0854 -0.3207 -1.1355
 4334SOL    HW224462   2.298   1.083   6.660 -1.2307  0.1710 -2.3697
 4335SOL     OW24463   4.411   2.412  14.193  0.2537 -0.2366  0.2299
 4335SOL    HW124464   4.489   2.413  14.137 -0.0318 -0.5595 -0.1760
 4335SOL    HW224465   4.378   2.326  14.166 -2.1642  0.7017  0.2413
 4336SOL     OW24466   2.120   2.750  16.857 -0.2587 -0.3887 -0.2902
 4336SOL    HW124467   2.103   2.783  16.769  0.6383  2.4751  0.6145
 4336SOL    HW224468   2.191   2.810  16.879 -1.9603  1.1488  1.0669
 4337SOL     OW24469   3.185   1.616   5.388 -0.6104  0.0350 -0.5833
 4337SOL    HW124470   3.242   1.678   5.343 -0.9929 -0.9328 -2.3989
 4337SOL    HW224471   3.250   1.547   5.399 -0.9083  0.1499  1.9789
 4338SOL     OW24472   1.422   4.387   4.304  0.0041 -0.0043  0.1481
 4338SOL    HW124473   1.353   4.341   4.257  0.7913  0.5976 -1.5959
 4338SOL    HW224474   1.428   4.336   4.385 -0.9629  0.2934  0.4036
 4339SOL     OW24475   1.409   2.389   3.348  0.5757  0.1166  0.4568
 4339SOL    HW124476   1.458   2.318   3.388  1.0914 -0.0624 -0.4836
 4339SOL    HW224477   1.357   2.412   3.425  1.0400 -1.3666  1.1980
 4340SOL     OW24478   1.948   1.445   8.154  0.5710  0.0357 -0.1318
 4340SOL    HW124479   1.922   1.424   8.244 -1.0574  1.2448 -0.3258
 4340SOL    HW224480   1.977   1.536   8.159  0.8626 -0.0420 -0.4114
 4341SOL     OW24481   1.697   2.768   4.589  0.2996  0.7113  0.5835
 4341SOL    HW124482   1.650   2.713   4.526  0.3905 -1.0113  2.0004
 4341SOL    HW224483   1.782   2.726   4.595 -0.7948 -1.7799 -1.3888
 4342SOL     OW24484   2.610   0.265  16.208  0.3351  0.7653 -0.3087
 4342SOL    HW124485   2.695   0.250  16.167 -0.2567  0.8317 -1.5558
 4342SOL    HW224486   2.615   0.361  16.216 -3.4081  1.0879 -1.7988
 4343SOL     OW24487   1.423   0.782   3.337  0.0541  0.1466  0.5327
 4343SOL    HW124488   1.433   0.688   3.353  1.7944  0.2796  0.2218
 4343SOL    HW224489   1.493   0.823   3.388  0.4905 -0.1997  0.2076
 4344SOL     OW24490   0.213   1.428   5.711  0.0032 -0.3115  0.2425
 4344SOL    HW124491   0.287   1.374   5.738  1.0018  1.3840  0.9148
 4344SOL    HW224492   0.262   1.497   5.666 -1.1871  0.7865  0.6420
 4345SOL     OW24493   4.245   1.238   1.117  0.4716  0.1007 -0.3658
 4345SOL    HW124494   4.301   1.315   1.103 -0.4149  0.9977  1.0653
 4345SOL    HW224495   4.172   1.280   1.162  0.1058 -4.3160  3.1012
 4346SOL     OW24496   1.054   2.949  12.112  0.5567 -0.4182 -0.0606
 4346SOL    HW124497   1.032   2.935  12.204 -1.1203  0.5984 -0.3097
 4346SOL    HW224498   0.976   2.996  12.084  0.4318 -1.1567 -0.9487
 4347SOL     OW24499   3.307   2.833   1.391 -0.5039  0.4583  0.4490
 4347SOL    HW124500   3.242   2.785   1.442 -1.7481  1.6527 -0.0289
 4347SOL    HW224501   3.372   2.764   1.377 -1.3563 -0.3898  0.6619
 4348SOL     OW24502   3.070   0.624   7.893  0.0931 -0.3130 -0.4420
 4348SOL    HW124503   3.058   0.534   7.925  2.1207 -0.7286 -0.8473
 4348SOL    HW224504   3.112   0.617   7.807 -0.9955  0.5469 -1.0432
 4349SOL     OW24505   2.167   3.042   7.745  0.1941  0.2709 -0.4889
 4349SOL    HW124506   2.096   3.038   7.810  0.9759  0.0741  0.3537
 4349SOL    HW224507   2.217   2.962   7.761 -0.6118  0.2447  1.9487
 4350SOL     OW24508   1.129   2.212   7.448 -0.2783 -0.7206  0.7540
 4350SOL    HW124509   1.125   2.156   7.526  1.3284  0.4198  1.6415
 4350SOL    HW224510   1.060   2.277   7.438 -1.3707 -1.7942  1.2806
 4351SOL     OW24511   1.865   1.931  10.066  0.0260  0.5535  0.5452
 4351SOL    HW124512   1.906   1.879   9.997 -0.5950  0.5628  0.1665
 4351SOL    HW224513   1.799   1.874  10.106  3.6725 -3.5580  0.7330
 4352SOL     OW24514   1.789   4.403   3.343 -0.6475 -0.1354 -0.4426
 4352SOL    HW124515   1.726   4.474   3.345 -1.0785 -0.5142 -0.5550
 4352SOL    HW224516   1.846   4.429   3.415 -1.6428  1.5800 -0.2816
 4353SOL     OW24517   0.876   0.391   9.281 -0.0120 -0.0022 -0.4310
 4353SOL    HW124518   0.805   0.455   9.290  1.3400  1.3436  0.8658
 4353SOL    HW224519   0.953   0.419   9.330 -1.4058  0.5076  1.4713
 4354SOL     OW24520   1.718   3.328  10.086 -0.2934 -0.0006 -0.2703
 4354SOL    HW124521   1.667   3.352  10.008 -0.3921 -3.5269 -1.2868
 4354SOL    HW224522   1.690   3.396  10.147  0.4640  0.4349 -0.4133
 4355SOL     OW24523   0.242   0.434   9.273 -0.4186 -0.2723 -0.0379
 4355SOL    HW124524   0.329   0.395   9.264  1.1457  3.5207 -1.5920
 4355SOL    HW224525   0.256   0.529   9.278  0.1514 -0.3668  0.1561
 4356SOL     OW24526   2.724   3.907   6.614  0.2034 -0.2621  0.1632
 4356SOL    HW124527   2.784   3.837   6.591  1.1879  1.5134 -2.6131
 4356SOL    HW224528   2.775   3.936   6.690  0.3434 -0.7182  0.2401
 4357SOL     OW24529   1.293   1.641  10.101 -0.3215 -0.1350 -0.4111
 4357SOL    HW124530   1.363   1.683  10.051  0.6943  0.7150  1.7532
 4357SOL    HW224531   1.218   1.665  10.046  1.4723  0.1446 -2.7006
 4358SOL     OW24532   1.472   3.503   6.369 -0.2590 -0.4936  0.1699
 4358SOL    HW124533   1.499   3.595   6.376  1.7227 -0.8532 -2.7555
 4358SOL    HW224534   1.461   3.504   6.274  0.0667  0.1051  0.1339
 4359SOL     OW24535   4.696   3.440  12.268  0.0714 -0.0935  0.3651
 4359SOL    HW124536   0.022   3.472  12.344  0.2572  1.8834 -0.6007
 4359SOL    HW224537   4.679   3.350  12.295  0.7053 -0.0506  0.8936
 4360SOL     OW24538   4.501   3.824  15.836  0.2228 -0.4622  0.4647
 4360SOL    HW124539   4.471   3.909  15.869  2.6333 -0.1003  1.6798
 4360SOL    HW224540   4.583   3.796  15.877 -0.7284 -3.5344  0.2586
 4361SOL     OW24541   2.602   0.866   6.561  0.1300 -0.1429  0.0651
 4361SOL    HW124542   2.697   0.880   6.556 -0.0480  2.0999  3.0631
 4361SOL    HW224543   2.596   0.779   6.602 -2.1310 -0.1949 -0.3967
 4362SOL     OW24544   0.079   1.807  17.471 -0.0597  0.3038 -0.1394
 4362SOL    HW124545   0.094   1.900  17.491  1.4127  0.4884 -2.1617
 4362SOL    HW224546   0.002   1.808  17.415  1.2399 -0.2167 -1.9555
 4363SOL     OW24547   2.979   1.359   6.538 -0.2520 -0.1064 -0.0162
 4363SOL    HW124548   3.055   1.301   6.541  0.3953  0.6853 -1.5630
 4363SOL    HW224549   2.964   1.368   6.632 -1.5244  0.3502 -0.2666
 4364SOL     OW24550   4.205   1.922  13.547  0.1872 -0.1263 -0.4673
 4364SOL    HW124551   4.294   1.954  13.531  1.3426 -3.0565  0.1011
 4364SOL    HW224552   4.183   1.962  13.631 -1.2406 -0.3153 -0.7580
 4365SOL     OW24553   3.264   1.094  11.709  0.5960  0.0040  0.2406
 4365SOL    HW124554   3.246   1.155  11.637 -3.6385 -1.8780 -0.3062
 4365SOL    HW224555   3.276   1.158  11.779  0.3654  1.8413 -1.3796
 4366SOL     OW24556   3.565   1.443   4.759  0.5691 -0.1872  0.3186
 4366SOL    HW124557   3.588   1.522   4.809 -1.3978 -0.1331  1.1124
 4366SOL    HW224558   3.602   1.465   4.673  3.2167 -1.4582  1.1390
 4367SOL     OW24559   2.787   1.511   5.561 -0.1175 -0.0427 -1.0983
 4367SOL    HW124560   2.713   1.568   5.581  1.5464  1.6385  0.3176
 4367SOL    HW224561   2.848   1.577   5.527 -1.0216  1.1924 -0.3053
 4368SOL     OW24562   2.175   2.898   2.354  0.3826 -0.4857  0.5352
 4368SOL    HW124563   2.263   2.933   2.364  0.7098 -1.2897  0.4639
 4368SOL    HW224564   2.146   2.933   2.269  0.5875 -3.3069 -0.6974
 4369SOL     OW24565   3.303   2.835  13.865  0.6210 -0.4682  0.0114
 4369SOL    HW124566   3.211   2.824  13.888  0.9887 -1.2526  1.1255
 4369SOL    HW224567   3.346   2.818  13.949 -0.9027 -0.3183  0.8066
 4370SOL     OW24568   0.890   0.103  16.504  0.2327  0.5559  0.6756
 4370SOL    HW124569   0.964   0.120  16.563 -0.4735 -0.2381  1.7996
 4370SOL    HW224570   0.821   0.119  16.568  1.4303  1.0514  1.8465
 4371SOL     OW24571   0.862   2.700   1.564  0.2403  0.2058  0.1412
 4371SOL    HW124572   0.787   2.670   1.615 -0.0509  1.7050  0.5750
 4371SOL    HW224573   0.836   2.787   1.533  0.5659 -0.2827 -1.5297
 4372SOL     OW24574   0.018   2.606   0.828 -0.8554  0.1290  0.2344
 4372SOL    HW124575   0.049   2.608   0.918  0.4408 -1.3418 -0.1767
 4372SOL    HW224576   0.061   2.529   0.789 -2.0204 -0.8788  0.9577
 4373SOL     OW24577   3.381   3.813   3.741  0.2054 -0.1858 -0.0070
 4373SOL    HW124578   3.334   3.784   3.662 -3.1569 -0.3744  2.0865
 4373SOL    HW224579   3.438   3.881   3.705 -1.2072  2.0741  2.0793
 4374SOL     OW24580   1.637   0.946  13.911 -0.0740  0.2756  0.1141
 4374SOL    HW124581   1.568   1.012  13.904  0.9058  1.1036 -1.6001
 4374SOL    HW224582   1.670   0.956  14.000 -0.4479  0.0210  0.2820
 4375SOL     OW24583   3.480   1.322   5.752  0.2631 -0.1349 -0.1553
 4375SOL    HW124584   3.501   1.390   5.816  0.4777 -1.5165  1.2529
 4375SOL    HW224585   3.561   1.276   5.730 -0.7054 -1.1900 -1.6125
 4376SOL     OW24586   1.442   2.885  15.381 -0.2488 -0.0792 -0.1076
 4376SOL    HW124587   1.526   2.907  15.341 -0.0790  0.5516  0.6073
 4376SOL    HW224588   1.458   2.795  15.410 -0.8711 -0.0070  0.4566
 4377SOL     OW24589   3.779   3.965   8.706 -0.0324 -0.4245  0.2859
 4377SOL    HW124590   3.870   3.972   8.732 -0.1884  1.8488  0.2449
 4377SOL    HW224591   3.746   4.043   8.750  3.1170  1.7131 -1.1405
 4378SOL     OW24592   2.244   2.186   2.203 -0.2272 -0.2318 -0.3756
 4378SOL    HW124593   2.253   2.227   2.289 -0.1427  1.3671 -1.1371
 4378SOL    HW224594   2.191   2.252   2.159  2.0418  0.8216 -1.5713
 4379SOL     OW24595   4.134   0.280   3.624  0.3144  0.0511 -0.1319
 4379SOL    HW124596   4.084   0.351   3.584 -2.8573 -1.6264  0.8295
 4379SOL    HW224597   4.167   0.330   3.699 -0.4349 -1.5248  1.2527
 4380SOL     OW24598   1.691   0.873   8.052  0.0623 -0.2113 -0.0492
 4380SOL    HW124599   1.779   0.899   8.079 -0.1474  1.5869 -1.0987
 4380SOL    HW224600   1.656   0.857   8.140 -2.1733  1.2262 -0.6815
 4381SOL     OW24601   4.183   3.875   5.030 -0.4226  0.7155  0.1061
 4381SOL    HW124602   4.109   3.827   5.068  0.7424  0.3426  1.9141
 4381SOL    HW224603   4.167   3.859   4.937  1.8837 -0.9513 -0.0082
 4382SOL     OW24604   1.437   0.767  13.820  0.5623  0.4390  0.5879
 4382SOL    HW124605   1.495   0.807  13.885  2.1984 -0.1227 -0.5451
 4382SOL    HW224606   1.494   0.724  13.757 -0.4111 -0.6282  0.4262
 4383SOL     OW24607   2.906   0.058   5.523 -0.2818  0.5587 -0.1995
 4383SOL    HW124608   2.936   4.695   5.548  0.5883  0.5986 -1.0900
 4383SOL    HW224609   2.931   0.094   5.608 -1.6263 -0.4502  0.6076
 4384SOL     OW24610   4.533   4.133  12.750 -0.1409  0.5922  0.0181
 4384SOL    HW124611   4.599   4.079  12.707 -0.0294  0.2630  0.5931
 4384SOL    HW224612   4.462   4.070  12.766 -2.3420  3.0093 -0.2265
 4385SOL     OW24613   3.776   0.734   6.131 -0.6512  0.1687  0.2702
 4385SOL    HW124614   3.743   0.782   6.208 -1.2454  0.4211 -0.1372
 4385SOL    HW224615   3.737   0.780   6.056 -0.0038 -1.8396 -1.2924
 4386SOL     OW24616   4.495   4.374  11.280 -0.5675  0.6145  0.1673
 4386SOL    HW124617   4.475   4.282  11.262 -0.6071  0.9812 -1.6874
 4386SOL    HW224618   4.407   4.409  11.265 -0.3576  1.9240  2.0181
 4387SOL     OW24619   4.548   2.383   3.424  0.1939 -0.2724 -0.1585
 4387SOL    HW124620   4.644   2.379   3.419  0.3248  0.8907  1.1611
 4387SOL    HW224621   4.535   2.415   3.335  0.6872 -0.0342 -0.1460
 4388SOL     OW24622   0.876   4.010   3.733 -0.1637  0.4670  0.2801
 4388SOL    HW124623   0.855   4.076   3.799 -0.4449  1.0882 -0.4340
 4388SOL    HW224624   0.957   3.969   3.763 -1.2149  1.3750  4.2770
 4389SOL     OW24625   1.305   4.468   0.660  0.0564  0.0358  0.0388
 4389SOL    HW124626   1.353   4.472   0.743 -1.6878  2.5492  0.9284
 4389SOL    HW224627   1.219   4.502   0.686 -0.1932 -1.0710  0.6815
 4390SOL     OW24628   3.926   0.839   1.767 -0.4386 -0.4076  0.1494
 4390SOL    HW124629   3.874   0.917   1.750  0.0231 -0.1194  0.0592
 4390SOL    HW224630   3.922   0.841   1.863 -0.0066 -0.1121  0.1621
 4391SOL     OW24631   1.582   0.707   4.748  0.1494 -0.0856 -0.2175
 4391SOL    HW124632   1.644   0.732   4.816 -1.2689 -1.1322  1.4617
 4391SOL    HW224633   1.653   0.678   4.691  0.9043 -0.1435  0.7502
 4392SOL     OW24634   0.413   1.788  10.858  0.0943  0.0333  0.4530
 4392SOL    HW124635   0.445   1.738  10.933  1.4306 -0.2929 -0.3373
 4392SOL    HW224636   0.320   1.768  10.872 -0.6623  2.0728 -1.5659
 4393SOL     OW24637   1.408   0.726   2.238  0.0462  0.3980  0.4652
 4393SOL    HW124638   1.496   0.716   2.273 -0.3234  0.2644  1.3619
 4393SOL    HW224639   1.433   0.722   2.145 -1.2898  0.6652  0.0952
 4394SOL     OW24640   3.615   4.688   3.049 -0.2888 -0.0143 -0.0237
 4394SOL    HW124641   3.568   4.605   3.049 -0.2287 -0.0561 -1.4370
 4394SOL    HW224642   3.615   4.700   2.954 -1.9379 -4.1265 -0.5364
 4395SOL     OW24643   0.767   0.299   6.053 -0.2553  0.3745 -0.2298
 4395SOL    HW124644   0.827   0.228   6.074  1.0690  1.2802 -0.9846
 4395SOL    HW224645   0.680   0.259   6.048 -0.8364  1.8437 -1.9951
 4396SOL     OW24646   3.685   3.223   5.584  0.4615 -0.2141  0.0876
 4396SOL    HW124647   3.618   3.238   5.517  1.5507  2.2319 -0.4521
 4396SOL    HW224648   3.754   3.287   5.564 -1.8978  1.7845 -1.6139
 4397SOL     OW24649   3.942   4.005   2.966  0.1749  0.4311 -0.5429
 4397SOL    HW124650   3.950   3.992   3.060  0.9668  1.0146 -0.5334
 4397SOL    HW224651   3.880   4.077   2.953 -1.3539 -1.0848 -1.7148
 4398SOL     OW24652   2.334   3.579   1.052  0.1808  0.3176 -0.3977
 4398SOL    HW124653   2.389   3.631   0.992  1.0369 -0.4922 -0.3162
 4398SOL    HW224654   2.266   3.646   1.062 -0.3938 -0.2077 -0.7733
 4399SOL     OW24655   0.733   1.880  11.453 -0.4340 -0.1898  0.4176
 4399SOL    HW124656   0.694   1.967  11.458 -0.9525 -0.3339 -1.1425
 4399SOL    HW224657   0.693   1.848  11.534 -1.6355  1.6382  0.5313
 4400SOL     OW24658   0.673   1.979   6.340 -0.0566 -0.5153  0.0262
 4400SOL    HW124659   0.577   1.978   6.337 -0.1311  1.2358  1.5474
 4400SOL    HW224660   0.704   1.900   6.384 -0.1784  0.2275  1.4362
 4401SOL     OW24661   0.728   0.944  17.305  0.0922 -0.1286  0.6724
 4401SOL    HW124662   0.818   0.944  17.271 -0.8666  1.3867 -1.8408
 4401SOL    HW224663   0.748   0.887  17.380  3.3538 -1.1572 -0.9533
 4402SOL     OW24664   0.984   3.237  14.047  0.3280 -0.4301  0.3030
 4402SOL    HW124665   0.927   3.314  14.048  0.7594 -0.1122  0.1052
 4402SOL    HW224666   0.944   3.188  14.119 -3.2711  0.3257 -1.1883
 4403SOL     OW24667   0.248   0.421   5.569  0.0999 -0.5803 -0.2769
 4403SOL    HW124668   0.185   0.489   5.541 -0.6120 -0.9010  0.5569
 4403SOL    HW224669   0.251   0.427   5.664  0.1866  0.7141 -0.3634
 4404SOL     OW24670   3.567   0.636  10.431  0.0948 -0.1132 -0.2278
 4404SOL    HW124671   3.517   0.561  10.462 -0.9580  0.2754 -0.9883
 4404SOL    HW224672   3.500   0.699  10.405  1.2180  0.9137 -0.6663
 4405SOL     OW24673   2.895   3.542   2.711 -0.3314 -0.3736 -0.0468
 4405SOL    HW124674   2.848   3.550   2.794  0.4272 -1.1243  0.4538
 4405SOL    HW224675   2.977   3.589   2.726  0.9013 -2.0229 -1.7494
 4406SOL     OW24676   4.464   3.651  14.614  0.2112  0.0042  0.0322
 4406SOL    HW124677   4.413   3.643  14.533  0.5082 -1.6483 -0.0058
 4406SOL    HW224678   4.538   3.706  14.589  0.2426  0.1225  0.3964
 4407SOL     OW24679   2.329   1.203   6.287  0.1027 -0.2641 -0.3912
 4407SOL    HW124680   2.361   1.293   6.284  1.5407 -0.6907  2.4567
 4407SOL    HW224681   2.394   1.156   6.236 -0.4014 -2.1788  0.7194
 4408SOL     OW24682   2.049   3.184   6.251 -0.5805 -0.1640 -0.4580
 4408SOL    HW124683   1.978   3.138   6.295 -0.7121 -0.2388 -0.7452
 4408SOL    HW224684   2.049   3.267   6.299 -0.5958 -0.3987 -0.0569
 4409SOL     OW24685   1.699   3.625  11.607  0.5247  0.1466 -0.4047
 4409SOL    HW124686   1.787   3.636  11.641  0.7190  0.5630 -1.0491
 4409SOL    HW224687   1.664   3.712  11.625 -0.4948 -1.0805  3.5175
 4410SOL     OW24688   0.492   4.538   3.681 -0.0194  0.3148 -0.3348
 4410SOL    HW124689   0.458   4.624   3.655  0.0290  0.3136 -0.4034
 4410SOL    HW224690   0.568   4.561   3.734 -0.7358 -0.1619  0.8926
 4411SOL     OW24691   1.506   2.251   1.615  0.6274 -0.2605  0.3539
 4411SOL    HW124692   1.496   2.240   1.521 -0.3292  0.5618  0.3511
 4411SOL    HW224693   1.488   2.163   1.647  0.5214  0.3022  1.8415
 4412SOL     OW24694   0.235   1.303   3.378 -0.2508 -0.4293 -0.3351
 4412SOL    HW124695   0.218   1.397   3.370 -1.1941 -0.5679 -0.0392
 4412SOL    HW224696   0.185   1.282   3.458  2.3580 -3.1703  0.5597
 4413SOL     OW24697   0.032   0.433   6.948 -0.3368  0.0685 -0.4179
 4413SOL    HW124698   0.076   0.408   7.029  0.5478  2.5205 -0.1394
 4413SOL    HW224699   4.703   0.506   6.981 -0.2533 -1.5128  3.1551
 4414SOL     OW24700   1.334   1.929   9.279  0.2182 -0.1582 -0.1835
 4414SOL    HW124701   1.364   2.020   9.287  0.0295 -0.1402  0.3469
 4414SOL    HW224702   1.269   1.933   9.349 -1.5275 -1.7405 -1.7346
 4415SOL     OW24703   4.719   3.586   5.887  0.4307 -0.3431 -0.5526
 4415SOL    HW124704   0.084   3.563   5.860  0.4488 -2.7166  1.5418
 4415SOL    HW224705   0.001   3.682   5.885  3.0710 -0.4706  1.0230
 4416SOL     OW24706   4.023   2.795   8.039 -0.2253 -0.3458 -0.9403
 4416SOL    HW124707   4.098   2.754   8.082 -0.9141 -0.3363  0.2727
 4416SOL    HW224708   4.061   2.819   7.954 -1.0378  0.5142 -1.0626
 4417SOL     OW24709   0.403   3.158   5.946 -0.2911 -0.2425 -0.6408
 4417SOL    HW124710   0.401   3.229   5.881 -0.8692 -0.6249 -1.0432
 4417SOL    HW224711   0.373   3.084   5.893  0.1418 -2.4103  2.2186
 4418SOL     OW24712   1.986   3.422   7.565  0.5633  0.1044  0.0956
 4418SOL    HW124713   2.064   3.478   7.558 -0.2645  1.1384 -0.8163
 4418SOL    HW224714   2.005   3.375   7.647  0.0231  1.0765  0.7817
 4419SOL     OW24715   3.807   0.601   7.747  0.5198  0.1278  0.3149
 4419SOL    HW124716   3.853   0.601   7.831  2.6592 -0.1174 -0.8742
 4419SOL    HW224717   3.873   0.588   7.680  0.1025 -0.9392  0.1174
 4420SOL     OW24718   3.540   0.227   3.121 -0.5958 -0.1937 -0.0369
 4420SOL    HW124719   3.572   0.138   3.113  0.6462  0.1376  1.2757
 4420SOL    HW224720   3.573   0.264   3.203  0.0257  0.6729 -0.6796
 4421SOL     OW24721   2.685   2.804   3.099 -0.2833 -0.1052  0.0545
 4421SOL    HW124722   2.703   2.897   3.114 -0.6224 -0.1139  0.5356
 4421SOL    HW224723   2.737   2.757   3.164  0.5910 -0.4819 -0.9246
 4422SOL     OW24724   4.050   2.887   2.631  0.0748  0.4744  0.6793
 4422SOL    HW124725   4.056   2.923   2.543  0.5540  0.4760  0.7088
 4422SOL    HW224726   4.133   2.839   2.639 -0.8558 -1.4867 -1.4850
 4423SOL     OW24727   3.946   1.458   0.418  0.1638  0.8376 -0.3890
 4423SOL    HW124728   3.929   1.509   0.497  0.4699 -0.3793  0.4602
 4423SOL    HW224729   4.040   1.439   0.429  0.0621  0.9598  0.6768
 4424SOL     OW24730   4.183   1.692   6.876  0.4770  0.2464 -0.0646
 4424SOL    HW124731   4.092   1.661   6.879 -0.6281  3.3320 -2.1188
 4424SOL    HW224732   4.193   1.739   6.793  1.4900 -0.6807 -0.4580
 4425SOL     OW24733   0.144   0.098   7.142  0.0500 -0.4951  0.1420
 4425SOL    HW124734   0.070   0.109   7.202  0.7659 -1.5263  1.2340
 4425SOL    HW224735   0.124   0.007   7.123  0.2345 -1.0217  2.4545
 4426SOL     OW24736   3.289   2.011  11.665  0.1359 -0.3683  0.4303
 4426SOL    HW124737   3.232   1.936  11.653  0.7801 -0.9621  1.0259
 4426SOL    HW224738   3.370   1.970  11.633 -0.1612  0.9028 -1.9404
 4427SOL     OW24739   1.481   0.184  15.843 -0.3818  0.5232 -0.6035
 4427SOL    HW124740   1.513   0.224  15.924 -1.9465  0.3040  0.1176
 4427SOL    HW224741   1.512   0.095  15.862 -0.7290  0.4071 -0.5826
 4428SOL     OW24742   3.616   4.145  13.433 -0.1270  0.5683  0.7041
 4428SOL    HW124743   3.526   4.118  13.450  0.0936  0.9711  2.5512
 4428SOL    HW224744   3.608   4.148  13.338 -2.5977 -1.3759  0.8566
 4429SOL     OW24745   2.777   4.655   2.283 -0.2708 -0.6729  0.1728
 4429SOL    HW124746   2.776   4.612   2.368  1.4372 -1.0228  0.0080
 4429SOL    HW224747   2.682   4.657   2.270 -0.1148  2.1437 -0.5818
 4430SOL     OW24748   1.378   1.379   2.107  0.4109  0.8702  0.2636
 4430SOL    HW124749   1.360   1.470   2.082  0.6866  0.3526 -1.8315
 4430SOL    HW224750   1.309   1.364   2.172  0.2632  0.2190 -0.0438
 4431SOL     OW24751   0.891   3.803   4.115 -0.2427 -0.1368  0.5457
 4431SOL    HW124752   0.806   3.845   4.119 -1.0428 -1.5781 -1.4459
 4431SOL    HW224753   0.867   3.736   4.052 -1.8985  1.2876 -0.3230
 4432SOL     OW24754   0.854   0.058  13.455 -0.1752 -0.0270 -0.0439
 4432SOL    HW124755   0.774   0.035  13.407 -0.5274 -0.4411  0.7353
 4432SOL    HW224756   0.850   0.152  13.437  1.7418 -0.1820 -1.2057
 4433SOL     OW24757   0.462   4.372   8.096 -0.7891  0.1580  0.2386
 4433SOL    HW124758   0.479   4.305   8.030  1.1639  0.7236  0.1661
 4433SOL    HW224759   0.431   4.450   8.050 -1.3836  0.1033  0.5442
 4434SOL     OW24760   2.428   2.991   0.438  0.2244  0.5088 -0.3367
 4434SOL    HW124761   2.333   2.999   0.452  0.2596 -0.4876  0.4604
 4434SOL    HW224762   2.441   3.049   0.363  2.4786 -0.9564 -1.0521
 4435SOL     OW24763   3.224   4.134   3.701 -0.1102 -0.4650 -0.8867
 4435SOL    HW124764   3.203   4.170   3.787  0.1452 -0.9702 -0.6108
 4435SOL    HW224765   3.183   4.198   3.644 -1.1225  1.8860  2.4997
 4436SOL     OW24766   3.418   0.712  13.607  0.0383  0.6826 -0.6069
 4436SOL    HW124767   3.344   0.767  13.580 -0.6335 -0.4384 -1.0188
 4436SOL    HW224768   3.368   0.633  13.624  1.6860 -0.1815  0.3295
 4437SOL     OW24769   4.440   3.908   4.708 -0.4809  0.6766 -0.4035
 4437SOL    HW124770   4.499   3.833   4.707 -1.7345 -0.3143 -0.2548
 4437SOL    HW224771   4.505   3.967   4.670  0.1895  0.1519 -0.0569
 4438SOL     OW24772   4.571   1.689   3.852  0.6461 -0.2087 -0.0930
 4438SOL    HW124773   4.560   1.606   3.805  0.9205  0.0677 -0.6497
 4438SOL    HW224774   4.497   1.680   3.912  0.9970 -3.1336 -0.0908
 4439SOL     OW24775   3.342   3.012  12.052  0.0721  0.7323  0.0226
 4439SOL    HW124776   3.275   2.948  12.077 -0.1227  0.5383 -0.9940
 4439SOL    HW224777   3.305   3.077  11.992 -2.4848 -0.4626  0.2871
 4440SOL     OW24778   1.884   3.230   2.960  0.5820 -0.1692 -0.0748
 4440SOL    HW124779   1.911   3.276   3.039  0.4473  1.9025 -1.2487
 4440SOL    HW224780   1.863   3.294   2.892 -0.2016 -0.0206  0.3094
 4441SOL     OW24781   1.055   0.358   3.642  0.1497  0.2105  0.1097
 4441SOL    HW124782   0.968   0.356   3.602  0.8371  1.3115 -1.4253
 4441SOL    HW224783   1.098   0.428   3.593 -0.5289 -0.2111 -1.0870
 4442SOL     OW24784   2.697   4.198  11.542 -0.3778 -0.2023  0.4924
 4442SOL    HW124785   2.644   4.274  11.565 -1.0067 -0.7781  0.9706
 4442SOL    HW224786   2.754   4.237  11.476 -1.0168  1.1306  0.7441
 4443SOL     OW24787   2.104   2.732   5.740 -0.2815  0.1327 -0.1008
 4443SOL    HW124788   2.152   2.674   5.799  0.1568  0.7776  0.1624
 4443SOL    HW224789   2.083   2.809   5.792 -1.7733 -1.8578  2.2747
 4444SOL     OW24790   2.749   2.053   2.738 -1.0855  0.7403 -0.5354
 4444SOL    HW124791   2.812   1.994   2.780  0.1212  1.1331 -1.7745
 4444SOL    HW224792   2.771   2.130   2.791 -2.0460  1.2524 -0.8901
 4445SOL     OW24793   0.604   3.147   8.069  0.1140 -0.0496 -0.7869
 4445SOL    HW124794   0.516   3.157   8.032 -1.0912 -0.1337  2.0128
 4445SOL    HW224795   0.611   3.210   8.141 -0.3452 -1.8192  0.8210
 4446SOL     OW24796   0.465   0.460   8.312 -0.1651  0.4329 -0.0444
 4446SOL    HW124797   0.395   0.396   8.300 -1.5479  1.7751  0.9664
 4446SOL    HW224798   0.522   0.407   8.367  0.2542  0.4237 -0.4838
 4447SOL     OW24799   1.525   4.114   8.701 -0.2688 -0.2312 -0.5647
 4447SOL    HW124800   1.486   4.119   8.788 -1.9599  2.3143 -1.4757
 4447SOL    HW224801   1.468   4.052   8.656 -2.4726  0.9216  0.6500
 4448SOL     OW24802   2.229   3.225  14.053 -0.3340  0.2879  0.1913
 4448SOL    HW124803   2.221   3.134  14.026 -0.0423  0.4321 -0.3713
 4448SOL    HW224804   2.264   3.268  13.976 -1.3912  1.5447  0.4170
 4449SOL     OW24805   4.150   0.689   8.121 -0.4313 -0.1426  0.0118
 4449SOL    HW124806   4.212   0.760   8.108 -1.1173  0.8236  1.9505
 4449SOL    HW224807   4.074   0.738   8.090 -1.1625 -1.2327  0.0875
 4450SOL     OW24808   3.863   1.202  11.344  0.2968  0.1237 -0.8421
 4450SOL    HW124809   3.853   1.154  11.262 -0.7853 -0.4553 -0.3653
 4450SOL    HW224810   3.952   1.170  11.362  0.0615 -0.0656 -0.0318
 4451SOL     OW24811   2.043   0.395   3.741 -0.2240  0.3312 -0.1811
 4451SOL    HW124812   2.038   0.412   3.647 -3.0151 -0.1866 -0.1213
 4451SOL    HW224813   2.138   0.386   3.740 -0.3398 -0.9219  0.0422
 4452SOL     OW24814   1.198   2.912   1.398 -0.4959 -0.5485 -0.0489
 4452SOL    HW124815   1.193   2.897   1.304  0.7790 -3.2881  0.3047
 4452SOL    HW224816   1.175   3.004   1.409 -0.7247 -0.3105 -2.7028
 4453SOL     OW24817   2.677   1.482  16.055 -0.4593  0.4403 -0.0024
 4453SOL    HW124818   2.659   1.429  15.977 -1.0271  1.3756 -0.5015
 4453SOL    HW224819   2.592   1.498  16.096 -0.4015 -0.9846  0.6587
 4454SOL     OW24820   3.972   4.348  12.724  0.4194 -0.6697  0.1025
 4454SOL    HW124821   4.055   4.309  12.696  0.7740  1.8994 -2.5471
 4454SOL    HW224822   3.908   4.287  12.687  1.2348 -1.8383  0.6252
 4455SOL     OW24823   3.558   4.345   0.504  0.2475  0.0660  0.3169
 4455SOL    HW124824   3.634   4.299   0.540 -0.1987  0.9527  2.3649
 4455SOL    HW224825   3.522   4.396   0.576  0.7441  0.8993 -0.0304
 4456SOL     OW24826   0.331   2.317   5.993 -0.4320 -0.4435  0.3045
 4456SOL    HW124827   0.303   2.265   6.069  0.6293 -0.3390  0.7756
 4456SOL    HW224828   0.398   2.255   5.965  0.2570 -0.1797  1.3498
 4457SOL     OW24829   1.385   1.052   2.673  0.3045 -0.2418  0.4243
 4457SOL    HW124830   1.310   0.996   2.696 -0.3151 -0.5784 -2.3629
 4457SOL    HW224831   1.339   1.135   2.664  0.3927 -0.5709 -2.9331
 4458SOL     OW24832   1.659   1.149   3.007 -0.2068 -0.2271  0.0649
 4458SOL    HW124833   1.628   1.207   2.937 -0.1137 -0.0112  0.2038
 4458SOL    HW224834   1.647   1.065   2.962  2.0250 -0.4146 -0.1828
 4459SOL     OW24835   2.862   1.206   3.601 -0.2766  0.4164  0.0369
 4459SOL    HW124836   2.950   1.242   3.612  0.0043 -0.1027 -0.5749
 4459SOL    HW224837   2.879   1.133   3.542 -3.3828 -1.1401  1.0812
 4460SOL     OW24838   4.400   0.011   2.732  0.0584 -0.5562 -0.4905
 4460SOL    HW124839   4.462   4.663   2.742 -1.2728 -1.3950  1.7399
 4460SOL    HW224840   4.421   0.079   2.796  0.6463  0.3852 -1.6894
 4461SOL     OW24841   1.809   1.674   1.184  0.3479  0.3315 -0.4252
 4461SOL    HW124842   1.724   1.713   1.160  0.1725  0.2675  0.0855
 4461SOL    HW224843   1.798   1.581   1.165  0.0858  0.1265  0.7060
 4462SOL     OW24844   3.385   1.662   5.916 -0.4856 -0.6433 -0.2140
 4462SOL    HW124845   3.293   1.636   5.921  0.2773 -3.3739 -0.3002
 4462SOL    HW224846   3.377   1.731   5.850 -2.5779  0.1736  0.9138
 4463SOL     OW24847   4.273   3.416   3.495  0.3509 -0.6393 -0.0583
 4463SOL    HW124848   4.232   3.498   3.524  0.5482 -0.3948 -0.4852
 4463SOL    HW224849   4.224   3.400   3.414 -1.8086 -0.3810  1.1871
 4464SOL     OW24850   1.018   4.644  17.239  0.4290 -0.1880  0.3899
 4464SOL    HW124851   1.006   4.658  17.145  0.1626  1.8971  0.7442
 4464SOL    HW224852   0.976   4.561  17.259  0.4252 -0.2734  0.0308
 4465SOL     OW24853   2.512   4.231  14.735 -0.7353 -0.0269 -0.0511
 4465SOL    HW124854   2.497   4.303  14.796  0.3795 -0.5210  0.8131
 4465SOL    HW224855   2.436   4.242  14.678 -0.7940 -0.6116 -0.0873
 4466SOL     OW24856   4.361   4.166   4.191  0.0035 -0.0911  0.2515
 4466SOL    HW124857   4.309   4.231   4.240  2.3983  0.7885  1.6540
 4466SOL    HW224858   4.325   4.084   4.224  0.0449  0.8564  2.6537
 4467SOL     OW24859   0.327   4.279  10.505  0.4028 -0.1259  0.0948
 4467SOL    HW124860   0.256   4.341  10.521  0.3140 -0.5512  1.3105
 4467SOL    HW224861   0.282   4.194  10.499 -0.7204  0.6528 -2.5133
 4468SOL     OW24862   2.254   3.702   5.378  0.1361 -0.8477  0.0790
 4468SOL    HW124863   2.322   3.770   5.368 -1.3281  0.5357 -0.4588
 4468SOL    HW224864   2.176   3.750   5.350  0.5424 -0.5141 -0.4834
 4469SOL     OW24865   0.065   2.145   3.270  0.0268 -0.1842 -0.0056
 4469SOL    HW124866   4.720   2.173   3.209 -1.0812 -1.3231  0.7030
 4469SOL    HW224867   0.114   2.074   3.229  1.6092  1.3110 -0.6709
 4470SOL     OW24868   0.564   1.676   8.589  0.3800  0.5221 -0.2764
 4470SOL    HW124869   0.584   1.589   8.557 -0.7785  0.2662 -0.2982
 4470SOL    HW224870   0.527   1.726   8.517  2.1527 -1.0715 -2.2696
 4471SOL     OW24871   4.086   2.809   5.506 -0.5129 -0.1353 -0.1010
 4471SOL    HW124872   4.011   2.869   5.505 -0.6897 -0.3457  1.7848
 4471SOL    HW224873   4.107   2.805   5.599  1.8337 -2.0706 -0.7355
 4472SOL     OW24874   0.280   1.681   6.154 -0.3764  0.2407  0.2147
 4472SOL    HW124875   0.227   1.667   6.075  0.7467  1.7719 -0.8030
 4472SOL    HW224876   0.358   1.719   6.114  0.5955 -0.4625  1.4351
 4473SOL     OW24877   3.618   1.857   6.150  0.4234 -0.5739  0.3588
 4473SOL    HW124878   3.667   1.936   6.175 -0.1623 -0.5226  1.3334
 4473SOL    HW224879   3.690   1.794   6.136  0.5513 -0.3886  0.1716
 4474SOL     OW24880   1.642   1.328   6.905  0.1654 -0.3456  0.0574
 4474SOL    HW124881   1.630   1.281   6.822  0.2094  2.3125 -1.4619
 4474SOL    HW224882   1.624   1.417   6.873 -0.8458 -1.5286 -2.7237
 4475SOL     OW24883   0.188   0.568   9.571 -0.1862 -0.4067  0.0017
 4475SOL    HW124884   0.156   0.620   9.645 -0.1609  0.4443 -0.5883
 4475SOL    HW224885   0.159   0.623   9.499  1.6848 -0.9792 -1.1902
 4476SOL     OW24886   2.007   0.742   4.575 -0.0560  0.4558  0.1965
 4476SOL    HW124887   1.927   0.690   4.567 -1.0305  2.3567 -2.7159
 4476SOL    HW224888   2.022   0.783   4.490  0.3052 -1.1984 -0.5256
 4477SOL     OW24889   3.416   1.839   6.527 -0.4398 -0.5145  0.2730
 4477SOL    HW124890   3.332   1.795   6.541  1.2616 -3.6429  0.8196
 4477SOL    HW224891   3.416   1.901   6.599 -1.2831 -1.8420  1.4212
 4478SOL     OW24892   2.009   0.862  16.531 -0.2060 -0.5475  0.0388
 4478SOL    HW124893   2.055   0.944  16.510  0.5480 -0.5974  1.4750
 4478SOL    HW224894   2.014   0.816  16.447 -1.2992  0.0453 -0.3561
 4479SOL     OW24895   0.615   2.339  11.534  0.0821  0.1391  0.4568
 4479SOL    HW124896   0.594   2.248  11.515  1.0436  0.6160 -2.9500
 4479SOL    HW224897   0.529   2.381  11.529 -0.4112 -0.8683  0.5076
 4480SOL     OW24898   1.649   2.486   5.970  0.3706 -0.6560 -0.5313
 4480SOL    HW124899   1.606   2.540   6.036  2.7617  1.8597 -1.0375
 4480SOL    HW224900   1.730   2.537   5.966 -1.0464  1.5711 -0.6361
 4481SOL     OW24901   3.543   0.777   2.388  0.3493  0.0506  0.1990
 4481SOL    HW124902   3.556   0.688   2.420  3.2259 -0.2305 -1.8176
 4481SOL    HW224903   3.449   0.774   2.405  0.2453 -1.3939 -0.6242
 4482SOL     OW24904   3.363   1.332  11.278  0.6099  0.3918 -0.4813
 4482SOL    HW124905   3.458   1.348  11.269  0.4772  1.3965 -0.1003
 4482SOL    HW224906   3.325   1.389  11.211 -1.0901 -2.1737 -1.6936
 4483SOL     OW24907   0.349   1.402   0.161 -0.7647  0.3720 -0.3812
 4483SOL    HW124908   0.380   1.337   0.225 -0.1209 -0.2300 -1.2981
 4483SOL    HW224909   0.368   1.481   0.211 -1.0455  1.5701 -2.1708
 4484SOL     OW24910   1.615   0.102  13.442  0.3226  0.4074  0.1103
 4484SOL    HW124911   1.608   0.040  13.370  1.7118  0.1822  0.1855
 4484SOL    HW224912   1.541   0.079  13.499 -0.4508  2.4578 -0.0590
 4485SOL     OW24913   1.399   0.930   7.264 -0.0479  0.4080 -0.1966
 4485SOL    HW124914   1.328   0.931   7.327 -0.7427 -0.6642 -0.9590
 4485SOL    HW224915   1.399   0.839   7.235  0.8904  0.4698 -0.4068
 4486SOL     OW24916   4.311   4.250  15.205 -0.6754  0.2789  0.7858
 4486SOL    HW124917   4.380   4.186  15.223 -1.2374 -0.9346 -1.3470
 4486SOL    HW224918   4.241   4.196  15.168  0.5421 -0.2803 -0.7421
 4487SOL     OW24919   2.503   2.193   6.666 -0.2868 -0.6137  0.3031
 4487SOL    HW124920   2.583   2.149   6.694 -0.3404 -1.6081 -1.1124
 4487SOL    HW224921   2.538   2.233   6.587 -0.7133 -0.9994 -0.0803
 4488SOL     OW24922   4.408   4.286  11.955  0.0264 -0.5836  0.0298
 4488SOL    HW124923   4.407   4.367  11.904 -0.5715 -0.8424 -0.3607
 4488SOL    HW224924   4.319   4.254  11.941  0.4493 -2.5904  1.9668
 4489SOL     OW24925   4.165   1.036   7.251 -0.2565  0.1418 -0.3474
 4489SOL    HW124926   4.103   1.106   7.272 -0.0477  0.4666 -0.8042
 4489SOL    HW224927   4.249   1.073   7.278  0.3177  0.5338 -2.6825
 4490SOL     OW24928   2.383   1.139   0.542  0.3762  0.0389  0.0576
 4490SOL    HW124929   2.466   1.186   0.547  2.0805 -2.7195 -1.7679
 4490SOL    HW224930   2.335   1.208   0.496  1.1906  0.6162  0.0780
 4491SOL     OW24931   3.538   3.473   2.789  0.1093  0.3712 -0.2638
 4491SOL    HW124932   3.584   3.434   2.714 -1.2475 -0.5994 -0.5986
 4491SOL    HW224933   3.474   3.530   2.746 -0.2398  0.0564 -0.1654
 4492SOL     OW24934   4.353   3.095  16.159  0.1842 -0.2748 -0.2338
 4492SOL    HW124935   4.260   3.085  16.135 -0.4956  0.1409  2.1766
 4492SOL    HW224936   4.354   3.120  16.252 -0.6931 -1.1785  0.0301
 4493SOL     OW24937   1.844   1.649   2.531 -0.4081 -0.1225  0.2922
 4493SOL    HW124938   1.755   1.660   2.497 -0.1174 -1.1330 -0.8045
 4493SOL    HW224939   1.895   1.715   2.485 -0.8727  1.3712  1.9102
 4494SOL     OW24940   2.429   3.865   5.231  0.1142 -0.2226 -0.5507
 4494SOL    HW124941   2.399   3.917   5.156  0.2602  0.1428 -0.3598
 4494SOL    HW224942   2.487   3.805   5.185  0.1683  0.3882 -1.2982
 4495SOL     OW24943   2.444   1.909   2.302 -0.5575  0.5391  0.2052
 4495SOL    HW124944   2.468   1.973   2.368 -0.0454  0.5404  0.0259
 4495SOL    HW224945   2.453   1.824   2.346 -1.3131  0.2555 -0.1832
 4496SOL     OW24946   0.482   2.733   5.972 -0.1311  0.2445  0.0110
 4496SOL    HW124947   0.386   2.734   5.972 -0.1627 -2.7065  1.4509
 4496SOL    HW224948   0.482   2.641   5.997  0.2274 -0.3065 -2.0925
 4497SOL     OW24949   4.144   3.921   6.509  0.1802  0.0468  0.3798
 4497SOL    HW124950   4.204   3.850   6.488 -0.5433 -1.0171  1.8303
 4497SOL    HW224951   4.064   3.871   6.526  0.0221 -0.4675 -1.9106
 4498SOL     OW24952   3.734   3.770  14.220 -0.5101 -0.6746  0.3342
 4498SOL    HW124953   3.677   3.840  14.189 -1.8773 -0.7176  2.7266
 4498SOL    HW224954   3.803   3.787  14.156 -0.5138  1.0820  0.8069
 4499SOL     OW24955   3.453   1.847   3.860  0.6309  0.2367  0.3975
 4499SOL    HW124956   3.486   1.873   3.774 -1.5130  0.9991 -0.2069
 4499SOL    HW224957   3.438   1.935   3.894  2.2103  0.7112 -0.1121
 4500SOL     OW24958   2.101   1.273   7.678  1.0368 -0.4924  0.5942
 4500SOL    HW124959   2.060   1.312   7.601  2.1638  1.2169  0.8467
 4500SOL    HW224960   2.088   1.335   7.750  1.6948  0.1569  0.1543
 4501SOL     OW24961   1.189   3.880  13.170 -0.1712  0.2560 -0.3049
 4501SOL    HW124962   1.132   3.946  13.130  0.6494 -0.9773 -3.5379
 4501SOL    HW224963   1.183   3.812  13.103  0.6100  0.6358 -0.7690
 4502SOL     OW24964   2.023   3.463  10.702 -0.5402 -0.3009  0.1580
 4502SOL    HW124965   1.960   3.531  10.682  1.7936  2.9634  4.0449
 4502SOL    HW224966   2.062   3.450  10.615  0.5188  1.1145  0.4167
 4503SOL     OW24967   4.420   4.415   1.523 -0.0021  0.4136 -0.3227
 4503SOL    HW124968   4.479   4.439   1.452  0.0536  5.1047  1.2801
 4503SOL    HW224969   4.345   4.471   1.499 -0.5943 -0.1998  0.0997
 4504SOL     OW24970   2.596   2.266   5.023  0.6292  0.0831  0.2661
 4504SOL    HW124971   2.557   2.181   5.001 -2.8240  1.5592  0.6721
 4504SOL    HW224972   2.581   2.315   4.942 -0.5010 -0.6652  0.0143
 4505SOL     OW24973   0.924   2.493   7.511 -0.1467 -0.4107 -0.5478
 4505SOL    HW124974   0.995   2.523   7.454  0.6681  0.4718  0.8987
 4505SOL    HW224975   0.850   2.518   7.457  0.3798 -1.6340 -1.8188
 4506SOL     OW24976   1.376   3.315  10.150  0.6168  0.7475  0.4878
 4506SOL    HW124977   1.389   3.388  10.091 -1.5636  2.1851  1.7623
 4506SOL    HW224978   1.299   3.352  10.195  1.1057  2.1921  0.1359
 4507SOL     OW24979   0.613   0.925  11.641 -0.0160  0.1389  0.2986
 4507SOL    HW124980   0.573   0.867  11.576  0.0735  0.7606 -0.3159
 4507SOL    HW224981   0.559   0.903  11.716  0.3678 -1.2296  0.1850
 4508SOL     OW24982   2.394   4.401   0.548  0.5986  0.4449 -0.1902
 4508SOL    HW124983   2.451   4.375   0.620 -1.0287 -0.0136  0.9388
 4508SOL    HW224984   2.336   4.459   0.598  1.2639  0.0813  1.0008
 4509SOL     OW24985   1.212   4.681   4.743  0.2913 -0.2746 -0.1003
 4509SOL    HW124986   1.222   4.708   4.652  1.8865  0.2138  0.2144
 4509SOL    HW224987   1.232   0.036   4.795  1.5766 -0.1221 -0.8326
 4510SOL     OW24988   2.126   0.410   2.113  0.5234  0.1779 -0.0859
 4510SOL    HW124989   2.077   0.490   2.096 -0.6518 -0.6419 -0.5097
 4510SOL    HW224990   2.205   0.430   2.063 -0.0414 -0.9949 -1.4317
 4511SOL     OW24991   0.649   1.111   8.118  0.1809  0.3708  0.2778
 4511SOL    HW124992   0.710   1.136   8.048  1.0949 -0.8275  0.6583
 4511SOL    HW224993   0.704   1.093   8.194  2.9791  0.2409 -1.7832
 4512SOL     OW24994   4.286   0.552   5.797  0.2568 -0.2226  0.4988
 4512SOL    HW124995   4.278   0.501   5.877  0.9945  0.2756  0.8877
 4512SOL    HW224996   4.250   0.491   5.732 -0.2445  0.4621  0.1316
 4513SOL     OW24997   3.470   4.020   2.556 -0.2478 -0.0588 -0.0542
 4513SOL    HW124998   3.499   3.931   2.577  0.0851 -0.0367 -0.4235
 4513SOL    HW224999   3.527   4.027   2.480  0.2225  0.3761  0.3390
 4514SOL     OW25000   1.914   3.484   2.402 -0.1367 -0.6697  0.0547
 4514SOL    HW125001   1.929   3.548   2.332  0.6404  1.1446  1.8610
 4514SOL    HW225002   1.825   3.508   2.430  0.8509  3.3755 -0.2708
 4515SOL     OW25003   0.736   3.437   6.595 -0.1059 -0.3985 -0.5195
 4515SOL    HW125004   0.674   3.366   6.581  0.2513 -0.8007 -0.0910
 4515SOL    HW225005   0.702   3.505   6.537  0.2368  0.2645  0.0487
 4516SOL     OW25006   0.296   3.988   9.503 -0.0410  0.4799 -0.0745
 4516SOL    HW125007   0.242   4.060   9.470 -0.5868  0.4384  0.7308
 4516SOL    HW225008   0.249   3.954   9.579  1.4795 -0.8486  0.2709
 4517SOL     OW25009   4.193   0.358   2.507  0.3162 -0.3268  0.5813
 4517SOL    HW125010   4.167   0.303   2.433 -0.8009  1.6137 -0.4522
 4517SOL    HW225011   4.282   0.326   2.524  1.8128  0.8139 -5.1476
 4518SOL     OW25012   1.023   1.132   6.992 -0.3246  0.1127  0.1620
 4518SOL    HW125013   1.092   1.114   7.055 -0.4298 -1.7366 -0.2338
 4518SOL    HW225014   1.039   1.218   6.954 -0.9872  0.5575  0.8895
 4519SOL     OW25015   0.751   3.948   3.284 -0.1054  0.3985 -0.3025
 4519SOL    HW125016   0.827   3.992   3.321  0.4543 -1.3332  0.6247
 4519SOL    HW225017   0.688   3.971   3.353  0.5501  4.2985 -1.0066
 4520SOL     OW25018   2.059   1.106   4.324  1.1155  0.5238 -0.0289
 4520SOL    HW125019   2.130   1.079   4.265  0.3590 -0.2899 -0.5724
 4520SOL    HW225020   1.977   1.101   4.275  1.8817 -2.6707 -0.9947
 4521SOL     OW25021   2.556   4.699   1.650  0.0254 -0.5047  0.1008
 4521SOL    HW125022   2.478   4.643   1.648 -0.0643 -0.3984  0.4430
 4521SOL    HW225023   2.617   4.627   1.635  1.0201  0.5888 -1.0083
 4522SOL     OW25024   4.694   0.982   1.003 -0.4550 -0.1694 -0.0560
 4522SOL    HW125025   4.723   1.032   1.078 -0.0479  0.2854 -0.5173
 4522SOL    HW225026   0.052   0.942   0.972 -1.4169 -2.1400 -0.1084
 4523SOL     OW25027   1.756   1.693   3.750 -0.3161 -0.4212 -0.9488
 4523SOL    HW125028   1.678   1.637   3.762 -0.0295 -0.5711  0.1881
 4523SOL    HW225029   1.731   1.783   3.730 -1.2641 -0.3383  0.5506
 4524SOL     OW25030   1.253   4.269   2.957 -0.1122 -0.1456 -0.4690
 4524SOL    HW125031   1.317   4.301   2.893 -0.5622  1.8519  0.0549
 4524SOL    HW225032   1.282   4.303   3.041  0.0493 -2.4195  0.3818
 4525SOL     OW25033   4.466   4.231   4.563 -0.7009 -0.2213 -0.2179
 4525SOL    HW125034   4.465   4.253   4.656 -0.8270  3.0863 -0.9879
 4525SOL    HW225035   4.551   4.186   4.557 -0.6465 -0.1505  0.0103
 4526SOL     OW25036   0.001   2.964   2.192  0.2244  0.3849  0.3977
 4526SOL    HW125037   0.041   3.046   2.163  1.0911 -0.0239  0.4264
 4526SOL    HW225038   4.665   2.940   2.122 -1.4466  0.7954  1.6839
 4527SOL     OW25039   4.167   0.200   8.953  0.2605 -0.0058 -0.3157
 4527SOL    HW125040   4.099   0.135   8.973  0.7025 -0.0650  0.9694
 4527SOL    HW225041   4.244   0.143   8.954 -0.7007 -1.2846  1.8639
 4528SOL     OW25042   2.253   3.785   7.738  0.0388  0.9887 -0.0692
 4528SOL    HW125043   2.315   3.773   7.810 -1.1478 -0.5133  0.7012
 4528SOL    HW225044   2.221   3.873   7.759 -1.1246  0.5065  0.1869
 4529SOL     OW25045   0.932   3.558   7.226  0.0853 -0.2101  0.0346
 4529SOL    HW125046   0.975   3.590   7.306  0.0768  0.4026 -0.2043
 4529SOL    HW225047   0.898   3.472   7.250 -1.0139 -0.4846 -2.5436
 4530SOL     OW25048   0.021   3.255   2.601  0.3405 -0.2773 -0.2328
 4530SOL    HW125049   0.027   3.290   2.512 -2.6494 -2.0353 -1.1385
 4530SOL    HW225050   4.715   3.167   2.576  1.1445 -0.6742  0.2101
 4531SOL     OW25051   0.543   3.220  14.591  0.7877  0.5433  0.4002
 4531SOL    HW125052   0.534   3.198  14.498  4.4974  1.5313 -0.2076
 4531SOL    HW225053   0.473   3.286  14.599 -1.8372 -2.1045 -0.8702
 4532SOL     OW25054   0.837   3.955   8.416 -0.2100  0.0152  0.4165
 4532SOL    HW125055   0.791   3.903   8.482 -2.4893 -0.9624 -1.9316
 4532SOL    HW225056   0.848   4.031   8.473  1.9935 -0.0077  0.0063
 4533SOL     OW25057   2.716   1.959   6.832  0.6376  0.7457 -0.2053
 4533SOL    HW125058   2.735   1.966   6.738  0.2467  0.4535 -0.3082
 4533SOL    HW225059   2.807   1.970   6.859  1.3030 -0.4826 -1.9389
 4534SOL     OW25060   2.781   1.180   8.311 -0.5718  0.2420  0.3074
 4534SOL    HW125061   2.749   1.112   8.370  2.8807 -0.7601  1.0302
 4534SOL    HW225062   2.847   1.221   8.366 -2.1256  1.3505  1.3313
 4535SOL     OW25063   1.278   2.861  14.216  0.5284  0.3155 -0.1535
 4535SOL    HW125064   1.323   2.787  14.174  0.9996  0.9825 -0.8266
 4535SOL    HW225065   1.332   2.935  14.190  1.8560 -0.7861 -0.5615
 4536SOL     OW25066   3.944   4.417   3.598  0.0214 -0.6033 -0.4273
 4536SOL    HW125067   3.880   4.359   3.640 -0.7915  1.3422  0.9913
 4536SOL    HW225068   3.965   4.371   3.516  0.8486 -0.9379 -0.0304
 4537SOL     OW25069   3.691   1.404   4.250  0.7200 -0.3251  0.2213
 4537SOL    HW125070   3.705   1.411   4.156 -0.3258 -1.0148  0.0070
 4537SOL    HW225071   3.719   1.487   4.288  1.9733 -1.2467  1.2949
 4538SOL     OW25072   1.232   2.892   4.682  0.1136  0.0412  0.5675
 4538SOL    HW125073   1.317   2.866   4.649  0.4942  0.3090  1.3393
 4538SOL    HW225074   1.244   2.901   4.776 -0.2798 -0.9551  0.7131
 4539SOL     OW25075   1.538   0.659  15.280  0.3228  0.0399  0.3035
 4539SOL    HW125076   1.545   0.664  15.376  1.8093  0.1258  0.1912
 4539SOL    HW225077   1.629   0.646  15.257  0.3367  1.1409 -0.2588
 4540SOL     OW25078   4.027   0.282   8.661 -0.0864  0.1785  0.1532
 4540SOL    HW125079   3.951   0.257   8.715 -0.5029 -0.5891 -0.7716
 4540SOL    HW225080   4.088   0.282   8.734 -0.0981  2.3844  0.1622
 4541SOL     OW25081   3.189   0.199   2.371  0.4936 -0.1164 -0.4020
 4541SOL    HW125082   3.191   0.257   2.295 -1.4545 -0.3558 -0.6372
 4541SOL    HW225083   3.272   0.230   2.408  0.2074  0.7471 -0.4775
 4542SOL     OW25084   1.532   1.677   8.103 -0.2420  0.5095 -0.1353
 4542SOL    HW125085   1.451   1.692   8.152  1.3416 -0.4573  2.8167
 4542SOL    HW225086   1.588   1.701   8.177  0.7834  0.7867 -1.0084
 4543SOL     OW25087   3.826   0.029   7.240 -0.5726 -0.1900 -0.0086
 4543SOL    HW125088   3.765   4.692   7.281  0.9527 -2.3963 -1.0254
 4543SOL    HW225089   3.765   0.094   7.204 -0.1835  0.4555  0.5001
 4544SOL     OW25090   3.004   3.301   0.741 -0.4100 -0.3240 -0.4365
 4544SOL    HW125091   3.090   3.324   0.705 -0.3015  0.9630  0.6374
 4544SOL    HW225092   2.966   3.387   0.761  1.5919  0.4245  0.1807
 4545SOL     OW25093   0.206   4.021  10.560  0.1511 -0.2800  0.0303
 4545SOL    HW125094   0.154   3.958  10.511  0.7568 -0.7652  0.0182
 4545SOL    HW225095   0.178   4.012  10.652  2.1102  0.0098  0.6535
 4546SOL     OW25096   2.356   2.078   7.055 -0.3402 -0.0690 -0.4183
 4546SOL    HW125097   2.329   2.100   6.966 -2.0678  0.4443  0.2265
 4546SOL    HW225098   2.424   2.015   7.031  0.5478  0.5900  0.3860
 4547SOL     OW25099   0.105   3.650   3.650  0.7499 -0.5687  0.3756
 4547SOL    HW125100   0.156   3.699   3.585  1.1539 -1.5219 -0.0425
 4547SOL    HW225101   0.092   3.572   3.595  0.1441 -1.5214  1.8577
 4548SOL     OW25102   0.792   2.755   5.410 -0.2010  0.4555 -0.1355
 4548SOL    HW125103   0.887   2.758   5.417 -0.3726  1.8127  1.6358
 4548SOL    HW225104   0.774   2.693   5.339 -0.5111  2.6607 -1.9767
 4549SOL     OW25105   0.282   3.368   2.598  0.0020  0.4790  0.4449
 4549SOL    HW125106   0.348   3.302   2.619  1.0248  1.3354 -0.0854
 4549SOL    HW225107   0.201   3.319   2.614 -1.5795  2.9699 -0.0420
 4550SOL     OW25108   4.158   1.456  17.420 -0.0624 -0.0047 -0.4416
 4550SOL    HW125109   4.190   1.408  17.496 -0.2955 -0.0160 -0.3492
 4550SOL    HW225110   4.064   1.444  17.432 -0.1420 -1.1776 -2.2795
 4551SOL     OW25111   3.535   1.954  12.118 -0.2598 -0.0595 -0.1833
 4551SOL    HW125112   3.502   1.873  12.080 -1.1121  0.3223 -0.2753
 4551SOL    HW225113   3.626   1.936  12.139 -0.3783 -0.1422  0.2530
 4552SOL     OW25114   3.391   2.242  11.868 -0.5475  0.3427 -0.1502
 4552SOL    HW125115   3.307   2.288  11.871 -0.9522 -0.4215  0.4269
 4552SOL    HW225116   3.363   2.155  11.839  0.3540 -0.4263  1.3031
 4553SOL     OW25117   2.848   0.781   7.173  0.5677  0.3223  0.0059
 4553SOL    HW125118   2.882   0.817   7.091 -1.0790  0.6356 -0.5386
 4553SOL    HW225119   2.782   0.847   7.194  0.2017 -0.2344  0.6108
 4554SOL     OW25120   2.026   1.671  13.531 -0.4255  0.1150 -0.3482
 4554SOL    HW125121   2.023   1.672  13.435  0.0554  0.8899 -0.3519
 4554SOL    HW225122   1.931   1.677  13.540 -0.2341 -0.4373  2.0657
 4555SOL     OW25123   0.375   1.592  14.455 -0.2222 -0.1052  0.4081
 4555SOL    HW125124   0.457   1.642  14.458  0.2623 -0.9415  1.2776
 4555SOL    HW225125   0.325   1.641  14.390  0.0165 -1.0725 -0.5088
 4556SOL     OW25126   0.747   4.134   1.547 -0.6837  0.4122  0.3528
 4556SOL    HW125127   0.715   4.192   1.478  1.3108 -0.8559 -1.5902
 4556SOL    HW225128   0.820   4.182   1.586  0.8391 -1.6789  0.0187
 4557SOL     OW25129   4.474   3.867   5.041 -0.5575  0.3815  0.5039
 4557SOL    HW125130   4.503   3.778   5.020 -2.2667 -0.0525  0.0183
 4557SOL    HW225131   4.385   3.860   5.007 -0.4180 -0.2761  0.2672
 4558SOL     OW25132   1.262   2.717  15.817  0.4250 -0.2161  0.4752
 4558SOL    HW125133   1.315   2.657  15.764 -1.4397 -0.7702 -0.7791
 4558SOL    HW225134   1.183   2.668  15.837  0.1066  1.5398  3.3970
 4559SOL     OW25135   3.764   4.482   0.747 -0.0154  0.7143 -0.1721
 4559SOL    HW125136   3.710   4.561   0.739  0.1580  1.0293  1.7956
 4559SOL    HW225137   3.698   4.418   0.775  1.3167 -1.0051 -0.9497
 4560SOL     OW25138   1.438   0.938   5.449 -0.6199  0.5093 -0.8287
 4560SOL    HW125139   1.394   1.001   5.391 -1.3546 -0.9607 -1.8700
 4560SOL    HW225140   1.401   0.973   5.529  1.5853 -0.6575  0.7045
 4561SOL     OW25141   0.793   1.683   3.150  0.7575  0.8506 -0.2203
 4561SOL    HW125142   0.709   1.686   3.104  0.1510 -1.2351  0.7009
 4561SOL    HW225143   0.772   1.665   3.242 -0.2209  0.8520 -0.4423
 4562SOL     OW25144   4.506   3.966  15.376  0.4257 -0.1297  0.1644
 4562SOL    HW125145   4.475   3.984  15.287 -0.8924  1.5018  0.9564
 4562SOL    HW225146   4.581   3.912  15.350 -0.2204 -0.6207 -0.6814
 4563SOL     OW25147   4.103   3.584   7.233 -0.1644  0.5382 -0.1777
 4563SOL    HW125148   4.030   3.533   7.268 -0.9071  1.9634  0.3727
 4563SOL    HW225149   4.063   3.619   7.154 -1.7487 -0.2781  0.2478
 4564SOL     OW25150   1.180   1.497   0.004 -0.7617 -0.0627  0.2527
 4564SOL    HW125151   1.152   1.536   0.086  0.8921  0.5026  0.5498
 4564SOL    HW225152   1.123   1.422  17.684  0.3730 -0.4186 -2.0354
 4565SOL     OW25153   2.697   1.327   7.037  0.5343  0.8773 -0.7423
 4565SOL    HW125154   2.660   1.317   7.124  1.7752  0.0178 -0.3186
 4565SOL    HW225155   2.647   1.254   6.999  2.4152 -0.8671  0.1230
 4566SOL     OW25156   2.599   2.995  15.243 -0.0640 -0.2843  0.0636
 4566SOL    HW125157   2.650   3.064  15.199  0.3735 -1.9779 -2.0718
 4566SOL    HW225158   2.524   3.041  15.281  0.0903  0.0257 -0.0092
 4567SOL     OW25159   1.940   3.961  13.521 -0.1361 -0.2845 -0.0350
 4567SOL    HW125160   1.967   4.016  13.447  1.6513 -1.4203 -0.2223
 4567SOL    HW225161   1.912   3.882  13.474 -0.4074 -0.3885  0.2999
 4568SOL     OW25162   1.516   0.904   6.465  0.3032 -0.4760  0.1520
 4568SOL    HW125163   1.584   0.969   6.481 -1.0653  0.8612  0.4361
 4568SOL    HW225164   1.458   0.918   6.539 -0.1590  1.6232 -0.6132
 4569SOL     OW25165   4.208   0.604  14.501  0.2688 -0.7608 -0.0358
 4569SOL    HW125166   4.197   0.589  14.595  2.2484  0.0405  0.3092
 4569SOL    HW225167   4.255   0.523  14.481  0.2373 -0.5898 -0.7728
 4570SOL     OW25168   3.606   0.774   5.913  0.0470  0.2263  0.5396
 4570SOL    HW125169   3.538   0.757   5.848  0.8429  3.1006 -1.0591
 4570SOL    HW225170   3.633   0.683   5.928  0.8116  0.2305 -0.7925
 4571SOL     OW25171   0.352   4.471  13.663 -0.0590  0.0200 -0.7645
 4571SOL    HW125172   0.447   4.473  13.654  0.2757 -2.0434  2.4222
 4571SOL    HW225173   0.345   4.488  13.757 -0.9979  0.3706 -0.8980
 4572SOL     OW25174   4.241   0.145  10.389 -0.0629 -0.4486 -0.3254
 4572SOL    HW125175   4.200   0.062  10.364  1.4082 -1.0106 -0.8899
 4572SOL    HW225176   4.324   0.143  10.341 -0.8609  1.2451 -1.7724
 4573SOL     OW25177   1.800   4.552   2.791 -0.5364 -0.3594 -0.1891
 4573SOL    HW125178   1.825   4.472   2.745  0.4810  0.0065 -0.2581
 4573SOL    HW225179   1.808   4.618   2.723 -3.7221  0.7915  0.5289
 4574SOL     OW25180   0.533   4.267   9.510 -0.3198  0.0463 -0.0315
 4574SOL    HW125181   0.559   4.353   9.543  0.2492 -0.8624  1.8885
 4574SOL    HW225182   0.470   4.252   9.580 -0.9384 -1.0361 -0.8370
 4575SOL     OW25183   3.071   3.017  12.820 -0.4427  0.1999 -0.0817
 4575SOL    HW125184   3.105   3.097  12.779 -0.5123  0.2081 -0.1231
 4575SOL    HW225185   3.054   2.958  12.747  1.0195 -0.5479  0.1835
 4576SOL     OW25186   0.275   1.808  11.555 -0.2470 -0.1211  0.3581
 4576SOL    HW125187   0.191   1.766  11.572 -1.3599  1.6871 -0.6943
 4576SOL    HW225188   0.260   1.845  11.468 -1.3724  0.8765  0.9660
 4577SOL     OW25189   2.585   3.227   9.230  0.4863 -1.0883 -0.5489
 4577SOL    HW125190   2.500   3.184   9.241 -0.4583  0.8720 -0.2154
 4577SOL    HW225191   2.611   3.199   9.142 -0.1617  2.4298 -1.8440
 4578SOL     OW25192   4.187   1.895   0.519  0.1424 -0.3586 -0.1588
 4578SOL    HW125193   4.127   1.969   0.524  1.8544  1.0841 -0.8565
 4578SOL    HW225194   4.275   1.932   0.505  0.6359 -1.2940  0.5111
 4579SOL     OW25195   0.332   0.446   4.123  0.6716 -0.1283 -0.1591
 4579SOL    HW125196   0.368   0.398   4.048  1.4323  0.3444 -0.0978
 4579SOL    HW225197   0.405   0.504   4.147  0.6636  0.0351 -0.5182
 4580SOL     OW25198   4.610   2.650  14.145  0.6570  0.1049  0.5676
 4580SOL    HW125199   4.704   2.649  14.164  1.2705 -2.1178 -2.5867
 4580SOL    HW225200   4.604   2.577  14.083  0.6364  0.6006 -0.0197
 4581SOL     OW25201   3.603   3.650   8.178  0.6810 -0.0116 -0.3976
 4581SOL    HW125202   3.657   3.572   8.187 -0.5392 -0.5512  2.2441
 4581SOL    HW225203   3.666   3.721   8.192  0.0633  0.3680  0.5247
 4582SOL     OW25204   2.586   0.230   3.982  0.3024  0.0441  0.0943
 4582SOL    HW125205   2.619   0.160   4.038  2.0121  0.8988  0.1187
 4582SOL    HW225206   2.552   0.166   3.919 -1.9743 -1.0852  2.4514
 4583SOL     OW25207   2.994   0.491   8.939 -0.5117  0.1168 -0.0899
 4583SOL    HW125208   3.043   0.454   8.865  1.2308 -2.3985  2.3041
 4583SOL    HW225209   2.903   0.494   8.912 -0.0358 -0.7056 -1.8040
 4584SOL     OW25210   3.869   1.433   9.587 -0.0568 -0.2118 -0.3946
 4584SOL    HW125211   3.822   1.368   9.639 -1.0366  1.4233  0.7770
 4584SOL    HW225212   3.794   1.470   9.539  2.4099  1.0107 -3.3013
 4585SOL     OW25213   0.757   1.030  13.791  0.0396 -0.5276 -0.9727
 4585SOL    HW125214   0.806   1.071  13.720  2.0724 -0.8815  0.2014
 4585SOL    HW225215   0.675   1.077  13.785  0.0866 -0.5227 -1.5304
 4586SOL     OW25216   0.091   2.827  11.956 -0.0434  0.7774  0.2904
 4586SOL    HW125217   0.158   2.764  11.981 -1.2493 -0.1316  1.2307
 4586SOL    HW225218   0.137   2.903  11.992  1.7794 -0.2537  0.0952
 4587SOL     OW25219   2.057   1.900  11.424  0.2213 -0.6198 -0.2874
 4587SOL    HW125220   2.003   1.828  11.391  1.6492 -1.1943 -1.3297
 4587SOL    HW225221   2.102   1.920  11.342  1.0792 -0.4554  0.2183
 4588SOL     OW25222   0.345   2.164   8.389 -0.7689  0.3022  0.0103
 4588SOL    HW125223   0.437   2.168   8.362  0.3963 -2.4036  3.6852
 4588SOL    HW225224   0.352   2.131   8.478  2.8205  1.1255  0.0258
 4589SOL     OW25225   3.840   0.327   4.776 -0.4702  0.0818  0.3920
 4589SOL    HW125226   3.749   0.348   4.755 -0.9188 -3.4740 -1.2655
 4589SOL    HW225227   3.878   0.359   4.694  1.2946 -0.9616  0.7967
 4590SOL     OW25228   4.359   1.817   2.043 -0.3501 -0.5957  0.0451
 4590SOL    HW125229   4.387   1.908   2.030  1.4201 -1.2489 -0.6583
 4590SOL    HW225230   4.279   1.809   1.990 -0.2061 -3.1991  0.2112
 4591SOL     OW25231   2.306   3.544   8.550 -0.1506  0.3593  0.1348
 4591SOL    HW125232   2.351   3.606   8.609  0.0809  1.7734 -1.5400
 4591SOL    HW225233   2.326   3.587   8.467  0.0012  2.0842  1.0599
 4592SOL     OW25234   3.824   0.744   7.348  0.4523  0.4928 -0.3517
 4592SOL    HW125235   3.791   0.786   7.428 -1.7665 -3.2741  0.6962
 4592SOL    HW225236   3.918   0.759   7.346  0.3122  1.5230  0.4026
 4593SOL     OW25237   2.758   3.196   6.722 -0.3847  0.1936 -0.1112
 4593SOL    HW125238   2.791   3.129   6.781 -1.2267 -1.4550 -1.5143
 4593SOL    HW225239   2.767   3.153   6.637  3.3086 -0.0811  0.3863
 4594SOL     OW25240   3.762   3.918   0.884  0.0595 -0.0762  0.2759
 4594SOL    HW125241   3.745   3.842   0.828 -0.1629  0.4470 -0.3671
 4594SOL    HW225242   3.857   3.931   0.886 -0.1377  1.2620  0.2617
 4595SOL     OW25243   4.471   2.325   1.913 -0.5206  0.1600 -0.0268
 4595SOL    HW125244   4.513   2.355   1.832  3.0479 -1.0269  1.3489
 4595SOL    HW225245   4.400   2.388   1.922 -0.5176  0.4295 -1.9593
 4596SOL     OW25246   0.475   2.240   4.481  0.5575 -0.0504 -0.0599
 4596SOL    HW125247   0.461   2.239   4.575  0.2088  0.2564 -0.1048
 4596SOL    HW225248   0.408   2.304   4.456  1.8821  1.4862  0.2416
 4597SOL     OW25249   1.067   3.853   5.642 -0.3325  0.3132 -0.4696
 4597SOL    HW125250   1.082   3.918   5.573 -0.1589  2.1309  1.2660
 4597SOL    HW225251   1.001   3.806   5.592  0.4581 -1.4981  0.1694
 4598SOL     OW25252   4.288   2.734   0.175  0.2095  0.3920  0.1118
 4598SOL    HW125253   4.271   2.640   0.178  0.3594  0.3861  0.6784
 4598SOL    HW225254   4.214   2.756   0.230  1.7116 -0.9108  2.6872
 4599SOL     OW25255   2.806   1.274   3.895 -0.0383 -0.0021  0.6293
 4599SOL    HW125256   2.893   1.282   3.934 -0.0789  0.5997  0.5988
 4599SOL    HW225257   2.828   1.266   3.802 -1.6048 -1.2524  0.3720
 4600SOL     OW25258   3.982   2.795   3.823  0.5538  0.2291  0.1580
 4600SOL    HW125259   3.970   2.752   3.738  1.3699  0.4937 -0.0912
 4600SOL    HW225260   3.918   2.738   3.865  0.8844 -0.9690 -0.9698
 4601SOL     OW25261   0.667   2.922  14.064  0.2943 -0.0405  0.2781
 4601SOL    HW125262   0.689   2.941  14.155  0.2021  1.6590 -0.0531
 4601SOL    HW225263   0.723   2.985  14.019  2.1276 -1.3499  0.7548
 4602SOL     OW25264   0.297   3.352  14.562  0.0083  0.3234 -0.0651
 4602SOL    HW125265   0.299   3.406  14.641  0.6676  0.1348  0.0480
 4602SOL    HW225266   0.209   3.361  14.526 -1.1539 -2.1420  2.2053
 4603SOL     OW25267   4.627   0.465   9.472 -0.0680  0.3962 -0.6305
 4603SOL    HW125268   4.573   0.543   9.478 -0.7591 -0.0705 -0.7505
 4603SOL    HW225269   4.707   0.492   9.516 -1.9792 -0.5261  3.4869
 4604SOL     OW25270   2.815   3.967   0.983  0.2661  0.3273  0.0376
 4604SOL    HW125271   2.853   3.931   0.902 -1.8105  1.2420 -1.3553
 4604SOL    HW225272   2.781   3.887   1.023  1.8551  0.0815  0.8680
 4605SOL     OW25273   1.654   2.510   5.554  0.0997 -0.1279  0.2000
 4605SOL    HW125274   1.616   2.432   5.596 -2.1204 -0.4141 -2.3121
 4605SOL    HW225275   1.699   2.559   5.623 -3.2367  2.1116  0.7998
 4606SOL     OW25276   3.084   1.472   3.155  0.4645 -0.7503  0.2644
 4606SOL    HW125277   3.054   1.398   3.207 -1.3969 -0.0610  0.1675
 4606SOL    HW225278   3.035   1.461   3.073 -0.2515  0.1622  0.5804
 4607SOL     OW25279   2.772   0.155  11.166  0.4228  0.5177 -0.3849
 4607SOL    HW125280   2.858   0.195  11.157  0.4324  0.0420 -2.3981
 4607SOL    HW225281   2.760   0.164  11.261 -1.8209 -1.1350 -0.5027
 4608SOL     OW25282   3.267   2.966   8.305  0.8523  0.5269  0.3146
 4608SOL    HW125283   3.200   2.915   8.351 -0.2500  0.2169 -1.6717
 4608SOL    HW225284   3.332   2.987   8.372  0.4760  0.1510  0.7978
 4609SOL     OW25285   3.772   3.008  13.554  0.2463  0.2668 -0.3922
 4609SOL    HW125286   3.740   2.976  13.638 -1.1161 -1.2483 -1.4824
 4609SOL    HW225287   3.785   2.925  13.508  0.2354  0.7137 -1.2026
 4610SOL     OW25288   1.372   4.054   4.487  0.4364  0.1675  0.0965
 4610SOL    HW125289   1.343   4.005   4.564  1.0810 -0.7109 -0.2200
 4610SOL    HW225290   1.413   4.130   4.528 -0.7594  1.2467 -0.6858
 4611SOL     OW25291   2.753   2.830   5.614 -0.0881 -0.1177 -0.3918
 4611SOL    HW125292   2.715   2.918   5.607  0.7797  0.3066  0.1024
 4611SOL    HW225293   2.724   2.780   5.538  0.2592 -0.6372 -0.1807
 4612SOL     OW25294   4.279   3.732  15.075  0.5081  0.2701  0.3651
 4612SOL    HW125295   4.185   3.720  15.090 -0.2463  3.0361 -2.1132
 4612SOL    HW225296   4.275   3.729  14.979 -0.0635  0.1571  0.3913
 4613SOL     OW25297   2.480   2.874   8.627  0.2240  0.4512 -0.1055
 4613SOL    HW125298   2.476   2.933   8.703 -1.2912 -1.1275  1.0380
 4613SOL    HW225299   2.576   2.872   8.622  0.2078  0.3782 -0.3854
 4614SOL     OW25300   2.196   1.153   7.027  0.2212  0.1573 -0.1311
 4614SOL    HW125301   2.120   1.210   7.021  0.2503  0.0343 -1.6353
 4614SOL    HW225302   2.162   1.077   7.074 -0.6480  0.2558 -0.5961
 4615SOL     OW25303   3.182   0.872  13.540  0.0211 -0.2479 -0.1545
 4615SOL    HW125304   3.181   0.966  13.559 -0.5579  0.0844 -1.8344
 4615SOL    HW225305   3.219   0.877  13.452  0.1753 -1.0481 -0.1362
 4616SOL     OW25306   3.255   1.669   9.035 -0.1343  0.2985 -0.2882
 4616SOL    HW125307   3.345   1.692   9.010  0.6039 -1.3162  0.8037
 4616SOL    HW225308   3.270   1.658   9.129  0.1721  0.4539 -0.3190
 4617SOL     OW25309   3.106   0.024   7.114 -0.0954 -0.7448 -0.2196
 4617SOL    HW125310   3.097   0.039   7.020 -0.4233  1.0260  0.0857
 4617SOL    HW225311   3.180   0.082   7.133 -2.7227  1.4975  3.1981
 4618SOL     OW25312   4.123   1.267   0.256 -0.3861 -0.0303  0.2952
 4618SOL    HW125313   4.043   1.239   0.212  0.8266 -1.8792 -0.7283
 4618SOL    HW225314   4.076   1.326   0.315  0.0089  1.2636 -0.6753
 4619SOL     OW25315   3.480   3.807  10.221 -0.4283 -0.7318 -0.0256
 4619SOL    HW125316   3.473   3.820  10.127  0.2324  0.9175  0.1607
 4619SOL    HW225317   3.542   3.877  10.241 -1.8433  0.8432 -1.2408
 4620SOL     OW25318   3.225   1.012  14.845 -0.1369  0.1879  0.2524
 4620SOL    HW125319   3.234   0.932  14.896  1.2884 -1.0596 -1.9742
 4620SOL    HW225320   3.280   1.071  14.897 -0.6071  0.8317  0.0191
 4621SOL     OW25321   3.608   3.995  13.836  0.2847 -0.1742 -0.8258
 4621SOL    HW125322   3.516   4.012  13.859  0.2155 -1.5685 -0.0413
 4621SOL    HW225323   3.613   4.073  13.780 -3.9116  0.4744 -0.3080
 4622SOL     OW25324   2.319   3.145   4.683  0.5901 -0.3611 -0.0806
 4622SOL    HW125325   2.261   3.123   4.610 -1.8918  1.8467  1.2132
 4622SOL    HW225326   2.335   3.059   4.721 -2.0939 -1.1233 -0.7331
 4623SOL     OW25327   2.904   4.160   9.457  0.0985 -0.0457 -0.6958
 4623SOL    HW125328   2.845   4.099   9.414 -2.3514  0.8773  1.3574
 4623SOL    HW225329   2.844   4.227   9.489  1.1353  1.3588 -1.6762
 4624SOL     OW25330   2.419   0.400   8.015  0.1535  0.7328 -0.1442
 4624SOL    HW125331   2.427   0.466   8.083  2.4509  0.6895 -0.3720
 4624SOL    HW225332   2.439   0.450   7.936  1.3595 -0.8183 -0.8288
 4625SOL     OW25333   2.116   0.673  11.499 -0.1479 -0.1954 -0.2305
 4625SOL    HW125334   2.089   0.584  11.523 -0.8898  0.0629 -0.0992
 4625SOL    HW225335   2.200   0.666  11.455 -0.2332  1.2683 -0.6175
 4626SOL     OW25336   4.228   0.633   0.778 -0.1911 -0.2534 -0.1927
 4626SOL    HW125337   4.224   0.541   0.805  2.5352 -0.4559 -0.5380
 4626SOL    HW225338   4.193   0.676   0.856 -1.9906 -0.7251 -0.7384
 4627SOL     OW25339   3.379   2.944  15.872 -0.0112 -0.0120  0.2538
 4627SOL    HW125340   3.316   2.880  15.838  1.5892 -1.7326  0.4719
 4627SOL    HW225341   3.316   3.015  15.859  0.2850  0.6011  2.1756
 4628SOL     OW25342   0.727   2.420   5.314  0.1294  0.3657 -0.0048
 4628SOL    HW125343   0.791   2.449   5.249  0.9199  0.6317  0.8920
 4628SOL    HW225344   0.789   2.372   5.368 -0.1309 -0.4265 -0.4100
 4629SOL     OW25345   3.053   2.641   2.891  0.2149 -0.6451  0.4537
 4629SOL    HW125346   3.124   2.704   2.904  0.6746 -1.1355  0.3486
 4629SOL    HW225347   2.988   2.693   2.844  0.1324 -2.1841 -1.1214
 4630SOL     OW25348   3.171   2.866  16.292 -0.1303  0.2073 -0.2545
 4630SOL    HW125349   3.238   2.906  16.348 -0.5321  0.7511 -0.1556
 4630SOL    HW225350   3.217   2.832  16.216 -1.8394  0.6174 -1.4651
 4631SOL     OW25351   0.969   0.838   3.550 -0.0387 -0.1621 -0.0053
 4631SOL    HW125352   0.907   0.784   3.502 -0.9414  1.2007 -0.3765
 4631SOL    HW225353   1.016   0.873   3.474  1.6520 -1.4724  0.4561
 4632SOL     OW25354   2.711   4.429   4.705  0.6799 -0.5441  0.0109
 4632SOL    HW125355   2.789   4.391   4.664  2.7126  2.8600  0.6936
 4632SOL    HW225356   2.655   4.436   4.628 -2.0325 -0.8790  1.9671
 4633SOL     OW25357   4.414   1.456   1.032  0.4729  0.2445  0.2096
 4633SOL    HW125358   4.485   1.397   1.007 -0.4403  0.2766 -2.4063
 4633SOL    HW225359   4.463   1.527   1.075 -1.6569  2.1474 -0.4778
 4634SOL     OW25360   2.928   3.061   0.818 -0.2921  0.2254 -0.0594
 4634SOL    HW125361   2.850   3.078   0.871  0.2057  0.8207  0.4826
 4634SOL    HW225362   2.953   3.151   0.794 -1.5967  0.3210 -1.0200
 4635SOL     OW25363   1.886   3.040   2.025 -0.1922  0.6291 -0.1347
 4635SOL    HW125364   1.810   2.983   2.036  0.1013  0.3345  0.3640
 4635SOL    HW225365   1.863   3.095   1.950  3.2642  1.7981 -0.3526
 4636SOL     OW25366   1.390   4.624  10.737  0.4253  0.2335 -0.1892
 4636SOL    HW125367   1.399   4.713  10.705  1.1588 -0.0637 -0.8193
 4636SOL    HW225368   1.297   4.621  10.759  0.5172  2.2322  0.4632
 4637SOL     OW25369   2.397   0.599  15.442 -0.6237  0.2209  0.3408
 4637SOL    HW125370   2.302   0.597  15.459 -0.2672  0.2128  2.2523
 4637SOL    HW225371   2.409   0.616  15.348 -0.9967 -2.7351 -0.2668
 4638SOL     OW25372   0.262   3.581   5.867 -0.1022 -0.1559 -0.9167
 4638SOL    HW125373   0.307   3.500   5.842 -1.4217 -1.3149  0.4971
 4638SOL    HW225374   0.260   3.572   5.962 -2.5802 -3.6978 -1.3035
 4639SOL     OW25375   4.355   4.633   1.999  0.4713  0.0310  0.2053
 4639SOL    HW125376   4.317   4.691   1.933  0.2334 -1.8075 -1.2583
 4639SOL    HW225377   4.390   4.557   1.952 -1.1996  0.1614 -1.2413
 4640SOL     OW25378   0.093   1.237   7.891  0.1796  0.0749  0.1202
 4640SOL    HW125379   0.116   1.273   7.805  0.3008  2.0586  0.9932
 4640SOL    HW225380   0.174   1.186   7.896  0.3313  0.4828  1.6869
 4641SOL     OW25381   2.768   1.055   3.059  0.2473 -0.3840  0.1211
 4641SOL    HW125382   2.688   1.014   3.025  0.6959 -1.5442  0.4443
 4641SOL    HW225383   2.762   1.048   3.154 -0.2999  1.5405  0.2314
 4642SOL     OW25384   0.856   3.537   5.740 -0.1709  0.2254 -0.0478
 4642SOL    HW125385   0.943   3.563   5.709 -0.3591 -2.4346 -2.8830
 4642SOL    HW225386   0.880   3.448   5.767  2.7801  1.1212  0.2551
 4643SOL     OW25387   0.700   1.774   7.809 -0.0321 -0.8383  0.3963
 4643SOL    HW125388   0.734   1.710   7.872 -1.8889  0.2810  2.5106
 4643SOL    HW225389   0.608   1.748   7.808 -0.3690  0.3268  2.2759
 4644SOL     OW25390   2.401   0.035   7.918  0.2723  0.3945  0.5187
 4644SOL    HW125391   2.346   4.689   7.882 -0.9162  1.6116 -0.0471
 4644SOL    HW225392   2.428   0.080   7.838 -0.2161  0.8558  0.6068
 4645SOL     OW25393   2.440   3.765   7.526 -0.5071  0.2538 -0.2225
 4645SOL    HW125394   2.405   3.781   7.613 -1.7183  1.1621 -0.8705
 4645SOL    HW225395   2.477   3.680   7.550 -2.9033  0.3621  3.8752
 4646SOL     OW25396   2.592   4.675  11.116 -0.0445 -0.0214  0.0682
 4646SOL    HW125397   2.592   4.630  11.200 -0.1221  1.2734  0.7551
 4646SOL    HW225398   2.641   0.031  11.134  0.7533 -0.5925  0.4411
 4647SOL     OW25399   2.113   3.467   6.126 -0.1181  0.2344  0.3335
 4647SOL    HW125400   2.149   3.378   6.118  1.8932  1.1333 -0.3986
 4647SOL    HW225401   2.172   3.528   6.083 -0.8826 -0.7925 -2.1672
 4648SOL     OW25402   2.537   4.379  16.097 -0.3068 -0.0964  0.2330
 4648SOL    HW125403   2.622   4.353  16.062 -0.5469 -2.4220  1.4018
 4648SOL    HW225404   2.476   4.324  16.048 -0.8030  1.3204 -0.7431
 4649SOL     OW25405   2.170   1.222  10.085 -0.1465 -0.3108  0.4748
 4649SOL    HW125406   2.157   1.312  10.116  1.7374  0.6948 -1.6437
 4649SOL    HW225407   2.257   1.224  10.046 -0.3769 -2.1676 -0.1305
 4650SOL     OW25408   1.806   1.053  13.021 -0.8148  0.1817 -0.4887
 4650SOL    HW125409   1.851   0.980  12.978  0.4210  0.3818  0.4447
 4650SOL    HW225410   1.783   1.110  12.948  0.6489  1.7535  0.2625
 4651SOL     OW25411   3.033   1.479   7.104 -0.3083  0.0078 -0.3787
 4651SOL    HW125412   2.978   1.553   7.081  3.5064  3.0927  0.3912
 4651SOL    HW225413   3.069   1.503   7.189  1.2059  1.2350 -1.3597
 4652SOL     OW25414   2.180   3.466   1.379 -0.0345 -0.8799  0.1880
 4652SOL    HW125415   2.122   3.439   1.308 -0.6370  0.2854  0.2380
 4652SOL    HW225416   2.215   3.378   1.394  0.2414 -0.5665  1.4011
 4653SOL     OW25417   0.197   3.493  13.514 -0.2476  0.4854 -0.3620
 4653SOL    HW125418   0.224   3.584  13.496 -0.5439  0.4757 -0.8756
 4653SOL    HW225419   0.236   3.456  13.435  1.4879  1.4023  0.0730
 4654SOL     OW25420   4.258   4.293  12.882  0.1773  0.6259 -0.2290
 4654SOL    HW125421   4.227   4.212  12.841  1.3681 -0.6108  1.3155
 4654SOL    HW225422   4.242   4.274  12.975 -1.6977 -0.9241 -0.8759
 4655SOL     OW25423   0.397   0.187  10.932  0.1159  0.4563  0.3497
 4655SOL    HW125424   0.327   0.230  10.882 -0.0903 -0.0377  0.2073
 4655SOL    HW225425   0.456   0.258  10.959  2.3363 -1.0317 -0.6557
 4656SOL     OW25426   1.748   1.931   4.610 -0.4680 -0.1172  0.1811
 4656SOL    HW125427   1.826   1.876   4.618 -0.2119  0.2901  0.4757
 4656SOL    HW225428   1.783   2.016   4.639  0.1170 -1.5759  3.7847
 4657SOL     OW25429   2.919   2.961  16.530  0.3773 -0.1022  0.0505
 4657SOL    HW125430   2.970   2.984  16.607 -0.9273  0.1063  0.8565
 4657SOL    HW225431   2.882   2.878  16.561  0.1864 -0.2857 -0.6595
 4658SOL     OW25432   0.762   2.318  11.757 -0.5304  0.2440  0.4101
 4658SOL    HW125433   0.827   2.386  11.741  1.6145 -2.5324 -2.5350
 4658SOL    HW225434   0.715   2.310  11.674  1.6518  1.6602 -0.9724
 4659SOL     OW25435   3.356   1.691  12.651 -0.4466  0.4019 -0.4585
 4659SOL    HW125436   3.263   1.710  12.666 -0.8535 -0.5307 -1.7493
 4659SOL    HW225437   3.378   1.757  12.586 -1.5038  0.8149 -0.4084
 4660SOL     OW25438   2.530   1.983  13.316 -0.2405 -0.1230  0.3057
 4660SOL    HW125439   2.601   1.983  13.251  1.3971  0.3830  2.1026
 4660SOL    HW225440   2.583   1.994  13.394 -0.7072 -3.9739  1.1562
 4661SOL     OW25441   0.075   2.766   8.426 -0.2550 -0.3024 -0.5232
 4661SOL    HW125442   0.160   2.728   8.406  0.1874 -0.5502  1.8337
 4661SOL    HW225443   0.023   2.690   8.455 -1.3020 -0.2096 -2.1536
 4662SOL     OW25444   3.691   0.914  15.945 -0.0601 -0.2199 -0.3221
 4662SOL    HW125445   3.768   0.893  15.999 -1.4255 -1.7595  1.0213
 4662SOL    HW225446   3.723   0.975  15.879 -1.2447 -0.0239 -0.7065
 4663SOL     OW25447   3.447   2.432   9.629  0.0167  0.2789 -0.8639
 4663SOL    HW125448   3.536   2.448   9.661 -0.5829 -0.1412  1.0634
 4663SOL    HW225449   3.459   2.365   9.562 -1.6374 -2.0338  1.1404
 4664SOL     OW25450   2.628   1.639   4.698  0.2250 -0.3227  0.4936
 4664SOL    HW125451   2.579   1.706   4.651  0.5662 -1.5500 -1.6076
 4664SOL    HW225452   2.605   1.565   4.642  0.2415  0.8354 -1.0559
 4665SOL     OW25453   0.435   0.669   0.454  0.0292  0.0507  0.0239
 4665SOL    HW125454   0.373   0.597   0.459  0.3561 -0.3288 -1.6686
 4665SOL    HW225455   0.394   0.741   0.502 -0.3327  0.2180 -0.5476
 4666SOL     OW25456   0.619   2.724   3.315 -0.3223 -0.7620  0.0263
 4666SOL    HW125457   0.666   2.768   3.245 -0.5801  0.2357  0.4771
 4666SOL    HW225458   0.678   2.649   3.311  1.5932  0.8029 -1.4788
 4667SOL     OW25459   1.877   3.489  12.765  0.2912  0.1115 -0.3596
 4667SOL    HW125460   1.784   3.475  12.748 -0.2627  1.4926  1.5416
 4667SOL    HW225461   1.903   3.397  12.764  1.1673  0.3855 -2.0037
 4668SOL     OW25462   4.539   3.410   5.753  0.0631  0.6149  0.1952
 4668SOL    HW125463   4.526   3.504   5.735 -1.6841  0.1144 -1.1981
 4668SOL    HW225464   4.628   3.414   5.788  0.1494  0.4976 -0.0151
 4669SOL     OW25465   2.641   1.012   5.007 -0.1842  0.6789 -0.1229
 4669SOL    HW125466   2.641   1.082   4.941 -1.2801 -0.4230 -1.3109
 4669SOL    HW225467   2.647   1.063   5.088  0.2649  1.1482 -0.4480
 4670SOL     OW25468   0.058   2.526   4.773  0.5827  0.1684  0.3583
 4670SOL    HW125469   4.698   2.486   4.748  0.6072 -0.1141  0.7267
 4670SOL    HW225470   0.062   2.522   4.868 -1.9570  0.2019  0.4726
 4671SOL     OW25471   0.070   4.131  12.077 -0.4474 -0.0864  0.4161
 4671SOL    HW125472   0.047   4.140  12.169 -0.0833  0.3439  0.4668
 4671SOL    HW225473   0.007   4.062  12.056 -0.9088  0.1638  0.9980
 4672SOL     OW25474   2.228   2.481   7.369 -0.1990 -0.0188 -0.3274
 4672SOL    HW125475   2.287   2.407   7.383 -3.4688 -2.2938  1.4959
 4672SOL    HW225476   2.270   2.521   7.293 -1.1634  1.0210 -0.3044
 4673SOL     OW25477   2.964   3.389   7.834  0.0871 -0.2394 -0.2199
 4673SOL    HW125478   3.051   3.355   7.857  0.1848 -0.4763 -0.9361
 4673SOL    HW225479   2.950   3.448   7.908 -0.5281 -0.0826 -0.4631
 4674SOL     OW25480   0.182   3.894   8.527  0.0136  0.3895 -0.6961
 4674SOL    HW125481   0.213   3.804   8.519 -0.0498  0.3849 -0.8717
 4674SOL    HW225482   0.210   3.913   8.617 -1.0044 -0.4119 -0.2090
 4675SOL     OW25483   2.926   3.025   2.509 -0.4340 -0.0145 -0.0901
 4675SOL    HW125484   2.839   3.015   2.470 -0.2252 -0.0003 -0.5545
 4675SOL    HW225485   2.919   3.117   2.535 -0.6295  0.6151 -2.3660
 4676SOL     OW25486   1.317   3.269   3.584  0.1152  0.3102  0.1916
 4676SOL    HW125487   1.380   3.199   3.566 -0.1453  0.5945 -1.8383
 4676SOL    HW225488   1.246   3.258   3.522 -0.4268  2.6097  0.3973
 4677SOL     OW25489   0.798   1.076  17.535  0.9430  0.1243  0.0739
 4677SOL    HW125490   0.746   1.128  17.473  0.6421  1.4620  1.4642
 4677SOL    HW225491   0.874   1.076  17.477 -0.6615 -0.8783 -2.0795
 4678SOL     OW25492   1.350   4.057   2.018 -1.0324  0.4917 -0.2738
 4678SOL    HW125493   1.420   4.003   1.981 -0.1960 -0.9631  3.4452
 4678SOL    HW225494   1.279   4.030   1.960  0.0316  0.3228 -1.4818
 4679SOL     OW25495   1.527   2.864   0.476  0.2116  0.3494  0.7091
 4679SOL    HW125496   1.588   2.822   0.537  0.4826  0.0241  0.2208
 4679SOL    HW225497   1.581   2.934   0.440  0.2351  0.8428  1.6917
 4680SOL     OW25498   1.943   3.342   7.293  0.1706  0.1793  0.0611
 4680SOL    HW125499   2.016   3.397   7.263 -0.8761  0.7679 -1.3637
 4680SOL    HW225500   1.939   3.387   7.378  0.7778 -1.2147  0.8214
 4681SOL     OW25501   4.414   0.541  15.067 -0.1503 -0.4731 -0.1693
 4681SOL    HW125502   4.488   0.602  15.067 -0.5322 -0.0193  3.0229
 4681SOL    HW225503   4.344   0.604  15.051  0.7711 -0.2625 -3.4091
 4682SOL     OW25504   4.382   0.089   0.598  0.3500  0.1720 -0.0980
 4682SOL    HW125505   4.302   0.140   0.598  0.9820  1.1574  0.1668
 4682SOL    HW225506   4.434   0.123   0.671 -0.1709  1.8326 -0.5087
 4683SOL     OW25507   4.404   1.170   7.350  0.5100 -0.6709 -0.6386
 4683SOL    HW125508   4.426   1.259   7.323  0.0248  0.4152  2.5353
 4683SOL    HW225509   4.484   1.123   7.327  0.1431 -1.6436  0.1169
 4684SOL     OW25510   3.417   0.023   8.584 -0.0646 -0.5444  0.0808
 4684SOL    HW125511   3.443   4.698   8.506  1.0442  0.1014  0.0510
 4684SOL    HW225512   3.494   0.076   8.605 -1.5867  1.1864  1.2627
 4685SOL     OW25513   1.296   1.780   3.298 -0.1860  0.0267 -0.0400
 4685SOL    HW125514   1.304   1.703   3.355 -0.2420 -0.8597 -1.2358
 4685SOL    HW225515   1.213   1.756   3.256  0.0931 -0.7653 -0.1367
 4686SOL     OW25516   3.179   0.030   4.879  0.5075 -0.0334  0.1360
 4686SOL    HW125517   3.244   0.062   4.817  0.9031  1.0317  1.1176
 4686SOL    HW225518   3.111   0.005   4.815 -1.6524  2.6102  1.3968
 4687SOL     OW25519   1.303   2.960  13.226  0.0415 -0.1608 -0.5716
 4687SOL    HW125520   1.311   2.867  13.246 -0.1719  0.4932  2.6013
 4687SOL    HW225521   1.340   2.961  13.138 -0.3409 -2.0715 -0.7529
 4688SOL     OW25522   2.245   2.558  12.554 -0.8738 -0.2401  0.5003
 4688SOL    HW125523   2.226   2.531  12.644 -0.4580  0.4683  0.7968
 4688SOL    HW225524   2.339   2.565  12.569 -0.5756 -1.8843 -0.6116
 4689SOL     OW25525   2.921   3.556   9.552  0.7535 -0.2834 -0.4758
 4689SOL    HW125526   2.857   3.496   9.590  0.0753  0.2841 -0.7281
 4689SOL    HW225527   2.997   3.499   9.565  0.7871 -0.2387 -0.4718
 4690SOL     OW25528   0.504   3.756   3.331 -0.0307 -0.1531 -0.5738
 4690SOL    HW125529   0.508   3.852   3.331 -1.2003 -0.1097 -0.8324
 4690SOL    HW225530   0.513   3.740   3.425  2.8870 -0.6876 -0.9514
 4691SOL     OW25531   4.610   4.067  16.010  0.3214  0.0724 -0.0558
 4691SOL    HW125532   4.691   4.036  15.969 -0.7525  1.9234 -3.5628
 4691SOL    HW225533   4.577   4.113  15.932  0.5760  1.1063  0.4485
 4692SOL     OW25534   3.226   0.397  16.443 -0.0221 -0.1328  0.5425
 4692SOL    HW125535   3.152   0.353  16.485 -0.1192  0.0623  0.5747
 4692SOL    HW225536   3.294   0.389  16.510  1.3588  0.4861 -0.7819
 4693SOL     OW25537   0.452   2.627  13.784 -0.7345  0.3367  0.0023
 4693SOL    HW125538   0.504   2.640  13.863 -0.7955  0.8176 -0.0379
 4693SOL    HW225539   0.526   2.603  13.728 -1.4243 -1.9378  0.0636
 4694SOL     OW25540   4.646   2.393   9.679  0.0559  0.7100  0.1040
 4694SOL    HW125541   4.668   2.304   9.707 -0.7099  0.9966  1.5913
 4694SOL    HW225542   4.706   2.442   9.736 -0.5202  0.5125  0.8738
 4695SOL     OW25543   2.858   2.742   2.188 -0.2784 -0.2224  0.3797
 4695SOL    HW125544   2.877   2.694   2.269 -1.5167 -0.0113  0.7911
 4695SOL    HW225545   2.784   2.694   2.151  1.8233 -1.6845 -1.9702
 4696SOL     OW25546   0.309   0.097   5.250 -0.4114 -0.5875 -0.0558
 4696SOL    HW125547   0.289   0.092   5.157 -0.8689  2.2093 -0.0925
 4696SOL    HW225548   0.339   0.188   5.252 -2.2925  0.0080  1.8655
 4697SOL     OW25549   4.040   3.409  15.352 -0.3970  0.1118 -0.2523
 4697SOL    HW125550   4.111   3.348  15.369  1.2026  1.0548 -3.6785
 4697SOL    HW225551   4.033   3.447  15.440 -2.1524 -1.5436  0.3339
 4698SOL     OW25552   2.539   4.436   5.935 -0.2347  0.1205 -0.0712
 4698SOL    HW125553   2.500   4.416   5.850  2.0711 -1.4156 -0.7719
 4698SOL    HW225554   2.588   4.355   5.942 -0.8667 -0.2644 -0.1517
 4699SOL     OW25555   4.047   0.069   3.476 -0.6953  0.0538  0.2964
 4699SOL    HW125556   4.025   0.025   3.558 -0.0984  1.3104  1.1388
 4699SOL    HW225557   4.116   0.117   3.523 -1.1833  1.2065 -0.1713
 4700SOL     OW25558   4.239   0.288  16.576  0.0653 -0.1719 -0.0326
 4700SOL    HW125559   4.191   0.212  16.609  1.1470 -1.1347 -0.6949
 4700SOL    HW225560   4.203   0.293  16.488  1.9730  1.4019 -0.7082
 4701SOL     OW25561   3.542   4.113   5.401 -0.2367 -0.0588 -0.4023
 4701SOL    HW125562   3.585   4.150   5.478 -0.9449 -0.0009 -0.0332
 4701SOL    HW225563   3.596   4.034   5.395 -0.8325 -0.5028  0.0722
 4702SOL     OW25564   1.805   1.805  11.190 -0.0414 -0.2276 -0.0433
 4702SOL    HW125565   1.734   1.774  11.246 -0.7539  0.7426 -0.4168
 4702SOL    HW225566   1.824   1.723  11.144  0.1757  0.1623 -0.6466
 4703SOL     OW25567   2.176   4.593   7.523 -0.3823  0.6045  0.1202
 4703SOL    HW125568   2.101   4.545   7.488 -1.2153  1.6473  0.4384
 4703SOL    HW225569   2.208   4.631   7.442 -1.0187  0.5888 -0.1427
 4704SOL     OW25570   2.495   2.255  13.203 -0.4327  0.4355  0.0650
 4704SOL    HW125571   2.549   2.185  13.165  0.8725  1.6209 -0.2494
 4704SOL    HW225572   2.500   2.243  13.297  2.3201  1.9611  0.0998
 4705SOL     OW25573   1.239   0.162   9.043 -0.6998  0.1232  0.1582
 4705SOL    HW125574   1.177   0.229   9.014  0.8585  0.6556 -1.9100
 4705SOL    HW225575   1.189   0.100   9.096  0.9105  0.1898  1.7354
 4706SOL     OW25576   3.069   1.539   4.297 -0.1163 -0.0570  0.3192
 4706SOL    HW125577   3.129   1.610   4.318 -0.0938  0.4925 -1.5226
 4706SOL    HW225578   3.066   1.485   4.375  1.2445  1.2138  1.2419
 4707SOL     OW25579   2.461   2.624  17.061  0.3278  0.4112  0.2039
 4707SOL    HW125580   2.437   2.688  17.127  1.6152  0.0429  1.0278
 4707SOL    HW225581   2.468   2.670  16.977 -1.2353  1.1438  0.4682
 4708SOL     OW25582   3.309   3.646  12.267 -0.8918  0.5412  0.0171
 4708SOL    HW125583   3.394   3.684  12.241  0.5173 -1.0641  2.2756
 4708SOL    HW225584   3.261   3.680  12.191 -0.5828  0.5171 -0.1925
 4709SOL     OW25585   3.419   3.381  10.894  0.1509 -0.2416 -0.3932
 4709SOL    HW125586   3.391   3.327  10.968 -0.5634  1.5967  0.6676
 4709SOL    HW225587   3.477   3.449  10.929  2.0764 -2.9152  1.6461
 4710SOL     OW25588   4.098   4.178  15.483 -0.2005 -0.2036  0.6251
 4710SOL    HW125589   4.078   4.258  15.533  2.5003  0.5322  0.5594
 4710SOL    HW225590   4.193   4.188  15.483 -0.4213  1.7777 -2.9262
 4711SOL     OW25591   2.794   1.197   5.573  0.0100  0.3352  0.1549
 4711SOL    HW125592   2.769   1.288   5.555 -0.9104  0.0772  0.1520
 4711SOL    HW225593   2.843   1.203   5.655  2.9308 -1.5543 -1.4354
 4712SOL     OW25594   0.739   4.609   4.146 -0.0701  0.2886  0.0525
 4712SOL    HW125595   0.693   4.566   4.218  0.3014 -1.1737 -0.5835
 4712SOL    HW225596   0.816   4.647   4.189 -0.2152 -0.4177  0.9480
 4713SOL     OW25597   0.034   2.082   3.529  0.1666  0.3202  0.1887
 4713SOL    HW125598   0.069   2.156   3.579 -2.4949 -0.1529  2.7282
 4713SOL    HW225599   0.049   2.112   3.439 -0.7550  0.4367  0.0771
 4714SOL     OW25600   0.401   2.530   8.701 -0.5690  0.0409 -0.0535
 4714SOL    HW125601   0.346   2.481   8.641 -0.0056 -3.5031  2.3561
 4714SOL    HW225602   0.347   2.605   8.725 -1.2962 -0.2675 -0.7622
 4715SOL     OW25603   2.561   2.153   0.644  0.2702 -0.1599  0.3368
 4715SOL    HW125604   2.587   2.176   0.555  0.0559 -0.0047  0.3132
 4715SOL    HW225605   2.585   2.060   0.639 -1.9419 -0.8359  2.6388
 4716SOL     OW25606   3.275   1.684  15.556  0.1208 -0.4490  0.7244
 4716SOL    HW125607   3.211   1.625  15.596 -0.7325 -0.5021 -0.7150
 4716SOL    HW225608   3.300   1.729  15.636 -0.4642  2.7088 -0.8555
 4717SOL     OW25609   3.449   3.928   8.297  0.5123 -0.4365 -0.5403
 4717SOL    HW125610   3.539   3.903   8.277  0.7312 -1.1375  1.3314
 4717SOL    HW225611   3.446   3.925   8.392 -0.1123 -2.1179 -0.6083
 4718SOL     OW25612   3.776   2.205  10.362 -0.2246 -0.4471  0.4420
 4718SOL    HW125613   3.689   2.244  10.354  0.1923 -0.2773 -3.0704
 4718SOL    HW225614   3.782   2.172  10.273  1.4845  0.3242  0.2614
 4719SOL     OW25615   3.252   2.734   5.046 -0.2217 -0.0572  0.0843
 4719SOL    HW125616   3.175   2.678   5.045  0.8976 -1.5481 -2.2662
 4719SOL    HW225617   3.214   2.816   5.014  0.4014  0.4624  0.6674
 4720SOL     OW25618   3.428   1.234   6.773  0.2604 -0.3184 -0.4896
 4720SOL    HW125619   3.395   1.259   6.859  0.6939  1.0983 -0.7302
 4720SOL    HW225620   3.519   1.226   6.799  0.5647 -0.5448 -1.6203
 4721SOL     OW25621   2.901   3.430   7.557 -0.5726 -0.4006 -0.0406
 4721SOL    HW125622   2.934   3.447   7.645  0.2456  1.3593 -0.6825
 4721SOL    HW225623   2.950   3.348   7.547  1.1369  0.7774 -1.3502
 4722SOL     OW25624   1.029   0.743   7.524  0.6939 -0.0839  0.1113
 4722SOL    HW125625   0.978   0.669   7.491 -0.4831  0.7416  0.0774
 4722SOL    HW225626   0.972   0.789   7.586 -1.4063 -1.7068 -0.6325
 4723SOL     OW25627   4.618   2.654   9.219 -0.5440  0.1296  0.2926
 4723SOL    HW125628   4.708   2.679   9.201 -0.4849 -1.6453 -1.9166
 4723SOL    HW225629   4.615   2.632   9.312  1.0244  1.0903  0.5732
 4724SOL     OW25630   2.306   1.278   4.184  0.0103 -0.3500  0.4001
 4724SOL    HW125631   2.320   1.183   4.191  0.8799 -0.4141 -2.3867
 4724SOL    HW225632   2.386   1.326   4.206 -0.9021  1.6561 -0.7682
 4725SOL     OW25633   2.519   4.042   0.828  0.3107 -0.1008 -0.1731
 4725SOL    HW125634   2.489   4.047   0.918 -1.1729 -2.3993 -0.5305
 4725SOL    HW225635   2.529   4.134   0.804  1.1971 -0.2367 -0.3168
 4726SOL     OW25636   1.685   3.663   6.542 -0.4237 -0.7120 -0.7374
 4726SOL    HW125637   1.606   3.694   6.586  0.3212  1.1798 -0.7408
 4726SOL    HW225638   1.674   3.698   6.453 -0.0717 -1.4100 -1.0534
 4727SOL     OW25639   1.539   1.580  14.192  0.8530  0.4589 -0.3685
 4727SOL    HW125640   1.446   1.566  14.174  0.6756  0.0086  0.9443
 4727SOL    HW225641   1.565   1.488  14.194 -1.6298 -0.2024  0.8603
 4728SOL     OW25642   3.727   1.898   8.299  0.6537  0.0139  0.0880
 4728SOL    HW125643   3.691   1.828   8.354  0.0118  0.2979  0.0311
 4728SOL    HW225644   3.677   1.971   8.336  0.2295 -1.0159  1.5839
 4729SOL     OW25645   0.028   4.259   3.101 -0.5351  0.0630 -0.2448
 4729SOL    HW125646   4.692   4.219   3.164  0.3001 -1.0077 -0.1371
 4729SOL    HW225647   4.704   4.338   3.073 -0.2551  0.9409  1.7272
 4730SOL     OW25648   2.567   3.794   5.485 -0.5398 -0.0178 -0.2416
 4730SOL    HW125649   2.490   3.798   5.543 -1.2117  0.6475 -1.1726
 4730SOL    HW225650   2.536   3.853   5.417  0.8656 -1.1028 -1.8171
 4731SOL     OW25651   2.958   0.192   6.568  0.2065  0.6819 -0.3641
 4731SOL    HW125652   2.882   0.157   6.615  0.0223 -1.5905 -2.3569
 4731SOL    HW225653   2.910   0.256   6.515 -1.7740  1.1381  1.9653
 4732SOL     OW25654   1.058   2.627  16.296 -0.0951 -0.6563 -0.0292
 4732SOL    HW125655   1.095   2.574  16.367 -0.8550  1.7896  2.1779
 4732SOL    HW225656   0.986   2.572  16.267 -1.1072  1.4763 -1.5368
 4733SOL     OW25657   2.460   2.006  11.954  1.0676 -0.1160  0.0313
 4733SOL    HW125658   2.446   2.101  11.954  0.0563 -0.2443 -4.6502
 4733SOL    HW225659   2.541   1.991  12.002  0.0037 -2.2212  1.1953
 4734SOL     OW25660   0.975   3.333   0.529 -0.6253 -0.1609  0.3263
 4734SOL    HW125661   0.944   3.413   0.487 -0.5632  0.2783  1.1120
 4734SOL    HW225662   1.037   3.364   0.596 -0.9587  1.4123 -0.0882
 4735SOL     OW25663   1.367   2.648   1.255 -0.1199  0.1488 -0.6729
 4735SOL    HW125664   1.324   2.729   1.226  1.2079  1.0997 -0.0052
 4735SOL    HW225665   1.403   2.619   1.172  0.7147 -1.6577  0.3253
 4736SOL     OW25666   2.268   2.970   5.108 -0.1204  0.2660  0.7548
 4736SOL    HW125667   2.192   2.974   5.050  1.5898 -0.2355 -1.5076
 4736SOL    HW225668   2.218   2.961   5.189 -0.5828  1.0412  0.5540
 4737SOL     OW25669   1.421   3.043   2.773 -0.5457  0.4198 -0.6498
 4737SOL    HW125670   1.502   3.062   2.821 -0.5237  0.8945 -0.8722
 4737SOL    HW225671   1.466   3.038   2.689  0.5520  0.3401 -0.0573
 4738SOL     OW25672   3.673   1.811   9.187 -0.3727  0.1571 -0.4637
 4738SOL    HW125673   3.653   1.812   9.280 -1.6048 -2.0981 -0.7246
 4738SOL    HW225674   3.697   1.903   9.172 -2.5909  0.7926 -0.1686
 4739SOL     OW25675   0.141   1.901   6.969  0.1908  0.2049 -0.5397
 4739SOL    HW125676   0.150   1.995   6.985 -3.1381  0.5094 -0.4141
 4739SOL    HW225677   0.225   1.881   6.928  0.8891  0.9944  0.5029
 4740SOL     OW25678   2.737   2.141   2.260  0.2990 -0.2882 -0.1559
 4740SOL    HW125679   2.751   2.066   2.202  1.1553 -0.6248  0.4886
 4740SOL    HW225680   2.784   2.104   2.335 -0.5049 -0.5822  0.2011
 4741SOL     OW25681   3.071   2.534  10.125 -0.2037  0.3201 -0.0965
 4741SOL    HW125682   3.032   2.447  10.117 -1.3648  1.2187 -4.2636
 4741SOL    HW225683   3.109   2.543  10.213  1.3803 -1.9520 -0.5684
 4742SOL     OW25684   3.212   4.367  10.607 -0.3989  0.2723  0.3594
 4742SOL    HW125685   3.230   4.367  10.701 -0.2569  0.3353  0.3319
 4742SOL    HW225686   3.189   4.275  10.592  0.4121 -0.2681  2.4909
 4743SOL     OW25687   3.574   4.599  16.272 -0.3261  0.2475 -0.1512
 4743SOL    HW125688   3.554   4.578  16.363  0.5325  2.6138  0.5722
 4743SOL    HW225689   3.513   4.545  16.223  1.0385  0.0122 -1.6045
 4744SOL     OW25690   3.603   4.206  15.812 -0.1284 -0.0998  0.0096
 4744SOL    HW125691   3.595   4.117  15.847  1.9851 -0.8623 -1.4698
 4744SOL    HW225692   3.603   4.194  15.717  1.8325 -0.0752  0.0060
 4745SOL     OW25693   0.310   0.236  12.642 -0.6680  0.0728  0.0550
 4745SOL    HW125694   0.271   0.183  12.712  1.4949 -2.0027 -0.3322
 4745SOL    HW225695   0.275   0.320  12.673  0.5563  0.8109 -0.5474
 4746SOL     OW25696   3.940   3.444   5.933 -0.1646  0.1842  0.4473
 4746SOL    HW125697   3.907   3.455   6.022 -0.4528  1.6880  0.1591
 4746SOL    HW225698   3.859   3.455   5.883 -0.3092 -0.4737  0.5352
 4747SOL     OW25699   3.962   2.247   4.087 -0.1021  0.3618  0.0982
 4747SOL    HW125700   3.925   2.311   4.148 -0.4316 -1.1876  1.5359
 4747SOL    HW225701   3.993   2.183   4.151  0.6775  0.2712 -0.3834
 4748SOL     OW25702   1.812   0.395  17.691 -0.0574 -0.8190  0.5105
 4748SOL    HW125703   1.734   0.404   0.049 -0.0122  2.4769  0.0682
 4748SOL    HW225704   1.873   0.358   0.058  1.4237  2.3001  0.9369
 4749SOL     OW25705   4.669   1.054  16.072 -0.0580 -0.1524  0.0308
 4749SOL    HW125706   0.005   1.121  16.038  1.5916 -1.9274 -0.5634
 4749SOL    HW225707   4.646   1.095  16.155  2.2698  0.8973  0.1595
 4750SOL     OW25708   0.844   2.933  10.843 -0.2929  0.1907  0.0714
 4750SOL    HW125709   0.870   2.939  10.751 -1.2585 -0.3119 -0.2342
 4750SOL    HW225710   0.925   2.896  10.877 -0.2059 -0.0825 -0.4354
 4751SOL     OW25711   0.922   1.798   5.726  0.3961 -0.4938  0.8476
 4751SOL    HW125712   0.991   1.732   5.732  0.5737 -0.3390  0.4914
 4751SOL    HW225713   0.855   1.766   5.787 -2.0254 -1.0610 -2.0768
 4752SOL     OW25714   1.155   1.765   1.714  0.1221 -0.4978 -0.2977
 4752SOL    HW125715   1.154   1.679   1.757  1.5631 -0.4990 -0.2430
 4752SOL    HW225716   1.219   1.750   1.645 -0.3827 -0.9451 -0.6699
 4753SOL     OW25717   4.491   2.573   4.075  0.3639 -0.2163 -0.3522
 4753SOL    HW125718   4.418   2.515   4.055  0.6189 -1.3899  2.0733
 4753SOL    HW225719   4.572   2.526   4.052  0.6104  0.3237 -0.5905
 4754SOL     OW25720   0.067   2.874   1.003  0.5461 -0.0068 -0.1455
 4754SOL    HW125721   0.009   2.906   0.934 -2.5034 -3.2267  0.9417
 4754SOL    HW225722   0.020   2.902   1.082 -2.4296 -0.3123 -1.8341
 4755SOL     OW25723   0.453   3.352   7.752 -0.1288  0.0055 -0.7961
 4755SOL    HW125724   0.477   3.392   7.837 -2.3324  0.6122 -0.4662
 4755SOL    HW225725   0.483   3.262   7.763  0.2932  0.3591  1.0463
 4756SOL     OW25726   1.481   0.653   5.827 -0.2955 -0.0310  0.0025
 4756SOL    HW125727   1.398   0.642   5.782  0.2888  1.9931 -1.5464
 4756SOL    HW225728   1.488   0.748   5.841 -0.5225 -0.2890  1.8772
 4757SOL     OW25729   0.758   4.638   3.730  0.2092  0.3552  0.3328
 4757SOL    HW125730   0.735   0.006   3.711  0.5752  0.1558 -1.0918
 4757SOL    HW225731   0.835   4.661   3.782 -2.0817  2.2042  2.9520
 4758SOL     OW25732   3.985   3.552  15.566 -0.4051  0.1868  0.2096
 4758SOL    HW125733   4.045   3.615  15.525  0.2361 -0.6596 -0.1562
 4758SOL    HW225734   3.978   3.583  15.656  1.9578  2.2068 -0.2920
 4759SOL     OW25735   2.010   1.350   6.983 -0.2939  0.4156 -0.4529
 4759SOL    HW125736   1.947   1.316   6.920 -1.8983  1.1620  0.7483
 4759SOL    HW225737   1.970   1.430   7.017  0.0465  1.7936 -3.3590
 4760SOL     OW25738   0.356   2.667   3.085  0.3873 -0.1694  0.0830
 4760SOL    HW125739   0.352   2.725   3.161  2.0371  1.6059 -1.1979
 4760SOL    HW225740   0.274   2.618   3.094 -0.8520  1.5216 -1.8971
 4761SOL     OW25741   0.192   2.853  12.310  0.1051 -0.0892  0.1609
 4761SOL    HW125742   0.209   2.887  12.222  0.1102 -1.3820 -0.3446
 4761SOL    HW225743   0.100   2.870  12.326 -0.0357  1.5161 -2.3484
 4762SOL     OW25744   3.995   3.767   8.700  0.3716  0.2309  0.2045
 4762SOL    HW125745   4.039   3.696   8.749  0.5129 -0.3355 -0.7443
 4762SOL    HW225746   3.985   3.821   8.778 -1.0390  0.3827 -0.0905
 4763SOL     OW25747   4.365   3.102   0.263  0.6402  0.0175 -0.2209
 4763SOL    HW125748   4.403   3.189   0.273 -0.6322  0.3093  1.9707
 4763SOL    HW225749   4.437   3.046   0.291 -0.0172  0.2201  1.9063
 4764SOL     OW25750   3.153   0.166   4.072 -0.1016  0.0900  0.6223
 4764SOL    HW125751   3.171   0.198   3.983  0.6622 -1.9962  0.0211
 4764SOL    HW225752   3.176   0.244   4.122 -0.6662  1.7205 -1.6793
 4765SOL     OW25753   3.532   2.657   8.233  0.1800  0.4290  0.3849
 4765SOL    HW125754   3.497   2.584   8.180 -0.5486  0.7537  0.4182
 4765SOL    HW225755   3.606   2.670   8.174  0.4334  1.2788  0.8962
 4766SOL     OW25756   3.671   0.281   0.835  0.5265 -0.5620 -0.2947
 4766SOL    HW125757   3.736   0.263   0.767  1.4594 -0.6054  0.5980
 4766SOL    HW225758   3.664   0.375   0.821  0.2994 -0.4057  0.8394
 4767SOL     OW25759   2.910   0.528  16.964 -0.2829 -0.3383  0.1440
 4767SOL    HW125760   2.838   0.496  16.910 -2.4017 -0.4951  3.0817
 4767SOL    HW225761   2.960   0.451  16.990 -0.9785 -1.3154 -1.3786
 4768SOL     OW25762   0.294   2.406   5.410  0.5114  0.5635  0.4784
 4768SOL    HW125763   0.353   2.415   5.335 -0.7202  0.2117 -0.5295
 4768SOL    HW225764   0.323   2.327   5.456  0.1623  0.9926  1.4392
 4769SOL     OW25765   3.889   2.095   3.859 -0.5166  0.1358 -0.0227
 4769SOL    HW125766   3.856   2.021   3.910 -0.7019  0.5185  0.4087
 4769SOL    HW225767   3.915   2.162   3.922 -1.2088 -0.6143  1.0733
 4770SOL     OW25768   2.574   4.172  13.248 -0.4485 -0.1355  0.2822
 4770SOL    HW125769   2.520   4.251  13.245  0.3649  0.4164  0.2415
 4770SOL    HW225770   2.609   4.166  13.159 -0.1387  0.3576  0.3702
 4771SOL     OW25771   0.892   2.672   9.613  0.4467  0.9671 -0.0697
 4771SOL    HW125772   0.822   2.624   9.657 -0.2812  1.8196 -0.3156
 4771SOL    HW225773   0.970   2.621   9.635 -1.4383 -1.0844  1.7868
 4772SOL     OW25774   1.788   1.338   0.176  0.2075  0.7457  0.1702
 4772SOL    HW125775   1.717   1.278   0.153  2.0832 -0.4956 -2.4422
 4772SOL    HW225776   1.822   1.299   0.257 -2.1223 -0.5066  0.5465
 4773SOL     OW25777   2.350   0.813   5.396  0.0439  0.0932 -0.3673
 4773SOL    HW125778   2.329   0.720   5.402  0.7597 -0.1081 -0.9640
 4773SOL    HW225779   2.342   0.827   5.302 -0.9708 -0.5039 -0.3698
 4774SOL     OW25780   1.136   1.594   0.238  0.1432 -0.0671  0.1616
 4774SOL    HW125781   1.056   1.561   0.279  0.2354  0.3349  0.6671
 4774SOL    HW225782   1.171   1.638   0.316  1.2765  1.2937 -1.1240
 4775SOL     OW25783   2.919   2.017  12.750 -0.0136  0.0668 -0.1007
 4775SOL    HW125784   2.906   1.985  12.838  3.0446  1.6392  0.9462
 4775SOL    HW225785   2.855   2.089  12.751 -2.7435 -2.3756 -0.2817
 4776SOL     OW25786   0.605   1.681  11.988  0.1909 -0.1855 -0.5987
 4776SOL    HW125787   0.538   1.613  11.996  0.3450 -0.1863  0.7806
 4776SOL    HW225788   0.641   1.667  12.076  0.2276  0.0161 -0.5820
 4777SOL     OW25789   0.807   0.747  13.781  0.2434  0.1165  0.4554
 4777SOL    HW125790   0.789   0.841  13.787  0.0762 -0.0337  2.2261
 4777SOL    HW225791   0.719   0.713  13.791  0.7394 -0.8285  1.6721
 4778SOL     OW25792   2.277   0.139   3.909  0.1915 -0.1005 -0.6868
 4778SOL    HW125793   2.300   0.142   3.816  0.4144 -0.4731 -0.6395
 4778SOL    HW225794   2.328   0.062   3.932  0.7104  0.5510  0.3656
 4779SOL     OW25795   2.350   1.438   4.651 -0.7735  0.3002  0.3678
 4779SOL    HW125796   2.358   1.343   4.652 -0.3514  0.3554  1.9656
 4779SOL    HW225797   2.396   1.468   4.573 -0.9737 -1.4355 -0.4065
 4780SOL     OW25798   0.405   0.719  10.513  0.1020  0.3276 -0.4525
 4780SOL    HW125799   0.425   0.792  10.455 -0.3541 -0.2915 -1.3987
 4780SOL    HW225800   0.348   0.671  10.453 -0.0573  2.6067 -2.1107
 4781SOL     OW25801   2.943   4.582   5.696 -0.1105  0.0914 -0.4662
 4781SOL    HW125802   2.867   4.599   5.752  0.0842  0.8178 -0.4196
 4781SOL    HW225803   3.006   4.553   5.761  2.3427 -0.1121 -2.9659
 4782SOL     OW25804   2.208   2.071   3.130  0.0317  0.5648  0.1662
 4782SOL    HW125805   2.208   2.166   3.118  1.1889  0.3236 -1.7577
 4782SOL    HW225806   2.134   2.038   3.078  0.5019 -0.4762  0.1640
 4783SOL     OW25807   0.409   2.292   8.017  0.0930 -0.1065 -0.0393
 4783SOL    HW125808   0.490   2.313   8.063  0.5305 -3.7187  0.8798
 4783SOL    HW225809   0.439   2.300   7.926 -1.2511  0.5055 -0.4249
 4784SOL     OW25810   3.664   1.195   6.878 -0.3056  0.1379 -0.7197
 4784SOL    HW125811   3.677   1.214   6.971  0.9304  1.8431 -1.2501
 4784SOL    HW225812   3.753   1.164   6.861  0.5862  0.6962  2.8994
 4785SOL     OW25813   2.697   2.872  17.574 -0.7417 -0.0811 -0.0723
 4785SOL    HW125814   2.647   2.803  17.531  0.3112 -0.6865 -0.3264
 4785SOL    HW225815   2.719   2.831  17.658 -1.1798 -1.1242 -0.4655
 4786SOL     OW25816   2.478   2.514   4.020 -0.1086  0.8627  0.6063
 4786SOL    HW125817   2.436   2.430   4.037  0.1491  0.1811 -2.1720
 4786SOL    HW225818   2.465   2.553   4.107  2.7995 -0.0534  1.4541
 4787SOL     OW25819   2.075   2.709   8.620  0.4908  0.1242  0.2417
 4787SOL    HW125820   2.060   2.727   8.528 -1.1084  2.0453  0.8727
 4787SOL    HW225821   2.169   2.693   8.615  0.4001 -0.1012 -0.7234
 4788SOL     OW25822   2.419   2.993   4.077  0.2154  0.1539 -0.0514
 4788SOL    HW125823   2.469   2.933   4.021 -1.5105 -0.0428 -1.3695
 4788SOL    HW225824   2.349   2.936   4.108  1.0886 -0.5983  0.5383
 4789SOL     OW25825   2.725   3.725   7.363  0.3824  0.0583  0.2839
 4789SOL    HW125826   2.673   3.645   7.351  1.0430 -0.2381 -0.5674
 4789SOL    HW225827   2.667   3.785   7.409  1.0997  1.4735 -0.6814
 4790SOL     OW25828   2.953   0.056  16.323 -0.2322 -0.2346 -0.7058
 4790SOL    HW125829   3.011   0.090  16.255  1.1521  0.0907  0.6346
 4790SOL    HW225830   2.994   4.695  16.337  0.1962  0.5439  2.7633
 4791SOL     OW25831   4.191   4.545   1.453  0.0860  0.6465 -0.3965
 4791SOL    HW125832   4.219   4.636   1.465  0.6777  0.4406 -0.2137
 4791SOL    HW225833   4.124   4.546   1.385  1.5760  0.5483 -1.8751
 4792SOL     OW25834   3.535   0.451  12.387  0.2761  0.5786 -0.5143
 4792SOL    HW125835   3.626   0.452  12.415 -0.0987 -1.0856  0.7288
 4792SOL    HW225836   3.503   0.535  12.419 -2.0404  0.1379 -1.6854
 4793SOL     OW25837   0.749   1.948   3.712 -0.3453  0.4203 -0.1933
 4793SOL    HW125838   0.708   1.912   3.633  0.0064 -0.1138 -0.1279
 4793SOL    HW225839   0.686   1.905   3.770 -1.6316 -0.8410 -2.5175
 4794SOL     OW25840   2.879   4.713   8.522  0.0547 -0.4308 -0.1652
 4794SOL    HW125841   2.875   4.676   8.611 -0.0581 -0.2215 -0.0816
 4794SOL    HW225842   2.872   4.636   8.466  1.5236 -1.3597  0.9365
 4795SOL     OW25843   4.357   4.239   6.237 -0.5752 -0.1620  0.1444
 4795SOL    HW125844   4.441   4.285   6.243 -0.1768 -1.1663  2.1040
 4795SOL    HW225845   4.305   4.308   6.279  0.3616  0.6050  0.0527
 4796SOL     OW25846   2.003   1.342   6.412  0.0543 -0.7025 -0.4723
 4796SOL    HW125847   2.031   1.319   6.323  0.3971 -0.8517 -0.3223
 4796SOL    HW225848   2.084   1.367   6.455 -0.4612 -1.2868  0.8389
 4797SOL     OW25849   0.468   2.802  11.417 -0.0762  0.3254 -0.3167
 4797SOL    HW125850   0.470   2.894  11.392 -0.8537  0.3511 -0.2750
 4797SOL    HW225851   0.408   2.811  11.490 -1.0647  0.5340 -1.1537
 4798SOL     OW25852   2.411   0.385   3.333 -0.8409 -0.6501  0.6568
 4798SOL    HW125853   2.395   0.426   3.248  0.7938  0.2835  0.7997
 4798SOL    HW225854   2.417   0.466   3.384  2.9165 -2.3813  2.9249
 4799SOL     OW25855   1.825   2.441  16.138  0.7458 -0.4945 -0.2272
 4799SOL    HW125856   1.827   2.408  16.228  1.6257  1.8087  0.5937
 4799SOL    HW225857   1.920   2.451  16.132  0.8405 -2.5193 -1.9871
 4800SOL     OW25858   1.892   3.066   5.581 -0.3184  0.0497  0.3601
 4800SOL    HW125859   1.977   3.104   5.560 -0.2894 -1.0849 -1.5882
 4800SOL    HW225860   1.855   3.125   5.646  3.2704 -0.5451  2.9109
 4801SOL     OW25861   0.914   1.138   5.541 -0.4792 -0.7838 -0.0049
 4801SOL    HW125862   0.888   1.091   5.620  2.3522 -3.1128 -0.4542
 4801SOL    HW225863   0.847   1.110   5.478 -0.9635 -1.5582  0.8519
 4802SOL     OW25864   3.646   3.169   3.557 -0.3901  0.1244 -0.0225
 4802SOL    HW125865   3.590   3.202   3.486  2.3612  1.3077 -1.6435
 4802SOL    HW225866   3.575   3.149   3.618 -1.0827 -1.5049 -1.3907
 4803SOL     OW25867   0.590   1.414   7.906 -0.5764  0.0407 -0.0784
 4803SOL    HW125868   0.666   1.358   7.890 -1.1725 -0.4292 -1.2918
 4803SOL    HW225869   0.626   1.462   7.980  0.5585 -0.7275 -0.1366
 4804SOL     OW25870   4.135   2.874   0.636 -0.5805 -0.0993 -0.5778
 4804SOL    HW125871   4.200   2.828   0.688 -0.3065 -0.1914 -1.0022
 4804SOL    HW225872   4.183   2.957   0.633  0.9357 -0.9758 -0.6916
 4805SOL     OW25873   1.040   0.692   2.799 -0.4152  0.2929 -0.2567
 4805SOL    HW125874   1.072   0.767   2.749 -0.5727  0.9014  0.5530
 4805SOL    HW225875   1.113   0.638   2.832 -1.3856  0.5371  2.3188
 4806SOL     OW25876   2.195   0.799   6.186 -0.1000 -0.4171 -0.0051
 4806SOL    HW125877   2.191   0.857   6.262 -0.4953 -1.3541  0.6788
 4806SOL    HW225878   2.170   0.713   6.218 -0.9143 -1.6537 -3.9145
 4807SOL     OW25879   3.839   0.954   0.262 -0.2549 -0.3190 -0.2440
 4807SOL    HW125880   3.781   1.005   0.318  1.5644  0.2358  1.1261
 4807SOL    HW225881   3.866   1.017   0.195 -0.2894 -0.0784 -0.0272
 4808SOL     OW25882   0.433   2.820  15.172 -0.2470 -0.1069 -0.8796
 4808SOL    HW125883   0.502   2.758  15.195 -1.2921 -1.4402 -1.3505
 4808SOL    HW225884   0.391   2.838  15.256  1.0322 -0.9324 -0.0656
 4809SOL     OW25885   0.292   2.877   2.604  0.1596 -0.0315  0.7678
 4809SOL    HW125886   0.263   2.787   2.593  0.3950  0.1909 -1.7217
 4809SOL    HW225887   0.329   2.887   2.516 -2.0216  0.0768 -0.1260
 4810SOL     OW25888   4.141   4.292   8.041  0.3676  0.3163 -0.1599
 4810SOL    HW125889   4.229   4.324   8.057  0.4895 -0.3181  0.3975
 4810SOL    HW225890   4.157   4.293   7.946 -6.3035 -1.1615 -1.3270
 4811SOL     OW25891   2.894   1.175   2.830 -0.0557  0.1295  0.3228
 4811SOL    HW125892   2.838   1.126   2.890 -2.3004  0.8568 -1.1696
 4811SOL    HW225893   2.975   1.128   2.848 -1.3718 -1.3171  2.4438
 4812SOL     OW25894   3.151   1.907   9.853  0.1600 -0.4101 -0.0107
 4812SOL    HW125895   3.131   1.839   9.788  0.6148  0.8303 -1.4625
 4812SOL    HW225896   3.235   1.940   9.821 -0.3361  1.8672  1.0514
 4813SOL     OW25897   0.040   2.035  14.112  0.4851 -0.5267  0.3465
 4813SOL    HW125898   0.114   1.982  14.082  1.2693  0.6511  0.2290
 4813SOL    HW225899   0.026   2.010  14.204 -0.7364 -0.1103  0.2746
 4814SOL     OW25900   3.843   3.209   2.109 -0.0892  0.1521 -0.1111
 4814SOL    HW125901   3.762   3.235   2.065  0.4749  0.6100 -0.8932
 4814SOL    HW225902   3.819   3.207   2.202 -0.8076  2.1707 -0.2385
 4815SOL     OW25903   2.972   0.175   6.180  0.4236  0.3444 -0.6329
 4815SOL    HW125904   2.901   0.234   6.205  0.9032 -0.0656  1.7715
 4815SOL    HW225905   3.042   0.233   6.210 -0.6518  0.6331  1.3634
 4816SOL     OW25906   4.206   2.279   7.036 -0.7396  0.0979 -0.3215
 4816SOL    HW125907   4.184   2.356   6.983 -2.2927 -0.9461 -1.1701
 4816SOL    HW225908   4.173   2.211   6.978  1.0063 -0.4953 -0.5933
 4817SOL     OW25909   3.604   2.996  16.037  0.1680  0.3443  0.2576
 4817SOL    HW125910   3.569   2.967  16.121 -0.8795 -1.0828 -0.6816
 4817SOL    HW225911   3.523   2.992  15.986 -1.4547  1.8782  2.7340
 4818SOL     OW25912   1.885   2.904   3.026  0.2352  0.2329 -0.4315
 4818SOL    HW125913   1.814   2.849   2.994  0.9834 -1.1781  0.3526
 4818SOL    HW225914   1.955   2.891   2.962  0.5518  0.9918 -0.2471
 4819SOL     OW25915   0.398   4.416  14.772 -0.3803 -0.1007  0.4655
 4819SOL    HW125916   0.363   4.334  14.805  0.9654 -1.3907 -1.2985
 4819SOL    HW225917   0.491   4.394  14.764 -0.3082 -0.1146  1.3757
 4820SOL     OW25918   3.988   1.737   3.701  0.2322 -0.0865 -0.0306
 4820SOL    HW125919   4.042   1.663   3.672 -1.3663 -0.7329 -1.3682
 4820SOL    HW225920   3.994   1.800   3.630 -0.9303 -1.3236 -1.2183
 4821SOL     OW25921   4.574   0.923   9.671 -0.0784  0.4445  0.0146
 4821SOL    HW125922   4.536   0.899   9.756 -1.9623  1.9609 -0.4038
 4821SOL    HW225923   4.646   0.975   9.707 -0.0731  1.1720 -1.0362
 4822SOL     OW25924   4.085   4.575   3.268  0.0736  0.3594 -0.4580
 4822SOL    HW125925   4.107   4.632   3.342  3.0001 -1.2753 -0.0487
 4822SOL    HW225926   3.990   4.585   3.267 -0.0731 -0.8154  0.8712
 4823SOL     OW25927   3.098   0.007   3.364  0.5090 -0.2245 -0.0211
 4823SOL    HW125928   3.090   4.635   3.368  1.8407 -0.3607 -0.6926
 4823SOL    HW225929   3.104   0.032   3.457 -0.1731 -1.9693  0.4910
 4824SOL     OW25930   1.510   0.279   4.126  0.1433  0.7833  0.3536
 4824SOL    HW125931   1.589   0.322   4.158  0.1200  1.3973 -0.4318
 4824SOL    HW225932   1.444   0.347   4.130  0.1278  0.8969 -1.8561
 4825SOL     OW25933   3.156   0.705   4.897 -0.4324 -1.0668 -0.6119
 4825SOL    HW125934   3.121   0.622   4.866 -0.0033 -1.3825 -0.2595
 4825SOL    HW225935   3.139   0.698   4.991  0.0306  0.3990 -0.4076
 4826SOL     OW25936   3.049   2.825  13.959  0.4952 -0.1899 -0.5015
 4826SOL    HW125937   2.983   2.876  13.912  1.3034 -0.1590 -1.5838
 4826SOL    HW225938   3.016   2.739  13.988  0.8198  0.1696  0.9302
 4827SOL     OW25939   3.910   3.285  13.686  0.1701  0.1242 -0.2938
 4827SOL    HW125940   3.869   3.288  13.599  2.1012 -2.7351 -1.3158
 4827SOL    HW225941   3.843   3.240  13.738  0.5783  0.2891  0.3704
 4828SOL     OW25942   4.663   0.410   5.480 -0.4629  0.0656  0.3201
 4828SOL    HW125943   4.659   0.348   5.408 -1.6542  0.1191  0.3534
 4828SOL    HW225944   4.714   0.486   5.451  1.7937 -1.0498  1.3808
 4829SOL     OW25945   0.654   3.116  11.571 -0.0808  0.0144 -0.2052
 4829SOL    HW125946   0.741   3.144  11.600 -0.6747 -2.4378  3.9564
 4829SOL    HW225947   0.651   3.038  11.626  0.2308  1.6833  2.1515
 4830SOL     OW25948   0.613   2.337  17.515  0.4712  0.0452 -0.0217
 4830SOL    HW125949   0.679   2.271  17.495  1.0731  0.9860 -1.1394
 4830SOL    HW225950   0.572   2.288  17.585 -0.1717  1.2703  0.4727
 4831SOL     OW25951   4.399   0.024  12.780  0.1069 -0.1605 -0.6606
 4831SOL    HW125952   4.384   0.011  12.687 -1.1824  0.8454 -0.5929
 4831SOL    HW225953   4.355   4.668  12.808  0.2779  0.6563  1.9699
 4832SOL     OW25954   2.484   1.240  10.927  0.1733  0.5172 -1.5232
 4832SOL    HW125955   2.530   1.302  10.871  0.4814  3.7130  2.3050
 4832SOL    HW225956   2.546   1.231  11.000 -0.3810  0.3776 -1.0706
 4833SOL     OW25957   0.749   2.951   3.967 -0.0987 -0.2701  0.7524
 4833SOL    HW125958   0.744   2.879   4.030 -0.5309 -0.0197  1.0014
 4833SOL    HW225959   0.770   2.904   3.886  1.2895  1.0618  0.3425
 4834SOL     OW25960   4.201   2.816   6.242 -0.1761 -0.4780 -0.2163
 4834SOL    HW125961   4.207   2.834   6.336  1.1983 -2.1768  0.0147
 4834SOL    HW225962   4.234   2.899   6.207 -0.0952 -1.0716 -1.5265
 4835SOL     OW25963   1.476   4.300   4.558 -0.4048  0.4684  1.1657
 4835SOL    HW125964   1.462   4.297   4.652  1.4907  0.2821  1.4296
 4835SOL    HW225965   1.568   4.274   4.554 -0.4081  0.4896  0.9131
 4836SOL     OW25966   3.778   3.370   2.658 -0.7115 -0.0423  0.1708
 4836SOL    HW125967   3.766   3.323   2.740  0.7939  0.7703  0.8608
 4836SOL    HW225968   3.860   3.418   2.664 -1.9939  1.8055  2.6944
 4837SOL     OW25969   3.533   4.540   4.016 -0.1682  0.6223 -0.6863
 4837SOL    HW125970   3.603   4.538   4.082 -0.9829 -2.4876  0.1057
 4837SOL    HW225971   3.477   4.612   4.044 -1.4513 -0.9844  0.9484
 4838SOL     OW25972   3.927   2.087   2.720  0.3894 -0.2706  0.0563
 4838SOL    HW125973   3.998   2.073   2.783  0.4924  0.9421  0.2192
 4838SOL    HW225974   3.852   2.036   2.749  1.1367 -1.2676  0.2524
 4839SOL     OW25975   0.745   1.179   2.522 -0.0844 -0.3173  0.1202
 4839SOL    HW125976   0.680   1.180   2.451 -1.7546 -0.3793  1.6339
 4839SOL    HW225977   0.693   1.199   2.600  1.0264 -0.2374  0.8413
 4840SOL     OW25978   2.522   3.697   2.715  0.6789 -0.6827 -0.2701
 4840SOL    HW125979   2.522   3.625   2.653 -2.6541  0.7901 -2.0127
 4840SOL    HW225980   2.487   3.654   2.793  1.1952 -0.4206  0.1034
 4841SOL     OW25981   3.538   0.966  13.649  0.0661  0.1574 -0.1540
 4841SOL    HW125982   3.510   0.884  13.608 -0.0092 -0.3897  0.9825
 4841SOL    HW225983   3.543   1.035  13.584  1.6350  0.7055  0.5601
 4842SOL     OW25984   1.629   3.466   4.511 -0.1408  0.5248 -0.2033
 4842SOL    HW125985   1.605   3.410   4.437  0.9496 -1.1589  0.7071
 4842SOL    HW225986   1.594   3.544   4.468  2.0233  1.2939 -0.5666
 4843SOL     OW25987   4.006   0.943  15.275  0.0887  0.5528 -0.3722
 4843SOL    HW125988   4.028   0.889  15.351  1.6284  2.6845  0.6973
 4843SOL    HW225989   3.912   0.954  15.289 -0.1106 -1.1178 -0.4424
 4844SOL     OW25990   3.361   1.616   4.584 -0.3315  0.2144  0.0428
 4844SOL    HW125991   3.350   1.531   4.541  0.5236  0.3316 -0.3996
 4844SOL    HW225992   3.331   1.596   4.673 -0.6775 -0.0818 -0.1384
 4845SOL     OW25993   0.935   1.606  14.797  0.7019 -0.3019  0.3762
 4845SOL    HW125994   0.867   1.579  14.735 -0.2157  3.0942 -0.0537
 4845SOL    HW225995   0.995   1.659  14.744  0.5402  0.3630  0.8637
 4846SOL     OW25996   2.589   0.462  13.016 -0.1930  0.0124  0.1983
 4846SOL    HW125997   2.575   0.555  13.001 -1.5416 -0.1208  0.6418
 4846SOL    HW225998   2.500   0.428  13.023 -0.3031 -0.1711 -1.8683
 4847SOL     OW25999   2.849   1.661   6.029  0.0788  0.0685 -0.2968
 4847SOL    HW126000   2.821   1.598   5.963 -1.6415  1.0675 -0.5326
 4847SOL    HW226001   2.768   1.659   6.079  1.7420  0.3333  2.4063
 4848SOL     OW26002   4.599   1.296   0.955  0.3523  0.1708  0.6181
 4848SOL    HW126003   4.656   1.317   0.881  3.1136  2.4421  3.4119
 4848SOL    HW226004   4.629   1.211   0.987 -0.5506  0.7826  3.0659
 4849SOL     OW26005   0.603   1.718   8.982 -0.2268  0.2481 -0.4124
 4849SOL    HW126006   0.694   1.747   8.988 -0.2303  0.4202 -1.1829
 4849SOL    HW226007   0.575   1.725   9.073  0.9322  3.3399 -0.2749
 4850SOL     OW26008   4.435   2.270   6.598  0.4888  0.5004  0.0175
 4850SOL    HW126009   4.528   2.282   6.616  0.4878 -1.1828  1.1311
 4850SOL    HW226010   4.429   2.206   6.527  1.6541 -1.0954  1.3849
 4851SOL     OW26011   3.463   2.220   7.227  0.8550  0.6896  0.1252
 4851SOL    HW126012   3.519   2.234   7.304  2.1631  0.3506 -0.7569
 4851SOL    HW226013   3.383   2.261   7.259  0.2071 -2.0235  2.0281
 4852SOL     OW26014   3.169   4.624   9.756 -0.5785 -0.3939 -0.6129
 4852SOL    HW126015   3.196   4.656   9.842 -0.0974 -0.5992 -0.6875
 4852SOL    HW226016   3.088   4.674   9.746  1.2003  2.3805 -1.1159
 4853SOL     OW26017   1.792   1.930   7.113 -0.1091 -0.2693  0.2808
 4853SOL    HW126018   1.752   1.962   7.032 -2.5731 -0.8020  1.3064
 4853SOL    HW226019   1.872   1.983   7.120 -0.0083 -0.1355 -1.8728
 4854SOL     OW26020   0.413   0.897   5.967 -0.1358 -0.5787  0.1602
 4854SOL    HW126021   0.324   0.861   5.963 -0.3125  0.0026 -1.1375
 4854SOL    HW226022   0.434   0.899   5.874 -1.3209  0.0584 -0.1016
 4855SOL     OW26023   0.497   0.642   5.008 -0.0487  0.0247 -0.3039
 4855SOL    HW126024   0.512   0.641   5.102  2.3264  1.7718 -0.6547
 4855SOL    HW226025   0.442   0.719   4.998 -0.3909 -0.3357 -1.2194
 4856SOL     OW26026   4.700   1.552   6.178  0.2598 -0.9646  0.5416
 4856SOL    HW126027   0.040   1.557   6.106 -0.9561  1.5002 -0.3670
 4856SOL    HW226028   4.704   1.641   6.213  1.0031 -0.4420 -0.8552
 4857SOL     OW26029   1.580   3.760   3.447  0.3059 -0.1252  0.7922
 4857SOL    HW126030   1.572   3.686   3.507  1.1484 -0.7348  0.1494
 4857SOL    HW226031   1.541   3.713   3.373 -3.1359  2.1717  1.1587
 4858SOL     OW26032   4.665   3.014   4.283 -0.3060  0.1633  0.2838
 4858SOL    HW126033   4.723   3.055   4.346 -1.2392  1.3994  0.3315
 4858SOL    HW226034   4.588   3.057   4.319 -0.8355 -1.4319  1.0971
 4859SOL     OW26035   0.915   1.715   7.258  0.3467 -0.0069  0.5415
 4859SOL    HW126036   0.945   1.772   7.329 -1.7668  0.7110  0.8450
 4859SOL    HW226037   0.870   1.645   7.307 -2.7172  1.0286 -0.7880
 4860SOL     OW26038   2.718   2.701  15.729  0.2715 -0.4884  0.2791
 4860SOL    HW126039   2.703   2.759  15.804  0.3994 -1.6696  1.2192
 4860SOL    HW226040   2.736   2.621  15.779 -0.0442 -1.0381 -0.4935
 4861SOL     OW26041   0.029   3.357  14.552  0.1364  0.7812 -0.1992
 4861SOL    HW126042   4.657   3.352  14.545 -0.0157  0.8919  1.7758
 4861SOL    HW226043   0.035   3.350  14.647  0.7778  1.8467 -0.1604
 4862SOL     OW26044   1.793   4.686   5.072 -0.7788  0.1242 -0.4244
 4862SOL    HW126045   1.761   0.003   4.991 -3.0568 -1.0241 -0.1089
 4862SOL    HW226046   1.735   0.012   5.129 -0.4652  1.4896 -1.2810
 4863SOL     OW26047   3.682   4.630  13.765  0.3521  0.2297 -0.0984
 4863SOL    HW126048   3.684   0.000  13.744  1.0777 -0.0242 -1.1543
 4863SOL    HW226049   3.767   4.622  13.809  0.1813  2.2211  0.5987
 4864SOL     OW26050   4.659   0.280   8.232  0.0325 -0.6017  0.0998
 4864SOL    HW126051   4.716   0.236   8.168  1.9591 -0.4221  1.6739
 4864SOL    HW226052   4.608   0.210   8.272  0.4460 -1.2066 -0.4265
 4865SOL     OW26053   1.004   3.259   3.465  0.5316  0.3939 -0.3274
 4865SOL    HW126054   1.000   3.322   3.537  0.4725 -0.2951  0.2681
 4865SOL    HW226055   1.014   3.318   3.390 -1.2991  2.1740  0.8475
 4866SOL     OW26056   0.481   0.896   2.123  0.1838  0.2752  0.1657
 4866SOL    HW126057   0.509   0.985   2.103  2.4618 -0.3458  0.6301
 4866SOL    HW226058   0.423   0.921   2.195  1.5419  1.0767  0.9886
 4867SOL     OW26059   3.088   2.784  11.858 -0.2757  0.0545  0.0643
 4867SOL    HW126060   3.132   2.770  11.942 -1.7297 -0.8361  0.6941
 4867SOL    HW226061   3.121   2.869  11.831  0.1876 -0.2857 -0.4333
 4868SOL     OW26062   1.608   2.504   6.291  0.0735 -0.1863 -0.1108
 4868SOL    HW126063   1.611   2.409   6.296  0.3024 -0.3307 -2.6539
 4868SOL    HW226064   1.664   2.520   6.366 -1.1334 -2.6285  1.3010
 4869SOL     OW26065   0.460   0.034   7.717  0.0885 -0.2407 -0.1395
 4869SOL    HW126066   0.461   4.663   7.736 -0.4113 -0.4277 -1.0686
 4869SOL    HW226067   0.549   0.055   7.745  0.3282 -1.1413 -0.2343
 4870SOL     OW26068   3.011   0.130   5.086  0.1341  0.6160  0.9293
 4870SOL    HW126069   3.075   0.096   5.024 -0.6422 -1.6645  1.3924
 4870SOL    HW226070   2.998   0.056   5.144 -0.1877  0.9997  1.3411
 4871SOL     OW26071   3.661   2.280   9.144 -0.1311 -0.3369  0.3037
 4871SOL    HW126072   3.690   2.318   9.227  1.7924  0.0010 -0.5287
 4871SOL    HW226073   3.656   2.362   9.095  1.8268  0.8543  2.0979
 4872SOL     OW26074   2.464   4.127   7.470 -0.5949  0.0971 -0.6500
 4872SOL    HW126075   2.552   4.093   7.453  0.0516  1.2708  0.3643
 4872SOL    HW226076   2.460   4.145   7.564  2.4664  0.0252 -0.5183
 4873SOL     OW26077   1.326   4.579   5.615  0.1792  0.2161  0.7847
 4873SOL    HW126078   1.406   4.631   5.623  0.7459 -0.7643  1.5862
 4873SOL    HW226079   1.323   4.539   5.702  0.6204 -0.3961  0.5259
 4874SOL     OW26080   1.037   2.816   4.084 -0.2883 -0.0828  0.0148
 4874SOL    HW126081   0.999   2.815   4.172  1.3017  2.3739  0.7172
 4874SOL    HW226082   1.021   2.902   4.044 -1.9412 -0.5835 -0.4283
 4875SOL     OW26083   3.054   3.978  15.499 -0.0925 -1.1438  0.4823
 4875SOL    HW126084   2.976   3.977  15.554 -1.3396  2.3568 -1.2077
 4875SOL    HW226085   3.014   4.009  15.418 -1.0527  0.0230  1.4127
 4876SOL     OW26086   0.817   3.866   1.506  0.2277 -0.1878  0.0944
 4876SOL    HW126087   0.885   3.869   1.438  0.1040  0.8406  0.0185
 4876SOL    HW226088   0.816   3.958   1.529 -0.8067  0.5491 -2.8236
 4877SOL     OW26089   3.907   3.011   0.320 -0.1502  0.1786  0.3980
 4877SOL    HW126090   3.858   2.944   0.272  3.8459 -2.1044 -0.4850
 4877SOL    HW226091   3.893   3.085   0.261  0.5402 -0.3132 -0.3967
 4878SOL     OW26092   1.334   2.416  10.205  0.3584 -0.1609  0.6004
 4878SOL    HW126093   1.265   2.481  10.192  0.1296 -0.5475 -0.1446
 4878SOL    HW226094   1.368   2.407  10.115  0.1033  0.9743  0.3897
 4879SOL     OW26095   2.835   3.371  12.471 -0.0006 -0.0084  0.1315
 4879SOL    HW126096   2.781   3.301  12.433 -1.4063  0.8746  0.5232
 4879SOL    HW226097   2.861   3.418  12.392 -0.5364  0.6064  0.3274
 4880SOL     OW26098   1.251   3.243   3.868 -0.0633 -0.2025 -0.2769
 4880SOL    HW126099   1.221   3.332   3.849 -2.6547 -1.1488 -0.7176
 4880SOL    HW226100   1.278   3.213   3.781  3.2292 -0.4822  0.8669
 4881SOL     OW26101   1.462   3.180  15.635  0.0494  0.6294  0.6821
 4881SOL    HW126102   1.432   3.176  15.545  1.1510  1.8780  0.2507
 4881SOL    HW226103   1.380   3.198  15.681 -0.5129 -0.4764  0.0966
 4882SOL     OW26104   2.317   1.432  11.135  0.0222  0.1061 -0.4434
 4882SOL    HW126105   2.401   1.428  11.090  0.6502  4.5036  0.3147
 4882SOL    HW226106   2.283   1.343  11.127 -1.0710  0.4037  0.8370
 4883SOL     OW26107   2.039   4.390   7.785  0.1237  0.1414  0.6644
 4883SOL    HW126108   2.003   4.361   7.702 -0.5598  0.6780  0.7703
 4883SOL    HW226109   1.957   4.400   7.834 -1.1152  2.7242 -1.9413
 4884SOL     OW26110   1.523   1.252   5.423 -0.2180 -0.1853 -0.4706
 4884SOL    HW126111   1.456   1.212   5.367  0.5113 -0.5342 -1.1001
 4884SOL    HW226112   1.596   1.258   5.361 -0.5221 -0.4154 -0.8525
 4885SOL     OW26113   1.574   2.213   7.388  0.1352 -0.2576  0.0552
 4885SOL    HW126114   1.666   2.191   7.374  0.0752  0.2109 -1.0079
 4885SOL    HW226115   1.596   2.253   7.472 -0.8591  3.8177 -1.6187
 4886SOL     OW26116   3.899   2.020  12.917  0.2531  0.5184 -0.7108
 4886SOL    HW126117   3.896   2.113  12.938 -0.3336  0.3047  0.1334
 4886SOL    HW226118   3.811   1.995  12.890 -0.0252 -1.2729  1.8780
 4887SOL     OW26119   2.785   0.571   2.920  0.7814  0.4183  0.2208
 4887SOL    HW126120   2.720   0.527   2.864  0.1323 -0.1876  1.4435
 4887SOL    HW226121   2.725   0.595   2.990  0.4695 -0.9405  0.4193
 4888SOL     OW26122   2.819   2.735   8.251  0.5929  0.9795  0.2860
 4888SOL    HW126123   2.846   2.761   8.339  2.3170 -0.5536  0.2140
 4888SOL    HW226124   2.727   2.759   8.249  0.5583  0.7932 -0.4718
 4889SOL     OW26125   1.488   0.576   8.979 -0.1595 -0.0651 -0.5090
 4889SOL    HW126126   1.496   0.645   9.044  0.0146 -0.5051 -0.0577
 4889SOL    HW226127   1.476   0.500   9.036  0.1790  0.4559  0.2581
 4890SOL     OW26128   2.365   4.452   8.809 -0.9983 -0.0973 -0.2794
 4890SOL    HW126129   2.457   4.430   8.826 -1.3193  0.8218  2.5709
 4890SOL    HW226130   2.370   4.505   8.730  0.9659 -0.2079 -0.2370
 4891SOL     OW26131   4.507   1.050   4.991  0.2449 -0.0036 -0.0161
 4891SOL    HW126132   4.574   1.065   5.058  1.4494  0.7656 -1.3836
 4891SOL    HW226133   4.442   1.115   5.017 -0.4320 -0.5244 -0.4081
 4892SOL     OW26134   0.627   0.354  10.659 -0.3634 -0.2424  0.1439
 4892SOL    HW126135   0.675   0.307  10.591 -0.1380  0.5047 -0.2077
 4892SOL    HW226136   0.676   0.435  10.651 -0.0203 -0.3580  1.1099
 4893SOL     OW26137   0.398   1.122   8.823 -0.5787  0.1144 -0.1368
 4893SOL    HW126138   0.403   1.077   8.907  3.6049 -2.7766 -1.9033
 4893SOL    HW226139   0.357   1.053   8.771 -0.6833  0.2341 -0.2127
 4894SOL     OW26140   4.390   3.560   8.499  0.0596 -0.1399 -0.5442
 4894SOL    HW126141   4.393   3.494   8.430 -0.1783 -0.6425 -0.0726
 4894SOL    HW226142   4.337   3.613   8.440  0.2221  1.4875  0.7636
 4895SOL     OW26143   4.138   2.860  15.642  0.1161 -0.8184 -0.6386
 4895SOL    HW126144   4.132   2.764  15.647 -2.2578 -0.6671 -0.4243
 4895SOL    HW226145   4.044   2.878  15.639  0.3497  0.4437 -0.3593
 4896SOL     OW26146   1.598   1.577   1.932  0.3899  0.4866  0.3965
 4896SOL    HW126147   1.656   1.615   1.866 -2.3302  0.1070 -2.1503
 4896SOL    HW226148   1.512   1.570   1.892  0.4542 -0.5688  0.4537
 4897SOL     OW26149   2.339   2.576   6.090 -0.0707 -0.2944  0.2794
 4897SOL    HW126150   2.268   2.515   6.071  0.9989 -1.1182 -1.0867
 4897SOL    HW226151   2.290   2.634   6.149  0.7017 -1.1823  1.7831
 4898SOL     OW26152   2.881   0.916   6.653 -0.0673  0.1690  0.0530
 4898SOL    HW126153   2.951   0.903   6.589  0.3182  0.3464  0.4381
 4898SOL    HW226154   2.895   1.000   6.696 -2.2611  0.1950  0.7136
 4899SOL     OW26155   3.575   0.587  14.254 -0.3090 -0.5162  0.1382
 4899SOL    HW126156   3.517   0.510  14.250 -1.5683  0.4714 -1.0011
 4899SOL    HW226157   3.601   0.592  14.162 -2.1293  0.1257 -0.3432
 4900SOL     OW26158   3.899   1.624   6.900  0.1679  0.7271  0.0200
 4900SOL    HW126159   3.866   1.626   6.810 -1.7574  1.0293  0.7192
 4900SOL    HW226160   3.942   1.538   6.902 -0.7026  0.3021  0.6350
 4901SOL     OW26161   1.363   2.630   4.754  0.3899  0.6187  0.3443
 4901SOL    HW126162   1.441   2.612   4.806  1.7965  0.5808 -1.7893
 4901SOL    HW226163   1.366   2.556   4.692 -1.8811  1.6619 -1.0446
 4902SOL     OW26164   2.787   4.248   0.413  0.5422  0.2239  0.2648
 4902SOL    HW126165   2.861   4.298   0.378  0.9515 -2.1541 -2.2281
 4902SOL    HW226166   2.830   4.175   0.457 -2.7375 -1.7440  0.1764
 4903SOL     OW26167   4.598   4.377   5.948  0.1054  0.5490 -0.5084
 4903SOL    HW126168   4.543   4.392   5.871 -1.2034 -0.3853  0.2368
 4903SOL    HW226169   4.685   4.374   5.909  0.1921  0.1782 -0.2921
 4904SOL     OW26170   3.874   1.111  17.529 -0.4492 -0.1216 -0.1670
 4904SOL    HW126171   3.783   1.084  17.543 -0.9115  2.2328  1.1630
 4904SOL    HW226172   3.897   1.053  17.456  1.0995  0.5533 -0.2047
 4905SOL     OW26173   2.243   1.033   9.028 -0.3063 -0.6337 -0.6331
 4905SOL    HW126174   2.148   1.034   9.011  0.4080 -1.6393 -4.5731
 4905SOL    HW226175   2.241   1.014   9.122  0.4114  1.1081 -0.2686
 4906SOL     OW26176   1.890   2.956  15.433  0.1991 -0.0921  0.6067
 4906SOL    HW126177   1.825   2.950  15.503 -1.1866  0.6742 -0.6111
 4906SOL    HW226178   1.843   2.907  15.366  0.7124  0.0171  0.1659
 4907SOL     OW26179   1.145   4.300  12.932 -0.1765 -0.9363  0.9324
 4907SOL    HW126180   1.052   4.317  12.944 -0.5695 -2.3422 -0.1175
 4907SOL    HW226181   1.181   4.386  12.951 -1.4015 -0.2313  0.0579
 4908SOL     OW26182   0.319   4.159  14.844  0.2586 -0.4025  0.1348
 4908SOL    HW126183   0.233   4.148  14.804  0.4171  0.9794 -0.5579
 4908SOL    HW226184   0.291   4.180  14.933  3.0130  1.1238  0.6201
 4909SOL     OW26185   3.369   0.411  16.696  0.1474 -0.0715  0.3459
 4909SOL    HW126186   3.401   0.482  16.752 -0.9588  0.9101 -0.2688
 4909SOL    HW226187   3.438   0.348  16.714  0.6259  0.2553 -0.3379
 4910SOL     OW26188   0.471   0.599   6.629 -0.0986  0.4831  0.0067
 4910SOL    HW126189   0.391   0.553   6.600  2.3588 -1.7574 -3.3130
 4910SOL    HW226190   0.473   0.563   6.717  0.2668 -0.4541 -0.3848
 4911SOL     OW26191   3.383   0.758   6.517 -0.3967  0.2130  0.1045
 4911SOL    HW126192   3.327   0.802   6.453 -0.2923 -2.6589 -1.9406
 4911SOL    HW226193   3.460   0.815   6.511  1.0250 -1.7364 -0.0637
 4912SOL     OW26194   4.596   1.843   1.078  0.5518 -0.0255  0.0064
 4912SOL    HW126195   4.556   1.865   1.162 -1.5180  0.4917 -1.0902
 4912SOL    HW226196   4.669   1.904   1.069  0.1280  0.7538  2.0594
 4913SOL     OW26197   4.503   0.528   6.124 -0.4150  0.4242  0.7294
 4913SOL    HW126198   4.468   0.592   6.062 -0.5938 -2.4489 -2.1578
 4913SOL    HW226199   4.452   0.452   6.095 -0.8207  0.9864 -0.0181
 4914SOL     OW26200   0.338   4.227   9.715 -0.2250 -0.2062  0.4515
 4914SOL    HW126201   0.264   4.276   9.751 -1.2761 -0.6993 -1.0789
 4914SOL    HW226202   0.300   4.159   9.661  1.0233  0.0962 -0.7926
 4915SOL     OW26203   3.660   3.989   4.589 -0.0225  0.4951 -0.2993
 4915SOL    HW126204   3.581   3.997   4.643  0.5749  1.3433  0.4408
 4915SOL    HW226205   3.669   3.894   4.575  0.3065  0.0375  3.0435
 4916SOL     OW26206   0.641   2.932  14.968 -0.0761  0.3650 -0.0205
 4916SOL    HW126207   0.694   2.943  15.047 -2.3908 -0.0628  1.6171
 4916SOL    HW226208   0.635   2.837  14.969 -0.2221  0.3782  0.4849
 4917SOL     OW26209   1.149   1.075  11.059  0.4213  0.1671 -0.4068
 4917SOL    HW126210   1.090   1.135  11.103  2.2203  1.0643  0.7609
 4917SOL    HW226211   1.090   1.019  11.008 -0.2788 -1.1106  1.8226
 4918SOL     OW26212   2.506   2.685   5.875 -0.4493  0.8291 -0.0151
 4918SOL    HW126213   2.466   2.624   5.937  0.2611  0.1598 -0.2131
 4918SOL    HW226214   2.495   2.638   5.793  0.7139  1.4275 -0.5053
 4919SOL     OW26215   1.770   1.936  10.847  0.1257  1.0874  0.2612
 4919SOL    HW126216   1.825   1.858  10.836 -0.3777  0.5839  1.2980
 4919SOL    HW226217   1.714   1.909  10.921  1.6035 -0.9313  0.6551
 4920SOL     OW26218   0.262   1.295   4.953  0.2550 -0.5753 -0.0044
 4920SOL    HW126219   0.270   1.369   4.892  1.4242 -1.5981 -1.0766
 4920SOL    HW226220   0.348   1.259   4.934  0.7664  0.3257  0.6203
 4921SOL     OW26221   0.944   3.464   4.064  1.0047  0.1711 -0.4517
 4921SOL    HW126222   0.861   3.492   4.025  1.1119  0.7851 -0.2364
 4921SOL    HW226223   1.003   3.478   3.990  2.0243  0.3443  0.3969
 4922SOL     OW26224   1.636   3.099   8.303  0.8066 -0.7884  0.6157
 4922SOL    HW126225   1.721   3.142   8.313  0.8003 -0.5902 -0.1956
 4922SOL    HW226226   1.569   3.161   8.332 -0.4031 -1.3359 -1.0543
 4923SOL     OW26227   3.243   0.624   9.805 -0.4829  0.1071  0.1598
 4923SOL    HW126228   3.277   0.630   9.895  1.4567  0.2690 -0.5819
 4923SOL    HW226229   3.194   0.542   9.811 -1.6857  0.8705  0.8388
 4924SOL     OW26230   2.142   0.035   2.315 -0.0994  0.7227  0.1701
 4924SOL    HW126231   2.215   4.717   2.360 -1.8206 -0.8865  1.4791
 4924SOL    HW226232   2.105   0.070   2.396 -1.1612 -0.6900  0.2959
 4925SOL     OW26233   3.696   3.693  17.329  0.5075  0.2857 -0.8095
 4925SOL    HW126234   3.776   3.665  17.284  0.8007  2.3563 -1.5647
 4925SOL    HW226235   3.686   3.623  17.393  2.5400  0.9905  0.2820
 4926SOL     OW26236   0.950   3.508   3.605  0.1898 -0.0733 -0.3488
 4926SOL    HW126237   0.941   3.557   3.523  1.4393 -1.6774 -1.4370
 4926SOL    HW226238   0.884   3.559   3.652  0.9440  0.1193  0.4951
 4927SOL     OW26239   2.242   0.285   6.705  0.2251 -0.1354 -0.2926
 4927SOL    HW126240   2.301   0.237   6.646 -0.6316 -1.3785 -0.1358
 4927SOL    HW226241   2.310   0.336   6.748 -0.1313  2.1128 -2.3911
 4928SOL     OW26242   3.352   0.675  10.125  0.8236  0.0591  0.1625
 4928SOL    HW126243   3.350   0.731  10.202  1.1085  3.2303 -2.1323
 4928SOL    HW226244   3.279   0.617  10.148  2.7924 -2.5768 -0.2357
 4929SOL     OW26245   4.112   3.383   4.833 -0.2923  0.2322  0.0948
 4929SOL    HW126246   4.162   3.308   4.865  0.1635 -0.2777 -1.8341
 4929SOL    HW226247   4.161   3.457   4.870 -1.2216 -0.5497  2.8485
 4930SOL     OW26248   4.306   3.079  13.995  0.3774 -0.0217 -0.1660
 4930SOL    HW126249   4.213   3.058  13.982  0.7234 -1.1717 -0.8450
 4930SOL    HW226250   4.320   3.051  14.086  0.7778 -1.3096 -0.6285
 4931SOL     OW26251   1.967   1.854  16.950 -0.8207 -0.3072 -0.0780
 4931SOL    HW126252   1.966   1.945  16.920 -1.4668  0.4718  2.2787
 4931SOL    HW226253   2.057   1.840  16.980 -0.6635  0.9639  0.0261
 4932SOL     OW26254   2.659   0.979   6.961  0.0238 -0.3545  0.2651
 4932SOL    HW126255   2.655   0.984   7.057 -2.6629  2.8699 -0.0341
 4932SOL    HW226256   2.637   0.888   6.946 -0.6320 -0.2803  0.8172
 4933SOL     OW26257   0.630   0.791   4.590  0.2782  0.7160  0.8786
 4933SOL    HW126258   0.640   0.716   4.649 -4.8353 -0.2961  0.4459
 4933SOL    HW226259   0.639   0.859   4.657 -0.9067  0.6805  1.0643
 4934SOL     OW26260   0.092   0.856  14.862 -0.2519 -0.0894 -0.0183
 4934SOL    HW126261   0.134   0.941  14.846  2.8651 -1.2696  1.6851
 4934SOL    HW226262   0.116   0.815  14.779  2.2127  0.6628  0.2941
 4935SOL     OW26263   4.150   2.411   2.811 -0.3465 -0.0266 -0.3807
 4935SOL    HW126264   4.203   2.337   2.780 -0.0655 -0.0134  0.0729
 4935SOL    HW226265   4.205   2.484   2.781 -1.3845  0.0578 -2.0612
 4936SOL     OW26266   4.429   2.586  11.198  0.0433 -0.0360  0.5531
 4936SOL    HW126267   4.454   2.537  11.276 -0.2199  2.6692  2.3299
 4936SOL    HW226268   4.343   2.624  11.214  0.4997  0.2304  2.4138
 4937SOL     OW26269   0.533   3.572   8.681 -0.7694 -0.0186  0.5533
 4937SOL    HW126270   0.545   3.647   8.739 -1.9580  1.3967 -1.0326
 4937SOL    HW226271   0.613   3.577   8.629 -1.3365  1.0790 -0.1969
 4938SOL     OW26272   3.251   0.187  16.956  0.2853 -0.7027  0.3487
 4938SOL    HW126273   3.344   0.212  16.957  0.1153 -0.0771  0.3352
 4938SOL    HW226274   3.264   0.092  16.956  1.0362 -0.6010  1.4922
 4939SOL     OW26275   0.119   2.746   0.081 -0.0837 -0.3165 -0.5565
 4939SOL    HW126276   0.142   2.836   0.103  2.9300 -1.3498  0.4625
 4939SOL    HW226277   0.110   2.712   0.170 -0.8670  0.7655 -0.2135
 4940SOL     OW26278   3.043   2.423   5.798 -0.1650  0.1278 -0.3585
 4940SOL    HW126279   3.043   2.461   5.709 -1.2438 -1.5087 -1.0563
 4940SOL    HW226280   3.115   2.361   5.789 -0.2951 -0.1546  0.6212
 4941SOL     OW26281   3.190   3.149  10.765 -0.0429 -0.8664 -0.3185
 4941SOL    HW126282   3.152   3.164  10.852  0.0151  0.0398 -0.4583
 4941SOL    HW226283   3.113   3.172  10.713 -1.0792 -1.0813  1.1272
 4942SOL     OW26284   4.280   0.362   5.985  0.3421  0.1275  0.2160
 4942SOL    HW126285   4.233   0.319   6.057  1.7204 -0.4408  0.7730
 4942SOL    HW226286   4.302   0.289   5.928 -1.2329 -0.8230  0.8057
 4943SOL     OW26287   3.059   1.243   2.373  0.0304 -0.3966  0.4963
 4943SOL    HW126288   3.116   1.180   2.417  2.2284  2.0617  1.1653
 4943SOL    HW226289   2.993   1.260   2.440  0.3052 -2.0044  1.1642
 4944SOL     OW26290   1.176   0.834  12.349  0.5224 -0.5704  0.1067
 4944SOL    HW126291   1.113   0.764  12.365 -0.9214  0.9279  0.8749
 4944SOL    HW226292   1.155   0.875  12.264 -0.2731 -0.1117  0.5274
 4945SOL     OW26293   0.390   4.309   8.584 -0.6625  0.3342 -0.7983
 4945SOL    HW126294   0.360   4.236   8.638 -1.7921  1.5453  0.2154
 4945SOL    HW226295   0.419   4.366   8.655 -0.9603 -1.1637  0.5217
 4946SOL     OW26296   2.020   0.506  13.787 -0.3223  0.8350  0.2733
 4946SOL    HW126297   1.997   0.494  13.879  0.2000  0.1377  0.3077
 4946SOL    HW226298   2.090   0.442  13.775 -2.5170 -1.6484  0.6088
 4947SOL     OW26299   3.467   2.645   4.617  0.3038  0.1533  0.2739
 4947SOL    HW126300   3.378   2.659   4.585  0.4139  2.7868  1.1409
 4947SOL    HW226301   3.446   2.617   4.707  1.6361  0.4082  0.6591
 4948SOL     OW26302   2.944   2.704   4.829 -0.0369  0.3611 -0.0049
 4948SOL    HW126303   2.958   2.797   4.842 -2.6519  0.8660 -0.6487
 4948SOL    HW226304   2.955   2.672   4.918  2.9211 -1.3154 -0.9709
 4949SOL     OW26305   1.910   1.651   0.765 -0.8938 -0.3413 -0.0791
 4949SOL    HW126306   1.842   1.613   0.709  1.6087  0.4035 -3.6255
 4949SOL    HW226307   1.906   1.596   0.843  0.0373 -2.0164 -1.2102
 4950SOL     OW26308   0.350   0.539   3.613 -0.2999  0.7991 -0.0765
 4950SOL    HW126309   0.288   0.611   3.599 -2.4939 -1.1098 -0.0970
 4950SOL    HW226310   0.404   0.590   3.673 -1.1119 -1.8902  2.9283
 4951SOL     OW26311   2.109   0.559   8.799  0.1636  0.1109 -0.1028
 4951SOL    HW126312   2.173   0.573   8.729  0.1403  1.5402  0.1647
 4951SOL    HW226313   2.035   0.517   8.755  0.7195 -2.6492  1.5592
 4952SOL     OW26314   1.128   3.111  17.673 -0.3782 -0.4761 -0.0167
 4952SOL    HW126315   1.124   3.178   0.045  1.1992  0.4892 -0.8487
 4952SOL    HW226316   1.064   3.149  17.613  0.0001  0.3018  0.0701
 4953SOL     OW26317   3.631   1.980  12.523 -0.2157 -0.3197 -0.5778
 4953SOL    HW126318   3.724   1.994  12.509  0.0618 -1.3347  0.2405
 4953SOL    HW226319   3.639   1.950  12.613  1.7914  2.1653  0.0500
 4954SOL     OW26320   2.407   3.880   4.770  0.1001  0.5907 -0.1050
 4954SOL    HW126321   2.462   3.956   4.788  0.0019  0.6765 -0.1640
 4954SOL    HW226322   2.472   3.815   4.748  0.0569  1.3219 -2.3689
 4955SOL     OW26323   2.009   1.765   6.781  0.1797 -0.2277 -0.5873
 4955SOL    HW126324   2.103   1.749   6.777  0.1136 -1.1523  1.5685
 4955SOL    HW226325   2.016   1.860   6.788 -0.8841 -0.1966  0.0941
 4956SOL     OW26326   4.649   4.178   3.819  0.2770  0.4657  0.0426
 4956SOL    HW126327   4.652   4.185   3.914 -0.3453 -2.2776  0.2627
 4956SOL    HW226328   4.692   4.094   3.801  1.0726  0.8205  0.2852
 4957SOL     OW26329   0.886   2.083  11.640  0.1773 -0.0466 -0.1662
 4957SOL    HW126330   0.980   2.099  11.642  0.2884 -0.2487 -3.2192
 4957SOL    HW226331   0.887   2.010  11.579  1.7977  1.0811 -1.4849
 4958SOL     OW26332   1.973   1.253   5.624 -0.0317  0.2898 -0.2613
 4958SOL    HW126333   2.044   1.190   5.635 -0.6405 -0.0036  1.9696
 4958SOL    HW226334   1.893   1.202   5.613 -0.7692  1.3620  0.1358
 4959SOL     OW26335   4.152   3.389   5.546 -0.3814  0.1875 -0.4281
 4959SOL    HW126336   4.115   3.458   5.601  0.9211  0.5172  0.0297
 4959SOL    HW226337   4.159   3.320   5.612 -1.3973  0.2806 -0.2130
 4960SOL     OW26338   1.899   3.291   3.759  0.3166 -0.7675  0.0131
 4960SOL    HW126339   1.972   3.299   3.697 -2.5153 -2.1295 -3.5204
 4960SOL    HW226340   1.826   3.316   3.702 -0.9928 -0.7015  1.7115
 4961SOL     OW26341   4.674   0.574   7.519  0.3493  0.2662  0.3594
 4961SOL    HW126342   0.010   0.594   7.591  0.9853  0.3226 -0.1914
 4961SOL    HW226343   4.646   0.485   7.538 -1.0177  0.4313 -0.8457
 4962SOL     OW26344   3.285   1.789  11.904 -0.2569  0.5266  0.3283
 4962SOL    HW126345   3.239   1.723  11.852 -0.9393  1.5122 -0.3135
 4962SOL    HW226346   3.213   1.850  11.922 -0.8160  0.3618 -1.3984
 4963SOL     OW26347   3.512   2.228   8.711  0.2336 -0.2727 -0.3006
 4963SOL    HW126348   3.441   2.200   8.654 -2.4282  2.1110  1.8017
 4963SOL    HW226349   3.553   2.281   8.643  0.6479 -0.2695 -0.0489
 4964SOL     OW26350   2.453   4.269  10.717  0.3194  0.9298 -0.0942
 4964SOL    HW126351   2.493   4.350  10.748  2.6849 -0.7100  1.1919
 4964SOL    HW226352   2.492   4.203  10.774  0.1749  2.2998  1.5842
 4965SOL     OW26353   0.856   3.563   8.929  0.2570 -0.2430 -0.0378
 4965SOL    HW126354   0.863   3.523   8.842  3.0059  1.1219 -0.4298
 4965SOL    HW226355   0.802   3.498   8.974  1.4159 -1.1191  0.0814
 4966SOL     OW26356   3.352   1.437   5.535 -0.2335  0.1104 -0.4087
 4966SOL    HW126357   3.299   1.455   5.613 -1.5191 -2.2858 -0.7242
 4966SOL    HW226358   3.416   1.381   5.579 -0.0523  0.9855  0.4395
 4967SOL     OW26359   3.819   4.624   2.538 -0.3840  0.2226  0.0283
 4967SOL    HW126360   3.823   4.598   2.630  2.5045  1.2692  0.1893
 4967SOL    HW226361   3.739   4.675   2.550 -0.1963  0.9071 -1.5865
 4968SOL     OW26362   1.005   4.706   3.853 -0.1003 -0.0447 -0.0663
 4968SOL    HW126363   1.027   0.039   3.779  1.4355 -0.5051  0.0400
 4968SOL    HW226364   1.088   4.673   3.887  0.7915  2.1132 -0.1226
 4969SOL     OW26365   0.864   0.172   6.741 -0.4643 -0.2563 -0.5101
 4969SOL    HW126366   0.852   0.170   6.646  0.3178 -0.8255 -0.6054
 4969SOL    HW226367   0.807   0.098   6.763 -0.1809 -0.1642  0.5252
 4970SOL     OW26368   3.777   2.075   9.625 -0.2109  0.4831 -0.1970
 4970SOL    HW126369   3.682   2.072   9.608 -0.1311 -1.5169 -0.2554
 4970SOL    HW226370   3.777   1.983   9.652  2.8013  1.0865  1.8268
 4971SOL     OW26371   1.410   4.686   2.298  0.1202  0.3570  0.2764
 4971SOL    HW126372   1.501   4.672   2.326  0.3634 -0.9640 -1.1395
 4971SOL    HW226373   1.418   0.054   2.273 -1.0903  0.7324  1.3201
 4972SOL     OW26374   4.674   1.905   6.599 -0.5565 -0.3894 -0.3569
 4972SOL    HW126375   4.609   1.887   6.666 -1.1884 -1.2186 -1.2085
 4972SOL    HW226376   4.657   1.999   6.592  1.9431  0.1547  0.6607
 4973SOL     OW26377   4.051   1.089   4.332  0.4170 -0.1441  0.0400
 4973SOL    HW126378   4.096   1.173   4.325  0.6624 -0.3361 -0.6924
 4973SOL    HW226379   4.115   1.029   4.368  2.6861  1.6080 -1.0746
 4974SOL     OW26380   4.090   0.248  17.452 -0.2230  0.5614 -0.3311
 4974SOL    HW126381   4.004   0.213  17.475  0.7472 -2.0537 -0.6232
 4974SOL    HW226382   4.117   0.287  17.536  0.8264 -1.7244  0.3993
 4975SOL     OW26383   3.016   2.026   6.680  0.4233 -1.0681 -0.1705
 4975SOL    HW126384   3.018   1.931   6.669  1.6129 -1.1072  0.3988
 4975SOL    HW226385   3.071   2.030   6.758 -0.5701 -0.7810  0.5156
 4976SOL     OW26386   4.629   1.877   8.157 -0.4186 -0.3258  0.3537
 4976SOL    HW126387   4.546   1.924   8.142 -0.6809 -0.6771  0.6947
 4976SOL    HW226388   4.678   1.904   8.080 -0.0155 -2.8525 -0.2585
 4977SOL     OW26389   0.816   0.108   6.261  0.1251  0.0347 -0.2909
 4977SOL    HW126390   0.743   0.049   6.246  0.3094 -0.4431  0.7345
 4977SOL    HW226391   0.769   0.177   6.308 -0.8419 -0.2855 -0.8061
 4978SOL     OW26392   3.333   1.380  16.885 -0.0509 -0.4867 -0.1614
 4978SOL    HW126393   3.313   1.366  16.792 -1.2743 -1.6851  0.2777
 4978SOL    HW226394   3.287   1.463  16.897 -0.2737 -0.6042 -0.2055
 4979SOL     OW26395   0.799   2.784  11.387  0.1287 -0.1546 -0.8861
 4979SOL    HW126396   0.781   2.691  11.401 -1.2116  0.0426 -1.2973
 4979SOL    HW226397   0.737   2.801  11.316  0.1481  0.0634 -0.8524
 4980SOL     OW26398   4.637   1.601   0.994 -0.0524 -0.0153  0.3215
 4980SOL    HW126399   4.596   1.624   0.910 -1.5321 -0.2436  0.9924
 4980SOL    HW226400   4.642   1.692   1.024 -0.1947  0.7757 -2.0149
 4981SOL     OW26401   0.688   4.044   6.203 -0.2889  0.1294  0.3883
 4981SOL    HW126402   0.682   3.968   6.146  0.9633  1.1770 -1.1381
 4981SOL    HW226403   0.672   4.116   6.141 -1.2556 -1.4550 -1.1814
 4982SOL     OW26404   1.817   3.596  17.468  0.1638  0.5855 -0.1921
 4982SOL    HW126405   1.800   3.541  17.545  1.0375 -1.8280 -1.7203
 4982SOL    HW226406   1.738   3.585  17.415 -1.3814  3.1990  1.5390
 4983SOL     OW26407   3.440   0.168   7.938 -0.4134 -0.0153 -0.0446
 4983SOL    HW126408   3.464   0.238   7.999 -1.3568 -0.1567  0.5039
 4983SOL    HW226409   3.510   0.176   7.874 -0.7016 -0.0048 -0.3546
 4984SOL     OW26410   2.361   4.296  16.884 -0.2586 -0.3688 -0.0691
 4984SOL    HW126411   2.439   4.275  16.833 -0.5299  0.4511 -0.8143
 4984SOL    HW226412   2.288   4.264  16.832 -1.1630  1.2405  0.2043
 4985SOL     OW26413   0.551   1.221  13.729  0.0852  0.0480  0.5199
 4985SOL    HW126414   0.462   1.252  13.747  0.3712  0.3019  1.4728
 4985SOL    HW226415   0.582   1.303  13.691 -0.8775  0.1732  0.0039
 4986SOL     OW26416   3.802   2.635   3.982 -0.1846 -0.1549 -0.1250
 4986SOL    HW126417   3.784   2.718   4.026  1.0439  0.5140 -0.8865
 4986SOL    HW226418   3.728   2.580   4.008  0.7931 -2.0104 -1.2105
 4987SOL     OW26419   1.883   2.590   5.744  0.9069  0.2168  0.9612
 4987SOL    HW126420   1.919   2.542   5.818 -1.7937  0.0094  2.1788
 4987SOL    HW226421   1.954   2.653   5.730  0.8202  0.3004  0.8907
 4988SOL     OW26422   2.348   1.664  11.997 -0.0787 -0.1782 -0.3280
 4988SOL    HW126423   2.363   1.666  11.903  0.5484  1.6583 -0.1927
 4988SOL    HW226424   2.432   1.634  12.031 -0.7338 -0.3948  1.1111
 4989SOL     OW26425   3.845   3.196   3.304 -0.2614 -0.0369 -0.2242
 4989SOL    HW126426   3.835   3.209   3.399 -0.3615 -0.0908 -0.2273
 4989SOL    HW226427   3.925   3.245   3.286  0.0036 -0.6753 -0.7828
 4990SOL     OW26428   1.910   3.533   5.544 -0.3363 -0.3269 -0.5606
 4990SOL    HW126429   1.815   3.526   5.546 -0.4261  1.0936  0.6870
 4990SOL    HW226430   1.933   3.527   5.451 -0.2696  0.4852 -0.5968
 4991SOL     OW26431   1.002   3.625   9.143  0.0272 -0.4753  0.2563
 4991SOL    HW126432   0.960   3.619   9.057 -0.3955 -0.0276  0.4299
 4991SOL    HW226433   0.945   3.562   9.188 -1.9294  1.7169  0.8291
 4992SOL     OW26434   0.327   3.059   4.370 -0.1991  0.1780 -0.0066
 4992SOL    HW126435   0.257   3.090   4.427 -1.4829 -0.0484 -1.4444
 4992SOL    HW226436   0.350   2.973   4.403  0.8335  0.9455  1.2459
 4993SOL     OW26437   1.938   1.172  11.378 -0.3280  0.1617 -0.6879
 4993SOL    HW126438   1.883   1.095  11.369  2.1273 -1.5579 -1.0545
 4993SOL    HW226439   2.020   1.132  11.407 -0.5162  1.7283  2.0139
 4994SOL     OW26440   0.347   0.922   5.183 -0.5095 -0.1538  0.0404
 4994SOL    HW126441   0.287   0.891   5.115  1.5962  0.6601 -2.2124
 4994SOL    HW226442   0.328   0.853   5.246  1.7022 -0.6659  0.1558
 4995SOL     OW26443   1.365   1.103   3.115 -0.1018 -0.0887 -0.1434
 4995SOL    HW126444   1.354   1.081   3.207  0.2642  0.9248  0.1423
 4995SOL    HW226445   1.459   1.119   3.103 -0.2793  0.5238 -0.7003
 4996SOL     OW26446   0.646   0.697   3.050  0.6288  0.4039 -0.0609
 4996SOL    HW126447   0.683   0.620   3.007  1.3821  0.0390  1.2456
 4996SOL    HW226448   0.724   0.753   3.055  0.0540  1.0835  1.4377
 4997SOL     OW26449   1.501   0.965   8.988 -0.0451 -0.3931 -0.2745
 4997SOL    HW126450   1.413   1.003   8.991  0.4640  0.8509 -1.0247
 4997SOL    HW226451   1.511   0.966   8.892  2.2195  1.6609 -0.0114
 4998SOL     OW26452   4.591   4.153   2.827 -0.0067 -0.0448  0.0963
 4998SOL    HW126453   4.561   4.091   2.760  2.2496  0.1357 -1.0744
 4998SOL    HW226454   4.589   4.231   2.772 -2.0495 -0.8868 -0.9991
 4999SOL     OW26455   3.567   1.123   3.429 -0.4615 -0.5285  0.3086
 4999SOL    HW126456   3.578   1.187   3.499  0.5763 -0.4784  0.0996
 4999SOL    HW226457   3.640   1.149   3.373 -1.5463  1.1021 -0.3266
 5000SOL     OW26458   0.536   2.706  13.127  0.2940  0.1790 -0.2417
 5000SOL    HW126459   0.588   2.626  13.123  2.1147  1.2854  1.3814
 5000SOL    HW226460   0.565   2.757  13.052  0.1108  2.5671  1.3301
 5001SOL     OW26461   0.682   2.220   1.201  0.6068 -0.2250 -0.2480
 5001SOL    HW126462   0.608   2.160   1.197  1.1206 -0.9148  0.6528
 5001SOL    HW226463   0.758   2.161   1.207 -0.7837 -2.0861 -0.7946
 5002SOL     OW26464   1.524   0.133  11.315  0.4981  0.4534  0.6246
 5002SOL    HW126465   1.496   0.212  11.360 -1.5378 -0.5384  1.1331
 5002SOL    HW226466   1.613   0.160  11.296  0.3025  3.1726  3.5783
 5003SOL     OW26467   1.573   1.179   8.398  0.1931 -0.0715 -1.0752
 5003SOL    HW126468   1.494   1.158   8.448  1.2889  0.7855  1.0087
 5003SOL    HW226469   1.542   1.259   8.356  2.2366  1.8894  1.1760
 5004SOL     OW26470   2.261   2.010   3.420  0.3879 -0.3765 -0.5245
 5004SOL    HW126471   2.250   1.982   3.329  1.5682 -0.3233 -0.6926
 5004SOL    HW226472   2.184   1.963   3.453  0.8087  0.1276  1.1908
 5005SOL     OW26473   1.720   2.061   4.976 -0.2009  0.3097  0.0194
 5005SOL    HW126474   1.671   2.128   5.024 -0.6296  0.2608 -0.3539
 5005SOL    HW226475   1.711   2.089   4.885  0.3508  0.5165  0.0257
 5006SOL     OW26476   4.531   0.460   2.710  0.6547 -0.6154  0.6270
 5006SOL    HW126477   4.495   0.451   2.622  1.8533 -0.0389  0.0836
 5006SOL    HW226478   4.623   0.434   2.712  1.4318  1.8986 -3.0310
 5007SOL     OW26479   0.539   0.086   2.339 -0.1781  0.1405 -0.0816
 5007SOL    HW126480   0.615   0.127   2.298 -0.5187  0.3115 -0.5515
 5007SOL    HW226481   0.504   0.040   2.263 -1.0565 -1.4224  1.2722
 5008SOL     OW26482   2.015   0.634  15.186 -0.0567  0.1404 -0.3706
 5008SOL    HW126483   1.937   0.636  15.130 -0.6014 -2.3980  0.2580
 5008SOL    HW226484   1.975   0.654  15.270 -0.9748  0.6418 -0.9265
 5009SOL     OW26485   3.704   2.507   5.418 -0.1021 -0.2846  0.0627
 5009SOL    HW126486   3.788   2.516   5.462 -1.3355 -1.3212  2.6116
 5009SOL    HW226487   3.646   2.478   5.489  0.8651 -0.0954  0.9166
 5010SOL     OW26488   2.338   1.566   2.192 -0.1251  0.4630  0.3997
 5010SOL    HW126489   2.252   1.529   2.169  0.4468  0.4947 -1.7584
 5010SOL    HW226490   2.332   1.573   2.287 -0.7625 -0.6678  0.4350
 5011SOL     OW26491   2.730   3.099   5.588 -0.4650  0.0400  0.2960
 5011SOL    HW126492   2.787   3.176   5.584  0.7758 -0.7840  1.8224
 5011SOL    HW226493   2.642   3.135   5.577  0.5088  2.6929  1.2605
 5012SOL     OW26494   3.194   1.938   8.190  0.0799  0.2370  0.1526
 5012SOL    HW126495   3.214   1.863   8.246  1.0641  0.5430  0.2123
 5012SOL    HW226496   3.281   1.964   8.160  1.5506 -1.9550  2.5933
 5013SOL     OW26497   0.429   2.893   2.907  0.3406  0.4737  0.1564
 5013SOL    HW126498   0.476   2.948   2.844 -1.4332  0.9862 -0.7230
 5013SOL    HW226499   0.425   2.814   2.853  0.7205  0.1454  0.6074
 5014SOL     OW26500   0.179   0.480   8.587  0.1901  0.2160 -0.6215
 5014SOL    HW126501   0.109   0.544   8.573  0.1089  0.3015  0.1582
 5014SOL    HW226502   0.248   0.538   8.555  0.5835 -0.4544 -0.9898
 5015SOL     OW26503   0.474   0.060   4.964  0.3758  0.2972  0.4612
 5015SOL    HW126504   0.494   0.133   4.905 -0.1690  0.9645  1.0949
 5015SOL    HW226505   0.378   0.067   4.964  0.3497 -0.0231  2.4421
 5016SOL     OW26506   2.844   0.057   3.420 -0.2562 -0.0971  0.2128
 5016SOL    HW126507   2.831   4.689   3.400  1.3361  0.3475 -2.7324
 5016SOL    HW226508   2.939   0.061   3.427 -0.1446 -2.4723 -0.0626
 5017SOL     OW26509   3.397   3.465   3.735  0.1446  0.3633 -0.3404
 5017SOL    HW126510   3.345   3.530   3.689  0.5703 -1.3268 -3.2007
 5017SOL    HW226511   3.485   3.478   3.699  0.2789 -0.9423 -0.4748
 5018SOL     OW26512   4.046   1.489   4.943 -0.8970  0.2457  0.0869
 5018SOL    HW126513   4.119   1.499   4.881  0.8209  0.4860  2.1305
 5018SOL    HW226514   3.996   1.417   4.904  0.6484 -0.4372 -0.6517
 5019SOL     OW26515   4.493   0.879  11.680 -0.0275  0.2363 -0.4449
 5019SOL    HW126516   4.519   0.940  11.750  1.5013 -0.9773  0.0289
 5019SOL    HW226517   4.485   0.948  11.614 -0.5472 -0.4082 -1.0560
 5020SOL     OW26518   2.601   2.031   7.448  0.0861 -0.0279 -0.1484
 5020SOL    HW126519   2.558   1.978   7.381 -0.4128 -0.0028  0.1517
 5020SOL    HW226520   2.562   2.000   7.529  1.2727  2.1597  1.2561
 5021SOL     OW26521   3.236   1.827   8.536 -0.1033  0.2036 -0.5965
 5021SOL    HW126522   3.225   1.750   8.480  0.3365 -0.5518  0.3542
 5021SOL    HW226523   3.262   1.777   8.614 -1.9446 -1.1713 -0.8869
 5022SOL     OW26524   0.257   2.481  17.258  0.5048  0.0203 -0.5992
 5022SOL    HW126525   0.197   2.552  17.278 -0.3024 -0.7529 -0.2823
 5022SOL    HW226526   0.325   2.525  17.207 -0.0447  0.6915 -0.7499
 5023SOL     OW26527   3.004   3.883   3.931 -0.2374 -0.0737  0.1431
 5023SOL    HW126528   2.987   3.899   4.024  0.0027 -1.2742  0.3888
 5023SOL    HW226529   2.966   3.795   3.928 -0.6627  0.2198 -3.1277
 5024SOL     OW26530   2.978   4.689   4.666  0.6133  0.3282 -0.5508
 5024SOL    HW126531   2.990   4.594   4.659 -0.5150  0.1235  0.2737
 5024SOL    HW226532   3.055   4.715   4.616 -0.2648 -1.0820 -2.6305
 5025SOL     OW26533   2.520   1.433  11.951 -0.2557 -0.2737  0.3227
 5025SOL    HW126534   2.567   1.470  11.876  0.7466 -2.3233 -0.0637
 5025SOL    HW226535   2.475   1.366  11.899 -1.1226 -0.4770  1.3538
 5026SOL     OW26536   2.579   0.929  17.417  0.0136 -0.1512  0.0553
 5026SOL    HW126537   2.549   0.847  17.455  1.6351 -0.8839 -0.2666
 5026SOL    HW226538   2.546   0.986  17.488  1.3811  0.2334  0.3912
 5027SOL     OW26539   2.125   3.967   4.891 -0.2827  0.4461 -0.0240
 5027SOL    HW126540   2.071   3.927   4.822 -0.3796  0.8458 -0.1818
 5027SOL    HW226541   2.062   4.000   4.955  0.1899  0.6249  0.3476
 5028SOL     OW26542   0.912   3.669  10.421  0.2301  0.1923 -0.2696
 5028SOL    HW126543   0.816   3.667  10.419  0.2559 -3.0169  1.2799
 5028SOL    HW226544   0.912   3.601  10.488  1.5352 -0.3527 -0.8199
 5029SOL     OW26545   0.582   3.158  16.358  0.2907 -0.4172  0.2167
 5029SOL    HW126546   0.657   3.097  16.358 -0.4544 -1.3255  2.9117
 5029SOL    HW226547   0.548   3.153  16.269 -1.8548 -1.9966  1.1251
 5030SOL     OW26548   0.504   0.745   1.861  0.0595  0.9789  0.1528
 5030SOL    HW126549   0.509   0.795   1.942  1.1087  1.4307 -0.1938
 5030SOL    HW226550   0.424   0.694   1.879  0.2099  1.6444  2.7297
 5031SOL     OW26551   3.910   4.445   5.601 -0.2102  0.5368 -0.5747
 5031SOL    HW126552   3.926   4.373   5.661 -0.5072  2.0591  1.3485
 5031SOL    HW226553   3.876   4.516   5.656 -0.5600  0.9092 -1.2641
 5032SOL     OW26554   2.758   1.314   4.403 -0.0462  0.2930  0.2961
 5032SOL    HW126555   2.843   1.323   4.446 -1.1597  0.6159  2.4211
 5032SOL    HW226556   2.790   1.324   4.313  1.9088  1.8680  1.1715
 5033SOL     OW26557   3.515   1.180   2.967 -0.2240 -0.3477 -0.4859
 5033SOL    HW126558   3.562   1.257   2.998  0.5845 -0.8731 -0.4048
 5033SOL    HW226559   3.592   1.131   2.939  0.4888 -0.0260  0.9145
 5034SOL     OW26560   1.178   2.665   2.755 -0.0676 -0.0497 -0.4230
 5034SOL    HW126561   1.178   2.570   2.751 -0.1758 -0.1207  1.0701
 5034SOL    HW226562   1.084   2.678   2.742 -0.3142 -2.8337 -1.4043
 5035SOL     OW26563   2.625   2.527   3.250 -0.7173  0.3552 -0.3649
 5035SOL    HW126564   2.716   2.557   3.246 -0.6860  0.7195  3.2318
 5035SOL    HW226565   2.595   2.551   3.162 -1.6972 -0.2802 -0.1936
 5036SOL     OW26566   2.490   2.900   4.532  0.5392  0.0709 -0.0865
 5036SOL    HW126567   2.549   2.837   4.573 -1.0757  0.8149  3.3731
 5036SOL    HW226568   2.407   2.853   4.519  1.0737 -1.0005  0.4265
 5037SOL     OW26569   0.199   3.161   0.440  0.0489 -0.2715 -0.1889
 5037SOL    HW126570   0.178   3.169   0.533 -1.5927 -0.1898 -0.5548
 5037SOL    HW226571   0.184   3.250   0.407 -0.8860  0.2779  1.6911
 5038SOL     OW26572   4.173   2.033  16.008  0.5300 -0.3961 -0.4626
 5038SOL    HW126573   4.217   2.068  15.931  0.1041  2.2655  0.4690
 5038SOL    HW226574   4.176   1.938  15.997 -0.1191 -0.7528  2.2346
 5039SOL     OW26575   4.015   3.534   1.667 -0.1446  0.4967  0.0811
 5039SOL    HW126576   4.011   3.517   1.573 -0.9683  0.4065  0.1330
 5039SOL    HW226577   4.068   3.460   1.696  0.2610 -0.2234 -2.5438
 5040SOL     OW26578   3.730   0.931  15.025  0.9470  0.1005 -0.5212
 5040SOL    HW126579   3.726   0.879  15.105  1.0630  0.0844 -0.5250
 5040SOL    HW226580   3.680   0.880  14.961 -1.3701  0.7145  0.8293
 5041SOL     OW26581   1.042   0.855  14.013  0.2113 -0.4305  0.4505
 5041SOL    HW126582   1.004   0.789  14.071  0.3214 -0.1110  0.8854
 5041SOL    HW226583   0.981   0.859  13.939 -0.9783 -0.1127  1.4468
 5042SOL     OW26584   1.205   3.383   8.827 -0.2591 -0.2401  0.3063
 5042SOL    HW126585   1.270   3.450   8.805 -0.3048  0.2552  1.6576
 5042SOL    HW226586   1.260   3.306   8.813  0.7045  1.0550 -3.1021
 5043SOL     OW26587   1.288   3.091   0.292  0.1377 -0.0491  0.0229
 5043SOL    HW126588   1.314   3.086   0.200 -0.1590 -0.9310 -0.0169
 5043SOL    HW226589   1.212   3.147   0.283 -0.1862 -0.0654  2.6933
 5044SOL     OW26590   0.522   1.537   1.708 -0.2413  0.0085 -0.0974
 5044SOL    HW126591   0.556   1.592   1.638 -0.2062  0.1456  0.0287
 5044SOL    HW226592   0.541   1.453   1.665 -0.4962  0.5928 -1.3398
 5045SOL     OW26593   1.503   0.647  12.434 -0.2526  0.0651  0.2952
 5045SOL    HW126594   1.487   0.597  12.354  0.2148 -0.0929  0.3005
 5045SOL    HW226595   1.443   0.607  12.498  0.5813 -2.3774 -0.4399
 5046SOL     OW26596   4.675   1.636   4.449  0.1430  0.1879  0.4041
 5046SOL    HW126597   0.030   1.595   4.414 -0.2907 -1.5692  1.5229
 5046SOL    HW226598   4.718   1.683   4.521 -0.7716 -0.2623  1.2389
 5047SOL     OW26599   0.333   2.963   3.151  0.0534  0.2335  0.0891
 5047SOL    HW126600   0.420   3.002   3.165 -0.2654  1.2766 -0.8399
 5047SOL    HW226601   0.347   2.930   3.062 -1.2955 -1.0668  0.3622
 5048SOL     OW26602   3.750   3.887  13.497  0.0018 -0.1884  0.5100
 5048SOL    HW126603   3.823   3.898  13.558  0.6433  1.0613 -0.4972
 5048SOL    HW226604   3.741   3.976  13.463  1.3565 -0.2399  0.0169
 5049SOL     OW26605   3.598   2.895   7.973 -0.4089 -0.0165 -0.0099
 5049SOL    HW126606   3.642   2.820   8.014 -1.7237 -0.6843  0.1879
 5049SOL    HW226607   3.663   2.918   7.907 -1.3351 -0.0567 -0.9213
 5050SOL     OW26608   1.131   2.169  11.828 -0.0888 -0.2508 -0.6707
 5050SOL    HW126609   1.053   2.173  11.883  1.4844  1.3223  1.4262
 5050SOL    HW226610   1.134   2.076  11.805 -0.7280 -0.3153 -0.4894
 5051SOL     OW26611   1.281   2.252  12.244 -0.3999  0.1435  0.0862
 5051SOL    HW126612   1.291   2.216  12.156  1.7032 -0.5645  0.6087
 5051SOL    HW226613   1.309   2.179  12.300  1.8373  0.6970 -0.3041
 5052SOL     OW26614   1.035   0.970  12.147 -0.5625 -0.0299 -0.8882
 5052SOL    HW126615   0.984   0.986  12.226  0.1791 -1.5615 -0.1155
 5052SOL    HW226616   1.085   1.052  12.146 -1.3774  0.4832  0.3937
 5053SOL     OW26617   4.709   2.367   7.720  0.4790  0.5303  0.5159
 5053SOL    HW126618   4.673   2.452   7.746 -0.8191  0.1290 -0.0021
 5053SOL    HW226619   4.621   2.331   7.709  0.8418 -0.0635 -0.3583
 5054SOL     OW26620   1.673   3.974   2.148  0.3215 -0.6559 -0.4862
 5054SOL    HW126621   1.647   4.059   2.114 -2.3144 -1.4111 -0.3638
 5054SOL    HW226622   1.682   3.912   2.076  1.4399 -0.9028 -0.1327
 5055SOL     OW26623   0.579   3.125   4.287  0.0427  0.5144  0.4650
 5055SOL    HW126624   0.503   3.114   4.344 -0.5634 -0.0954 -0.4815
 5055SOL    HW226625   0.607   3.211   4.321  1.0496  0.2551  0.3068
 5056SOL     OW26626   1.457   2.797  11.760  0.2841  0.3078  0.4753
 5056SOL    HW126627   1.431   2.804  11.852  2.5429 -2.0664  1.2880
 5056SOL    HW226628   1.366   2.792  11.728  0.3969  0.1563  0.1775
 5057SOL     OW26629   3.046   3.176  15.474 -0.4595  0.3311  0.2841
 5057SOL    HW126630   3.073   3.252  15.526  2.2879 -2.3634  2.7832
 5057SOL    HW226631   3.124   3.125  15.495 -0.4404  0.4928  0.6081
 5058SOL     OW26632   3.861   3.196   0.128  0.2301  0.3653  0.9481
 5058SOL    HW126633   3.797   3.220   0.061 -0.2656 -3.6050 -0.0425
 5058SOL    HW226634   3.942   3.237   0.097  0.3790 -1.1493 -0.6935
 5059SOL     OW26635   4.351   4.126  11.607 -0.2239  0.1206  0.3498
 5059SOL    HW126636   4.288   4.126  11.679  0.9805  1.5493  1.3927
 5059SOL    HW226637   4.301   4.141  11.527  0.9358  1.8859 -0.0473
 5060SOL     OW26638   3.518   0.533   8.337  0.4604 -0.1838  0.1365
 5060SOL    HW126639   3.490   0.610   8.387 -0.4536 -0.7378  0.4818
 5060SOL    HW226640   3.577   0.488   8.396 -1.0003  1.0759  2.5642
 5061SOL     OW26641   0.881   3.084   7.015  0.5580 -0.5187  0.6190
 5061SOL    HW126642   0.835   3.149   7.069  1.1181  1.3363 -1.1397
 5061SOL    HW226643   0.922   3.144   6.952 -0.4816 -2.1494 -1.6062
 5062SOL     OW26644   0.669   0.155   9.309  0.4817  0.4142  0.5521
 5062SOL    HW126645   0.750   0.113   9.280  0.6360 -0.4216  2.1572
 5062SOL    HW226646   0.678   0.131   9.401 -1.2175 -0.1410  0.5701
 5063SOL     OW26647   1.273   4.475   7.676 -0.0308 -0.2298  0.5853
 5063SOL    HW126648   1.188   4.517   7.690  0.8171  1.7627 -0.1659
 5063SOL    HW226649   1.294   4.446   7.764  1.5773 -1.6982 -0.2824
 5064SOL     OW26650   0.017   2.253   2.865  0.3406 -0.2133  0.4170
 5064SOL    HW126651   4.648   2.246   2.885  0.5517  0.2628  1.5910
 5064SOL    HW226652   0.014   2.266   2.771  2.3407 -1.0676  0.2222
 5065SOL     OW26653   4.041   1.388  13.154  0.1214 -0.8950 -0.0555
 5065SOL    HW126654   4.021   1.306  13.108  1.3791 -1.7474  0.9452
 5065SOL    HW226655   3.987   1.450  13.105  3.2271 -0.1693 -2.5098
 5066SOL     OW26656   1.946   0.647   6.972  0.1225  0.0292 -1.0000
 5066SOL    HW126657   1.869   0.599   7.001  0.1355  0.3638 -0.4228
 5066SOL    HW226658   1.935   0.727   7.023 -0.1732 -0.5553 -0.1608
 5067SOL     OW26659   2.788   2.977   4.908  0.4385 -0.4409 -0.5751
 5067SOL    HW126660   2.769   3.069   4.889 -2.4933 -1.4425 -2.5011
 5067SOL    HW226661   2.733   2.932   4.844 -1.7707  2.0418 -0.4184
 5068SOL     OW26662   1.774   3.640   7.696  0.7195  0.0010  0.1892
 5068SOL    HW126663   1.857   3.669   7.733  0.3870  0.6238  0.4614
 5068SOL    HW226664   1.806   3.556   7.662  0.0829  0.1592 -0.8014
 5069SOL     OW26665   1.572   0.158   5.939 -0.3525 -0.6417  0.2229
 5069SOL    HW126666   1.526   0.216   5.999 -1.4585 -0.0213 -1.2140
 5069SOL    HW226667   1.655   0.142   5.984 -1.0921 -0.2240  1.7467
 5070SOL     OW26668   3.897   4.498   2.074 -0.3401  0.0711  0.5318
 5070SOL    HW126669   3.934   4.413   2.099 -1.3745 -0.8396 -1.0252
 5070SOL    HW226670   3.937   4.552   2.142  0.9466  2.5281 -2.1438
 5071SOL     OW26671   0.466   3.226   3.216  0.0412  0.0085  0.0540
 5071SOL    HW126672   0.456   3.301   3.276 -0.8106 -0.8538  1.0012
 5071SOL    HW226673   0.390   3.240   3.160  0.9905 -0.9696 -1.4860
 5072SOL     OW26674   3.057   4.558  10.498  1.1365 -0.3720 -0.4759
 5072SOL    HW126675   3.101   4.494  10.554 -0.2644  0.9381  2.0919
 5072SOL    HW226676   3.027   4.501  10.426 -1.3547  1.0122 -0.5556
 5073SOL     OW26677   4.571   1.648   5.840 -0.2643 -0.0160  0.0724
 5073SOL    HW126678   4.553   1.736   5.805  1.5252  0.2323 -0.1954
 5073SOL    HW226679   4.501   1.605   5.791  1.3122 -0.7516 -1.5244
 5074SOL     OW26680   2.590   0.593   6.960 -0.0335  0.6358  0.5876
 5074SOL    HW126681   2.636   0.643   6.893 -0.2759  0.3151  0.1818
 5074SOL    HW226682   2.667   0.545   6.991 -0.7697 -0.5308  0.6252
 5075SOL     OW26683   3.418   0.109  16.558 -0.1768 -0.3551 -0.7355
 5075SOL    HW126684   3.439   0.086  16.648 -2.7008 -3.2382 -0.8740
 5075SOL    HW226685   3.494   0.077  16.509  1.8120  2.1965  0.7478
 5076SOL     OW26686   3.364   0.231   4.756 -0.3209 -0.4187  0.1918
 5076SOL    HW126687   3.456   0.207   4.742 -0.5702  0.7929 -3.5958
 5076SOL    HW226688   3.360   0.307   4.698  0.6658  1.3008  2.3838
 5077SOL     OW26689   1.681   4.437   0.305 -0.0584  0.1152 -0.0489
 5077SOL    HW126690   1.623   4.431   0.380  0.5723  1.2774  0.5381
 5077SOL    HW226691   1.673   4.530   0.284  0.6076  0.2141  0.1264
 5078SOL     OW26692   2.907   4.148  12.688 -0.1390  0.1632  0.0263
 5078SOL    HW126693   2.923   4.101  12.607  0.4233 -0.7680  0.6806
 5078SOL    HW226694   2.976   4.213  12.702  0.2111  0.1527 -1.6401
 5079SOL     OW26695   0.191   3.757  13.487  0.3441 -0.7138 -1.0182
 5079SOL    HW126696   0.171   3.809  13.410  1.2618  3.0222  1.2507
 5079SOL    HW226697   0.105   3.763  13.528  1.3979  0.4983  0.9964
 5080SOL     OW26698   0.875   1.839   1.009 -0.7010 -0.2802  0.3274
 5080SOL    HW126699   0.817   1.889   0.951 -0.4119  1.0998  1.2475
 5080SOL    HW226700   0.952   1.850   0.953 -0.5958 -1.7311  0.1810
 5081SOL     OW26701   4.526   0.874   4.537 -0.8444  0.2015  0.5668
 5081SOL    HW126702   4.593   0.942   4.537 -0.7577  0.1108  1.3312
 5081SOL    HW226703   4.515   0.861   4.443 -0.7908 -1.3392  0.7718
 5082SOL     OW26704   4.162   3.904   3.327 -0.4202 -0.3424  0.1483
 5082SOL    HW126705   4.227   3.972   3.307 -0.0821 -0.6501  0.2003
 5082SOL    HW226706   4.191   3.885   3.416 -1.3922 -1.5564  0.1958
 5083SOL     OW26707   4.128   2.304   7.444  0.4153 -0.0010  0.3818
 5083SOL    HW126708   4.070   2.228   7.452  0.8705 -0.5565 -1.7791
 5083SOL    HW226709   4.189   2.268   7.380  0.2437 -1.7269  1.1918
 5084SOL     OW26710   4.390   1.437   2.653 -0.3854  0.5536 -0.0328
 5084SOL    HW126711   4.431   1.350   2.647 -1.1800  0.1232  0.6686
 5084SOL    HW226712   4.427   1.468   2.736 -0.9315 -2.0432  1.1821
 5085SOL     OW26713   0.482   0.458   4.796 -0.1172 -0.1656 -0.0190
 5085SOL    HW126714   0.446   0.495   4.715  0.7459 -1.6173 -1.0787
 5085SOL    HW226715   0.470   0.526   4.862  1.5564 -1.4377  1.5942
 5086SOL     OW26716   4.062   2.747  15.935  0.1006  0.8336 -0.6490
 5086SOL    HW126717   4.092   2.656  15.930 -2.7726 -0.2194  1.1824
 5086SOL    HW226718   4.013   2.748  16.017 -1.4285 -0.6200 -1.5417
 5087SOL     OW26719   4.277   0.679   3.434  0.4365  0.4935  0.0429
 5087SOL    HW126720   4.306   0.596   3.396  1.6807  1.1705 -0.4959
 5087SOL    HW226721   4.220   0.711   3.364 -1.7225 -0.0149  1.5698
 5088SOL     OW26722   0.815   1.767   7.543  0.3455 -0.0459  0.6542
 5088SOL    HW126723   0.852   1.855   7.553  0.3398  0.1480 -0.9095
 5088SOL    HW226724   0.791   1.751   7.634  0.3356  1.0596  0.8454
 5089SOL     OW26725   0.124   0.837   7.039 -0.1220 -0.2821 -0.3363
 5089SOL    HW126726   0.073   0.859   7.117  2.3334  0.9190  0.9173
 5089SOL    HW226727   0.160   0.757   7.078  1.7909  0.5807 -0.3276
 5090SOL     OW26728   1.904   0.500  13.338  0.0360 -0.1532  0.0600
 5090SOL    HW126729   1.822   0.541  13.364  0.1263 -0.3816  0.7178
 5090SOL    HW226730   1.868   0.417  13.309  0.3201 -0.1942 -0.1762
 5091SOL     OW26731   2.597   2.118   8.491  0.3088  0.1196 -0.1784
 5091SOL    HW126732   2.542   2.185   8.451 -0.7641 -2.4058 -2.9561
 5091SOL    HW226733   2.552   2.104   8.574 -1.0398 -0.5339 -1.0284
 5092SOL     OW26734   0.305   0.832   3.960  0.8412 -0.7789  0.6097
 5092SOL    HW126735   0.328   0.789   3.878  2.3189  0.6067  0.3108
 5092SOL    HW226736   0.358   0.911   3.960 -0.4364  0.0821  2.0325
 5093SOL     OW26737   0.832   0.476   3.536  0.1738  0.3372 -0.0800
 5093SOL    HW126738   0.746   0.436   3.549  1.6729 -3.0770 -0.7427
 5093SOL    HW226739   0.823   0.503   3.445 -1.8142 -0.1896 -0.0248
 5094SOL     OW26740   3.843   0.629  10.452  0.2246  0.2456  0.1410
 5094SOL    HW126741   3.879   0.713  10.479 -0.1536  0.2940  0.4861
 5094SOL    HW226742   3.748   0.637  10.439  0.3864 -2.0214 -2.3406
 5095SOL     OW26743   4.224   4.395   5.716  0.1637 -0.0497  0.7893
 5095SOL    HW126744   4.144   4.360   5.755 -1.7611  1.3000 -1.9384
 5095SOL    HW226745   4.279   4.324   5.748  0.1282 -0.5079 -0.1666
 5096SOL     OW26746   3.531   3.412   3.305 -0.3368 -0.0620 -0.0170
 5096SOL    HW126747   3.617   3.386   3.337 -0.7460 -1.7866 -0.3356
 5096SOL    HW226748   3.558   3.454   3.223  1.4681  0.5836  0.9139
 5097SOL     OW26749   1.359   2.161   5.749 -0.8158  0.0905  0.2418
 5097SOL    HW126750   1.347   2.221   5.676  2.1704 -1.1923 -1.2550
 5097SOL    HW226751   1.297   2.092   5.726 -0.3556  0.3997 -1.8860
 5098SOL     OW26752   1.087   2.568   2.217  0.5184 -0.3731  0.1961
 5098SOL    HW126753   1.095   2.496   2.155  0.0186 -1.1605  1.0564
 5098SOL    HW226754   1.029   2.531   2.283  1.3245 -1.5231  0.2657
 5099SOL     OW26755   1.240   4.060   8.618 -0.2513  0.0882  0.1593
 5099SOL    HW126756   1.224   4.013   8.699 -0.7265 -1.3708 -0.7733
 5099SOL    HW226757   1.206   4.145   8.647 -0.2499  0.2889 -0.4093
 5100SOL     OW26758   4.288   2.290  17.249  0.4985 -0.2432 -0.0873
 5100SOL    HW126759   4.213   2.283  17.190 -1.0759  0.9806  1.7756
 5100SOL    HW226760   4.333   2.207  17.232  2.1622  0.9622 -1.5344
 5101SOL     OW26761   0.445   3.865   9.323 -0.6289 -0.4391 -0.2641
 5101SOL    HW126762   0.416   3.915   9.399 -1.7353  0.7025 -1.4458
 5101SOL    HW226763   0.364   3.866   9.272 -1.8685 -2.6579  1.6565
 5102SOL     OW26764   0.105   3.628   4.436  0.6596  0.3266 -0.0637
 5102SOL    HW126765   0.117   3.654   4.344 -3.1546  0.6581 -0.4780
 5102SOL    HW226766   0.160   3.550   4.444  0.6282  0.2881 -0.2072
 5103SOL     OW26767   4.720   1.477   5.345  0.2154 -0.2052 -0.7423
 5103SOL    HW126768   0.004   1.552   5.404 -1.0772 -0.8278  0.2058
 5103SOL    HW226769   4.695   1.521   5.264  1.7862 -0.3237 -1.2892
 5104SOL     OW26770   2.983   1.927   6.374 -0.1403  0.1073  0.2115
 5104SOL    HW126771   2.889   1.912   6.364 -0.1043 -0.7133  1.1354
 5104SOL    HW226772   2.996   1.921   6.279 -2.3585 -1.6039  0.0242
 5105SOL     OW26773   3.814   2.366  16.679 -0.0970 -0.7131 -0.5236
 5105SOL    HW126774   3.772   2.342  16.597 -1.0240 -1.2016  0.0944
 5105SOL    HW226775   3.885   2.413  16.637  0.9872 -1.2520  0.6937
 5106SOL     OW26776   0.186   1.819   6.501  0.6353 -0.2784 -0.5027
 5106SOL    HW126777   0.098   1.840   6.534  0.9522  2.1998 -1.1883
 5106SOL    HW226778   0.208   1.752   6.566  1.0604 -0.2180 -0.5870
 5107SOL     OW26779   4.716   4.371   9.289  0.4212  0.0307 -0.1211
 5107SOL    HW126780   0.021   4.451   9.245  1.2432  0.2920  0.8873
 5107SOL    HW226781   4.622   4.392   9.289  0.8316  1.8249 -1.7271
 5108SOL     OW26782   3.329   3.361   1.541 -0.1411 -0.1150  0.0603
 5108SOL    HW126783   3.401   3.363   1.605  0.0622 -0.4162 -0.1588
 5108SOL    HW226784   3.337   3.268   1.519 -1.5763 -0.3710  0.6362
 5109SOL     OW26785   4.644   0.215  11.636 -0.0901  0.3030  0.4561
 5109SOL    HW126786   4.691   0.145  11.681 -2.7320 -1.7951 -0.0214
 5109SOL    HW226787   4.552   0.205  11.663  0.4557 -2.0204  1.4694
 5110SOL     OW26788   0.594   1.402   1.950 -0.3516  0.1072 -0.0781
 5110SOL    HW126789   0.595   1.461   2.026 -1.2580 -0.3332  0.2758
 5110SOL    HW226790   0.533   1.451   1.896 -1.5539 -0.4664  0.7603
 5111SOL     OW26791   0.959   1.801   4.731  0.3977  0.4633  0.8375
 5111SOL    HW126792   0.999   1.766   4.811 -0.8829 -0.4556  1.0812
 5111SOL    HW226793   0.870   1.809   4.764 -0.2330 -0.6686 -0.5714
 5112SOL     OW26794   3.581   0.725  17.347  0.1003 -0.0390  0.2035
 5112SOL    HW126795   3.581   0.814  17.313 -3.3312 -1.4337 -3.4782
 5112SOL    HW226796   3.526   0.725  17.426  1.8734  0.5190  1.4324
 5113SOL     OW26797   4.056   1.385   6.878 -0.3616 -0.6001  0.2633
 5113SOL    HW126798   4.078   1.340   6.797 -3.9932 -1.0013 -0.4674
 5113SOL    HW226799   4.046   1.310   6.938 -0.1222 -0.3319  0.6434
 5114SOL     OW26800   1.229   3.145  14.036 -0.1589  0.6060  0.0908
 5114SOL    HW126801   1.151   3.201  14.039 -0.6826 -0.1492  0.7139
 5114SOL    HW226802   1.285   3.174  14.107 -0.3641  1.4606 -0.0965
 5115SOL     OW26803   3.061   2.083   3.787 -0.3628 -0.2648 -0.1489
 5115SOL    HW126804   3.117   2.158   3.767 -0.1062  0.3618  2.8542
 5115SOL    HW226805   3.003   2.076   3.711 -0.7919 -3.2117  0.4660
 5116SOL     OW26806   0.059   0.976   7.588  0.4554  0.7567  0.0359
 5116SOL    HW126807   0.079   0.905   7.527  0.3144  2.6341 -2.2172
 5116SOL    HW226808   0.097   1.054   7.548  2.6065 -0.0721  0.4788
 5117SOL     OW26809   4.387   1.200   0.341 -0.6376  0.2083  0.6866
 5117SOL    HW126810   4.357   1.122   0.387  1.5253 -0.6005  0.6929
 5117SOL    HW226811   4.303   1.234   0.309 -0.8286  0.4568  1.4325
 5118SOL     OW26812   2.388   4.444   3.752 -0.4137 -0.0813  0.2759
 5118SOL    HW126813   2.320   4.468   3.689  0.6339 -1.4251 -1.3748
 5118SOL    HW226814   2.378   4.349   3.762  0.4745 -0.4299 -2.1738
 5119SOL     OW26815   1.533   3.400   1.303 -0.0550  0.1631  0.1566
 5119SOL    HW126816   1.564   3.440   1.384  0.4032  1.4608 -0.6555
 5119SOL    HW226817   1.445   3.377   1.334 -0.1597  2.2749  1.3719
 5120SOL     OW26818   0.570   1.012  10.598 -0.2592 -0.3571  0.0658
 5120SOL    HW126819   0.602   0.932  10.641  2.5528  1.7398  1.8450
 5120SOL    HW226820   0.571   0.984  10.507  3.5498 -1.9128  0.5664
 5121SOL     OW26821   0.321   2.686   8.397  0.4640 -0.3582 -0.0555
 5121SOL    HW126822   0.308   2.592   8.407 -3.5082 -0.0394 -2.6908
 5121SOL    HW226823   0.415   2.692   8.376  1.4910 -4.3548  3.3220
 5122SOL     OW26824   3.205   2.307   3.728 -0.1122 -0.3561  0.1715
 5122SOL    HW126825   3.298   2.284   3.729  0.2052  0.7640 -2.9663
 5122SOL    HW226826   3.203   2.386   3.674  1.6731  0.2900  1.0362
 5123SOL     OW26827   3.624   0.315   5.736 -0.3059 -0.0008  0.3141
 5123SOL    HW126828   3.599   0.311   5.643  1.1502 -0.0858 -0.0682
 5123SOL    HW226829   3.684   0.242   5.744 -0.4165  0.1229  2.3647
 5124SOL     OW26830   1.381   3.047   0.045  0.1639 -0.2342  0.1674
 5124SOL    HW126831   1.442   2.999  17.686  0.6268 -1.6071  1.8441
 5124SOL    HW226832   1.315   3.074  17.678 -1.1694 -2.0472  0.7598
 5125SOL     OW26833   3.245   4.617  16.888  0.1022 -0.2621  0.0518
 5125SOL    HW126834   3.208   4.588  16.971  1.2731  1.3689  1.1320
 5125SOL    HW226835   3.172   4.607  16.827  3.0706 -4.5612 -2.8474
 5126SOL     OW26836   2.469   3.713   9.111 -0.0658 -0.3687 -0.2276
 5126SOL    HW126837   2.473   3.656   9.034  1.2612 -0.2111 -0.2684
 5126SOL    HW226838   2.524   3.660   9.169  0.1827  1.1517  0.9124
 5127SOL     OW26839   3.785   2.369   6.782  0.2900 -0.3153  0.5311
 5127SOL    HW126840   3.746   2.340   6.864  0.7024 -0.1565  0.7843
 5127SOL    HW226841   3.824   2.449   6.816 -2.0754  1.2355 -0.4178
 5128SOL     OW26842   2.783   3.452   4.111 -0.2728  0.7860 -0.1440
 5128SOL    HW126843   2.771   3.449   4.206  0.5327 -0.6178 -0.0880
 5128SOL    HW226844   2.741   3.533   4.082 -0.3052  0.3098 -1.4348
 5129SOL     OW26845   2.674   0.144   2.068  0.4670  0.1359  0.6979
 5129SOL    HW126846   2.700   0.168   2.156  0.2357  1.8298  0.3026
 5129SOL    HW226847   2.725   0.065   2.050  0.3301  0.5870 -1.6690
 5130SOL     OW26848   3.014   0.298  17.023 -0.1359 -0.6286 -0.1488
 5130SOL    HW126849   3.092   0.254  16.991  1.7037  2.3049  0.3255
 5130SOL    HW226850   2.954   0.232  17.059 -1.2604 -0.8655 -2.4981
 5131SOL     OW26851   4.408   0.049   8.993 -0.1349  0.4679 -0.0360
 5131SOL    HW126852   4.481   0.048   9.054 -1.1523  0.7785  1.1882
 5131SOL    HW226853   4.368   4.686   8.998 -2.3867  1.5127  0.2450
 5132SOL     OW26854   1.056   4.016   2.560 -0.0053  0.0917 -0.0066
 5132SOL    HW126855   1.113   4.013   2.637  0.4090 -1.6817 -0.3896
 5132SOL    HW226856   1.106   4.073   2.502 -2.7868  1.8770 -0.6635
 5133SOL     OW26857   2.364   4.496  15.801  0.3636 -0.3371  0.2802
 5133SOL    HW126858   2.454   4.489  15.769 -0.3476 -1.3219 -1.4888
 5133SOL    HW226859   2.315   4.506  15.720  3.7875  0.9132 -1.6178
 5134SOL     OW26860   1.184   2.373   2.850  0.2753  0.3829  0.1369
 5134SOL    HW126861   1.231   2.319   2.913 -1.7856  0.4376  1.7297
 5134SOL    HW226862   1.158   2.436   2.917  0.3526  0.4413  0.1123
 5135SOL     OW26863   2.370   0.788  14.761  0.2490  0.2732 -0.1073
 5135SOL    HW126864   2.432   0.715  14.756  0.5340  0.5142 -0.1513
 5135SOL    HW226865   2.414   0.833  14.833 -1.0679  0.5859  0.5032
 5136SOL     OW26866   0.164   3.945  12.419  0.9290 -0.0770  0.1604
 5136SOL    HW126867   0.258   3.962  12.414  0.7876  0.4983 -0.5882
 5136SOL    HW226868   0.155   3.855  12.389  0.5025  0.6408 -1.8670
 5137SOL     OW26869   1.122   2.403   8.967 -0.2292 -0.5747  0.1523
 5137SOL    HW126870   1.114   2.454   9.047 -0.2538 -0.1554 -0.1170
 5137SOL    HW226871   1.200   2.444   8.929 -1.1037  0.4541 -0.5086
 5138SOL     OW26872   3.869   0.686   2.034 -0.1539  0.4094 -0.3253
 5138SOL    HW126873   3.837   0.751   2.097  1.2310  1.5715 -0.8159
 5138SOL    HW226874   3.795   0.630   2.013  0.1852  0.8323 -2.6749
 5139SOL     OW26875   1.787   1.392   3.478  0.3263  0.4794  0.7291
 5139SOL    HW126876   1.871   1.404   3.432  0.1049  0.0178  0.2012
 5139SOL    HW226877   1.745   1.476   3.460 -1.4004 -0.4955  0.2715
 5140SOL     OW26878   0.060   3.960   6.190 -0.9832  0.6897  0.0034
 5140SOL    HW126879   0.004   4.025   6.234  0.2854  0.8161  1.4389
 5140SOL    HW226880   0.063   3.885   6.250  1.4246  1.3223  0.6896
 5141SOL     OW26881   0.582   2.891   2.677 -0.1936 -0.0091 -0.1008
 5141SOL    HW126882   0.616   2.967   2.630 -1.2771  1.0711  0.8820
 5141SOL    HW226883   0.544   2.843   2.604 -1.3168  1.6297 -0.5948
 5142SOL     OW26884   1.092   3.843   8.972  0.2583 -0.1313  0.1394
 5142SOL    HW126885   1.179   3.835   9.011 -0.1050 -0.6965  0.8236
 5142SOL    HW226886   1.053   3.766   9.014  4.4231 -1.1552  2.0894
 5143SOL     OW26887   2.284   1.613   8.172  0.3718 -0.1501  0.8245
 5143SOL    HW126888   2.211   1.673   8.160  0.1527 -0.2657  1.5953
 5143SOL    HW226889   2.289   1.631   8.266 -0.0243 -0.9098  0.9895
 5144SOL     OW26890   2.042   3.438  13.453  0.5411  0.4464  0.2965
 5144SOL    HW126891   2.025   3.498  13.381 -1.3569 -0.0195  0.3769
 5144SOL    HW226892   2.104   3.485  13.509  1.1634 -1.9487  1.6493
 5145SOL     OW26893   2.216   1.725   3.259  0.1247 -0.1110 -0.2992
 5145SOL    HW126894   2.169   1.664   3.203  2.0174 -2.9740  1.2377
 5145SOL    HW226895   2.301   1.684   3.249  0.2332  0.1647 -0.5133
 5146SOL     OW26896   3.815   1.552   7.912  0.0371 -0.0565 -0.6460
 5146SOL    HW126897   3.793   1.625   7.970  1.9570  0.5557 -0.6835
 5146SOL    HW226898   3.730   1.509   7.904 -0.9626  2.0383 -1.2154
 5147SOL     OW26899   4.374   3.223   5.903 -0.4662  0.0057  0.1731
 5147SOL    HW126900   4.432   3.276   5.847 -1.3077 -0.7283 -1.3774
 5147SOL    HW226901   4.427   3.237   5.982 -0.0505 -0.5883  0.0022
 5148SOL     OW26902   0.742   1.849   1.958  0.1207  0.2063  0.8048
 5148SOL    HW126903   0.664   1.800   1.931 -0.4361  1.0243  0.9583
 5148SOL    HW226904   0.727   1.926   1.903 -0.6125 -0.4882  0.0331
 5149SOL     OW26905   3.833   0.865  13.149  0.5448  0.8651 -0.4291
 5149SOL    HW126906   3.905   0.922  13.125  0.8515 -0.4626 -2.6591
 5149SOL    HW226907   3.871   0.782  13.120  0.4573  0.9984 -0.9361
 5150SOL     OW26908   3.235   0.119   8.349  0.1608 -0.5647 -0.5001
 5150SOL    HW126909   3.330   0.109   8.360  0.2335  2.2387  1.0907
 5150SOL    HW226910   3.214   0.182   8.418  4.5758 -0.1380  0.4602
 5151SOL     OW26911   1.066   1.122  11.632  0.0278  0.8888  1.2645
 5151SOL    HW126912   1.049   1.171  11.551  1.6144  0.5012  0.6928
 5151SOL    HW226913   0.980   1.147  11.666 -0.5036 -2.1043  2.1040
 5152SOL     OW26914   1.464   4.250   7.687  0.4822  0.8130 -0.4477
 5152SOL    HW126915   1.395   4.308   7.656 -0.1869  0.8970  1.2004
 5152SOL    HW226916   1.486   4.282   7.775  0.0420 -0.3760  0.0893
 5153SOL     OW26917   4.553   2.321   3.780 -0.2805  0.3924 -0.3952
 5153SOL    HW126918   4.611   2.388   3.816  0.1594 -0.6641  0.8618
 5153SOL    HW226919   4.578   2.243   3.828 -1.1355  0.9372  0.9451
 5154SOL     OW26920   0.190   0.171   5.948  0.9331  0.6731  0.3000
 5154SOL    HW126921   0.244   0.247   5.968 -1.1855  2.3240 -0.3113
 5154SOL    HW226922   0.213   0.144   5.859 -0.0027  0.0892  0.2364
 5155SOL     OW26923   4.102   3.015   2.382 -0.2739 -0.3117 -0.4878
 5155SOL    HW126924   4.172   3.059   2.335 -1.5190  1.6478 -0.5046
 5155SOL    HW226925   4.074   3.092   2.431  0.0160 -0.7257  0.3514
 5156SOL     OW26926   4.269   1.513  13.287 -0.0138  0.2818 -0.6322
 5156SOL    HW126927   4.220   1.501  13.206  0.8375  0.3599 -1.1589
 5156SOL    HW226928   4.346   1.456  13.277 -0.9863 -1.0658 -0.4089
 5157SOL     OW26929   3.007   3.861   8.788  0.0954  0.2156  0.0899
 5157SOL    HW126930   2.921   3.826   8.768 -0.0762 -0.6093  2.3185
 5157SOL    HW226931   3.006   3.882   8.882  3.1637  1.2953 -0.0888
 5158SOL     OW26932   4.332   1.863   8.370 -0.1632 -0.0768  0.0226
 5158SOL    HW126933   4.384   1.786   8.346 -0.7608  0.0627 -1.7501
 5158SOL    HW226934   4.304   1.850   8.461 -1.0339  0.1877 -0.2087
 5159SOL     OW26935   2.021   3.958   3.343  0.4335  0.1761  0.1366
 5159SOL    HW126936   1.949   3.899   3.324  0.6428 -0.6397  1.9157
 5159SOL    HW226937   1.982   4.043   3.320  1.9077 -0.1549 -3.6182
 5160SOL     OW26938   3.943   2.007   5.452 -0.0938 -0.5664  0.3395
 5160SOL    HW126939   3.886   1.975   5.383  0.4209  0.6778 -0.6562
 5160SOL    HW226940   3.913   1.956   5.528 -1.5337  0.3758  0.3973
 5161SOL     OW26941   2.720   1.309   8.756 -0.0879  0.3987  0.1235
 5161SOL    HW126942   2.625   1.310   8.742 -0.2136 -0.6493  0.9223
 5161SOL    HW226943   2.731   1.223   8.795 -1.3513 -1.2616 -3.2589
 5162SOL     OW26944   1.463   4.474  15.414 -0.9651  0.2463  0.5720
 5162SOL    HW126945   1.431   4.384  15.411 -1.1309  0.2886  1.1219
 5162SOL    HW226946   1.462   4.501  15.322  3.3107 -0.7676  0.2427
 5163SOL     OW26947   0.280   4.570   0.820  0.3972  0.3795  0.3437
 5163SOL    HW126948   0.281   4.554   0.726 -0.6549 -2.1368  0.7499
 5163SOL    HW226949   0.325   4.654   0.830  3.0547 -1.1665  1.3773
 5164SOL     OW26950   4.358   0.077   7.193  0.0769 -0.3295 -0.0891
 5164SOL    HW126951   4.296   0.127   7.140  0.1463 -0.4215 -0.2550
 5164SOL    HW226952   4.323   4.712   7.187 -2.4381  0.6111  0.8193
 5165SOL     OW26953   0.167   2.449   7.911 -0.4087  0.2064 -0.1635
 5165SOL    HW126954   0.226   2.375   7.927  0.6718  1.0979 -0.0466
 5165SOL    HW226955   0.108   2.414   7.844 -1.1024  1.3379 -0.1343
 5166SOL     OW26956   0.969   2.628   3.867 -0.3009  1.1524  0.1924
 5166SOL    HW126957   0.949   2.695   3.932  1.9144  0.1528  1.8905
 5166SOL    HW226958   0.933   2.547   3.903  1.6372  0.8845  1.5227
 5167SOL     OW26959   2.399   3.561   1.642 -0.2761 -0.0947  0.5161
 5167SOL    HW126960   2.348   3.552   1.723  0.8015 -0.5184  1.1584
 5167SOL    HW226961   2.480   3.512   1.657  1.8895  2.3611 -3.2237
 5168SOL     OW26962   1.257   4.546  12.904 -0.6510  0.6551  0.6312
 5168SOL    HW126963   1.293   4.580  12.985  2.2008  1.7345 -1.1067
 5168SOL    HW226964   1.188   4.610  12.888  0.4442  1.4963 -0.6960
 5169SOL     OW26965   4.076   2.442  16.498  0.3063 -0.3435 -0.7532
 5169SOL    HW126966   4.151   2.488  16.461  0.7914  0.8577  1.7595
 5169SOL    HW226967   4.049   2.517  16.551  1.9515 -0.0927 -0.2827
 5170SOL     OW26968   1.130   4.208  16.734 -0.2077 -0.5538 -0.1957
 5170SOL    HW126969   1.067   4.137  16.732 -1.2164  0.3831 -1.7097
 5170SOL    HW226970   1.176   4.195  16.651  0.2795  0.2877 -0.0592
 5171SOL     OW26971   4.666   3.308  14.825  0.4051 -1.2362  0.0974
 5171SOL    HW126972   4.643   3.215  14.828  2.7768 -1.9432 -3.3467
 5171SOL    HW226973   0.027   3.309  14.870  0.5785 -0.3411 -0.2623
 5172SOL     OW26974   2.587   3.754   4.317  0.2508  0.4998  0.0139
 5172SOL    HW126975   2.626   3.709   4.242 -0.3935  1.1925 -0.7266
 5172SOL    HW226976   2.521   3.690   4.344  1.1365 -0.5233 -0.2476
 5173SOL     OW26977   2.070   2.325   5.258 -0.5614 -0.2670  0.4049
 5173SOL    HW126978   2.066   2.254   5.194 -1.8650  0.6265 -0.5132
 5173SOL    HW226979   2.008   2.304   5.329 -0.8785 -2.2659 -0.4511
 5174SOL     OW26980   3.891   0.426   2.385 -0.5406  0.4329  0.5045
 5174SOL    HW126981   3.927   0.378   2.459 -0.0266  0.4290  0.2541
 5174SOL    HW226982   3.892   0.352   2.324 -0.9281  0.5039  0.4145
 5175SOL     OW26983   0.623   1.483   7.620  0.2905  0.2909 -0.2952
 5175SOL    HW126984   0.550   1.538   7.650  1.2416 -0.1834  2.8848
 5175SOL    HW226985   0.627   1.422   7.694 -0.4076  0.1989 -0.3332
 5176SOL     OW26986   0.372   4.414   9.081 -0.3883 -0.1936 -0.1071
 5176SOL    HW126987   0.416   4.333   9.105 -0.2320  0.2158  1.0043
 5176SOL    HW226988   0.289   4.384   9.044  0.3228 -0.3173 -1.5776
 5177SOL     OW26989   4.576   4.597  15.342 -0.1775  0.0889  0.2748
 5177SOL    HW126990   4.583   4.551  15.258 -0.6851  0.0408  0.2570
 5177SOL    HW226991   4.493   4.642  15.328 -0.0871  1.0819  2.9470
 5178SOL     OW26992   2.615   3.645   2.183 -0.0376  0.0053  0.1844
 5178SOL    HW126993   2.674   3.589   2.233 -0.2930  0.7745  1.3512
 5178SOL    HW226994   2.583   3.703   2.252 -0.1604  0.8404 -0.5647
 5179SOL     OW26995   3.768   3.867   8.211 -0.0735  0.2678 -0.1574
 5179SOL    HW126996   3.764   3.879   8.306  2.7858  1.4072 -0.1720
 5179SOL    HW226997   3.864   3.868   8.207 -0.0156 -1.1973  0.8510
 5180SOL     OW26998   0.975   3.665   4.350  0.1366  0.5327 -0.3540
 5180SOL    HW126999   0.947   3.709   4.270 -1.1705  0.1457 -0.1122
 5180SOL    HW227000   1.022   3.739   4.390 -0.8289 -0.6496  2.9385
 5181SOL     OW27001   1.322   2.667  12.214  0.1380 -0.3179 -0.3959
 5181SOL    HW127002   1.252   2.680  12.278 -0.7266 -1.0007 -1.1870
 5181SOL    HW227003   1.369   2.592  12.248 -0.9260 -1.8403 -2.2622
 5182SOL     OW27004   0.792   3.343  16.386 -0.3421 -0.7122  0.1563
 5182SOL    HW127005   0.845   3.264  16.373 -0.0868 -0.3706 -0.8948
 5182SOL    HW227006   0.714   3.298  16.417 -0.5334  1.5405  2.9324
 5183SOL     OW27007   3.735   0.881   8.916 -0.3581 -0.6617 -0.4506
 5183SOL    HW127008   3.720   0.976   8.913  0.7833 -0.4777 -0.1876
 5183SOL    HW227009   3.643   0.857   8.929  0.1269 -2.5120 -0.5188
 5184SOL     OW27010   2.295   0.297   6.032 -0.5906 -0.4511  0.5370
 5184SOL    HW127011   2.249   0.232   5.978  0.1943 -0.3128 -0.3040
 5184SOL    HW227012   2.369   0.245   6.064 -0.9218  0.4572  2.7561
 5185SOL     OW27013   1.127   1.183   2.815  0.0029  0.0546 -0.9864
 5185SOL    HW127014   1.039   1.152   2.838  0.7798 -0.7404  0.9271
 5185SOL    HW227015   1.184   1.108   2.834 -2.2638 -1.4300 -0.0669
 5186SOL     OW27016   1.119   0.827   9.054  0.3462 -0.3089  0.1125
 5186SOL    HW127017   1.166   0.748   9.079  0.7334 -0.7939 -2.1551
 5186SOL    HW227018   1.061   0.787   8.990 -0.8735  0.2907  0.8413
 5187SOL     OW27019   2.763   0.427   6.699  0.3035 -0.0247  0.8177
 5187SOL    HW127020   2.789   0.419   6.608 -0.3090  0.0262  0.6375
 5187SOL    HW227021   2.817   0.502   6.724  0.1419  0.5584 -0.6033
 5188SOL     OW27022   2.908   2.989   5.403  0.3634 -0.2067  0.2079
 5188SOL    HW127023   2.843   3.010   5.471  3.3143  0.8873  2.7250
 5188SOL    HW227024   2.951   3.074   5.393  1.1533 -0.7227 -0.7036
 5189SOL     OW27025   1.338   2.520   9.933 -0.0614  0.3642  0.1319
 5189SOL    HW127026   1.414   2.478   9.892  0.0881  0.2974  0.4796
 5189SOL    HW227027   1.315   2.582   9.863 -2.3729 -0.1457  0.4269
 5190SOL     OW27028   1.226   1.416   2.753  0.1992 -0.2157  0.4817
 5190SOL    HW127029   1.219   1.329   2.792 -0.0466 -0.2392  0.3838
 5190SOL    HW227030   1.135   1.444   2.763  0.8926  1.7017  1.4355
 5191SOL     OW27031   3.618   0.297   2.237 -0.0510 -0.4435  0.2187
 5191SOL    HW127032   3.527   0.281   2.213  0.3078 -1.8731 -0.2151
 5191SOL    HW227033   3.665   0.263   2.161 -0.1356 -1.0913  0.4530
 5192SOL     OW27034   2.699   2.672   5.368 -0.3411 -0.2375  0.0733
 5192SOL    HW127035   2.783   2.712   5.343  0.2267 -1.4920 -0.0355
 5192SOL    HW227036   2.730   2.582   5.381  2.3267  0.6955  0.2817
 5193SOL     OW27037   4.031   4.124   7.513  0.5034 -0.0637  0.2511
 5193SOL    HW127038   4.090   4.188   7.474 -0.6357 -0.9492 -2.9137
 5193SOL    HW227039   3.960   4.176   7.552 -0.3468 -0.6545 -0.4932
 5194SOL     OW27040   0.029   0.864   5.220 -0.3106 -0.0785 -1.0590
 5194SOL    HW127041   0.049   0.853   5.127  0.7443 -0.5916 -0.7734
 5194SOL    HW227042   0.028   0.960   5.224 -0.6346 -0.1068 -0.4923
 5195SOL     OW27043   1.984   1.350   8.476  0.2985 -0.3236  0.1042
 5195SOL    HW127044   1.903   1.400   8.466  1.5380  1.3729 -1.4155
 5195SOL    HW227045   2.025   1.413   8.536 -0.8532  0.7671 -0.2551
 5196SOL     OW27046   4.232   0.597  16.635  0.4671  0.0324  0.0972
 5196SOL    HW127047   4.220   0.503  16.628  0.5965  0.0293 -0.0980
 5196SOL    HW227048   4.295   0.599  16.707  0.2239  1.3202  0.2847
 5197SOL     OW27049   0.377   0.662   8.483 -0.1816 -0.3751  0.2195
 5197SOL    HW127050   0.463   0.703   8.478 -0.9241  0.9141 -2.0516
 5197SOL    HW227051   0.394   0.583   8.432  0.0005  1.0831 -1.9684
 5198SOL     OW27052   1.045   3.723   8.580 -0.3598  0.4102  0.0527
 5198SOL    HW127053   1.051   3.636   8.618 -0.4798  0.5635  0.4257
 5198SOL    HW227054   1.009   3.770   8.656  2.2393  0.7927  1.0518
 5199SOL     OW27055   2.229   2.003   3.877 -0.3777  0.2865 -0.6710
 5199SOL    HW127056   2.193   1.971   3.794  1.9346  0.4550 -1.7162
 5199SOL    HW227057   2.180   2.085   3.882  0.2751  0.6645 -0.5495
 5200SOL     OW27058   1.175   2.548   1.819  0.0945  0.0081  0.2534
 5200SOL    HW127059   1.110   2.485   1.849 -1.2858 -0.1058 -2.9826
 5200SOL    HW227060   1.128   2.587   1.746  0.8255 -1.6019 -1.0769
 5201SOL     OW27061   3.385   0.446   3.872  0.1598  0.4169 -0.6420
 5201SOL    HW127062   3.355   0.537   3.868 -0.7363  0.1664  0.5071
 5201SOL    HW227063   3.478   0.458   3.894  0.3313  0.0734 -1.1791
 5202SOL     OW27064   0.411   1.917  17.149 -0.1744 -0.2856 -0.9295
 5202SOL    HW127065   0.439   1.982  17.213  1.4650  0.6137 -2.5342
 5202SOL    HW227066   0.342   1.963  17.101  0.0837 -0.0506 -1.0792
 5203SOL     OW27067   1.647   1.807   4.923 -0.5036  0.9263  0.1825
 5203SOL    HW127068   1.682   1.895   4.939 -0.3614  0.9720 -0.3654
 5203SOL    HW227069   1.645   1.756   5.004  1.6813 -1.7439 -1.4291
 5204SOL     OW27070   0.226   0.307   3.744  0.0503 -0.5710  0.6696
 5204SOL    HW127071   0.295   0.373   3.740 -0.5909 -0.0095 -1.0980
 5204SOL    HW227072   0.151   0.365   3.756 -0.7442 -1.6471  0.9055
 5205SOL     OW27073   4.026   2.059   4.285  0.3352 -0.0170  0.3515
 5205SOL    HW127074   3.971   2.049   4.363 -0.0925  1.7964  0.2938
 5205SOL    HW227075   3.979   1.993   4.235  1.8494 -1.0156  0.2619
 5206SOL     OW27076   1.865   2.920   3.949 -0.3307 -0.2533  0.3402
 5206SOL    HW127077   1.919   2.844   3.925 -0.5958 -0.9840  2.0546
 5206SOL    HW227078   1.868   2.933   4.044 -0.1201  0.4956  0.2346
 5207SOL     OW27079   4.139   3.125   8.162  0.5336 -0.3713 -0.0255
 5207SOL    HW127080   4.179   3.191   8.219  0.7792  0.3787 -1.0699
 5207SOL    HW227081   4.203   3.056   8.180  0.5112 -0.4397 -0.2053
 5208SOL     OW27082   0.360   3.749   6.088 -0.0998  0.3003 -0.3888
 5208SOL    HW127083   0.365   3.835   6.130  0.1157  0.6256 -1.0737
 5208SOL    HW227084   0.324   3.770   6.002  2.3282  0.4644 -1.3825
 5209SOL     OW27085   3.760   1.372  17.191 -0.3482 -0.0031  0.0540
 5209SOL    HW127086   3.807   1.440  17.142  0.6748 -1.9250 -1.6186
 5209SOL    HW227087   3.669   1.393  17.174 -0.0895  0.8485 -0.3009
 5210SOL     OW27088   3.485   0.889   0.135  0.2727  0.0645  0.4446
 5210SOL    HW127089   3.393   0.917   0.133  0.0918 -0.4243  1.8235
 5210SOL    HW227090   3.528   0.965   0.174  0.1151 -1.5137  3.6806
 5211SOL     OW27091   3.353   0.994   8.557  0.3464  0.2219  0.4538
 5211SOL    HW127092   3.272   1.018   8.512  1.3210 -0.4179 -1.6721
 5211SOL    HW227093   3.331   1.014   8.648  0.1249 -0.9504  0.6521
 5212SOL     OW27094   0.707   0.494  14.817  0.5090  0.1015 -0.3596
 5212SOL    HW127095   0.755   0.532  14.743  0.0136 -1.3145 -1.3995
 5212SOL    HW227096   0.669   0.572  14.856  0.2596 -0.4344  0.4626
 5213SOL     OW27097   4.215   3.602   6.677  0.5860  0.0267  0.0185
 5213SOL    HW127098   4.254   3.619   6.591 -0.6749  1.0180 -0.3615
 5213SOL    HW227099   4.222   3.692   6.710  2.1399  0.3408 -1.1469
 5214SOL     OW27100   0.656   2.609   1.728 -0.2466 -0.0615  0.3967
 5214SOL    HW127101   0.564   2.633   1.743 -0.5760 -2.6323  2.5141
 5214SOL    HW227102   0.664   2.514   1.739  0.1296 -0.0417  0.2864
 5215SOL     OW27103   1.352   4.040   5.951  0.0381  0.1295 -0.4189
 5215SOL    HW127104   1.379   4.111   5.893  2.4611  0.7094  1.4029
 5215SOL    HW227105   1.346   3.977   5.880  1.4802  0.2475 -0.6437
 5216SOL     OW27106   4.076   1.057   5.823  0.1729  0.2783  0.1102
 5216SOL    HW127107   3.989   1.016   5.815  0.3935 -0.4553  1.3784
 5216SOL    HW227108   4.092   1.070   5.730  1.4573  2.3140  0.6317
 5217SOL     OW27109   3.712   1.585   4.915 -0.3317  0.5625  0.0967
 5217SOL    HW127110   3.658   1.632   4.979  0.9400  2.3634 -0.1772
 5217SOL    HW227111   3.783   1.648   4.910 -1.0904  1.5368  1.6633
 5218SOL     OW27112   1.844   2.104   9.198  0.3351  0.2644  0.0137
 5218SOL    HW127113   1.900   2.052   9.256  0.4282  0.5519  0.1799
 5218SOL    HW227114   1.899   2.180   9.180 -1.5664  1.0908 -2.2515
 5219SOL     OW27115   2.773   2.973  14.152  0.4751  0.1575  0.6087
 5219SOL    HW127116   2.800   3.015  14.070 -2.7436  0.4047 -0.2927
 5219SOL    HW227117   2.678   2.981  14.155  0.1847 -2.2479 -1.8295
 5220SOL     OW27118   3.209   3.415  10.690 -0.3390  0.9485  0.0698
 5220SOL    HW127119   3.224   3.509  10.681  2.3845  0.5499  0.3657
 5220SOL    HW227120   3.121   3.415  10.727 -1.1015  1.9770 -1.7469
 5221SOL     OW27121   1.862   1.253  16.341 -0.2787 -0.3686 -0.3889
 5221SOL    HW127122   1.826   1.218  16.422 -0.1758 -1.9590 -1.0346
 5221SOL    HW227123   1.787   1.300  16.304  0.2195  1.1346  0.4746
 5222SOL     OW27124   3.961   0.732   3.413  0.3153  0.2116  0.0166
 5222SOL    HW127125   3.869   0.758   3.408  0.7589  1.6112 -0.7893
 5222SOL    HW227126   3.964   0.673   3.337  1.4501  1.3195 -0.8085
 5223SOL     OW27127   2.688   0.081   1.347 -0.4409  0.2091  0.4912
 5223SOL    HW127128   2.652   4.718   1.325  1.0054 -0.5109  0.9627
 5223SOL    HW227129   2.612   0.129   1.314 -0.6141  0.1443  0.7950
 5224SOL     OW27130   3.672   0.815   3.423  0.2924 -0.0297  0.6518
 5224SOL    HW127131   3.703   0.905   3.435 -0.3921 -0.1210  3.0459
 5224SOL    HW227132   3.594   0.829   3.476  1.0969  0.2071  1.7643
 5225SOL     OW27133   2.116   3.728   6.909 -0.3690  0.1188  0.2680
 5225SOL    HW127134   2.104   3.785   6.833  0.3888 -0.3996 -0.2388
 5225SOL    HW227135   2.202   3.760   6.936 -0.6765  0.7593  0.4915
 5226SOL     OW27136   4.232   3.028  10.149 -0.0418 -0.0253 -0.2280
 5226SOL    HW127137   4.200   3.118  10.142  2.2473  0.7530 -0.8351
 5226SOL    HW227138   4.259   3.012  10.058 -1.4577 -2.8839 -0.1474
 5227SOL     OW27139   2.858   1.345   5.307 -0.5194  0.1668 -0.1144
 5227SOL    HW127140   2.898   1.357   5.393 -2.2652  3.1988  0.2656
 5227SOL    HW227141   2.933   1.346   5.248 -1.6435  1.4254 -1.5510
 5228SOL     OW27142   2.954   1.203   7.078  0.4525  0.2365 -0.3612
 5228SOL    HW127143   2.996   1.286   7.101 -2.6755  1.3386  1.4043
 5228SOL    HW227144   2.861   1.220   7.091  0.4424 -2.1105  2.7045
 5229SOL     OW27145   2.978   1.882   6.112  0.0090  0.1158  0.0243
 5229SOL    HW127146   2.946   1.798   6.080 -0.9403  1.0088 -1.3660
 5229SOL    HW227147   2.951   1.939   6.041 -0.9578 -0.5263 -0.1196
 5230SOL     OW27148   0.267   2.960   1.876 -0.0561 -0.2259  1.0252
 5230SOL    HW127149   0.189   2.999   1.917 -0.5518 -1.8014  1.5840
 5230SOL    HW227150   0.247   2.973   1.783  0.4411  0.3765  1.0051
 5231SOL     OW27151   3.363   4.263  14.947  0.4164 -0.1400  0.3465
 5231SOL    HW127152   3.426   4.240  15.016 -0.9449 -0.6342  1.4329
 5231SOL    HW227153   3.422   4.304  14.885 -2.4427  0.9398 -1.6497
 5232SOL     OW27154   0.667   1.850   5.560  0.0918  0.2166 -0.5813
 5232SOL    HW127155   0.681   1.809   5.645  0.1364 -2.3002 -1.7974
 5232SOL    HW227156   0.725   1.794   5.509  1.6675  0.8333  0.5472
 5233SOL     OW27157   1.663   3.637   8.758 -0.4134 -0.3984  0.8944
 5233SOL    HW127158   1.740   3.645   8.814  0.9473 -1.1592 -0.8635
 5233SOL    HW227159   1.684   3.705   8.694 -0.1575 -0.3071  1.0770
 5234SOL     OW27160   4.269   2.505   2.472  0.4668  0.5080  0.4517
 5234SOL    HW127161   4.235   2.555   2.398 -1.5208 -0.7110  0.5445
 5234SOL    HW227162   4.199   2.441   2.485  1.2743 -0.6266 -0.8297
 5235SOL     OW27163   3.930   2.614  16.641 -0.6713  0.7448 -0.4279
 5235SOL    HW127164   3.974   2.673  16.701 -2.4289  0.8499  0.7525
 5235SOL    HW227165   3.838   2.630  16.663 -0.2972  0.2452  1.4938
 5236SOL     OW27166   1.564   0.275  17.485 -0.0062 -0.5910  0.2774
 5236SOL    HW127167   1.489   0.236  17.441  0.4628 -0.6260 -0.4909
 5236SOL    HW227168   1.586   0.326  17.407  0.8603 -1.7361 -0.2225
 5237SOL     OW27169   3.491   1.789   2.300 -0.2199  0.5325  0.2238
 5237SOL    HW127170   3.483   1.710   2.246  0.5598  0.9708 -0.5381
 5237SOL    HW227171   3.427   1.851   2.265  0.1139  0.3402 -0.7304
 5238SOL     OW27172   2.475   2.565   7.174  0.2668  0.1152  0.6064
 5238SOL    HW127173   2.487   2.533   7.085 -1.8808  1.1807 -0.0699
 5238SOL    HW227174   2.544   2.509   7.208 -1.6554 -2.0818  0.8630
 5239SOL     OW27175   0.053   3.367   2.351 -0.3879  0.3907  0.1853
 5239SOL    HW127176   0.009   3.384   2.268  2.7661 -1.3778 -1.8415
 5239SOL    HW227177   0.141   3.333   2.334 -1.0521 -2.2001  1.8979
 5240SOL     OW27178   2.495   2.006   4.967  0.1402  0.0518 -0.3388
 5240SOL    HW127179   2.512   1.921   5.008 -1.5667  0.5459  1.4379
 5240SOL    HW227180   2.400   2.012   4.977  0.1617 -1.8129  0.9467
 5241SOL     OW27181   1.115   3.087   1.033  0.2804  0.0829  0.6752
 5241SOL    HW127182   1.161   3.135   0.965 -0.4319 -1.9826 -1.2658
 5241SOL    HW227183   1.025   3.118   1.028 -0.4312 -2.4793 -2.1073
 5242SOL     OW27184   3.873   4.129  12.622 -0.3155 -0.7550 -0.7128
 5242SOL    HW127185   3.918   4.123  12.538 -1.8745 -1.5500 -1.4847
 5242SOL    HW227186   3.885   4.040  12.655 -1.5912 -0.9529 -0.7743
 5243SOL     OW27187   1.268   3.013  16.210 -0.1972  0.0567  0.3974
 5243SOL    HW127188   1.199   2.947  16.206  2.5703 -2.9523  2.3711
 5243SOL    HW227189   1.314   2.991  16.129  0.9273  3.3697  0.1710
 5244SOL     OW27190   3.022   1.849  12.250  0.2597 -0.0030 -0.4337
 5244SOL    HW127191   2.995   1.937  12.222 -1.7044 -0.6077 -0.4290
 5244SOL    HW227192   2.974   1.836  12.331  1.3915  2.0486  0.5609
 5245SOL     OW27193   1.413   1.177  12.266 -0.8758  0.0681  0.5573
 5245SOL    HW127194   1.430   1.218  12.351  1.5619 -0.6428  0.4426
 5245SOL    HW227195   1.440   1.085  12.269 -0.8544  0.0128 -1.4994
 5246SOL     OW27196   2.463   3.328   7.765 -0.0803  0.0858 -0.1202
 5246SOL    HW127197   2.531   3.299   7.825 -0.8821 -2.7811 -0.6058
 5246SOL    HW227198   2.468   3.255   7.703  0.1696 -1.4366  1.7197
 5247SOL     OW27199   0.909   0.764   3.049 -0.1412 -0.1686  0.5671
 5247SOL    HW127200   0.945   0.733   2.965 -1.8121  1.1789 -0.6202
 5247SOL    HW227201   0.973   0.832   3.072  1.8371 -0.7861 -3.0333
 5248SOL     OW27202   4.131   2.898   8.730  0.3031 -0.0354 -0.6379
 5248SOL    HW127203   4.104   2.823   8.783 -1.6216  1.7917  0.9701
 5248SOL    HW227204   4.072   2.884   8.656  0.1252 -1.9239 -0.1320
 5249SOL     OW27205   0.350   1.542   1.029 -0.2239  0.2015 -0.2854
 5249SOL    HW127206   0.407   1.468   1.051  0.4499  0.6919 -0.3820
 5249SOL    HW227207   0.395   1.573   0.951  1.3892 -0.6081  0.3238
 5250SOL     OW27208   1.119   0.615  14.411  0.2391 -0.2844  0.1526
 5250SOL    HW127209   1.063   0.684  14.448 -1.6669 -0.8999 -1.5823
 5250SOL    HW227210   1.084   0.533  14.446 -0.4635  0.6211  1.5659
 5251SOL     OW27211   0.251   1.589  10.116 -0.3434 -0.2146 -0.1639
 5251SOL    HW127212   0.308   1.532  10.063  1.1602  0.8265  0.3181
 5251SOL    HW227213   0.177   1.530  10.128 -0.0323 -0.6337 -0.3124
 5252SOL     OW27214   0.264   1.623   6.673  0.1097 -0.2901  0.9293
 5252SOL    HW127215   0.309   1.545   6.640  1.1966  0.4671  0.5979
 5252SOL    HW227216   0.194   1.587   6.727 -0.1166  0.0912  0.8872
 5253SOL     OW27217   0.748   2.654  17.069 -0.0924  0.2354  0.1536
 5253SOL    HW127218   0.719   2.745  17.078 -0.2479 -0.1144  3.1879
 5253SOL    HW227219   0.837   2.656  17.104 -0.6793  0.3129  1.6341
 5254SOL     OW27220   1.506   3.053   3.584  0.5569  0.0251 -0.4127
 5254SOL    HW127221   1.464   2.969   3.568 -0.7129  1.0640 -2.4499
 5254SOL    HW227222   1.590   3.018   3.613 -1.2596 -1.2355  3.2849
 5255SOL     OW27223   0.523   2.821   4.284  0.1749 -0.1604  0.3686
 5255SOL    HW127224   0.540   2.912   4.261  1.6023 -0.3738  0.5716
 5255SOL    HW227225   0.610   2.798   4.318  1.2192 -0.3190 -2.4102
 5256SOL     OW27226   2.183   0.496   8.472  0.4452 -0.3845 -0.2461
 5256SOL    HW127227   2.199   0.536   8.387  3.3639 -2.0642 -0.4844
 5256SOL    HW227228   2.265   0.506   8.520  0.0663 -1.7707  0.7096
 5257SOL     OW27229   3.420   4.467  16.704 -0.2237  0.9599  0.1629
 5257SOL    HW127230   3.372   4.401  16.654  0.8157  0.5884 -0.3410
 5257SOL    HW227231   3.352   4.521  16.744 -1.2010  0.4105 -0.7886
 5258SOL     OW27232   2.078   1.463   0.139  0.0067 -0.2143 -0.5479
 5258SOL    HW127233   2.086   1.368   0.138  1.7914 -0.0706  1.3762
 5258SOL    HW227234   2.164   1.503   0.152 -0.2320  0.5020 -1.1189
 5259SOL     OW27235   4.364   4.221   6.760 -0.0418  0.1283 -0.0295
 5259SOL    HW127236   4.354   4.313   6.735  1.0627  1.2565  3.6654
 5259SOL    HW227237   4.273   4.196   6.744  0.8632 -2.4002 -1.2587
 5260SOL     OW27238   1.746   3.707   7.181  0.4535  0.5584  0.2040
 5260SOL    HW127239   1.725   3.799   7.199 -0.0270  0.3593  0.6490
 5260SOL    HW227240   1.837   3.699   7.209  1.1202  2.1013 -1.4861
 5261SOL     OW27241   4.331   1.077   7.934  0.2521 -0.7019 -0.4082
 5261SOL    HW127242   4.423   1.104   7.939 -0.2934  0.5575  2.5872
 5261SOL    HW227243   4.306   1.083   8.026 -2.0600 -0.3000 -1.0614
 5262SOL     OW27244   2.995   2.665   6.463 -0.5832  0.8493 -0.3593
 5262SOL    HW127245   2.960   2.751   6.438  0.0918  1.9613  2.4824
 5262SOL    HW227246   2.982   2.615   6.382 -0.9034  0.9509 -0.3720
 5263SOL     OW27247   4.222   1.615  10.350  0.3186  0.1004  0.1938
 5263SOL    HW127248   4.175   1.584  10.273  0.7002 -1.8133  0.7468
 5263SOL    HW227249   4.281   1.542  10.366  2.0528  1.5074  0.2625
 5264SOL     OW27250   3.339   1.324  13.409  0.3405 -0.5373  0.0061
 5264SOL    HW127251   3.277   1.278  13.352 -1.7115  1.2188  0.8550
 5264SOL    HW227252   3.348   1.259  13.479 -2.7272 -2.4817 -1.3984
 5265SOL     OW27253   0.446   2.638   5.242 -0.1886 -0.4512 -0.5110
 5265SOL    HW127254   0.366   2.661   5.195  0.5928  1.1295 -1.0785
 5265SOL    HW227255   0.474   2.554   5.206 -1.6127 -0.2994 -1.9693
 5266SOL     OW27256   3.520   0.427   1.422 -0.4329  0.3340  0.9475
 5266SOL    HW127257   3.468   0.350   1.444  0.9303 -1.2514 -1.3229
 5266SOL    HW227258   3.603   0.411   1.466 -0.1429 -0.2679  0.1957
 5267SOL     OW27259   1.089   3.934  10.815  0.1861  0.0838  0.0536
 5267SOL    HW127260   1.068   3.843  10.793  0.9781 -0.6509  2.3881
 5267SOL    HW227261   1.160   3.905  10.873  0.3301  2.1575  0.8889
 5268SOL     OW27262   0.482   3.071  11.356 -0.1380  0.3097  0.3631
 5268SOL    HW127263   0.549   3.097  11.419  1.0806 -2.2439  0.1218
 5268SOL    HW227264   0.423   3.146  11.347 -2.1035 -1.4409 -1.5327
 5269SOL     OW27265   3.722   4.535   7.054 -0.4123 -0.0752 -0.3915
 5269SOL    HW127266   3.633   4.552   7.086 -0.3872 -0.9223  0.1368
 5269SOL    HW227267   3.764   4.619   7.069 -0.4156 -0.3821  1.3727
 5270SOL     OW27268   2.797   3.433  10.104 -0.0484  0.2234 -0.0936
 5270SOL    HW127269   2.772   3.346  10.136 -2.5187  1.3940  1.1373
 5270SOL    HW227270   2.886   3.439  10.138 -0.8980 -1.0075  2.3724
 5271SOL     OW27271   1.563   2.143   9.170  0.2468  0.4473 -0.1760
 5271SOL    HW127272   1.655   2.120   9.170  0.0727 -0.2730  0.4334
 5271SOL    HW227273   1.534   2.119   9.258  0.9042  0.0631 -0.0666
 5272SOL     OW27274   0.405   1.622   7.440 -0.0509  0.2079  0.0994
 5272SOL    HW127275   0.413   1.676   7.362 -0.4229  0.7933  0.4707
 5272SOL    HW227276   0.374   1.536   7.410 -1.4787  0.3906  1.0290
 5273SOL     OW27277   0.183   0.570  14.013 -0.0711  0.3639  0.2105
 5273SOL    HW127278   0.134   0.618  14.079 -2.1763 -0.2644 -0.9019
 5273SOL    HW227279   0.207   0.486  14.051  1.9775  1.0239  0.3973
 5274SOL     OW27280   1.568   3.727   4.351 -0.5157  0.3920  0.3486
 5274SOL    HW127281   1.556   3.676   4.271  1.1536  0.7404 -0.1074
 5274SOL    HW227282   1.642   3.785   4.334 -0.2594 -1.1115 -3.7075
 5275SOL     OW27283   1.693   3.228  11.574  0.3782 -0.1512  0.1877
 5275SOL    HW127284   1.771   3.177  11.597  0.1374 -0.4888  0.2672
 5275SOL    HW227285   1.682   3.201  11.483 -0.2225 -1.2710  0.5931
 5276SOL     OW27286   3.919   4.222   5.312 -0.4363 -0.1807 -0.2273
 5276SOL    HW127287   3.984   4.174   5.261  0.2958  1.4754 -0.8469
 5276SOL    HW227288   3.941   4.171   5.390 -0.9648  0.4582  0.3397
 5277SOL     OW27289   0.581   3.365   4.416  0.0132 -0.0183 -0.8864
 5277SOL    HW127290   0.561   3.458   4.407  0.7214  0.1426 -0.8540
 5277SOL    HW227291   0.673   3.376   4.440 -0.2278 -2.1935  1.0816
 5278SOL     OW27292   1.533   3.083  10.085  0.5481 -0.3538  0.5427
 5278SOL    HW127293   1.624   3.096  10.056 -0.2263 -0.2866 -1.8489
 5278SOL    HW227294   1.503   3.165  10.125 -0.9818 -1.1830  1.0910
 5279SOL     OW27295   4.517   4.357   6.478 -0.1400  0.2820  0.0200
 5279SOL    HW127296   4.423   4.367   6.495  0.3317 -0.1620  2.8969
 5279SOL    HW227297   4.532   4.418   6.406 -0.0215 -1.4252 -1.3861
 5280SOL     OW27298   4.010   2.443  10.392 -0.1199 -0.4441 -0.6401
 5280SOL    HW127299   4.096   2.483  10.411 -0.3090  0.3862 -1.4707
 5280SOL    HW227300   3.966   2.516  10.347 -2.5007 -1.3822  0.1876
 5281SOL     OW27301   0.535   0.221   4.719 -0.3617 -0.0484  0.5887
 5281SOL    HW127302   0.523   0.304   4.766 -3.6503 -0.8293  1.1192
 5281SOL    HW227303   0.535   0.252   4.628 -0.1860  2.1687  1.3420
 5282SOL     OW27304   4.254   4.358   6.513 -0.2186 -0.4097 -0.5577
 5282SOL    HW127305   4.188   4.294   6.538  0.9536 -2.0825 -1.7388
 5282SOL    HW227306   4.238   4.429   6.576  0.2221 -0.3794 -0.4779
 5283SOL     OW27307   4.599   0.944   5.554 -0.0029 -0.1007  0.3513
 5283SOL    HW127308   4.539   0.996   5.500 -0.8015 -0.9653  0.4132
 5283SOL    HW227309   4.558   0.862   5.579  0.0099  0.0257  0.7946
 5284SOL     OW27310   1.547   2.260  13.364 -0.8945  0.3343 -0.5476
 5284SOL    HW127311   1.542   2.354  13.349  0.5301  0.1890 -1.9701
 5284SOL    HW227312   1.640   2.241  13.352 -0.8751 -0.5208  0.9356
 5285SOL     OW27313   2.409   3.505   6.695 -0.1317  0.2428 -0.6742
 5285SOL    HW127314   2.410   3.593   6.659 -1.2182  0.5530  0.0484
 5285SOL    HW227315   2.318   3.475   6.692  0.1515 -1.2533  4.8038
 5286SOL     OW27316   2.759   3.362  10.985 -0.1622  0.1916 -0.0001
 5286SOL    HW127317   2.757   3.285  11.042 -0.5413 -0.8134 -1.3590
 5286SOL    HW227318   2.666   3.369  10.960  0.0425 -1.5019 -1.2851
 5287SOL     OW27319   2.834   1.745   4.332 -0.2514 -0.4695 -0.1011
 5287SOL    HW127320   2.899   1.715   4.268  1.0325  2.7717 -0.3137
 5287SOL    HW227321   2.855   1.694   4.411 -1.4384 -1.2887 -0.3234
 5288SOL     OW27322   3.529   4.228   5.921  0.4458  0.0776  0.1176
 5288SOL    HW127323   3.468   4.156   5.903  0.5000  0.3448 -1.0798
 5288SOL    HW227324   3.583   4.192   5.991  1.4144  1.2818 -0.0275
 5289SOL     OW27325   1.943   2.316   8.597 -0.6491 -0.3159 -1.1340
 5289SOL    HW127326   1.893   2.261   8.658  1.1857 -0.9285 -0.1546
 5289SOL    HW227327   1.882   2.385   8.573 -0.5062  0.3837  0.5155
 5290SOL     OW27328   1.389   4.427   7.922 -0.1899 -0.3832 -0.2548
 5290SOL    HW127329   1.446   4.364   7.967  0.4858  0.9863  0.7796
 5290SOL    HW227330   1.309   4.403   7.969  0.9196 -2.0094  0.8189
 5291SOL     OW27331   1.300   0.987   6.988  0.0311 -0.0183 -0.1604
 5291SOL    HW127332   1.393   0.980   7.009 -0.1853 -1.1601  0.4179
 5291SOL    HW227333   1.301   1.058   6.924 -0.4065 -0.8809 -1.1309
 5292SOL     OW27334   1.547   0.692   0.432 -0.5282  0.3486 -0.5607
 5292SOL    HW127335   1.471   0.635   0.422  0.2364 -0.8973  0.5883
 5292SOL    HW227336   1.613   0.626   0.455 -1.0661  0.0663  0.1885
 5293SOL     OW27337   1.715   4.151  16.404 -0.4896  0.0638 -0.0640
 5293SOL    HW127338   1.706   4.160  16.499 -3.0839  0.3251 -0.3381
 5293SOL    HW227339   1.755   4.236  16.384  0.4293 -0.5964 -1.0757
 5294SOL     OW27340   1.686   3.254   2.217  0.0309 -0.2062  0.0100
 5294SOL    HW127341   1.645   3.247   2.131  0.5379 -0.0040 -0.2465
 5294SOL    HW227342   1.638   3.329   2.252 -0.0888 -0.3527  0.1611
 5295SOL     OW27343   2.107   1.594  11.729  0.3579 -0.1368 -0.0432
 5295SOL    HW127344   2.038   1.659  11.743 -0.3027 -0.6037 -1.0521
 5295SOL    HW227345   2.166   1.654  11.684 -0.3847  0.9922  0.5160
 5296SOL     OW27346   3.811   0.490   4.236 -0.1021  0.2692 -0.3037
 5296SOL    HW127347   3.786   0.520   4.148  0.4668  0.3326 -0.4434
 5296SOL    HW227348   3.896   0.447   4.230 -0.5563 -1.0397  2.7269
 5297SOL     OW27349   0.029   4.719   1.986 -0.7468 -0.0590 -0.5133
 5297SOL    HW127350   0.018   0.089   2.000  0.4401 -0.0099  0.0944
 5297SOL    HW227351   0.099   4.720   1.922 -1.4747 -3.0659 -1.3708
 5298SOL     OW27352   3.116   3.994   5.133 -0.1614  0.0800 -0.2492
 5298SOL    HW127353   3.122   3.989   5.038 -0.3255  4.5936 -0.5097
 5298SOL    HW227354   3.121   4.086   5.159  2.7282  0.8130 -3.3248
 5299SOL     OW27355   3.701   3.994   6.247 -0.7406  0.2469 -0.0982
 5299SOL    HW127356   3.700   4.000   6.342  1.1668  2.3185 -0.2040
 5299SOL    HW227357   3.743   3.908   6.245 -0.6092  0.3684 -2.2023
 5300SOL     OW27358   4.042   2.114   9.607 -0.0567 -0.3233 -0.2939
 5300SOL    HW127359   3.951   2.088   9.614  0.6792 -3.3166 -1.8485
 5300SOL    HW227360   4.033   2.173   9.531  1.7714  0.2347 -0.0877
 5301SOL     OW27361   4.722   3.977  12.654 -0.2560  0.0916  0.0953
 5301SOL    HW127362   0.052   3.953  12.729 -0.3309 -0.0695  0.0977
 5301SOL    HW227363   0.062   3.955  12.586  1.2740  1.6352  1.0541
 5302SOL     OW27364   0.300   2.091   2.516  0.0826  0.0559 -0.2260
 5302SOL    HW127365   0.288   2.185   2.530 -1.3069  0.1419 -2.1166
 5302SOL    HW227366   0.223   2.057   2.471  0.6034 -1.9953  0.4271
 5303SOL     OW27367   3.859   0.724   4.408 -0.3543 -0.1662 -0.0603
 5303SOL    HW127368   3.843   0.689   4.321  0.9883 -0.2427 -0.2643
 5303SOL    HW227369   3.839   0.812   4.377 -0.7807  0.2950  1.5083
 5304SOL     OW27370   0.234   3.490  17.317 -0.0353  0.1521  0.2880
 5304SOL    HW127371   0.156   3.484  17.373 -0.5750 -1.5445 -0.6412
 5304SOL    HW227372   0.232   3.585  17.309 -1.3396  0.0202 -1.0262
 5305SOL     OW27373   0.792   0.688  14.623  0.1364  0.1187 -0.1717
 5305SOL    HW127374   0.765   0.709  14.533  0.2284 -1.3119 -0.5503
 5305SOL    HW227375   0.865   0.747  14.637 -0.9069  1.7423 -1.5843
 5306SOL     OW27376   2.099   3.546   1.654 -0.0147 -0.0138 -0.1984
 5306SOL    HW127377   2.155   3.515   1.583  0.4139 -0.2203  0.2382
 5306SOL    HW227378   2.133   3.636   1.656  1.2784 -0.4961 -0.7059
 5307SOL     OW27379   2.726   4.373   8.735  0.4495  0.0319  0.0151
 5307SOL    HW127380   2.794   4.306   8.730 -0.4773 -0.8541 -0.8102
 5307SOL    HW227381   2.771   4.439   8.788 -0.2724  0.0407  0.6307
 5308SOL     OW27382   4.450   0.522   5.225 -0.6037  0.7029  0.0771
 5308SOL    HW127383   4.523   0.487   5.278 -1.7772 -1.1651  0.4688
 5308SOL    HW227384   4.472   0.614   5.240  0.4572  0.3281  0.9108
 5309SOL     OW27385   4.063   0.599   2.656 -0.2156 -0.0633  0.1440
 5309SOL    HW127386   4.145   0.591   2.705 -0.5955  0.0649  0.8109
 5309SOL    HW227387   4.081   0.538   2.585  1.7449  0.9242 -0.2212
 5310SOL     OW27388   0.945   0.101   7.645  0.5699 -0.7724 -0.4331
 5310SOL    HW127389   0.964   0.193   7.663 -1.5593 -0.3838 -0.2489
 5310SOL    HW227390   0.856   0.091   7.678  1.2424 -1.3952  1.1852
 5311SOL     OW27391   3.014   0.839   6.366 -0.1584  0.3301  0.0191
 5311SOL    HW127392   3.012   0.755   6.412 -0.7814  0.0377 -0.5397
 5311SOL    HW227393   3.091   0.879   6.406  1.0249 -2.7634  0.8702
 5312SOL     OW27394   3.248   2.732  16.059  0.1523  0.1950  0.2034
 5312SOL    HW127395   3.263   2.694  15.972  0.3955 -0.5218  0.5531
 5312SOL    HW227396   3.338   2.732  16.090 -0.4946 -1.4450  2.1027
 5313SOL     OW27397   1.270   1.425   4.269 -0.4445 -0.1336  0.1805
 5313SOL    HW127398   1.347   1.443   4.323 -0.0804  0.5137 -0.5581
 5313SOL    HW227399   1.266   1.508   4.223 -1.1000  0.9286  2.1860
 5314SOL     OW27400   1.971   3.395   3.168  0.1768 -0.5823 -0.3632
 5314SOL    HW127401   2.056   3.437   3.177  0.1815 -0.1251 -2.6097
 5314SOL    HW227402   1.942   3.401   3.260  1.2516 -2.2968  0.0885
 5315SOL     OW27403   2.254   0.471   9.724  0.6596  0.0586  0.6181
 5315SOL    HW127404   2.270   0.482   9.818 -2.3708  1.8643  0.9168
 5315SOL    HW227405   2.248   0.562   9.695 -0.6827 -0.5329 -0.9472
 5316SOL     OW27406   2.147   1.477   4.951  0.4944  0.0295 -0.0571
 5316SOL    HW127407   2.077   1.519   4.902 -1.3763 -0.2864  2.3716
 5316SOL    HW227408   2.125   1.384   4.950  0.7686 -0.0394  0.0956
 5317SOL     OW27409   3.249   0.427   4.166  0.3792 -0.0449 -0.2442
 5317SOL    HW127410   3.294   0.452   4.085  0.8273  0.2803  0.1054
 5317SOL    HW227411   3.174   0.485   4.152  1.5884  1.1214 -1.9064
 5318SOL     OW27412   0.678   0.622  10.620  0.6684 -0.1389  0.2794
 5318SOL    HW127413   0.650   0.669  10.699 -1.6148 -2.0427  0.6047
 5318SOL    HW227414   0.603   0.641  10.562  0.2995  2.4939  1.5983
 5319SOL     OW27415   2.797   4.361   8.151 -0.5642 -0.3765 -0.0767
 5319SOL    HW127416   2.883   4.399   8.133 -1.3109  1.6523  0.6331
 5319SOL    HW227417   2.753   4.397   8.074  0.2685  1.1391  0.1531
 5320SOL     OW27418   4.532   4.337   2.269 -0.1222 -0.4638  0.2697
 5320SOL    HW127419   4.597   4.360   2.202  0.1991 -2.8319 -0.2299
 5320SOL    HW227420   4.517   4.246   2.245  0.1085 -0.5393  0.4114
 5321SOL     OW27421   4.597   1.388   1.717  0.1675 -0.5992 -0.0017
 5321SOL    HW127422   4.554   1.437   1.646  2.5950 -1.5888 -2.1405
 5321SOL    HW227423   4.665   1.450   1.744  1.6312 -1.8253 -0.9258
 5322SOL     OW27424   4.325   2.881  11.143 -0.2138  0.7596 -0.3173
 5322SOL    HW127425   4.359   2.805  11.097  1.0205  0.1553  1.5698
 5322SOL    HW227426   4.370   2.951  11.096  1.0552  1.0319  1.2721
 5323SOL     OW27427   0.135   0.762  14.593 -0.1617 -0.1690  0.4001
 5323SOL    HW127428   0.057   0.785  14.542 -1.2445  0.1942  2.2349
 5323SOL    HW227429   0.128   0.667  14.592 -0.3292 -0.1592  2.1467
 5324SOL     OW27430   0.923   2.839  11.639  0.0382  0.2472  0.3466
 5324SOL    HW127431   0.896   2.825  11.549  0.0390 -1.9156  0.6950
 5324SOL    HW227432   1.014   2.813  11.643  0.3185  1.5738  3.1474
 5325SOL     OW27433   3.833   2.598   8.419 -0.2554 -0.2226  0.3306
 5325SOL    HW127434   3.864   2.513   8.387 -1.8020 -0.4793 -0.4743
 5325SOL    HW227435   3.857   2.608   8.511  0.3813 -2.0560  0.3681
 5326SOL     OW27436   2.298   3.904   5.582 -0.5880  0.3696 -0.0389
 5326SOL    HW127437   2.231   3.838   5.568  1.4940 -1.9123  0.7034
 5326SOL    HW227438   2.313   3.902   5.676 -2.6759 -3.7648  0.1977
 5327SOL     OW27439   2.641   1.476  12.822  0.0091 -0.0923 -0.2959
 5327SOL    HW127440   2.697   1.488  12.899  0.0711  1.1437 -0.5287
 5327SOL    HW227441   2.576   1.546  12.829 -0.2999 -0.4159  0.0146
 5328SOL     OW27442   2.235   0.122  13.138 -0.1068 -0.5434 -0.2420
 5328SOL    HW127443   2.298   0.090  13.203  0.0889  0.5101  0.0766
 5328SOL    HW227444   2.205   0.037  13.106  0.7296  0.5928 -3.9826
 5329SOL     OW27445   2.949   2.945   6.408  0.0345 -0.0371  0.3504
 5329SOL    HW127446   2.948   2.980   6.319  0.5094 -1.1682 -0.1056
 5329SOL    HW227447   3.015   3.002   6.448 -1.1647  1.8742 -0.4150
 5330SOL     OW27448   2.882   1.505  13.029 -0.2942 -0.2991  0.6228
 5330SOL    HW127449   2.968   1.545  13.043  1.0550 -1.9432 -2.9615
 5330SOL    HW227450   2.854   1.485  13.118 -1.9436 -0.9712 -0.0603
 5331SOL     OW27451   1.097   3.135  11.795  0.2716 -0.4674  0.6304
 5331SOL    HW127452   1.051   3.164  11.874 -0.5318 -1.1628  0.4272
 5331SOL    HW227453   1.187   3.164  11.807 -0.3383  2.1644 -1.2804
 5332SOL     OW27454   3.440   3.516   9.099 -0.0248 -0.3461  0.1302
 5332SOL    HW127455   3.470   3.504   9.009 -0.0203 -2.4252  0.4071
 5332SOL    HW227456   3.418   3.608   9.089 -0.3378 -0.4691 -0.3034
 5333SOL     OW27457   2.334   4.175   3.311 -0.4312  0.0251 -0.1366
 5333SOL    HW127458   2.373   4.089   3.322  0.7549  0.6102  0.2368
 5333SOL    HW227459   2.257   4.161   3.365 -0.4072  0.3958 -0.0010
 5334SOL     OW27460   0.174   1.980   4.413  0.5397 -0.5414  0.1294
 5334SOL    HW127461   0.267   1.979   4.390  0.9105 -1.1511  1.6211
 5334SOL    HW227462   0.171   1.904   4.470 -0.5499 -1.3816 -1.0690
 5335SOL     OW27463   0.603   2.412   0.626  0.5377 -0.5811  0.6078
 5335SOL    HW127464   0.681   2.377   0.584  0.8399 -0.6384  1.2053
 5335SOL    HW227465   0.574   2.469   0.555 -0.6362  0.2871  1.7844
 5336SOL     OW27466   4.569   1.245  16.813  0.3184 -0.3440  0.0155
 5336SOL    HW127467   4.624   1.209  16.882  1.4958  0.1636 -0.6544
 5336SOL    HW227468   4.544   1.326  16.856 -0.3914 -1.3478  1.5048
 5337SOL     OW27469   4.132   2.262   2.453 -0.3288 -0.3028  0.1996
 5337SOL    HW127470   4.189   2.205   2.402 -1.2082 -0.3693 -0.6955
 5337SOL    HW227471   4.064   2.196   2.465 -1.2065  0.9702  2.2647
 5338SOL     OW27472   0.059   3.668   2.459  0.1544 -0.1833  0.2363
 5338SOL    HW127473   4.700   3.709   2.436 -0.3904 -1.8606 -0.8050
 5338SOL    HW227474   0.058   3.580   2.422  1.0697  1.2850 -3.2942
 5339SOL     OW27475   4.611   3.390   7.595  0.1806 -0.0789 -0.7604
 5339SOL    HW127476   4.540   3.451   7.574  1.3342  1.4727 -0.1914
 5339SOL    HW227477   4.670   3.434   7.657  0.0849 -0.6074 -0.2922
 5340SOL     OW27478   0.542   3.715   3.635  0.0719  0.5427 -0.4307
 5340SOL    HW127479   0.510   3.625   3.640  1.8567 -0.1544 -1.6455
 5340SOL    HW227480   0.468   3.761   3.674 -0.0978 -0.9300  1.0071
 5341SOL     OW27481   2.120   4.071   4.261 -0.3821  0.4374 -0.4606
 5341SOL    HW127482   2.085   4.036   4.180  0.9474  0.6525 -1.1352
 5341SOL    HW227483   2.187   4.004   4.279 -1.2478 -0.4591 -0.5949
 5342SOL     OW27484   3.652   4.474  16.536 -0.1895  0.0645  0.3538
 5342SOL    HW127485   3.574   4.456  16.588  0.6453  0.7967  1.8456
 5342SOL    HW227486   3.722   4.446  16.595 -1.4899 -0.0551  1.8566
 5343SOL     OW27487   0.628   1.998   7.256 -0.3642  0.3728 -0.3278
 5343SOL    HW127488   0.711   2.042   7.240 -0.9674  1.2955 -0.8703
 5343SOL    HW227489   0.626   1.979   7.350  0.9201 -1.4446 -0.6611
 5344SOL     OW27490   1.838   3.280  12.318  0.0380  0.1845  0.3707
 5344SOL    HW127491   1.848   3.370  12.348 -0.5549 -0.1902  1.7043
 5344SOL    HW227492   1.750   3.266  12.353 -0.1798  1.0469  0.1678
 5345SOL     OW27493   0.808   1.917   2.647  0.3483 -0.0160 -0.1615
 5345SOL    HW127494   0.861   1.863   2.707  1.4382 -0.0619 -1.1538
 5345SOL    HW227495   0.866   1.989   2.623  0.7708 -0.7944 -1.5360
 5346SOL     OW27496   0.082   2.069  17.508 -0.3233  0.4551  0.4077
 5346SOL    HW127497   4.724   2.110  17.482  1.5824  4.0497  0.1157
 5346SOL    HW227498   0.133   2.129  17.454 -1.4012  2.6751  1.8809
 5347SOL     OW27499   2.204   1.273   2.755 -0.0766 -0.3439  0.1845
 5347SOL    HW127500   2.140   1.214   2.795  0.4912 -0.9969  0.1264
 5347SOL    HW227501   2.170   1.282   2.666 -0.2223 -1.3200  0.1436
 5348SOL     OW27502   1.698   0.816   7.336  0.5891  0.0632 -0.2362
 5348SOL    HW127503   1.672   0.906   7.323 -1.3561 -0.7189 -1.6883
 5348SOL    HW227504   1.644   0.809   7.414 -0.0034 -3.0237 -0.9080
 5349SOL     OW27505   0.161   3.072   6.563 -0.2950 -0.1897  0.2488
 5349SOL    HW127506   0.213   2.994   6.581  1.5879  0.6376 -1.5546
 5349SOL    HW227507   0.098   3.069   6.634 -0.4135  0.2582  0.1626
 5350SOL     OW27508   3.079   3.053   6.811 -0.3029  0.2570  0.3248
 5350SOL    HW127509   3.130   3.031   6.733 -0.7589 -0.3100  0.1849
 5350SOL    HW227510   2.994   3.019   6.783  0.0245  0.1143 -0.4771
 5351SOL     OW27511   3.167   3.177   8.505 -0.4460  0.5694  0.0960
 5351SOL    HW127512   3.134   3.267   8.496 -1.5268  0.1042 -0.4894
 5351SOL    HW227513   3.240   3.180   8.443 -0.3594  0.6123  0.1987
 5352SOL     OW27514   3.799   2.755   5.591  0.0162 -0.3045 -0.1111
 5352SOL    HW127515   3.747   2.835   5.579  1.6679  1.1503  2.5510
 5352SOL    HW227516   3.729   2.693   5.612 -3.9125  4.6190  1.4684
 5353SOL     OW27517   2.030   1.835   3.480  0.1425  0.2186  0.9714
 5353SOL    HW127518   2.031   1.855   3.574 -3.0336  1.3131  0.7787
 5353SOL    HW227519   2.027   1.740   3.472  3.9757  0.0898  1.0482
 5354SOL     OW27520   2.551   2.819   7.090 -0.3520  0.7861 -0.3423
 5354SOL    HW127521   2.494   2.869   7.148  1.9001  2.9610  0.0376
 5354SOL    HW227522   2.524   2.733   7.121  4.6709 -0.8752 -0.6295
 5355SOL     OW27523   0.104   2.347   2.528 -0.5194 -0.0878  0.0418
 5355SOL    HW127524   0.044   2.273   2.541 -0.4307  0.0001  0.9868
 5355SOL    HW227525   0.089   2.373   2.437  1.8638 -0.2951 -0.4108
 5356SOL     OW27526   2.111   0.907   7.122  0.1759 -0.4070 -0.4754
 5356SOL    HW127527   2.139   0.894   7.031  2.1671  1.4501 -0.1309
 5356SOL    HW227528   2.016   0.918   7.117  0.0523 -0.8508  0.9779
 5357SOL     OW27529   0.157   2.690  15.471  0.8070 -0.0036  0.4934
 5357SOL    HW127530   0.074   2.732  15.496 -0.3690 -2.3433  0.5962
 5357SOL    HW227531   0.196   2.759  15.418 -1.2055 -0.8465 -2.0987
 5358SOL     OW27532   2.177   3.318   7.785 -0.0831  1.1644  0.8563
 5358SOL    HW127533   2.163   3.225   7.769 -2.5841  1.8257 -0.7581
 5358SOL    HW227534   2.272   3.329   7.785  0.2993 -2.3945  1.5452
 5359SOL     OW27535   0.096   4.382   8.638  0.1279  0.1121  0.4037
 5359SOL    HW127536   0.105   4.308   8.577  0.4584 -0.2340  0.8733
 5359SOL    HW227537   0.003   4.402   8.630 -0.0004  0.1064  1.9167
 5360SOL     OW27538   4.532   2.004   5.242  0.3409 -0.6483 -0.0889
 5360SOL    HW127539   4.445   2.013   5.283  1.0305 -1.4267  1.5396
 5360SOL    HW227540   4.574   2.084   5.273 -2.0678  1.2718 -1.7784
 5361SOL     OW27541   1.427   0.502   7.445  0.3477 -0.2001  0.4127
 5361SOL    HW127542   1.407   0.454   7.525 -2.4986  1.0296  0.4446
 5361SOL    HW227543   1.475   0.579   7.474 -0.3935  0.5484 -0.3346
 5362SOL     OW27544   4.370   3.164   2.989 -0.3831  0.8496  0.4138
 5362SOL    HW127545   4.331   3.184   2.905  0.2949  2.0855  0.3972
 5362SOL    HW227546   4.302   3.113   3.033  0.7693 -1.4248 -0.4490
 5363SOL     OW27547   0.541   2.564   0.340  0.1389  0.1525 -0.6611
 5363SOL    HW127548   0.570   2.654   0.327  0.6105 -0.1168 -1.4993
 5363SOL    HW227549   0.569   2.529   0.255 -0.7301  0.4757 -1.0865
 5364SOL     OW27550   2.231   4.129   8.254 -0.0770  0.1159 -0.0993
 5364SOL    HW127551   2.174   4.152   8.181 -0.5481 -0.4095  0.1028
 5364SOL    HW227552   2.282   4.210   8.251 -0.3116  0.2705  0.0539
 5365SOL     OW27553   4.628   1.752   5.392  0.2472 -0.0643 -0.3082
 5365SOL    HW127554   4.615   1.790   5.479 -0.4176  0.3940 -0.6047
 5365SOL    HW227555   4.596   1.830   5.346 -0.6218  0.6089  1.4326
 5366SOL     OW27556   1.803   3.676   2.605  0.3836 -0.2781 -0.0423
 5366SOL    HW127557   1.761   3.756   2.574  2.8402  0.5378 -1.3171
 5366SOL    HW227558   1.887   3.723   2.613  0.1240 -0.0509  1.4885
 5367SOL     OW27559   0.636   1.551   6.913  0.3102  0.3046 -0.3121
 5367SOL    HW127560   0.566   1.614   6.928 -0.0745 -0.0154 -0.7557
 5367SOL    HW227561   0.640   1.509   6.999  0.1067 -0.1472 -0.5228
 5368SOL     OW27562   2.367   4.220  17.434 -0.1722  0.0148 -0.4832
 5368SOL    HW127563   2.432   4.201  17.367 -1.4982 -0.1660 -1.7298
 5368SOL    HW227564   2.306   4.146  17.437  0.3193 -0.3760 -0.1408
 5369SOL     OW27565   2.492   1.598   8.625 -0.3714  0.0880 -0.6103
 5369SOL    HW127566   2.534   1.667   8.676  0.5939 -0.9118 -0.0613
 5369SOL    HW227567   2.551   1.580   8.552 -0.1652 -0.5588 -0.2853
 5370SOL     OW27568   1.646   0.152   5.233  0.8077 -0.4274 -0.7865
 5370SOL    HW127569   1.716   0.216   5.223 -0.2118  0.3922 -2.6876
 5370SOL    HW227570   1.621   0.159   5.326 -0.3007  0.6985 -1.1644
 5371SOL     OW27571   3.992   3.153  10.915  0.1588  0.4820  0.1522
 5371SOL    HW127572   3.914   3.197  10.950 -0.8639 -0.4042 -1.0309
 5371SOL    HW227573   4.033   3.231  10.879  0.2420 -0.1001 -1.0107
 5372SOL     OW27574   1.057   1.748   3.141  0.1717 -0.1141 -0.5109
 5372SOL    HW127575   0.971   1.714   3.166  0.5003  0.6875  1.6541
 5372SOL    HW227576   1.042   1.778   3.051 -0.5729 -0.9499 -0.6643
 5373SOL     OW27577   2.104   0.405  14.431  0.3815  0.4068 -0.2025
 5373SOL    HW127578   2.012   0.382  14.421  0.2585  0.7017  0.2879
 5373SOL    HW227579   2.141   0.326  14.391  1.1202  1.5540 -1.7805
 5374SOL     OW27580   2.203   2.396   8.536 -0.0822 -0.1159 -0.0486
 5374SOL    HW127581   2.231   2.478   8.579 -3.2587  1.7634 -1.5530
 5374SOL    HW227582   2.130   2.355   8.583  1.4786 -0.1369  2.3509
 5375SOL     OW27583   4.447   1.510   6.086  0.0197  0.0204  0.2668
 5375SOL    HW127584   4.541   1.516   6.106 -0.0263  2.2295 -0.2760
 5375SOL    HW227585   4.454   1.489   5.993  1.5541  0.6034  0.2456
 5376SOL     OW27586   2.451   4.581  13.675  0.3094  0.2012 -0.2402
 5376SOL    HW127587   2.445   4.623  13.761  2.1931 -1.0666  0.5040
 5376SOL    HW227588   2.378   4.627  13.633 -2.0674 -1.4763  2.0274
 5377SOL     OW27589   0.779   3.685   9.409 -0.0822 -0.0262  0.2847
 5377SOL    HW127590   0.834   3.610   9.430  2.0905  1.8355  1.2391
 5377SOL    HW227591   0.694   3.655   9.442 -0.8849 -0.6975 -2.3304
 5378SOL     OW27592   0.929   2.572  14.010 -0.0026  0.2041  0.5251
 5378SOL    HW127593   0.973   2.652  14.040 -1.2963  1.6987 -1.5394
 5378SOL    HW227594   0.848   2.578  14.061  0.1021 -1.1655  0.8591
 5379SOL     OW27595   2.389   0.323  14.534  0.6008  0.3530  0.3071
 5379SOL    HW127596   2.400   0.406  14.489  0.0079  0.2057 -0.1124
 5379SOL    HW227597   2.330   0.278  14.473  2.8206 -0.9611 -0.9009
 5380SOL     OW27598   1.452   3.986  10.355  0.0080 -0.3581  0.0897
 5380SOL    HW127599   1.387   4.015  10.420 -0.3482 -0.8739 -0.0353
 5380SOL    HW227600   1.392   3.951  10.290  1.8843 -0.8867 -1.3399
 5381SOL     OW27601   4.185   2.671   2.284  0.3203 -0.2510 -0.4274
 5381SOL    HW127602   4.094   2.686   2.259  0.3116 -0.0720 -0.2881
 5381SOL    HW227603   4.230   2.752   2.259 -1.5068  0.6663 -0.7404
 5382SOL     OW27604   4.079   2.836   8.422  0.3497 -0.5246  0.6094
 5382SOL    HW127605   4.135   2.881   8.358 -1.7613  1.1112 -0.0852
 5382SOL    HW227606   3.996   2.856   8.380  0.9031  1.2178  0.3249
 5383SOL     OW27607   1.750   1.732   3.076  0.0502 -0.1381 -0.0992
 5383SOL    HW127608   1.686   1.677   3.120  1.6487 -1.6165  0.3707
 5383SOL    HW227609   1.786   1.671   3.012 -0.2126  1.1534 -1.4779
 5384SOL     OW27610   1.007   1.554   2.798  0.6600 -0.3698  0.0957
 5384SOL    HW127611   0.967   1.632   2.837 -2.5035 -0.9211 -2.0105
 5384SOL    HW227612   0.958   1.549   2.716  0.2382 -0.1933  0.3375
 5385SOL     OW27613   3.863   0.615   8.964  0.3898 -0.7211  0.3624
 5385SOL    HW127614   3.780   0.574   8.989 -0.3896 -0.5352 -1.9465
 5385SOL    HW227615   3.828   0.702   8.942 -0.1314 -0.8164  0.8103
 5386SOL     OW27616   0.889   1.601   8.561 -0.3351  0.4797 -0.3468
 5386SOL    HW127617   0.806   1.553   8.552  0.6652 -1.4573  0.6999
 5386SOL    HW227618   0.862   1.689   8.538  0.0478  0.4247 -0.9931
 5387SOL     OW27619   3.139   2.657   0.542 -0.1818  0.0048  0.3417
 5387SOL    HW127620   3.230   2.685   0.551 -0.2787  1.4171 -3.2358
 5387SOL    HW227621   3.094   2.736   0.571 -0.5699  0.6987 -2.2319
 5388SOL     OW27622   2.551   3.780   6.149  0.0140 -0.3464 -0.5534
 5388SOL    HW127623   2.540   3.854   6.088  1.2773  0.5385  0.3033
 5388SOL    HW227624   2.635   3.738   6.127 -0.6599 -1.9209 -0.0960
 5389SOL     OW27625   4.394   0.803   3.636  0.0569  0.0406 -0.0420
 5389SOL    HW127626   4.343   0.757   3.569 -0.0135 -0.7880  0.5752
 5389SOL    HW227627   4.472   0.826   3.587 -0.0486  0.6869  0.0954
 5390SOL     OW27628   3.523   0.143   4.179  0.1366 -0.1267 -0.2255
 5390SOL    HW127629   3.575   0.196   4.239 -0.3582  0.7504 -0.5768
 5390SOL    HW227630   3.542   0.160   4.087  2.3671  1.7536  0.6063
 5391SOL     OW27631   2.841   2.185   5.884 -0.2851  0.3112  0.4827
 5391SOL    HW127632   2.930   2.181   5.918 -0.2091 -1.4994  0.0740
 5391SOL    HW227633   2.792   2.106   5.908 -1.3053  0.8181  0.1070
 5392SOL     OW27634   0.960   2.570   7.143 -0.1334 -0.2161  0.0684
 5392SOL    HW127635   0.884   2.524   7.177 -1.6969  1.4702 -1.1937
 5392SOL    HW227636   0.934   2.592   7.053 -0.6616  2.4409  0.8737
 5393SOL     OW27637   2.243   4.210   5.971 -0.0387 -0.9990  0.1432
 5393SOL    HW127638   2.213   4.119   5.971 -1.6938 -0.4606 -0.2138
 5393SOL    HW227639   2.244   4.227   6.065 -2.0202 -2.7500  0.4893
 5394SOL     OW27640   3.039   4.462  16.170  0.7503  0.5061 -0.1704
 5394SOL    HW127641   2.962   4.479  16.116  1.2192  0.1096 -0.9804
 5394SOL    HW227642   3.093   4.422  16.102  1.5402  0.0436  0.7382
 5395SOL     OW27643   2.996   0.839   7.384 -0.3360  0.1832  0.1528
 5395SOL    HW127644   2.958   0.792   7.310  2.9069 -0.8412 -0.8183
 5395SOL    HW227645   2.978   0.773   7.452 -0.0308  1.0246  1.0514
 5396SOL     OW27646   1.311   2.263   8.174 -0.2477 -0.4565  0.3349
 5396SOL    HW127647   1.268   2.347   8.192 -1.0421 -0.5396 -1.1457
 5396SOL    HW227648   1.295   2.267   8.080 -1.1351  0.2614  0.5131
 5397SOL     OW27649   3.767   2.038   5.830 -0.6419 -0.0368  0.4594
 5397SOL    HW127650   3.845   2.087   5.859  0.2863 -1.4812  0.4100
 5397SOL    HW227651   3.725   2.043   5.916 -0.1296 -1.5109  0.7929
 5398SOL     OW27652   0.568   3.963   1.365 -0.1803  0.4737 -0.0843
 5398SOL    HW127653   0.648   4.015   1.355  0.1678 -0.2721 -1.1600
 5398SOL    HW227654   0.604   3.878   1.391  1.6227  0.9377 -1.0690
 5399SOL     OW27655   1.673   0.869   7.779  0.0826 -0.0034 -0.5655
 5399SOL    HW127656   1.752   0.917   7.758 -0.2696  0.7486 -0.1576
 5399SOL    HW227657   1.678   0.860   7.874 -0.9028 -1.9136 -0.6958
 5400SOL     OW27658   2.176   1.456  13.673 -0.5547 -0.8193  0.5171
 5400SOL    HW127659   2.138   1.374  13.642 -1.8192 -0.8091  2.0479
 5400SOL    HW227660   2.158   1.524  13.608 -1.8399 -3.3702 -1.8045
 5401SOL     OW27661   1.368   3.253  11.824 -0.1868  0.2184  0.1374
 5401SOL    HW127662   1.447   3.304  11.807 -2.1097  3.3272  0.5215
 5401SOL    HW227663   1.410   3.167  11.831 -0.9235 -0.2232 -0.7524
 5402SOL     OW27664   0.450   4.086   7.225  0.0877 -0.1743 -0.3619
 5402SOL    HW127665   0.356   4.104   7.229  0.5313  1.9193  0.1047
 5402SOL    HW227666   0.473   4.009   7.278 -0.1263 -0.1745 -0.2706
 5403SOL     OW27667   4.063   1.495   4.132  0.1140  0.1496 -0.2923
 5403SOL    HW127668   4.042   1.557   4.061 -1.9514 -1.7137 -1.3229
 5403SOL    HW227669   4.043   1.548   4.209  2.0511 -1.6434  1.4187
 5404SOL     OW27670   1.120   2.948  13.876 -0.7520  0.3229  0.4165
 5404SOL    HW127671   1.073   3.025  13.844  0.2873  1.5578  1.8666
 5404SOL    HW227672   1.181   2.996  13.931 -1.5411  2.1888 -0.3331
 5405SOL     OW27673   3.722   2.129  11.753  0.2780 -0.3614  0.0799
 5405SOL    HW127674   3.703   2.055  11.695 -1.1272  0.4604 -0.5112
 5405SOL    HW227675   3.800   2.098  11.799  1.5167 -0.5086 -2.1293
 5406SOL     OW27676   2.485   2.604   0.765 -0.5102 -0.4362  0.2498
 5406SOL    HW127677   2.570   2.572   0.796  0.7848  1.1133 -1.7472
 5406SOL    HW227678   2.447   2.636   0.847 -1.6318 -1.5904  0.1749
 5407SOL     OW27679   3.013   0.095  10.462 -0.7004  0.5662 -0.0352
 5407SOL    HW127680   2.990   0.100  10.555  0.2657 -0.3663  0.2656
 5407SOL    HW227681   3.008   4.723  10.462  1.9289  0.4312 -1.1903
 5408SOL     OW27682   0.900   2.443   2.996 -0.0821 -0.0162  0.5430
 5408SOL    HW127683   0.881   2.432   3.089 -0.3237 -2.3832  0.2119
 5408SOL    HW227684   0.991   2.472   3.005 -0.3854  0.6872  1.2514
 5409SOL     OW27685   3.262   4.303   8.727  0.6683 -0.0100 -0.4939
 5409SOL    HW127686   3.336   4.310   8.787 -0.5919  0.1867  1.0389
 5409SOL    HW227687   3.224   4.227   8.771 -0.2770  1.0774  0.5329
 5410SOL     OW27688   3.747   0.293   9.538  0.2008 -0.1816 -0.0160
 5410SOL    HW127689   3.834   0.322   9.511  0.1987 -1.0110 -0.9100
 5410SOL    HW227690   3.719   0.250   9.458  0.7569 -1.8898  0.6951
 5411SOL     OW27691   4.375   1.623  12.254  0.4389 -0.0664 -0.2516
 5411SOL    HW127692   4.424   1.611  12.173  3.1505  0.2168  1.3559
 5411SOL    HW227693   4.439   1.637  12.324  1.1223  1.3977 -1.1885
 5412SOL     OW27694   0.233   3.093  14.495 -0.0758  0.1886 -0.5668
 5412SOL    HW127695   0.314   3.043  14.480 -0.8355 -1.4239  0.6966
 5412SOL    HW227696   0.270   3.181  14.508  0.9357 -0.2739 -0.3019
 5413SOL     OW27697   3.915   0.505  10.695 -0.2876  0.3197  0.3771
 5413SOL    HW127698   3.897   0.543  10.608 -0.5504 -0.9120 -0.1023
 5413SOL    HW227699   3.852   0.434  10.680  2.8964 -2.1554 -1.3441
 5414SOL     OW27700   3.721   3.887   3.505 -0.8244  0.1291 -0.1345
 5414SOL    HW127701   3.731   3.954   3.438  0.3286 -0.4260 -0.5213
 5414SOL    HW227702   3.701   3.817   3.442 -1.1389 -0.1830  0.3095
 5415SOL     OW27703   4.292   0.503   4.729  0.0367 -0.1189  0.0651
 5415SOL    HW127704   4.252   0.562   4.793  1.2772 -0.8872  1.5355
 5415SOL    HW227705   4.364   0.558   4.697  0.9816 -2.5953 -2.0877
 5416SOL     OW27706   1.601   3.243   7.774  0.6756  0.0994 -0.0454
 5416SOL    HW127707   1.641   3.175   7.720 -0.4758 -0.6143  0.0089
 5416SOL    HW227708   1.576   3.193   7.852 -4.6477 -0.0825 -1.9300
 5417SOL     OW27709   2.877   1.311   8.519  0.1653  0.1488 -0.3608
 5417SOL    HW127710   2.966   1.319   8.554  0.7820 -1.4074 -1.6219
 5417SOL    HW227711   2.818   1.334   8.591 -1.2273  1.3772 -1.9157
 5418SOL     OW27712   4.037   3.994  12.039 -0.0353 -0.0469 -0.1969
 5418SOL    HW127713   4.109   3.970  12.098  1.1523  2.1775 -0.7088
 5418SOL    HW227714   3.960   3.947  12.068 -0.8632  2.2156  1.3134
 5419SOL     OW27715   0.547   1.194   7.239  0.7178  0.0855 -0.0250
 5419SOL    HW127716   0.577   1.181   7.329  0.6071  2.5874  0.3576
 5419SOL    HW227717   0.547   1.106   7.201 -0.8473  0.5166 -1.0491
 5420SOL     OW27718   1.602   4.597   3.414 -0.1981  0.5126  0.1082
 5420SOL    HW127719   1.552   4.668   3.374  2.8644  2.3668 -0.4886
 5420SOL    HW227720   1.660   4.644   3.475  0.7384 -1.3388  0.6482
 5421SOL     OW27721   4.036   1.732   9.561 -0.4314  0.4007 -0.1061
 5421SOL    HW127722   3.974   1.784   9.612 -0.9865  0.0445 -0.4196
 5421SOL    HW227723   3.971   1.696   9.501 -2.1692  3.0683  0.2010
 5422SOL     OW27724   3.703   2.479  10.491  0.0359 -0.2812  0.2699
 5422SOL    HW127725   3.779   2.437  10.532 -0.0621 -1.4608 -0.7471
 5422SOL    HW227726   3.686   2.431  10.409 -0.5288 -0.7690  0.6710
 5423SOL     OW27727   1.996   1.278   0.373 -0.9490 -0.2810  0.2234
 5423SOL    HW127728   2.076   1.260   0.422  0.1030 -1.1305 -1.8224
 5423SOL    HW227729   2.008   1.229   0.292 -1.8328  2.5024 -1.5807
 5424SOL     OW27730   2.208   3.506   3.796 -0.3042 -0.6181  0.0935
 5424SOL    HW127731   2.189   3.556   3.718 -0.3882 -2.0483 -0.8084
 5424SOL    HW227732   2.141   3.540   3.854  0.3248  0.8582 -0.0510
 5425SOL     OW27733   1.679   4.086   4.123 -0.1906  0.5700 -0.1669
 5425SOL    HW127734   1.592   4.047   4.126  0.3701 -0.5665  0.9381
 5425SOL    HW227735   1.717   4.022   4.183 -1.6916  0.0333  0.2136
 5426SOL     OW27736   1.218   3.004   5.638  0.1417  0.2363 -0.1650
 5426SOL    HW127737   1.244   2.943   5.707 -0.8655  0.2717  0.2457
 5426SOL    HW227738   1.290   3.066   5.651 -1.4451  1.7576  1.3859
 5427SOL     OW27739   1.926   1.439   3.784  0.2092 -0.3093  0.3624
 5427SOL    HW127740   1.883   1.520   3.755  3.4812  1.5774  0.7469
 5427SOL    HW227741   1.865   1.368   3.765 -1.7562  1.9040 -1.4991
 5428SOL     OW27742   1.961   1.524   1.008 -0.9449 -0.2946  0.2856
 5428SOL    HW127743   1.980   1.611   1.044  2.2645 -1.2534  0.9125
 5428SOL    HW227744   1.985   1.466   1.080 -0.8924 -1.7586 -0.9067
 5429SOL     OW27745   2.432   0.315   2.141  0.1162  0.2160 -0.5540
 5429SOL    HW127746   2.403   0.345   2.055 -0.6242 -2.0192 -1.1018
 5429SOL    HW227747   2.511   0.267   2.113  0.2140 -0.6443  1.2443
 5430SOL     OW27748   2.000   2.124   0.844  0.4246  0.5048  0.0655
 5430SOL    HW127749   2.062   2.158   0.909  0.8721  1.8443 -1.0637
 5430SOL    HW227750   1.916   2.170   0.854  0.7575  1.5631 -2.1329
 5431SOL     OW27751   4.486   1.434   7.245  0.4250 -0.4679  0.2705
 5431SOL    HW127752   4.574   1.469   7.254 -0.6317  2.2096  0.2530
 5431SOL    HW227753   4.467   1.461   7.155  1.0363 -0.2614  0.2057
 5432SOL     OW27754   0.495   1.547  10.655  0.1205  0.3750  0.2916
 5432SOL    HW127755   0.495   1.574  10.563 -0.4754  0.7264  0.3951
 5432SOL    HW227756   0.406   1.574  10.678 -0.4844 -1.1394 -0.2261
 5433SOL     OW27757   2.273   0.116   0.113 -0.1983  0.1205  0.1744
 5433SOL    HW127758   2.350   0.104   0.168 -0.3135 -1.1840  0.0655
 5433SOL    HW227759   2.210   0.049   0.141  0.5181 -0.0524  1.3381
 5434SOL     OW27760   2.902   1.876  10.158 -0.1843 -0.0009  0.0317
 5434SOL    HW127761   2.911   1.937  10.231 -0.7887 -1.3780  1.2537
 5434SOL    HW227762   2.989   1.883  10.119 -0.3539 -0.5054 -0.4391
 5435SOL     OW27763   4.026   4.397  17.101  0.3384  0.1746  0.2330
 5435SOL    HW127764   4.104   4.448  17.080  0.3445  0.6148  1.3345
 5435SOL    HW227765   3.998   4.425  17.188  1.6526  0.7239  0.4727
 5436SOL     OW27766   2.711   0.094  14.641  0.1609 -0.0039 -0.1365
 5436SOL    HW127767   2.780   0.033  14.667  0.0578 -0.4987 -1.0065
 5436SOL    HW227768   2.736   0.107  14.549  1.4507 -0.1025  0.2150
 5437SOL     OW27769   0.898   2.218   0.359 -0.0376 -0.2120 -0.0954
 5437SOL    HW127770   0.979   2.202   0.407 -1.0895 -0.1023  1.7209
 5437SOL    HW227771   0.879   2.306   0.394  0.1291 -0.5633  0.8609
 5438SOL     OW27772   4.043   0.951   9.026  0.2259  0.6463 -0.3541
 5438SOL    HW127773   4.113   0.964   9.089  0.8384 -0.8047 -0.7252
 5438SOL    HW227774   3.967   0.928   9.078  0.6390 -1.8268 -0.8550
 5439SOL     OW27775   3.091   3.272   1.118  0.1289 -0.3603  0.2093
 5439SOL    HW127776   3.018   3.210   1.114 -0.6741  0.5062  1.1307
 5439SOL    HW227777   3.111   3.283   1.211 -1.2429  0.4928  0.4079
 5440SOL     OW27778   1.820   0.680   3.639  0.7567 -0.1666  0.1780
 5440SOL    HW127779   1.786   0.734   3.568 -0.3365  1.6229  2.0608
 5440SOL    HW227780   1.912   0.707   3.647  0.5816  0.2972  0.6593
 5441SOL     OW27781   1.081   3.333   7.759  0.0883 -0.3081 -0.4126
 5441SOL    HW127782   1.153   3.316   7.819 -2.2204  0.0724  2.4506
 5441SOL    HW227783   1.123   3.362   7.678  0.1548  0.2946 -0.1556
 5442SOL     OW27784   3.822   1.516  10.566  0.2823  0.4842 -0.0445
 5442SOL    HW127785   3.849   1.435  10.523  0.5720  0.6105 -0.1010
 5442SOL    HW227786   3.784   1.482  10.647 -1.4907 -1.2569 -1.5955
 5443SOL     OW27787   3.178   0.836   9.664 -0.4782  0.0529 -0.6555
 5443SOL    HW127788   3.266   0.864   9.642 -1.0554  1.3594 -1.2761
 5443SOL    HW227789   3.203   0.763   9.721  0.5364  1.1740  0.3378
 5444SOL     OW27790   1.662   0.369   5.564 -0.3656 -0.1500  0.6064
 5444SOL    HW127791   1.668   0.394   5.656 -1.2553 -1.4284  1.0266
 5444SOL    HW227792   1.692   0.454   5.533 -2.0430  0.9246  1.9152
 5445SOL     OW27793   3.757   1.474   5.276  0.0565 -0.4401  0.3472
 5445SOL    HW127794   3.740   1.558   5.319  0.4650  0.9474 -2.1711
 5445SOL    HW227795   3.737   1.423   5.354  1.3160 -0.9869  0.3174
 5446SOL     OW27796   2.688   1.816   1.930 -0.4773  0.4126 -0.5775
 5446SOL    HW127797   2.617   1.761   1.894  1.5903 -2.0141 -0.9675
 5446SOL    HW227798   2.669   1.816   2.024 -2.0096  0.2813 -0.8741
 5447SOL     OW27799   2.318   0.349   0.018  0.2036 -0.1896 -0.1299
 5447SOL    HW127800   2.288   0.268   0.059 -0.9435  0.6095  0.6017
 5447SOL    HW227801   2.366   0.309  17.642  0.1828 -0.3042 -0.0810
 5448SOL     OW27802   0.162   0.999   5.554 -0.5660  0.2902  0.0726
 5448SOL    HW127803   0.079   0.950   5.560 -0.3867 -0.0122  0.0843
 5448SOL    HW227804   0.134   1.086   5.526 -0.0745  0.4257  0.0095
 5449SOL     OW27805   0.361   1.052  17.657 -0.0842 -0.4826 -0.5799
 5449SOL    HW127806   0.454   1.036  17.674 -0.0150  1.9964  1.3396
 5449SOL    HW227807   0.365   1.123  17.593  0.7127 -0.3641 -0.3955
 5450SOL     OW27808   3.113   1.023  17.340  0.1106 -0.8236 -0.2375
 5450SOL    HW127809   3.073   1.094  17.292  0.2555 -1.7214 -1.6999
 5450SOL    HW227810   3.041   0.965  17.364 -0.5041 -0.3440 -0.9418
 5451SOL     OW27811   4.661   1.741  15.807  0.1636  0.3013  0.0236
 5451SOL    HW127812   4.618   1.732  15.892  2.9716 -3.2527  1.0713
 5451SOL    HW227813   4.610   1.815  15.776 -0.0404  0.4019  0.6110
 5452SOL     OW27814   3.940   4.527   8.389  0.5499 -0.0769  0.3121
 5452SOL    HW127815   3.971   4.436   8.386  0.0523 -0.2398  0.1214
 5452SOL    HW227816   3.849   4.515   8.416 -0.0107  0.6792 -1.2678
 5453SOL     OW27817   1.362   4.508   7.153 -0.0343 -0.5228 -0.1740
 5453SOL    HW127818   1.332   4.446   7.220 -0.8321 -0.5727 -0.5808
 5453SOL    HW227819   1.333   4.591   7.191  1.0821 -0.3574  0.3290
 5454SOL     OW27820   2.207   0.058  11.101  0.1698 -0.0670 -0.0039
 5454SOL    HW127821   2.167   0.052  11.188  1.3526 -0.1508  0.5396
 5454SOL    HW227822   2.153   0.124  11.057  0.9989  0.6209  0.0105
 5455SOL     OW27823   3.233   0.188   5.365  0.1868  0.1034 -0.5825
 5455SOL    HW127824   3.242   0.125   5.294  0.3656 -0.2763 -0.2244
 5455SOL    HW227825   3.280   0.135   5.429  0.0470 -0.1450 -0.6887
 5456SOL     OW27826   0.347   0.787  16.026 -0.4673 -0.0448  0.0936
 5456SOL    HW127827   0.390   0.866  16.059  0.2569 -0.0181 -0.9236
 5456SOL    HW227828   0.260   0.797  16.064  1.6113 -1.2968  5.1167
 5457SOL     OW27829   0.951   0.008   2.317  0.2094 -0.1898 -0.0896
 5457SOL    HW127830   1.030   0.005   2.264  1.1361 -0.4304  1.2888
 5457SOL    HW227831   0.989   0.029   2.403  3.0165  0.2935 -1.4588
 5458SOL     OW27832   2.429   1.220   5.126  0.0822 -0.2351  0.0935
 5458SOL    HW127833   2.457   1.133   5.155  0.1851 -0.1789  0.1594
 5458SOL    HW227834   2.461   1.230   5.036  0.8203  1.6766  0.5869
 5459SOL     OW27835   1.048   2.845   8.426  0.4460  0.1736  0.1525
 5459SOL    HW127836   1.009   2.760   8.406 -0.4078  0.5172  0.3356
 5459SOL    HW227837   1.115   2.817   8.489  0.2324 -0.7691 -0.0366
 5460SOL     OW27838   3.829   3.425   6.185 -0.4029  0.2692 -0.0852
 5460SOL    HW127839   3.855   3.403   6.274  0.0661 -0.1161 -0.3181
 5460SOL    HW227840   3.770   3.351   6.171  0.2759 -0.1354 -0.7971
 5461SOL     OW27841   2.906   3.072   2.907 -0.0757  0.4116  1.3421
 5461SOL    HW127842   2.866   3.004   2.854 -1.1765  1.0892  1.3020
 5461SOL    HW227843   2.922   3.010   2.978  1.1225  0.1679  0.8548
 5462SOL     OW27844   4.296   4.456  10.504  0.6751  0.0938  0.2023
 5462SOL    HW127845   4.315   4.363  10.494 -1.1710 -0.2881  0.1736
 5462SOL    HW227846   4.223   4.451  10.566 -0.3568 -0.8163 -1.0748
 5463SOL     OW27847   4.082   1.606   9.060  0.4331 -0.2512  0.0396
 5463SOL    HW127848   3.990   1.585   9.075 -0.5311  2.9520 -1.3017
 5463SOL    HW227849   4.128   1.582   9.141 -0.2340  0.5052  0.6398
 5464SOL     OW27850   0.483   0.265  13.852 -0.0297 -0.3536  0.6005
 5464SOL    HW127851   0.492   0.171  13.868  0.6006 -0.4733 -0.4248
 5464SOL    HW227852   0.569   0.300  13.878  0.1625 -0.5817  0.2769
 5465SOL     OW27853   2.618   3.160   4.638 -0.0042 -0.1609  0.1332
 5465SOL    HW127854   2.592   3.080   4.593  0.2049 -2.4074  4.0248
 5465SOL    HW227855   2.533   3.177   4.679 -1.0857  1.3009 -2.6988
 5466SOL     OW27856   2.869   1.648   1.423 -0.2660 -0.2551  0.7002
 5466SOL    HW127857   2.846   1.677   1.335 -1.7745 -3.1415  0.1477
 5466SOL    HW227858   2.839   1.557   1.429 -0.4053 -0.2684 -0.2241
 5467SOL     OW27859   0.341   3.319   4.830  0.4092  0.7569 -0.1710
 5467SOL    HW127860   0.284   3.361   4.894  1.2647 -0.8616  1.6508
 5467SOL    HW227861   0.358   3.231   4.863 -1.3530  0.0788 -1.1161
 5468SOL     OW27862   1.375   1.553  11.830 -0.1335  0.0739  0.2864
 5468SOL    HW127863   1.455   1.535  11.781  1.3134  1.3278  2.1977
 5468SOL    HW227864   1.390   1.511  11.914 -0.2995 -1.1792 -0.3091
 5469SOL     OW27865   3.870   1.535   5.574 -0.3593  0.2384  0.1036
 5469SOL    HW127866   3.934   1.595   5.536 -0.6661 -1.9038 -3.7033
 5469SOL    HW227867   3.793   1.593   5.572 -1.1595 -0.7055  3.8151
 5470SOL     OW27868   1.284   4.411   5.865 -0.5692  0.2354 -0.3637
 5470SOL    HW127869   1.300   4.408   5.959  0.4674 -0.2283 -0.5524
 5470SOL    HW227870   1.336   4.339   5.830 -1.3750 -0.3832 -0.2710
 5471SOL     OW27871   4.665   3.863  15.071 -1.0195  0.5054 -0.3423
 5471SOL    HW127872   4.695   3.845  15.160 -0.7969  2.7251  0.0266
 5471SOL    HW227873   4.600   3.930  15.091 -0.9476  0.8880 -1.3737
 5472SOL     OW27874   1.562   2.640   4.385  0.3763 -0.4834 -0.2301
 5472SOL    HW127875   1.583   2.674   4.298  0.7851 -0.4746 -0.1296
 5472SOL    HW227876   1.480   2.593   4.369 -1.0018  1.8652 -0.0719
 5473SOL     OW27877   1.020   4.141  10.110 -0.0707 -0.7741  0.1927
 5473SOL    HW127878   1.009   4.066  10.052  0.1160  0.7351 -1.8234
 5473SOL    HW227879   1.027   4.216  10.050  1.4404  0.1507  1.5260
 5474SOL     OW27880   3.455   3.920  10.491 -0.1492 -0.3096 -0.2411
 5474SOL    HW127881   3.392   3.969  10.439 -1.6730 -1.0496  0.9005
 5474SOL    HW227882   3.474   3.845  10.435  2.0902 -0.6677  1.0202
 5475SOL     OW27883   2.080   1.231   6.185  0.0246  0.3205  0.0247
 5475SOL    HW127884   2.086   1.309   6.129 -0.0094 -1.0865 -1.9355
 5475SOL    HW227885   2.172   1.216   6.209 -0.2855 -0.4823  0.6980
 5476SOL     OW27886   1.445   4.536   3.091 -0.4982  0.3289  0.1748
 5476SOL    HW127887   1.476   4.607   3.146  1.4452 -0.5052  0.1718
 5476SOL    HW227888   1.424   4.471   3.158 -2.8815  1.2502  0.3360
 5477SOL     OW27889   0.076   1.414   0.215 -0.4453  0.0071  0.2079
 5477SOL    HW127890   0.159   1.393   0.173  1.1145  1.3066  2.6804
 5477SOL    HW227891   0.054   1.487   0.157  2.1114  0.2642 -0.4539
 5478SOL     OW27892   1.558   2.976   3.166  0.2238 -0.9100 -0.1408
 5478SOL    HW127893   1.485   2.943   3.114 -1.8777 -1.5573  3.2023
 5478SOL    HW227894   1.559   2.909   3.235  1.9963  0.1194  0.8280
 5479SOL     OW27895   0.859   0.548   2.450 -0.2051  0.1731  0.0147
 5479SOL    HW127896   0.778   0.533   2.401 -0.9005  2.8864  0.3180
 5479SOL    HW227897   0.832   0.563   2.540  0.0685  1.6512 -0.1432
 5480SOL     OW27898   2.739   4.415  16.314  0.3855 -0.1010  0.2099
 5480SOL    HW127899   2.739   4.504  16.279  1.0078 -0.0214  0.4200
 5480SOL    HW227900   2.702   4.367  16.240  1.1491 -0.5642  0.1254
 5481SOL     OW27901   4.486   3.920  14.838  0.1532 -1.3974  0.6617
 5481SOL    HW127902   4.549   3.926  14.910  2.4153  1.2799 -1.5420
 5481SOL    HW227903   4.540   3.898  14.762 -0.8494 -0.8394 -0.2212
 5482SOL     OW27904   3.657   3.168   6.202 -0.3171 -0.0067  0.5603
 5482SOL    HW127905   3.644   3.165   6.297 -0.3958  1.5185  0.6050
 5482SOL    HW227906   3.735   3.120   6.177 -0.6443 -0.6169  0.7080
 5483SOL     OW27907   3.742   3.216   1.808 -0.0017 -0.5914  0.5768
 5483SOL    HW127908   3.699   3.160   1.744  2.0033 -3.6738  1.9073
 5483SOL    HW227909   3.691   3.192   1.885 -3.2166 -0.5867 -1.5300
 5484SOL     OW27910   0.567   2.886   8.883 -0.2315 -0.0002 -0.2649
 5484SOL    HW127911   0.514   2.822   8.835 -1.5517  1.6979 -1.0649
 5484SOL    HW227912   0.655   2.861   8.855  0.9941  2.1812  1.7617
 5485SOL     OW27913   0.971   0.794   4.642  0.0096  0.5539 -0.1260
 5485SOL    HW127914   0.892   0.747   4.666  0.7816 -0.7857 -0.1797
 5485SOL    HW227915   1.028   0.724   4.674  0.3095  0.1144 -1.6367
 5486SOL     OW27916   3.331   0.719   3.921  0.1008  0.5164 -0.5776
 5486SOL    HW127917   3.267   0.751   3.985  1.4016 -0.0158  0.9776
 5486SOL    HW227918   3.389   0.795   3.912  0.6483  0.0591 -0.8845
 5487SOL     OW27919   3.544   3.920  14.125 -0.0160 -0.3326  0.0653
 5487SOL    HW127920   3.560   3.940  14.033  0.4257 -2.7916 -0.3752
 5487SOL    HW227921   3.490   3.997  14.145 -0.0544 -0.1839 -0.6103
 5488SOL     OW27922   3.546   2.704   1.823  0.3425 -0.0704 -0.3153
 5488SOL    HW127923   3.537   2.613   1.852 -1.6297  0.0874 -0.4093
 5488SOL    HW227924   3.462   2.738   1.793  0.5942 -0.2452 -1.2088
 5489SOL     OW27925   4.698   3.180   7.455 -0.0654 -0.0868  0.2354
 5489SOL    HW127926   4.693   3.267   7.496 -0.3303  0.2659 -0.5408
 5489SOL    HW227927   4.652   3.118   7.512 -0.9006 -0.7420 -1.1594
 5490SOL     OW27928   3.148   2.610   1.807 -0.4850 -0.2724  0.1975
 5490SOL    HW127929   3.106   2.677   1.862 -0.8600  0.2393 -0.7086
 5490SOL    HW227930   3.204   2.564   1.869  1.7910 -0.9898 -2.4160
 5491SOL     OW27931   4.036   0.213   7.526  0.0688  0.3989  0.1223
 5491SOL    HW127932   3.996   0.258   7.451  0.6466 -1.6763 -1.4313
 5491SOL    HW227933   4.051   0.285   7.587  0.6334 -0.1803  0.6679
 5492SOL     OW27934   4.032   2.137   0.639  0.1614 -0.6157  0.3804
 5492SOL    HW127935   3.957   2.186   0.672 -0.1153 -1.5512  1.1355
 5492SOL    HW227936   4.033   2.063   0.699 -0.3284 -0.3146  0.7594
 5493SOL     OW27937   3.633   2.685   5.239 -0.1469  0.2009  0.0045
 5493SOL    HW127938   3.658   2.633   5.316 -1.2853 -0.4648 -0.0691
 5493SOL    HW227939   3.538   2.688   5.253 -0.2428 -0.0004 -0.5955
 5494SOL     OW27940   0.255   0.688   4.369  0.3230 -0.1922 -0.3673
 5494SOL    HW127941   0.322   0.695   4.301  1.3147 -1.6783  0.4494
 5494SOL    HW227942   0.203   0.629   4.315 -1.4500 -0.2000  1.3336
 5495SOL     OW27943   4.467   0.095  15.545 -0.3502 -0.0003 -0.8392
 5495SOL    HW127944   4.555   0.101  15.582 -0.2897 -0.8685 -0.8240
 5495SOL    HW227945   4.438   0.005  15.562 -0.0328  0.0755  0.0959
 5496SOL     OW27946   1.409   3.391   7.615  0.1154  0.1523 -0.3587
 5496SOL    HW127947   1.443   3.339   7.688 -1.5416  0.1098  0.3721
 5496SOL    HW227948   1.427   3.481   7.643 -0.2111 -0.1902  0.9771
 5497SOL     OW27949   0.794   1.213  17.110  0.3514 -0.2299 -0.1014
 5497SOL    HW127950   0.829   1.255  17.031  0.0643  1.2985  0.5853
 5497SOL    HW227951   0.833   1.126  17.110 -1.2315 -0.9358 -0.4255
 5498SOL     OW27952   0.614   4.482  15.612  0.5234 -0.3898 -0.3361
 5498SOL    HW127953   0.591   4.570  15.644  1.6117  0.0041 -0.6358
 5498SOL    HW227954   0.706   4.496  15.587  0.7628 -2.7206 -0.7137
 5499SOL     OW27955   1.721   3.846   6.191 -0.5450 -0.0369 -0.1875
 5499SOL    HW127956   1.669   3.868   6.113 -0.2985 -0.6204 -0.5186
 5499SOL    HW227957   1.755   3.758   6.174 -1.4697 -0.4738  0.2847
 5500SOL     OW27958   0.262   0.067   8.993 -0.2079 -0.3796  0.1588
 5500SOL    HW127959   0.356   0.082   9.005  0.1160 -2.4102  0.0641
 5500SOL    HW227960   0.238   0.159   8.980  2.0087  0.1648 -0.1370
 5501SOL     OW27961   2.016   1.780   4.604 -0.1691 -0.5206  0.0058
 5501SOL    HW127962   2.011   1.785   4.508  1.6070 -0.8587 -0.1055
 5501SOL    HW227963   2.071   1.701   4.604 -0.1380 -0.5003 -3.2191
 5502SOL     OW27964   0.002   1.180   1.618  0.1783  0.0082 -0.1754
 5502SOL    HW127965   4.681   1.245   1.672  1.1232 -0.0951  0.7320
 5502SOL    HW227966   4.690   1.099   1.653  0.0273  0.2626  0.2526
 5503SOL     OW27967   4.535   4.656   0.424  0.2130  0.7702 -0.2260
 5503SOL    HW127968   4.480   4.691   0.494 -0.2436 -0.0186 -0.1946
 5503SOL    HW227969   4.605   4.604   0.462 -1.3650 -0.8485  0.4352
 5504SOL     OW27970   4.328   0.607  13.500 -0.0087  0.5123 -0.1599
 5504SOL    HW127971   4.343   0.648  13.415 -0.3400  0.8401 -0.0633
 5504SOL    HW227972   4.391   0.665  13.544 -1.2088  0.6544  1.3743
 5505SOL     OW27973   2.037   4.065   6.257 -0.4208 -0.0043 -0.5193
 5505SOL    HW127974   1.967   4.130   6.262 -1.4513 -1.0848 -0.7707
 5505SOL    HW227975   2.116   4.116   6.274 -1.3351  1.4057 -0.5416
 5506SOL     OW27976   3.657   2.108  17.085 -0.2288 -0.4018  0.1244
 5506SOL    HW127977   3.655   2.172  17.013 -0.0822  1.6780  1.9663
 5506SOL    HW227978   3.571   2.126  17.124 -0.6797 -0.7998 -0.6865
 5507SOL     OW27979   0.589   4.683   6.257 -0.3244  0.3983  0.4152
 5507SOL    HW127980   0.512   4.643   6.217  1.0585  1.7995 -3.6958
 5507SOL    HW227981   0.619   4.604   6.302 -0.3208 -0.5566 -1.2345
 5508SOL     OW27982   1.673   0.135   8.302 -0.3404 -0.4133 -0.3768
 5508SOL    HW127983   1.685   0.160   8.210 -0.2461  1.0340  0.0278
 5508SOL    HW227984   1.734   0.062   8.309  1.0701  0.9552  1.3665
 5509SOL     OW27985   0.716   0.853   3.693  0.0727  0.1762  0.2939
 5509SOL    HW127986   0.755   0.941   3.689  0.6597 -0.3139 -4.3035
 5509SOL    HW227987   0.790   0.801   3.662 -0.0627  0.0101  0.2502
 5510SOL     OW27988   3.810   3.923   8.453  0.1365  0.1720  0.0444
 5510SOL    HW127989   3.890   3.974   8.462  0.7545 -1.1864  2.2784
 5510SOL    HW227990   3.775   3.931   8.541 -1.0016  0.6609 -0.4481
 5511SOL     OW27991   3.354   1.567   7.190 -0.2038 -0.2592  0.1532
 5511SOL    HW127992   3.424   1.591   7.251  0.9114  1.0093 -1.6336
 5511SOL    HW227993   3.311   1.499   7.242 -0.3424  0.0286  0.4208
 5512SOL     OW27994   0.463   2.766  11.947 -0.0479 -0.4055  0.9270
 5512SOL    HW127995   0.539   2.719  11.979  0.0216 -0.5407  0.5653
 5512SOL    HW227996   0.457   2.826  12.021  0.1852  1.6140 -0.6964
 5513SOL     OW27997   0.922   2.538  11.716  0.1559  0.1511 -0.0597
 5513SOL    HW127998   0.960   2.597  11.780  1.0920  1.3862 -1.7391
 5513SOL    HW227999   0.982   2.566  11.646  0.7315 -1.9071 -0.3987
 5514SOL     OW28000   0.737   0.757   3.370 -0.5555 -0.0839 -0.1517
 5514SOL    HW128001   0.648   0.722   3.362 -0.5319  0.2248 -1.7283
 5514SOL    HW228002   0.780   0.686   3.323 -0.2972 -1.3539  1.9821
 5515SOL     OW28003   2.064   2.378   2.123 -0.1274  0.0609 -0.1807
 5515SOL    HW128004   2.038   2.372   2.031 -1.0625 -1.9215  0.1898
 5515SOL    HW228005   2.001   2.439   2.161  2.1470  1.5189  1.1952
 5516SOL     OW28006   2.832   1.720   4.836  0.1888 -0.0193  0.2410
 5516SOL    HW128007   2.746   1.685   4.813  0.1903 -0.8529  1.4809
 5516SOL    HW228008   2.803   1.812   4.838 -0.2917 -0.1351 -1.3598
 5517SOL     OW28009   3.779   0.108   0.640  0.1991 -0.3847  0.3284
 5517SOL    HW128010   3.711   0.058   0.685 -2.1761  1.1592 -1.5258
 5517SOL    HW228011   3.726   0.164   0.584  0.8516 -1.3732 -1.2600
 5518SOL     OW28012   2.662   1.968   4.285  0.4065 -0.2328 -0.0358
 5518SOL    HW128013   2.709   2.004   4.210  0.5151 -1.8729 -0.7567
 5518SOL    HW228014   2.724   1.899   4.308  0.8680 -0.4521 -1.9452
 5519SOL     OW28015   3.698   0.423   6.821  1.3838  0.0507 -0.2415
 5519SOL    HW128016   3.665   0.337   6.796  1.5519 -0.0527 -0.1123
 5519SOL    HW228017   3.790   0.413   6.795  1.0540 -0.6433 -1.1491
 5520SOL     OW28018   2.976   3.814   3.632  0.0132 -0.0515 -0.0558
 5520SOL    HW128019   2.889   3.775   3.632 -1.3591  3.0697 -1.5669
 5520SOL    HW228020   2.999   3.832   3.723 -1.2574 -3.4238  0.9373
 5521SOL     OW28021   3.661   2.676  16.706  0.7823 -0.5819 -1.0554
 5521SOL    HW128022   3.619   2.658  16.790  1.0591 -3.5258 -1.5434
 5521SOL    HW228023   3.615   2.614  16.650  0.7336 -0.5528 -1.0472
 5522SOL     OW28024   4.183   1.514   0.907  0.0173  0.5255  0.8537
 5522SOL    HW128025   4.156   1.584   0.966 -0.1450  1.9676 -0.9199
 5522SOL    HW228026   4.272   1.498   0.936  0.7088  3.1093  0.1909
 5523SOL     OW28027   4.418   0.534   2.302 -0.2859  0.3119  0.2389
 5523SOL    HW128028   4.499   0.564   2.261 -1.1676  1.6527 -0.5296
 5523SOL    HW228029   4.403   0.454   2.251 -1.5659  0.4443  0.4098
 5524SOL     OW28030   2.581   3.923   3.032  0.6205  0.1030 -0.0339
 5524SOL    HW128031   2.598   3.921   2.938  0.0564  0.3644 -0.1431
 5524SOL    HW228032   2.486   3.920   3.025  0.5948  2.8054 -0.8483
 5525SOL     OW28033   4.051   4.246  16.816  0.2652  0.5695  0.1485
 5525SOL    HW128034   4.072   4.157  16.844 -1.3096 -0.2378 -1.2112
 5525SOL    HW228035   4.034   4.289  16.899 -1.8539 -0.3547  0.1869
 5526SOL     OW28036   0.618   1.586   2.169 -0.0295  0.5329 -0.0872
 5526SOL    HW128037   0.614   1.677   2.196 -0.5593  0.9577 -1.6225
 5526SOL    HW228038   0.670   1.545   2.238 -0.8041  2.0321  1.3800
 5527SOL     OW28039   1.723   1.743   9.506 -0.0744 -0.0192  0.0925
 5527SOL    HW128040   1.652   1.797   9.471  0.5236  0.9697  0.4280
 5527SOL    HW228041   1.780   1.730   9.431  0.6902  0.9857  0.5073
 5528SOL     OW28042   2.220   2.817   1.507  0.5392  0.3102 -0.2722
 5528SOL    HW128043   2.235   2.869   1.586  0.2677 -0.4639  0.2851
 5528SOL    HW228044   2.302   2.773   1.486  0.5471 -0.4596  1.3709
 5529SOL     OW28045   3.753   1.396   0.246 -0.7531 -0.1817 -0.0885
 5529SOL    HW128046   3.803   1.446   0.311  0.0671 -2.7082  1.2295
 5529SOL    HW228047   3.671   1.376   0.292 -0.1047 -0.8289  0.7823
 5530SOL     OW28048   2.560   0.318   3.084 -0.2935 -0.0652  0.2755
 5530SOL    HW128049   2.619   0.315   3.160 -0.3217 -0.4276  0.2832
 5530SOL    HW228050   2.504   0.393   3.103 -0.4708 -0.8802  2.8922
 5531SOL     OW28051   0.110   0.795  16.138  0.5521  0.5772  0.1719
 5531SOL    HW128052   0.052   0.867  16.113 -0.2522  0.5973  2.1177
 5531SOL    HW228053   0.046   0.741  16.184 -1.0086  2.4323  0.1867
 5532SOL     OW28054   1.015   3.856   7.148  0.4106  0.3817 -0.1446
 5532SOL    HW128055   0.930   3.813   7.149  0.9482 -0.6837 -0.9280
 5532SOL    HW228056   0.996   3.947   7.123 -0.8900 -0.3086 -1.6875
 5533SOL     OW28057   2.761   0.736   6.824 -0.1388 -0.6163 -0.1094
 5533SOL    HW128058   2.839   0.681   6.814 -1.5978 -2.5847 -0.8097
 5533SOL    HW228059   2.794   0.819   6.792 -1.1167 -1.2667 -2.7997
 5534SOL     OW28060   3.525   1.180   3.899  0.1922  0.2767 -0.0787
 5534SOL    HW128061   3.572   1.245   3.950 -1.4691  0.7897  0.7848
 5534SOL    HW228062   3.594   1.128   3.857  0.3323 -0.6996  1.3546
 5535SOL     OW28063   1.648   3.666   3.903  0.1132 -0.8197 -0.7610
 5535SOL    HW128064   1.574   3.611   3.927 -0.8829  0.4171 -1.0415
 5535SOL    HW228065   1.606   3.738   3.856  0.6680  0.9597  1.4672
 5536SOL     OW28066   2.381   1.482  16.782 -0.2157 -0.0940 -0.0207
 5536SOL    HW128067   2.299   1.508  16.739 -0.1312  2.1207  1.1869
 5536SOL    HW228068   2.447   1.493  16.714  0.3968 -1.6215  0.3282
 5537SOL     OW28069   4.252   3.800   7.276  0.0562  0.2255  0.4968
 5537SOL    HW128070   4.332   3.757   7.306  0.7823  1.0503 -0.2565
 5537SOL    HW228071   4.196   3.723   7.286  1.1332 -0.6056  0.1369
 5538SOL     OW28072   2.204   1.848   6.566 -0.2948  0.0291 -0.2551
 5538SOL    HW128073   2.286   1.870   6.522 -1.0833  1.0256 -1.2159
 5538SOL    HW228074   2.238   1.796   6.639  1.3277 -0.4345 -1.3634
 5539SOL     OW28075   3.720   1.414   1.910  0.2838  0.3627 -0.0601
 5539SOL    HW128076   3.699   1.414   1.816  0.1636 -0.0452 -0.0309
 5539SOL    HW228077   3.803   1.367   1.905 -0.0809 -0.3577  0.8057
 5540SOL     OW28078   2.664   2.394   0.779 -0.3600 -0.3188 -0.6076
 5540SOL    HW128079   2.647   2.315   0.728  1.1554 -1.5816  0.8436
 5540SOL    HW228080   2.594   2.380   0.842  1.9038 -2.7530  1.3547
 5541SOL     OW28081   1.796   4.360   9.499 -0.1267  0.4187  0.1814
 5541SOL    HW128082   1.845   4.280   9.477 -0.6890 -0.0999  0.8330
 5541SOL    HW228083   1.867   4.421   9.518 -0.9470  1.2537  0.5246
 5542SOL     OW28084   3.108   0.049  13.005 -0.1110  0.7247  0.3410
 5542SOL    HW128085   3.058   4.692  13.014  3.0892 -1.0364  2.6204
 5542SOL    HW228086   3.103   0.056  12.909  0.8115 -0.9904  0.1503
 5543SOL     OW28087   1.343   2.520   9.640 -0.3435 -0.1329 -0.1353
 5543SOL    HW128088   1.410   2.457   9.611  0.4101  0.6728 -0.1413
 5543SOL    HW228089   1.295   2.547   9.561 -0.0943  0.1667 -0.1828
 5544SOL     OW28090   4.151   1.890  13.867 -0.7274  1.0525 -0.3986
 5544SOL    HW128091   4.204   1.849  13.935  0.1080  1.3908 -0.8436
 5544SOL    HW228092   4.063   1.855  13.878 -0.6030  1.7450  2.9092
 5545SOL     OW28093   3.895   1.170  13.033  0.0830  0.1854  0.5715
 5545SOL    HW128094   3.964   1.109  13.059 -0.2280 -1.2042 -1.8330
 5545SOL    HW228095   3.919   1.175  12.941  2.3167  0.8961  1.2140
 5546SOL     OW28096   2.199   1.247  10.945 -0.1115 -0.2914  0.4678
 5546SOL    HW128097   2.291   1.233  10.922  0.0883 -0.5024  1.3938
 5546SOL    HW228098   2.141   1.180  10.910 -0.9165 -0.1896  1.6147
 5547SOL     OW28099   4.173   2.010  14.245 -0.4785 -0.1577 -0.2966
 5547SOL    HW128100   4.173   2.095  14.291  0.2252 -0.5603  0.4473
 5547SOL    HW228101   4.186   2.036  14.154 -0.4307 -0.2596 -0.3182
 5548SOL     OW28102   2.084   0.083  11.346  0.3518 -0.2420 -0.1379
 5548SOL    HW128103   2.035   0.009  11.381  1.2404 -0.0852  1.4147
 5548SOL    HW228104   2.144   0.095  11.419  2.0134  0.4284 -1.5953
 5549SOL     OW28105   2.112   1.309   9.472 -0.6638 -0.1104  0.3917
 5549SOL    HW128106   2.093   1.403   9.480 -1.4549 -0.2404  0.0171
 5549SOL    HW228107   2.208   1.307   9.473 -0.6003  3.0315 -0.5701
 5550SOL     OW28108   4.646   0.690   9.178  0.1799 -0.0803 -0.0660
 5550SOL    HW128109   4.643   0.605   9.133  1.0949 -0.0636 -0.1599
 5550SOL    HW228110   4.553   0.708   9.183  0.0111 -0.6704 -0.9723
 5551SOL     OW28111   3.254   4.284   7.214 -0.2943  1.0750  0.8575
 5551SOL    HW128112   3.222   4.196   7.196  2.8187 -0.2228  1.7287
 5551SOL    HW228113   3.173   4.315   7.256  0.6041  2.5385  1.5078
 5552SOL     OW28114   4.634   3.527   4.231  0.5200  0.6382 -0.5004
 5552SOL    HW128115   4.618   3.488   4.317 -1.2763 -0.4972 -1.3523
 5552SOL    HW228116   4.669   3.457   4.176 -0.3460  1.0558 -1.5751
 5553SOL     OW28117   0.989   4.313   4.573 -0.0923 -0.6629 -0.4613
 5553SOL    HW128118   0.915   4.331   4.632  2.9855  0.2072  3.1796
 5553SOL    HW228119   1.068   4.340   4.619  0.6378 -3.4940 -0.0717
 5554SOL     OW28120   1.968   2.793  12.838 -0.1354  0.1718  0.0341
 5554SOL    HW128121   2.016   2.833  12.766 -0.1945 -1.3799 -0.8651
 5554SOL    HW228122   1.977   2.700  12.819 -0.3860  0.2964 -0.6724
 5555SOL     OW28123   1.114   2.635   4.461 -0.6212 -0.3944 -0.2307
 5555SOL    HW128124   1.197   2.669   4.426  0.5874 -1.1350  1.9810
 5555SOL    HW228125   1.083   2.584   4.386 -0.8558 -0.4259 -0.1136
 5556SOL     OW28126   3.719   0.324   6.220  0.4039  0.6497  0.0039
 5556SOL    HW128127   3.806   0.358   6.240  0.9137 -1.7534  1.8796
 5556SOL    HW228128   3.741   0.244   6.172  2.4545  0.7936  0.6932
 5557SOL     OW28129   1.457   4.217  16.709  0.1825 -0.1367 -1.0432
 5557SOL    HW128130   1.428   4.292  16.657  0.3879 -0.5220 -1.7107
 5557SOL    HW228131   1.392   4.149  16.692  0.4969 -0.5407 -0.6085
 5558SOL     OW28132   0.214   1.551   4.816  0.4744 -0.0039  0.8245
 5558SOL    HW128133   0.251   1.638   4.802  1.0613 -0.4764 -0.6889
 5558SOL    HW228134   0.130   1.554   4.770  1.3454 -0.9783 -0.8404
 5559SOL     OW28135   4.379   4.452   8.188 -0.0226  0.2840 -0.2597
 5559SOL    HW128136   4.349   4.541   8.203  0.9037  0.4592  0.5527
 5559SOL    HW228137   4.415   4.436   8.275  2.3283 -1.0834 -1.4906
 5560SOL     OW28138   1.157   3.834   2.279 -0.1082 -0.4090 -0.3300
 5560SOL    HW128139   1.251   3.838   2.300 -0.9570  1.5218  3.1113
 5560SOL    HW228140   1.134   3.769   2.346  1.7322 -1.1078 -0.3658
 5561SOL     OW28141   3.753   3.135  12.538 -0.7514 -0.0905  0.1891
 5561SOL    HW128142   3.835   3.106  12.578 -1.0428 -1.9122 -0.5383
 5561SOL    HW228143   3.799   3.157  12.457  0.4334 -0.9511  0.6288
 5562SOL     OW28144   3.504   2.876   5.879 -0.2356 -0.0490 -0.1309
 5562SOL    HW128145   3.419   2.864   5.922  0.2388 -0.3468  0.7270
 5562SOL    HW228146   3.481   2.896   5.788  3.8502  1.2681 -0.9051
 5563SOL     OW28147   1.667   4.461   4.961  0.1455 -0.4379  0.5223
 5563SOL    HW128148   1.748   4.411   4.972  0.9900  0.6597 -0.7644
 5563SOL    HW228149   1.694   4.552   4.967  1.0423 -0.5306 -2.2591
 5564SOL     OW28150   4.414   0.883   8.753 -0.2627  0.1141  0.2647
 5564SOL    HW128151   4.449   0.819   8.815  1.6026  0.6631 -0.2367
 5564SOL    HW228152   4.320   0.866   8.741 -0.1109 -0.7405  0.2742
 5565SOL     OW28153   2.022   2.330   9.176 -0.0768  0.4957 -0.3189
 5565SOL    HW128154   2.065   2.314   9.092 -0.7976 -0.5270 -0.4983
 5565SOL    HW228155   2.057   2.416   9.199 -1.5247  1.3556 -1.2970
 5566SOL     OW28156   1.204   0.042   7.892  0.5645 -0.8516 -0.2349
 5566SOL    HW128157   1.168   4.678   7.879  0.2388 -0.9634  1.4065
 5566SOL    HW228158   1.244   0.051   7.805  2.5598 -2.3657  0.5003
 5567SOL     OW28159   3.040   2.138  14.103 -0.4908  0.0817  0.0710
 5567SOL    HW128160   2.955   2.149  14.060 -0.6201  0.3444  0.3875
 5567SOL    HW228161   3.075   2.225  14.080 -2.9566  0.6972 -1.3768
 5568SOL     OW28162   2.239   4.081  10.910 -0.0015  0.2139 -0.2068
 5568SOL    HW128163   2.237   3.987  10.891  0.3636 -0.3430  2.4402
 5568SOL    HW228164   2.330   4.081  10.940 -0.2179 -0.6132  0.4753
 5569SOL     OW28165   3.112   1.641  12.417  0.3424  0.5711  0.5131
 5569SOL    HW128166   3.089   1.732  12.437 -1.8996  0.4147 -1.2733
 5569SOL    HW228167   3.140   1.651  12.326  0.0160 -0.3492  0.3088
 5570SOL     OW28168   0.939   2.237   4.977  0.3135  0.2243 -0.7486
 5570SOL    HW128169   0.932   2.319   5.025 -0.4884  0.7544 -1.7563
 5570SOL    HW228170   0.995   2.273   4.907  0.7302  0.4655 -0.2881
 5571SOL     OW28171   3.362   1.250   9.081  0.3374  0.3545 -0.2758
 5571SOL    HW128172   3.284   1.217   9.126  0.0995 -1.7156 -2.1887
 5571SOL    HW228173   3.412   1.262   9.162  0.8765 -1.0355 -0.4019
 5572SOL     OW28174   4.037   3.321   2.905  0.4931  0.2875 -0.1065
 5572SOL    HW128175   4.130   3.328   2.926  0.2162 -0.6665  1.3897
 5572SOL    HW228176   4.024   3.227   2.899  3.7681 -0.3523  2.9330
 5573SOL     OW28177   2.471   0.238   5.813 -0.7184  0.2392 -0.1535
 5573SOL    HW128178   2.549   0.289   5.834 -1.8149  1.6797  0.4019
 5573SOL    HW228179   2.502   0.148   5.812 -0.8157  0.2129 -1.4237
 5574SOL     OW28180   4.047   4.497   2.473  0.1896 -0.2085  0.3062
 5574SOL    HW128181   4.067   4.453   2.556 -1.6417 -1.4630  0.0840
 5574SOL    HW228182   3.952   4.506   2.478  0.2767  1.2119 -0.6312
 5575SOL     OW28183   2.914   3.378   2.382  0.7526 -0.4653  0.1725
 5575SOL    HW128184   2.977   3.306   2.392  0.9056 -0.3167  0.2779
 5575SOL    HW228185   2.950   3.424   2.306  2.5241  0.8420  1.8061
 5576SOL     OW28186   3.382   1.097   4.269  0.0312  0.2060 -0.7486
 5576SOL    HW128187   3.416   1.053   4.348  0.0670  0.3838 -0.6659
 5576SOL    HW228188   3.293   1.090   4.306  0.7391 -0.7729  0.7651
 5577SOL     OW28189   4.544   0.324   3.639  0.7034 -0.3336 -0.1229
 5577SOL    HW128190   4.606   0.254   3.619  0.1377  0.0236 -3.0892
 5577SOL    HW228191   4.504   0.285   3.717 -0.0128  1.3609  0.3519
 5578SOL     OW28192   1.051   4.225  12.020  0.1681  0.2669  0.2855
 5578SOL    HW128193   1.141   4.225  11.986  0.2915 -0.0626  0.6138
 5578SOL    HW228194   1.081   4.203  12.108 -0.6271 -0.2710  0.4258
 5579SOL     OW28195   1.619   2.761  14.242 -0.3072 -0.1834  0.0548
 5579SOL    HW128196   1.528   2.756  14.273 -0.9531 -0.2582 -1.8172
 5579SOL    HW228197   1.608   2.838  14.186 -0.7938  0.2112  0.6895
 5580SOL     OW28198   2.863   0.280  16.113 -0.2887 -0.3065 -0.4331
 5580SOL    HW128199   2.955   0.253  16.123 -0.5858 -0.7749  0.9797
 5580SOL    HW228200   2.869   0.316  16.024  2.2954  3.0988  1.0673
 5581SOL     OW28201   4.456   0.878   0.984  0.0152 -0.2242  0.0714
 5581SOL    HW128202   4.402   0.954   0.962 -0.5070 -0.3652  0.8346
 5581SOL    HW228203   4.537   0.928   0.985 -0.6052  0.7940 -2.0730
 5582SOL     OW28204   4.580   2.439   8.720 -0.2746  0.1768  0.2013
 5582SOL    HW128205   4.489   2.410   8.733 -0.5556  1.3844  0.8985
 5582SOL    HW228206   4.626   2.365   8.682 -0.7385  0.1368 -0.2898
 5583SOL     OW28207   1.549   4.335   2.285  0.0098  0.1449 -0.5167
 5583SOL    HW128208   1.626   4.324   2.342 -1.5104  0.9450  1.6854
 5583SOL    HW228209   1.534   4.427   2.310 -1.7202 -0.8937  2.1853
 5584SOL     OW28210   0.592   0.726   6.418  0.1750  0.1611  0.2876
 5584SOL    HW128211   0.560   0.677   6.494  0.0466 -1.3560 -0.7413
 5584SOL    HW228212   0.579   0.814   6.452  1.3346  0.7577 -0.7995
 5585SOL     OW28213   4.073   1.251   7.702 -0.0738 -0.1169  0.1396
 5585SOL    HW128214   4.165   1.247   7.676 -0.0982  0.4624 -0.0453
 5585SOL    HW228215   4.077   1.193   7.778  0.4599 -0.2727 -0.0088
 5586SOL     OW28216   1.152   2.685  15.411 -0.9191 -0.3877  0.0184
 5586SOL    HW128217   1.076   2.628  15.398 -1.0487 -0.0450 -0.7225
 5586SOL    HW228218   1.229   2.633  15.388 -0.2558  1.2233 -1.4124
 5587SOL     OW28219   1.215   2.720  11.731  0.5125 -0.2461  0.3760
 5587SOL    HW128220   1.166   2.762  11.802 -0.4158  0.1180 -0.4704
 5587SOL    HW228221   1.235   2.635  11.771 -0.6911  0.5769  2.7537
 5588SOL     OW28222   3.812   1.044   6.644 -0.3978  0.3535  0.1414
 5588SOL    HW128223   3.856   1.062   6.727 -3.0847 -0.4120  1.7700
 5588SOL    HW228224   3.868   1.082   6.576 -0.0667  0.8925  0.7152
 5589SOL     OW28225   3.268   2.974   5.321 -0.7659  0.1750  0.0715
 5589SOL    HW128226   3.227   3.048   5.366 -3.0216 -0.6428 -0.6166
 5589SOL    HW228227   3.329   3.025   5.269  1.1841 -1.0810  1.1093
 5590SOL     OW28228   4.643   2.963   6.127  0.2834 -0.3580 -0.0145
 5590SOL    HW128229   4.683   2.988   6.210 -0.1372  0.7667 -0.1423
 5590SOL    HW228230   4.659   3.046   6.082  0.2457 -0.4364 -0.1711
 5591SOL     OW28231   2.615   3.214   2.659  0.2904 -0.5106 -0.5064
 5591SOL    HW128232   2.707   3.232   2.679  0.8020 -3.8566  0.0865
 5591SOL    HW228233   2.606   3.242   2.568  1.3461 -0.5852 -0.6346
 5592SOL     OW28234   2.380   1.915   7.318 -0.2439 -0.4762  0.5017
 5592SOL    HW128235   2.404   1.924   7.225 -0.6339 -0.0805  0.4366
 5592SOL    HW228236   2.286   1.935   7.318 -0.0594  0.4027 -0.2316
 5593SOL     OW28237   0.641   0.942  14.440 -0.1803 -0.1075  0.2257
 5593SOL    HW128238   0.723   0.989  14.424 -1.2591  1.3947 -0.9850
 5593SOL    HW228239   0.635   0.924  14.534 -1.1702  0.4265  0.2741
 5594SOL     OW28240   3.361   3.638   6.522 -0.0661 -0.5858  1.1622
 5594SOL    HW128241   3.439   3.612   6.473  0.9222  1.6189  1.5653
 5594SOL    HW228242   3.304   3.565   6.497  0.7365 -1.1431  0.9496
 5595SOL     OW28243   4.356   3.961   6.112 -0.5844  0.4779  0.5752
 5595SOL    HW128244   4.264   3.936   6.116 -0.4180 -0.4046 -1.0412
 5595SOL    HW228245   4.361   4.033   6.174 -1.3725  0.4966  0.6112
 5596SOL     OW28246   3.383   0.746   3.162  0.2614  0.6551  0.3984
 5596SOL    HW128247   3.358   0.674   3.104  0.2644  0.8431  0.1630
 5596SOL    HW228248   3.318   0.731   3.230  1.0847 -2.5338  0.4718
 5597SOL     OW28249   1.856   1.451   8.829 -0.6033 -0.1943  0.3689
 5597SOL    HW128250   1.799   1.523   8.800 -1.5762 -0.5155  1.4832
 5597SOL    HW228251   1.798   1.418   8.897 -0.5533  0.9669  0.9765
 5598SOL     OW28252   4.331   4.701   8.266 -0.4900  0.2900 -0.4175
 5598SOL    HW128253   4.281   0.050   8.229  0.2727  0.5922 -0.8413
 5598SOL    HW228254   4.291   4.693   8.353  1.9027 -0.4238  0.6059
 5599SOL     OW28255   2.295   0.893  15.341 -0.0102  0.4458 -0.4979
 5599SOL    HW128256   2.303   0.942  15.260 -1.5719  1.9762  0.2706
 5599SOL    HW228257   2.318   0.807  15.305  1.6569  1.8513 -2.7359
 5600SOL     OW28258   4.098   0.797   6.771 -0.0620  0.0809  0.3282
 5600SOL    HW128259   4.074   0.741   6.845  0.1268  0.1108  0.4108
 5600SOL    HW228260   4.065   0.744   6.698  0.5362  0.6275 -0.3471
 5601SOL     OW28261   3.177   4.353  15.960 -0.2865 -0.2595  0.4679
 5601SOL    HW128262   3.260   4.306  15.955 -0.8852 -1.3016  0.3285
 5601SOL    HW228263   3.134   4.334  15.876  0.6243 -0.5722  0.0715
 5602SOL     OW28264   3.442   4.407   8.519 -0.4986 -0.3979 -0.1635
 5602SOL    HW128265   3.458   4.338   8.455  0.3757  0.0123 -0.3752
 5602SOL    HW228266   3.382   4.359   8.577  0.7822 -0.2324  1.2959
 5603SOL     OW28267   1.187   3.202  15.746 -0.4502 -0.0135  0.4434
 5603SOL    HW128268   1.169   3.112  15.719  0.2761 -0.5966  1.8905
 5603SOL    HW228269   1.172   3.252  15.666 -0.1735 -1.4198 -0.4895
 5604SOL     OW28270   2.833   0.406   1.957  0.0798 -0.4076  0.1075
 5604SOL    HW128271   2.855   0.384   2.048 -0.1962 -1.5619 -0.1166
 5604SOL    HW228272   2.869   0.495   1.951 -0.7075 -0.0841  0.2622
 5605SOL     OW28273   0.700   0.841   4.080  0.3794  0.4412 -0.0254
 5605SOL    HW128274   0.767   0.784   4.041  0.2577  0.2203  0.0935
 5605SOL    HW228275   0.705   0.822   4.173 -1.6529 -0.4520 -0.1092
 5606SOL     OW28276   2.146   0.549  13.230 -0.3502 -0.0221  0.0542
 5606SOL    HW128277   2.132   0.614  13.162  2.1584  0.4384 -0.0280
 5606SOL    HW228278   2.060   0.541  13.271  0.9944 -0.2710  2.9077
 5607SOL     OW28279   3.878   1.853   7.421 -0.1857 -0.0091  0.0465
 5607SOL    HW128280   3.927   1.890   7.347 -1.5950 -1.0259 -1.3674
 5607SOL    HW228281   3.952   1.844   7.482  0.1568  0.6605 -0.2636
 5608SOL     OW28282   2.488   4.451  14.904 -0.1519 -0.2473  0.1324
 5608SOL    HW128283   2.498   4.531  14.852 -1.9969 -1.0996 -1.5418
 5608SOL    HW228284   2.543   4.477  14.977  1.6000  1.8678 -1.9243
 5609SOL     OW28285   2.632   0.649   0.389  0.1229  0.3592 -0.0744
 5609SOL    HW128286   2.582   0.694   0.457 -1.2663  2.1438 -2.3135
 5609SOL    HW228287   2.716   0.629   0.431  0.8057  0.7490 -1.2464
 5610SOL     OW28288   1.344   3.657   4.497  0.2537  0.5146  0.0007
 5610SOL    HW128289   1.348   3.741   4.543  4.1820 -0.0816  0.7605
 5610SOL    HW228290   1.404   3.668   4.423  2.1026  2.0203  1.7152
 5611SOL     OW28291   4.387   0.923  15.166  0.4725 -0.1884 -0.2874
 5611SOL    HW128292   4.430   0.889  15.245  1.8519  0.1598 -0.8799
 5611SOL    HW228293   4.462   0.925  15.106  0.1492 -1.6466 -0.7543
 5612SOL     OW28294   4.511   2.856   6.367  0.0813  0.4774 -0.4337
 5612SOL    HW128295   4.483   2.924   6.428 -1.8674  1.6302 -2.5740
 5612SOL    HW228296   4.492   2.904   6.286 -1.6536  0.6663  0.0760
 5613SOL     OW28297   0.640   2.400   8.448 -0.1618 -0.3452 -0.0365
 5613SOL    HW128298   0.630   2.411   8.354 -3.8958  1.6709  0.5882
 5613SOL    HW228299   0.596   2.316   8.464 -0.0660 -0.2594  0.6949
 5614SOL     OW28300   1.762   1.877   7.399 -0.0503 -0.3738 -0.4891
 5614SOL    HW128301   1.772   1.783   7.383 -0.7015 -0.3962 -0.7410
 5614SOL    HW228302   1.755   1.911   7.310  0.4682 -0.8404 -0.7075
 5615SOL     OW28303   1.714   1.306   2.379 -0.5323 -0.5237  0.0909
 5615SOL    HW128304   1.763   1.297   2.297  1.5935  0.4122  1.2391
 5615SOL    HW228305   1.642   1.245   2.363 -0.9205 -0.1973  0.5780
 5616SOL     OW28306   1.461   1.479  10.275  0.6916 -0.4772  0.1293
 5616SOL    HW128307   1.388   1.532  10.242  2.3245  1.7130  0.0485
 5616SOL    HW228308   1.508   1.458  10.195 -0.0013 -2.5231  0.2609
 5617SOL     OW28309   4.162   4.184  12.640  0.1476  0.2146  0.4668
 5617SOL    HW128310   4.173   4.090  12.623  1.4990  0.3644  0.5280
 5617SOL    HW228311   4.243   4.211  12.597 -0.0018 -3.3557 -2.1165
 5618SOL     OW28312   1.365   1.089   3.414 -0.2775 -0.0194  0.6317
 5618SOL    HW128313   1.445   1.141   3.414 -0.6304  0.5301 -2.1631
 5618SOL    HW228314   1.312   1.151   3.464 -0.0208  2.8292 -2.6107
 5619SOL     OW28315   0.687   3.432   4.695 -0.4770 -0.2998  0.0782
 5619SOL    HW128316   0.694   3.465   4.785  0.9605 -1.9637  0.5924
 5619SOL    HW228317   0.761   3.469   4.647 -0.7295 -1.0627 -0.8953
 5620SOL     OW28318   1.067   2.787   3.170  0.6806  0.7292 -0.5154
 5620SOL    HW128319   1.026   2.852   3.227  1.3701  1.0044 -0.3297
 5620SOL    HW228320   1.081   2.831   3.086  1.6732  0.0948 -0.6817
 5621SOL     OW28321   0.138   1.894   1.364 -0.4528  0.3470  0.4466
 5621SOL    HW128322   0.201   1.890   1.292 -0.2194  0.8227  0.6247
 5621SOL    HW228323   0.192   1.845   1.427  0.1615 -1.7549 -1.7312
 5622SOL     OW28324   1.530   0.001   4.011 -0.1669 -0.3892 -0.1452
 5622SOL    HW128325   1.618   4.691   4.028  0.0434  1.0004  1.5162
 5622SOL    HW228326   1.527   0.086   4.056  3.1912  0.4565 -1.5126
 5623SOL     OW28327   4.365   3.033  10.862  0.0980  0.3425 -0.3654
 5623SOL    HW128328   4.292   2.970  10.862  1.2425 -0.9831 -2.4685
 5623SOL    HW228329   4.361   3.057  10.770 -1.7726 -0.7665 -0.5804
 5624SOL     OW28330   3.447   3.914   1.843  0.5440 -0.0686  0.4888
 5624SOL    HW128331   3.356   3.890   1.823  0.0823  1.1145  1.1351
 5624SOL    HW228332   3.474   3.944   1.756  0.6534 -1.6324 -0.0205
 5625SOL     OW28333   4.550   1.888   4.729  0.0580  0.8541 -0.1047
 5625SOL    HW128334   4.506   1.933   4.801  0.0037 -1.0064  1.0478
 5625SOL    HW228335   4.504   1.804   4.730  0.6000  0.5361 -3.1943
 5626SOL     OW28336   2.057   1.495   4.571  0.1947  0.8474  0.1328
 5626SOL    HW128337   2.106   1.413   4.580  1.2615  1.5066  0.3087
 5626SOL    HW228338   1.973   1.460   4.543  1.1363 -0.6499 -0.8295
 5627SOL     OW28339   4.165   2.228   4.470 -0.3324  0.0126  0.1771
 5627SOL    HW128340   4.194   2.275   4.393  0.4718  2.2027  1.8118
 5627SOL    HW228341   4.087   2.193   4.426  0.2969  1.0414 -1.7194
 5628SOL     OW28342   4.594   3.030   5.399  0.1882  0.1865  0.2037
 5628SOL    HW128343   4.549   2.946   5.406 -1.2555  1.0458  1.3782
 5628SOL    HW228344   4.524   3.089   5.428  1.6784  1.7903  0.5661
 5629SOL     OW28345   2.150   3.956   6.037  0.6428  0.8648  0.2761
 5629SOL    HW128346   2.092   4.000   6.099  1.4578  0.0406  1.6400
 5629SOL    HW228347   2.093   3.891   5.996  1.2526  0.3677  0.2151
 5630SOL     OW28348   2.095   0.717   0.099 -0.3039 -0.3523  0.3095
 5630SOL    HW128349   2.001   0.730   0.115 -0.2718 -0.2256  0.3978
 5630SOL    HW228350   2.114   0.647   0.162  1.8356  0.0225  0.0689
 5631SOL     OW28351   3.861   2.917  15.656 -0.2989 -0.5321  0.3457
 5631SOL    HW128352   3.855   2.841  15.714  1.4116 -0.0911  1.0814
 5631SOL    HW228353   3.770   2.944  15.674  0.4916  1.0852  1.9214
 5632SOL     OW28354   3.743   3.141  13.839  0.0274  0.3375  0.1735
 5632SOL    HW128355   3.671   3.186  13.794 -0.4486  0.6380  1.2340
 5632SOL    HW228356   3.694   3.076  13.889 -0.8503  0.3755 -0.6459
 5633SOL     OW28357   0.970   4.564   8.824  0.3745 -0.0715  0.5734
 5633SOL    HW128358   1.019   4.549   8.904 -0.8694  0.2063  1.3851
 5633SOL    HW228359   1.009   4.647   8.796 -0.2604 -0.9668 -2.9344
 5634SOL     OW28360   3.935   1.270   5.509  0.2134  0.3068  0.7223
 5634SOL    HW128361   3.880   1.239   5.581 -0.6125 -0.6018 -0.2931
 5634SOL    HW228362   3.929   1.365   5.525  0.7864  0.3023  0.9528
 5635SOL     OW28363   0.676   2.821   6.282 -0.1011 -0.1224  0.4559
 5635SOL    HW128364   0.695   2.731   6.310  0.6875 -0.3067 -0.6641
 5635SOL    HW228365   0.595   2.845   6.327 -0.4750  0.8725 -0.7691
 5636SOL     OW28366   1.896   2.618  13.942  0.2776  0.1503 -0.1408
 5636SOL    HW128367   1.891   2.613  14.038 -2.0516  0.2794 -0.2527
 5636SOL    HW228368   1.801   2.608  13.935 -0.1754  3.6876  0.4300
 5637SOL     OW28369   3.020   3.224  16.508 -0.2420 -0.1391 -0.1031
 5637SOL    HW128370   3.036   3.132  16.484 -0.7939 -0.1820 -0.2891
 5637SOL    HW228371   2.962   3.256  16.440 -1.7471 -1.1929  0.6802
 5638SOL     OW28372   1.612   4.095  17.416 -0.0857 -0.3724 -0.9797
 5638SOL    HW128373   1.583   4.007  17.391  0.1592 -0.1775 -1.9777
 5638SOL    HW228374   1.641   4.136  17.334  1.7800 -0.0993 -0.1652
 5639SOL     OW28375   3.002   2.741   5.404  0.7243 -0.4471 -0.1566
 5639SOL    HW128376   2.955   2.823   5.422  1.5570 -0.4188  1.8763
 5639SOL    HW228377   3.022   2.757   5.312  0.6741  0.8477  0.0650
 5640SOL     OW28378   3.657   1.143   4.220 -0.7571  0.3628 -0.1455
 5640SOL    HW128379   3.562   1.144   4.232 -0.5826 -0.9614  1.3703
 5640SOL    HW228380   3.683   1.235   4.224  2.6783 -0.6396  1.1164
 5641SOL     OW28381   2.584   3.573   6.393  0.3489 -0.8740 -0.5106
 5641SOL    HW128382   2.592   3.645   6.331 -0.3343 -0.2117  0.1585
 5641SOL    HW228383   2.552   3.508   6.330  0.7477  0.0925 -1.6895
 5642SOL     OW28384   3.039   4.088   4.165  0.4896  0.2948  0.1093
 5642SOL    HW128385   3.010   4.075   4.255 -0.9759 -2.1498 -0.7481
 5642SOL    HW228386   3.067   4.180   4.162 -1.5993  0.8511 -1.8933
 5643SOL     OW28387   0.516   1.676  10.400 -0.5145 -0.3669  0.0619
 5643SOL    HW128388   0.534   1.635  10.315 -0.4522 -0.9217  0.3439
 5643SOL    HW228389   0.538   1.766  10.376  0.5255 -0.4294  0.8103
 5644SOL     OW28390   3.258   0.114   3.610 -0.0095  0.6454 -0.0069
 5644SOL    HW128391   3.327   0.048   3.603 -1.7114 -1.3224  1.7931
 5644SOL    HW228392   3.247   0.112   3.705 -0.1374  0.2241 -0.0295
 5645SOL     OW28393   4.427   0.259  15.312 -0.0911 -1.2395  0.3627
 5645SOL    HW128394   4.428   0.199  15.387 -2.5437  1.6421  2.6602
 5645SOL    HW228395   4.504   0.310  15.336 -0.2441 -0.8269 -0.0189
 5646SOL     OW28396   4.630   4.554   4.718 -0.3111 -0.1186 -0.4843
 5646SOL    HW128397   4.689   4.628   4.733  1.0937 -1.4817  0.6553
 5646SOL    HW228398   4.692   4.516   4.656  0.9723  1.4800 -0.1668
 5647SOL     OW28399   0.821   1.782   2.389 -0.2123  0.4331 -0.7282
 5647SOL    HW128400   0.825   1.686   2.388  0.1470  0.4644 -2.5148
 5647SOL    HW228401   0.811   1.801   2.482  0.1676 -0.0738 -0.5821
 5648SOL     OW28402   3.799   1.138   7.339 -0.2619  0.8274 -0.1611
 5648SOL    HW128403   3.884   1.166   7.305  0.9913 -0.3705  1.9899
 5648SOL    HW228404   3.833   1.097   7.418 -1.4171 -0.6421 -0.4186
 5649SOL     OW28405   0.849   2.279   3.344  0.3438  0.3491 -0.2584
 5649SOL    HW128406   0.926   2.336   3.342  0.6766 -0.1314 -1.3681
 5649SOL    HW228407   0.810   2.301   3.428 -1.6753 -2.3706 -0.4911
 5650SOL     OW28408   0.291   3.357   9.173 -0.1551 -0.4701 -0.2630
 5650SOL    HW128409   0.343   3.332   9.097 -1.1447  0.1160 -1.1283
 5650SOL    HW228410   0.240   3.429   9.137  2.0688  0.0401 -2.3650
 5651SOL     OW28411   1.327   3.497   9.156  0.6634 -0.6415  0.3403
 5651SOL    HW128412   1.288   3.411   9.138 -3.2410  0.6889  2.3878
 5651SOL    HW228413   1.386   3.499   9.081 -0.3242  0.5801 -0.4003
 5652SOL     OW28414   1.075   1.830  15.122 -0.0977 -0.0879 -0.0284
 5652SOL    HW128415   0.995   1.796  15.083  0.1507 -1.1628  0.3928
 5652SOL    HW228416   1.048   1.901  15.180  0.9466  1.7993 -1.8760
 5653SOL     OW28417   2.711   0.571  17.365  0.2931  0.1009  0.5719
 5653SOL    HW128418   2.764   0.532  17.434 -1.0989 -1.4091  0.7722
 5653SOL    HW228419   2.626   0.581  17.407  1.6406  0.2555  3.2201
 5654SOL     OW28420   1.061   2.467   4.239  0.3388 -0.1051  0.5197
 5654SOL    HW128421   1.084   2.394   4.298  1.1087 -0.0664  0.2641
 5654SOL    HW228422   0.966   2.468   4.251  0.2189 -0.3362 -0.4018
 5655SOL     OW28423   4.481   0.577   6.680  0.1708 -0.0762  0.2690
 5655SOL    HW128424   4.502   0.546   6.592 -0.7886 -0.0779  0.0405
 5655SOL    HW228425   4.564   0.614   6.710  0.3840 -0.8167  0.5928
 5656SOL     OW28426   0.441   2.483  12.940  0.1375 -0.3971 -0.3984
 5656SOL    HW128427   0.422   2.448  13.027 -1.8665  0.4307 -0.5209
 5656SOL    HW228428   0.524   2.523  12.967  0.3047 -1.2139  0.3174
 5657SOL     OW28429   1.647   2.643  12.675 -0.0237 -0.3074 -0.0578
 5657SOL    HW128430   1.650   2.671  12.766 -0.5658 -0.6367  0.0604
 5657SOL    HW228431   1.703   2.706  12.629  0.3794  0.0091  0.8734
 5658SOL     OW28432   3.294   3.993   8.059 -0.6143 -0.0823  1.0172
 5658SOL    HW128433   3.371   4.005   8.115 -0.5269  0.7722  0.7191
 5658SOL    HW228434   3.287   3.898   8.070  0.5938 -0.3887 -0.8840
 5659SOL     OW28435   3.904   3.581   7.817 -0.3019 -0.0991  0.3897
 5659SOL    HW128436   3.825   3.569   7.869  0.1672 -3.8117  0.2901
 5659SOL    HW228437   3.918   3.675   7.823  1.2114 -0.3131  0.1733
 5660SOL     OW28438   0.243   2.994   8.450  0.2149 -0.2093 -0.4688
 5660SOL    HW128439   0.188   3.072   8.462 -1.2523 -1.6652  2.2150
 5660SOL    HW228440   0.176   2.926   8.461 -1.5356  1.6850  0.6838
 5661SOL     OW28441   0.049   4.713  15.978  0.0571  0.1634 -0.3004
 5661SOL    HW128442   0.030   4.620  15.988 -0.5548  0.5039  1.7117
 5661SOL    HW228443   0.093   0.011  16.059 -0.0762  1.0399 -0.4654
 5662SOL     OW28444   2.595   1.491  14.413 -0.2077 -0.1187  0.3226
 5662SOL    HW128445   2.656   1.423  14.441  4.0125  2.7248 -1.8049
 5662SOL    HW228446   2.608   1.554  14.484  1.0034 -1.1000  0.9618
 5663SOL     OW28447   2.341   0.283   4.868 -0.1902  0.0949  0.2692
 5663SOL    HW128448   2.301   0.209   4.912 -1.5700  0.0491 -1.0829
 5663SOL    HW228449   2.342   0.255   4.776 -1.8668  1.4987 -0.1852
 5664SOL     OW28450   1.013   4.400   9.969  0.1998  0.4886 -0.4078
 5664SOL    HW128451   0.922   4.417   9.944 -0.2849  2.0685  2.4219
 5664SOL    HW228452   1.038   4.346   9.894  0.3959  1.4410 -1.0135
 5665SOL     OW28453   4.168   4.336   8.892 -0.6853  0.2942  0.1942
 5665SOL    HW128454   4.219   4.297   8.963  1.0097  0.4844 -0.9192
 5665SOL    HW228455   4.094   4.275   8.890 -0.9526  0.6813 -1.2879
 5666SOL     OW28456   1.566   0.358   2.898  0.4546 -0.8232 -0.4454
 5666SOL    HW128457   1.560   0.449   2.871  1.0706 -0.5319  0.4181
 5666SOL    HW228458   1.574   0.322   2.810 -0.1482 -1.7249 -0.1449
 5667SOL     OW28459   3.070   1.375   5.492 -0.3230  0.4482  0.4759
 5667SOL    HW128460   3.071   1.424   5.573 -1.0816  1.1277  0.0706
 5667SOL    HW228461   3.064   1.446   5.428  0.0626  2.0209  2.2115
 5668SOL     OW28462   0.980   3.722  14.936  0.3724  0.3215 -0.4013
 5668SOL    HW128463   0.980   3.656  15.005  1.5987 -1.1860 -1.8460
 5668SOL    HW228464   0.979   3.796  14.997 -0.6838  0.9388 -1.1766
 5669SOL     OW28465   3.097   3.391   8.764 -0.0119  0.1867  0.6360
 5669SOL    HW128466   3.100   3.449   8.688 -0.9677  0.5662  0.8922
 5669SOL    HW228467   3.021   3.345   8.729  0.1584 -0.7277  1.4597
 5670SOL     OW28468   1.138   3.312   9.070 -0.0753 -0.4422 -0.0252
 5670SOL    HW128469   1.131   3.331   8.976 -0.4626 -0.5487 -0.0183
 5670SOL    HW228470   1.061   3.352   9.111  0.4123  1.4296 -0.9381
 5671SOL     OW28471   0.591   2.821   1.369  0.2299 -0.0014  0.1381
 5671SOL    HW128472   0.608   2.727   1.378  1.2087  0.3426  1.9518
 5671SOL    HW228473   0.498   2.826   1.350  0.6742 -1.0071 -2.3006
 5672SOL     OW28474   2.505   0.626   4.929 -0.1178 -0.4819 -0.0378
 5672SOL    HW128475   2.505   0.557   4.994  1.6018 -0.5132 -0.0609
 5672SOL    HW228476   2.429   0.594   4.881  1.4168 -0.1688 -2.7412
 5673SOL     OW28477   1.153   0.261   8.052  0.6078 -0.2220 -0.1633
 5673SOL    HW128478   1.246   0.286   8.049 -0.0056  2.0348  0.2755
 5673SOL    HW228479   1.161   0.183   7.996 -1.4665  1.5994 -2.9748
 5674SOL     OW28480   3.359   3.602   3.110 -0.2185 -0.5892 -0.2498
 5674SOL    HW128481   3.452   3.585   3.098  0.0513  0.3145  0.5824
 5674SOL    HW228482   3.355   3.695   3.087  0.4683 -0.1019  1.6323
 5675SOL     OW28483   3.368   0.482   3.391  0.1652 -0.1260 -0.4865
 5675SOL    HW128484   3.334   0.429   3.318 -0.8213  0.0467 -0.1526
 5675SOL    HW228485   3.306   0.553   3.405  0.7752 -0.1157  2.0057
 5676SOL     OW28486   1.128   2.038  17.251  0.0098 -0.2908  0.1204
 5676SOL    HW128487   1.033   2.026  17.242 -0.2646  1.7005  0.3171
 5676SOL    HW228488   1.156   1.965  17.306 -0.9505 -0.3572  0.5368
 5677SOL     OW28489   4.413   2.959  14.228  0.4143 -0.1765 -0.1248
 5677SOL    HW128490   4.338   2.963  14.288  0.7027 -0.6858  0.2676
 5677SOL    HW228491   4.487   2.995  14.277  0.3061  0.0763 -0.1455
 5678SOL     OW28492   1.453   1.710   5.540 -0.0302 -0.0836  0.4250
 5678SOL    HW128493   1.539   1.720   5.498 -0.0140  0.0800  0.4981
 5678SOL    HW228494   1.399   1.654   5.484 -0.0946  0.6432 -0.2438
 5679SOL     OW28495   1.577   2.345  12.636  1.1431  0.9622  0.0556
 5679SOL    HW128496   1.632   2.367  12.711  1.6947  1.8028 -0.5891
 5679SOL    HW228497   1.634   2.306  12.570 -0.2906  0.1611 -0.7129
 5680SOL     OW28498   2.083   2.844   8.136  0.2874  0.2006 -0.3265
 5680SOL    HW128499   2.073   2.762   8.088 -1.4512  0.1419  0.1675
 5680SOL    HW228500   2.021   2.841   8.208 -0.6550  1.6659 -1.0647
 5681SOL     OW28501   0.162   4.412   2.640  0.1981 -0.2193  0.3449
 5681SOL    HW128502   0.237   4.363   2.606  0.1103  0.7649 -1.2777
 5681SOL    HW228503   0.086   4.355   2.625  0.7681 -1.0113  0.4307
 5682SOL     OW28504   3.160   3.715   6.674 -0.2738  0.5605 -0.0943
 5682SOL    HW128505   3.240   3.707   6.622 -0.8068 -0.2023 -0.7947
 5682SOL    HW228506   3.194   3.758   6.753  1.8449  2.1827 -1.8927
 5683SOL     OW28507   2.654   0.283   9.212 -0.0607  0.0893  0.9050
 5683SOL    HW128508   2.712   0.211   9.236  2.2802  1.4078 -0.7974
 5683SOL    HW228509   2.654   0.329   9.296 -0.5858 -0.2496  1.0901
 5684SOL     OW28510   3.696   1.347   5.050  0.4799 -0.1986 -0.1721
 5684SOL    HW128511   3.705   1.378   5.140  1.3603  1.0146 -0.6741
 5684SOL    HW228512   3.709   1.430   5.004  0.4296  0.6246  1.3176
 5685SOL     OW28513   0.406   1.754   5.298  0.4145 -0.2291 -0.0063
 5685SOL    HW128514   0.397   1.660   5.312  1.5085 -0.0688  1.7565
 5685SOL    HW228515   0.490   1.760   5.253  1.0475 -2.0388  0.9543
 5686SOL     OW28516   2.785   2.868   1.336 -0.1113 -0.5634  0.4782
 5686SOL    HW128517   2.790   2.790   1.282  2.8172 -0.1871  0.1894
 5686SOL    HW228518   2.805   2.826   1.420  1.4010  0.1637  0.4807
 5687SOL     OW28519   1.840   2.675   2.815  0.1320  0.0473 -0.6046
 5687SOL    HW128520   1.755   2.640   2.842 -0.1062  0.5907 -0.6366
 5687SOL    HW228521   1.817   2.713   2.730  1.0516 -0.7693 -1.2134
 5688SOL     OW28522   0.935   2.735  13.617 -0.0639 -0.3161  0.4711
 5688SOL    HW128523   0.857   2.768  13.661  1.3822  2.0479  1.2662
 5688SOL    HW228524   1.000   2.727  13.687  1.1246  0.2740 -0.5554
 5689SOL     OW28525   4.706   1.143   9.814  0.1631 -0.1644 -0.4222
 5689SOL    HW128526   0.018   1.092   9.887  0.8172 -0.7783 -1.1754
 5689SOL    HW228527   4.618   1.169   9.843  0.7339  0.1636  1.0128
 5690SOL     OW28528   0.107   1.570   8.985  0.2036 -0.4671 -0.7642
 5690SOL    HW128529   0.202   1.573   8.975  0.1733  0.0009 -0.9228
 5690SOL    HW228530   0.096   1.486   9.029 -1.7099  0.7982  1.1874
 5691SOL     OW28531   4.073   0.077   6.543  0.1009  0.2359  0.1403
 5691SOL    HW128532   4.093   0.160   6.501  0.1218  1.2297  2.1142
 5691SOL    HW228533   3.997   0.053   6.490 -0.6444 -0.9483  1.7456
 5692SOL     OW28534   3.288   2.958   0.788 -0.3403  0.5428  0.5725
 5692SOL    HW128535   3.355   2.943   0.854  0.7703  1.2594 -0.4163
 5692SOL    HW228536   3.311   2.917   0.704  0.3652  1.4092  0.3522
 5693SOL     OW28537   1.732   1.192   5.225  0.6500 -0.3100  0.3317
 5693SOL    HW128538   1.818   1.206   5.185  0.3296 -1.7980 -0.8703
 5693SOL    HW228539   1.695   1.124   5.169 -2.6401  0.2264  1.8285
 5694SOL     OW28540   0.021   2.650  10.116 -0.1471  0.1243  0.0029
 5694SOL    HW128541   0.038   2.611  10.202  2.3737  0.2608 -0.4410
 5694SOL    HW228542   0.083   2.722  10.109 -0.0935  0.1053  0.2755
 5695SOL     OW28543   1.961   2.111  10.775 -0.0538 -0.4274 -0.4544
 5695SOL    HW128544   1.894   2.094  10.841 -0.8309 -0.5651 -1.2627
 5695SOL    HW228545   1.953   2.036  10.715  3.4735 -0.9335 -0.2674
 5696SOL     OW28546   1.995   2.291   1.878 -0.5045  0.6752 -0.2559
 5696SOL    HW128547   1.938   2.232   1.828  1.6661 -1.3452 -0.3345
 5696SOL    HW228548   2.030   2.346   1.808  0.7741  0.9501  0.6071
 5697SOL     OW28549   2.854   1.118   7.468 -0.1793 -0.3998 -0.3321
 5697SOL    HW128550   2.812   1.085   7.547  1.6559 -0.5216  0.5869
 5697SOL    HW228551   2.887   1.039   7.425 -1.4218  0.1811 -2.3683
 5698SOL     OW28552   2.316   0.419   3.706  0.3111  0.1374  0.1919
 5698SOL    HW128553   2.381   0.373   3.651 -0.1007  0.3448 -0.4666
 5698SOL    HW228554   2.374   0.434   3.781 -0.6755 -1.0330  1.1818
 5699SOL     OW28555   3.799   2.567   4.832 -0.6306 -0.3708  0.8136
 5699SOL    HW128556   3.742   2.641   4.853  0.6871  0.7813  0.3682
 5699SOL    HW228557   3.752   2.490   4.864 -2.1167  0.3950  0.5105
 5700SOL     OW28558   3.528   1.176   8.435 -0.0740 -0.8413  0.5189
 5700SOL    HW128559   3.483   1.106   8.483 -1.8732 -0.9120 -1.2456
 5700SOL    HW228560   3.598   1.198   8.496 -0.2842 -0.4338  0.6171
 5701SOL     OW28561   1.158   1.215   8.427 -0.1098  0.0458 -1.1630
 5701SOL    HW128562   1.232   1.202   8.486  0.4060  1.4862 -1.4962
 5701SOL    HW228563   1.095   1.147   8.449  1.2851 -0.9483 -0.2011
 5702SOL     OW28564   4.504   0.176   8.470  0.2842  0.4008  0.0661
 5702SOL    HW128565   4.491   0.087   8.436  0.3824  0.1012  0.8091
 5702SOL    HW228566   4.544   0.161   8.556 -2.2034  1.0420  1.3540
 5703SOL     OW28567   1.756   4.527   7.807  0.2576  0.3756 -0.3387
 5703SOL    HW128568   1.773   4.620   7.817 -0.7244  0.5151  0.0636
 5703SOL    HW228569   1.749   4.529   7.711  0.8329 -3.0702 -0.4480
 5704SOL     OW28570   1.129   3.225   2.455 -0.3747 -0.2742  0.0379
 5704SOL    HW128571   1.128   3.148   2.512  1.2459  0.2750  0.7905
 5704SOL    HW228572   1.200   3.277   2.493  0.3303 -0.6737 -0.7540
 5705SOL     OW28573   0.292   2.306   8.934 -0.3986 -0.2307  0.4984
 5705SOL    HW128574   0.355   2.239   8.960 -0.4541 -0.4464  0.0814
 5705SOL    HW228575   0.289   2.291   8.839  1.8495  0.1113  0.3768
 5706SOL     OW28576   0.705   0.216  16.678 -0.9495 -0.3920 -0.1770
 5706SOL    HW128577   0.642   0.239  16.610 -1.4792 -1.4058 -0.0176
 5706SOL    HW228578   0.743   0.299  16.707 -0.7867 -0.2850 -0.6875
 5707SOL     OW28579   3.776   2.589   1.363  0.6772  0.0215 -0.2856
 5707SOL    HW128580   3.842   2.646   1.323  0.6683  0.4419  0.2959
 5707SOL    HW228581   3.772   2.523   1.295  0.5835  0.1822 -0.4352
 5708SOL     OW28582   4.486   3.994   9.161 -0.5266  0.0545  0.1203
 5708SOL    HW128583   4.567   4.046   9.163 -0.6361  0.2027  0.6506
 5708SOL    HW228584   4.505   3.912   9.115 -2.6882  0.3229 -1.1988
 5709SOL     OW28585   3.867   4.469   0.081 -0.1504 -0.0994 -0.5301
 5709SOL    HW128586   3.954   4.493   0.050 -0.0916  1.0229  0.5209
 5709SOL    HW228587   3.883   4.378   0.107 -1.5550 -1.2480 -3.7025
 5710SOL     OW28588   3.613   1.511  16.091  0.4172  0.0436  0.1206
 5710SOL    HW128589   3.524   1.537  16.066 -0.3306 -2.0216  0.6468
 5710SOL    HW228590   3.602   1.425  16.132 -4.6158  0.9658  0.7226
 5711SOL     OW28591   1.651   0.011   6.574 -0.3452  0.0991 -0.4069
 5711SOL    HW128592   1.642   4.700   6.485 -0.6599  0.1608 -0.4003
 5711SOL    HW228593   1.741   0.044   6.575 -0.1163 -0.4609 -1.7375
 5712SOL     OW28594   0.376   0.015  16.817  0.2914  0.4829 -0.0658
 5712SOL    HW128595   0.313   0.077  16.855 -0.1813 -0.1317  0.1518
 5712SOL    HW228596   0.451   0.034  16.872  1.2803 -0.5917 -1.0530
 5713SOL     OW28597   1.157   1.121   5.990  0.8832  0.3214 -0.2301
 5713SOL    HW128598   1.176   1.036   5.951 -0.5852  0.2528 -0.8082
 5713SOL    HW228599   1.199   1.174   5.922  0.7884 -1.7245 -1.8888
 5714SOL     OW28600   1.612   3.538  10.254 -0.4421 -0.6108  0.4079
 5714SOL    HW128601   1.625   3.560  10.346 -1.0178  0.3954  0.2492
 5714SOL    HW228602   1.612   3.626  10.216  2.4450  0.0899  2.0369
 5715SOL     OW28603   3.282   4.696   0.837 -0.4467 -0.0229  0.3307
 5715SOL    HW128604   3.272   4.639   0.913 -3.3625 -0.0119 -0.0444
 5715SOL    HW228605   3.196   0.013   0.829 -1.1232 -1.4220  0.4721
 5716SOL     OW28606   3.901   1.404  17.429  0.1724 -0.4602  0.4051
 5716SOL    HW128607   3.904   1.309  17.435  1.4837 -0.5189 -1.2962
 5716SOL    HW228608   3.822   1.415  17.377 -0.0190 -0.7497  0.6360
 5717SOL     OW28609   2.873   2.527   8.052  0.3802  0.0242 -0.0790
 5717SOL    HW128610   2.869   2.568   8.138  0.4353 -0.7507  0.2964
 5717SOL    HW228611   2.916   2.447   8.081 -0.6982 -0.7624 -0.6624
 5718SOL     OW28612   4.474   0.763   7.556  0.8070  0.1391  0.2679
 5718SOL    HW128613   4.441   0.789   7.642 -0.1418 -0.6769  0.1421
 5718SOL    HW228614   4.550   0.706   7.572  1.2523  0.8149  0.5689
 5719SOL     OW28615   4.712   2.441   3.952  0.3456  0.5932 -0.2820
 5719SOL    HW128616   0.060   2.496   3.985  1.0388 -0.4007 -0.1354
 5719SOL    HW228617   0.020   2.358   3.986  0.3069 -0.1085 -1.9754
 5720SOL     OW28618   4.528   2.189   4.140 -0.0857  0.2573  0.1618
 5720SOL    HW128619   4.441   2.161   4.168 -1.1518  2.6571 -0.7459
 5720SOL    HW228620   4.575   2.109   4.163  1.3847  1.5985  1.8021
 5721SOL     OW28621   2.982   0.573   6.836  0.2207  0.4593 -0.0652
 5721SOL    HW128622   3.021   0.537   6.916  0.5470  0.1919 -0.3501
 5721SOL    HW228623   3.059   0.577   6.779  0.5260  1.0717  0.3826
 5722SOL     OW28624   3.506   1.621  12.312  0.3314  0.0696 -0.1941
 5722SOL    HW128625   3.413   1.622  12.289  0.4899  1.9313 -0.7069
 5722SOL    HW228626   3.549   1.636  12.228 -0.8308  0.2574 -0.7638
 5723SOL     OW28627   0.430   2.723   1.859 -0.4585  0.8098 -0.4262
 5723SOL    HW128628   0.375   2.797   1.884 -0.0303  0.4439  1.6464
 5723SOL    HW228629   0.390   2.687   1.780 -0.0309 -0.8290  0.0933
 5724SOL     OW28630   2.318   3.759   4.012 -0.1262  0.1436  0.1622
 5724SOL    HW128631   2.248   3.693   4.016 -0.2579  0.2606 -0.1924
 5724SOL    HW228632   2.311   3.807   4.094  1.0706  1.2116 -0.3624
 5725SOL     OW28633   1.350   4.478   0.077 -0.1405 -0.0810  0.3749
 5725SOL    HW128634   1.276   4.501   0.021 -0.1050 -0.9551 -0.0452
 5725SOL    HW228635   1.309   4.455   0.161 -0.8236 -0.0577  0.0488
 5726SOL     OW28636   2.428   1.332   1.529  0.4163  0.8027 -0.1104
 5726SOL    HW128637   2.448   1.251   1.577 -1.4420  0.3729 -0.0636
 5726SOL    HW228638   2.455   1.399   1.592 -0.8280 -0.6258  1.9727
 5727SOL     OW28639   0.854   4.142   4.197 -0.1755  0.7861  0.0468
 5727SOL    HW128640   0.910   4.208   4.157 -1.2729  0.2476 -2.4166
 5727SOL    HW228641   0.848   4.077   4.127 -1.1784  2.2801 -1.2753
 5728SOL     OW28642   2.205   2.104   7.575  0.2594  0.1266 -0.0488
 5728SOL    HW128643   2.187   2.041   7.645 -1.5834 -0.1142 -0.7253
 5728SOL    HW228644   2.137   2.072   7.516  0.0939 -1.4582  0.9944
 5729SOL     OW28645   1.109   1.145   7.831 -0.0431  0.3081 -0.6095
 5729SOL    HW128646   1.165   1.223   7.829  1.1390 -0.5295 -0.3814
 5729SOL    HW228647   1.168   1.077   7.865 -3.2591 -1.8640  0.5659
 5730SOL     OW28648   3.290   2.400   6.715 -0.3420  0.3144 -0.1998
 5730SOL    HW128649   3.362   2.376   6.773 -0.6273  0.5589  0.2525
 5730SOL    HW228650   3.247   2.463   6.773  0.6774  0.0877  0.8082
 5731SOL     OW28651   1.024   1.087  17.350 -0.3100 -0.0602  0.4165
 5731SOL    HW128652   1.095   1.150  17.364 -0.3198  0.0520 -0.0322
 5731SOL    HW228653   1.068   1.010  17.314 -1.3422  0.6813 -2.4634
 5732SOL     OW28654   3.941   0.745  14.045  0.1329 -0.0945  0.6509
 5732SOL    HW128655   3.955   0.657  14.008  1.1235  0.2948  0.0821
 5732SOL    HW228656   4.013   0.752  14.108  0.1712 -0.0764  0.6053
 5733SOL     OW28657   2.079   3.786   2.545  0.6435 -0.0101 -0.6443
 5733SOL    HW128658   2.162   3.738   2.537  1.5448  0.7956  3.9437
 5733SOL    HW228659   2.095   3.870   2.501  1.2868 -1.1037 -2.5095
 5734SOL     OW28660   3.296   3.306   8.947 -0.4020  0.4399 -0.4542
 5734SOL    HW128661   3.227   3.329   8.885  0.7232 -0.8966 -2.2397
 5734SOL    HW228662   3.303   3.386   8.998 -2.0349  0.3495 -0.0900
 5735SOL     OW28663   3.408   0.128  14.382  0.1667 -0.0072  0.4035
 5735SOL    HW128664   3.468   0.053  14.379 -0.6291 -0.6201 -0.3350
 5735SOL    HW228665   3.418   0.142  14.477 -0.2138  3.0883 -0.0138
 5736SOL     OW28666   2.724   0.260   7.297 -0.1204  0.5277  0.3442
 5736SOL    HW128667   2.795   0.318   7.269  0.4010  1.6520  4.0234
 5736SOL    HW228668   2.748   0.182   7.246 -2.3036 -0.1999  0.4637
 5737SOL     OW28669   2.073   1.191   4.010 -0.5381  0.7111 -0.3182
 5737SOL    HW128670   2.132   1.187   4.086  1.4823 -0.8574 -1.9992
 5737SOL    HW228671   2.037   1.279   4.016  1.9881  1.7071  0.3583
 5738SOL     OW28672   2.592   2.768   3.928 -0.0459 -0.8062 -0.0487
 5738SOL    HW128673   2.569   2.676   3.941 -1.3156 -0.6439 -1.1632
 5738SOL    HW228674   2.649   2.791   4.001 -0.1306  0.4898 -0.3839
 5739SOL     OW28675   2.350   2.636   8.600 -0.3037 -0.5789 -0.3613
 5739SOL    HW128676   2.404   2.715   8.607 -0.1860 -0.6962  0.0948
 5739SOL    HW228677   2.406   2.579   8.652  0.6382  0.1459 -0.5907
 5740SOL     OW28678   3.650   1.941   4.225 -0.0854  0.4009 -0.1967
 5740SOL    HW128679   3.591   1.902   4.161 -1.0639  0.5635  0.6037
 5740SOL    HW228680   3.629   2.032   4.204 -2.1460  0.1478  0.7386
 5741SOL     OW28681   4.191   1.268  14.654 -0.0346 -0.3521 -0.0927
 5741SOL    HW128682   4.121   1.316  14.698  0.3612  1.7368 -1.7894
 5741SOL    HW228683   4.259   1.259  14.720  2.6726  1.5770 -2.6168
 5742SOL     OW28684   4.044   0.945   4.961 -0.1911 -0.2009 -0.4933
 5742SOL    HW128685   4.110   0.970   5.026 -1.5795 -0.3920  0.9849
 5742SOL    HW228686   4.063   1.013   4.896  3.4174 -0.6013  0.1861
 5743SOL     OW28687   1.944   4.300   4.323 -0.0368 -0.7624 -0.2265
 5743SOL    HW128688   2.009   4.236   4.293 -0.1810 -1.0076 -0.0205
 5743SOL    HW228689   1.880   4.306   4.251  0.7170  3.9403 -0.4904
 5744SOL     OW28690   1.653   2.461   0.458  0.1957 -0.0537  0.5520
 5744SOL    HW128691   1.674   2.449   0.365 -3.5275 -0.7299 -0.1997
 5744SOL    HW228692   1.739   2.441   0.495 -0.1417 -1.4688  0.5639
 5745SOL     OW28693   0.087   2.840   4.151 -0.3212  0.5239 -0.5305
 5745SOL    HW128694   0.020   2.903   4.179 -1.0030 -0.8662  0.9111
 5745SOL    HW228695   0.167   2.874   4.191 -1.3720 -2.0755  3.7555
 5746SOL     OW28696   0.916   0.830   8.620  0.1387  0.3301  0.0432
 5746SOL    HW128697   0.944   0.759   8.562 -0.6377  1.0701 -1.2201
 5746SOL    HW228698   0.933   0.801   8.710 -0.4166  0.9471  0.3504
 5747SOL     OW28699   0.387   2.687  17.126 -1.0875 -0.4079  0.2343
 5747SOL    HW128700   0.315   2.749  17.113 -1.2988 -0.7628 -0.2628
 5747SOL    HW228701   0.448   2.738  17.179 -0.3014  0.3381 -1.3824
 5748SOL     OW28702   0.931   1.483   6.692  0.0043  0.3911  0.4626
 5748SOL    HW128703   0.986   1.480   6.613  0.9401  1.2796  1.0739
 5748SOL    HW228704   0.933   1.575   6.717 -0.5302  0.4022  0.4648
 5749SOL     OW28705   1.200   4.485   8.983  0.0459 -0.2258  0.6677
 5749SOL    HW128706   1.183   4.552   9.050  1.6258 -0.2187  1.0583
 5749SOL    HW228707   1.278   4.516   8.938 -0.0359 -1.2461 -0.1529
 5750SOL     OW28708   3.434   4.262   3.544  0.2198  0.4749 -0.1425
 5750SOL    HW128709   3.377   4.229   3.613  1.6425 -1.4873  0.1053
 5750SOL    HW228710   3.476   4.329   3.597  0.2262 -0.0014  0.4557
 5751SOL     OW28711   0.850   3.140   0.396 -0.1725 -0.0565  0.3332
 5751SOL    HW128712   0.875   3.075   0.461 -1.3339 -0.6155  0.2071
 5751SOL    HW228713   0.885   3.215   0.445  0.2378 -1.0162  1.5043
 5752SOL     OW28714   3.321   4.684   4.153  0.1762 -0.4937 -0.4202
 5752SOL    HW128715   3.387   0.022   4.186  1.8574 -3.3227  1.5674
 5752SOL    HW228716   3.259   0.017   4.109  1.0796  0.6873 -0.1772
 5753SOL     OW28717   4.156   4.423   5.417 -1.3001 -0.2370 -0.1907
 5753SOL    HW128718   4.125   4.443   5.505 -0.8113  0.3135 -0.1477
 5753SOL    HW228719   4.078   4.377   5.385  0.1992 -2.7432 -0.2586
 5754SOL     OW28720   4.449   3.244  16.989 -0.1486  0.2344 -0.0116
 5754SOL    HW128721   4.387   3.304  17.029  3.4616  2.0981  2.7073
 5754SOL    HW228722   4.520   3.239  17.053 -1.4622  0.4208  1.4343
 5755SOL     OW28723   2.277   2.062  13.427 -0.0663  0.4145 -0.1824
 5755SOL    HW128724   2.282   1.997  13.496 -1.0034  1.0300  0.4633
 5755SOL    HW228725   2.344   2.035  13.364 -1.4031 -0.8841 -1.0329
 5756SOL     OW28726   3.618   1.009  13.026  0.1362 -0.1151  0.1633
 5756SOL    HW128727   3.658   1.089  13.059 -1.4302  1.2488 -1.1906
 5756SOL    HW228728   3.676   0.952  13.076  2.1826  1.7800 -0.0717
 5757SOL     OW28729   2.737   3.583   5.538  0.1020  0.0619  0.1714
 5757SOL    HW128730   2.813   3.610   5.589  1.5948  0.7642 -2.4020
 5757SOL    HW228731   2.700   3.668   5.514 -0.0369 -0.3854 -1.1913
 5758SOL     OW28732   2.747   3.271   5.180  0.3382  0.1953 -0.4360
 5758SOL    HW128733   2.696   3.316   5.114  0.0797 -1.2418 -1.2184
 5758SOL    HW228734   2.710   3.299   5.264  0.4432 -0.9956  0.0174
 5759SOL     OW28735   3.420   2.621   6.212  0.1192 -0.2379  0.4429
 5759SOL    HW128736   3.418   2.555   6.281  0.1240 -2.1144 -1.3366
 5759SOL    HW228737   3.334   2.662   6.223 -0.4199 -1.9353  2.6479
 5760SOL     OW28738   4.343   2.264   5.518 -0.0676 -0.3680 -0.3319
 5760SOL    HW128739   4.314   2.252   5.608  0.3128 -0.2833 -0.1964
 5760SOL    HW228740   4.339   2.360   5.510 -0.1584 -0.3625 -0.2198
 5761SOL     OW28741   4.098   4.599   0.956  0.4136 -0.0103  0.1290
 5761SOL    HW128742   4.068   4.514   0.925 -0.1509  1.4337 -3.2409
 5761SOL    HW228743   4.115   4.647   0.875 -0.8470  0.1059 -0.0808
 5762SOL     OW28744   1.133   4.023   2.977 -0.1404  0.1524  0.3039
 5762SOL    HW128745   1.182   4.022   2.895  0.0170  1.1271  0.3782
 5762SOL    HW228746   1.146   4.115   3.000  0.6257  0.4163 -1.1966
 5763SOL     OW28747   4.316   4.130   3.284 -0.2045 -0.1398 -0.0148
 5763SOL    HW128748   4.272   4.186   3.348  1.7868  0.1113  1.1206
 5763SOL    HW228749   4.277   4.170   3.206  0.1151 -2.1520 -1.1962
 5764SOL     OW28750   1.052   3.701   7.689 -0.2573  0.0916 -0.4675
 5764SOL    HW128751   1.004   3.673   7.767  2.0608 -0.7997  0.6397
 5764SOL    HW228752   1.134   3.726   7.731 -2.4065  2.5097  2.3254
 5765SOL     OW28753   1.062   2.844   9.192  0.1594  0.1376 -0.1317
 5765SOL    HW128754   1.114   2.764   9.187 -1.2090 -0.7594 -0.0405
 5765SOL    HW228755   0.996   2.810   9.133 -0.5516  1.4662 -0.1212
 5766SOL     OW28756   3.506   4.443   7.491 -0.2374 -0.2442 -0.1580
 5766SOL    HW128757   3.436   4.492   7.449  0.8993  0.1019 -1.6297
 5766SOL    HW228758   3.507   4.483   7.578  1.7095 -1.1355  0.2258
 5767SOL     OW28759   0.022   2.706   7.538 -0.2553 -0.2764 -0.2870
 5767SOL    HW128760   4.653   2.719   7.517 -0.6720  1.0890  2.4127
 5767SOL    HW228761   0.017   2.688   7.632  0.8491 -1.4540 -0.4628
 5768SOL     OW28762   4.108   1.134   3.991  0.0292 -0.3942 -0.6067
 5768SOL    HW128763   4.129   1.042   4.004 -0.2288 -0.6582 -2.1004
 5768SOL    HW228764   4.043   1.140   4.062 -1.0729  2.6111 -1.8771
 5769SOL     OW28765   4.352   0.958   2.907  0.2596  0.0906  0.5996
 5769SOL    HW128766   4.424   1.021   2.899 -0.8252  1.6154  2.8929
 5769SOL    HW228767   4.297   0.975   2.831  1.9724  1.0263 -0.4465
 5770SOL     OW28768   2.608   3.915   2.015  0.5936 -0.1361  0.0656
 5770SOL    HW128769   2.668   3.904   1.941 -1.3940 -0.0358 -1.5504
 5770SOL    HW228770   2.631   3.850   2.082  2.0549 -1.7194 -1.9681
 5771SOL     OW28771   0.912   1.241   1.938 -0.0794  0.4091 -1.2418
 5771SOL    HW128772   0.954   1.165   1.898 -1.5861 -0.6458 -0.8549
 5771SOL    HW228773   0.873   1.285   1.862  1.0685 -0.4725 -2.3354
 5772SOL     OW28774   2.835   0.843   4.894  0.2825 -0.3909 -0.5057
 5772SOL    HW128775   2.830   0.764   4.948  1.9758 -1.8525 -2.4636
 5772SOL    HW228776   2.765   0.899   4.928  1.9996  2.3044 -1.4245
 5773SOL     OW28777   3.888   2.581   3.020 -0.0305 -0.7549 -0.2909
 5773SOL    HW128778   3.962   2.583   3.080 -0.6212 -3.4462  0.5536
 5773SOL    HW228779   3.816   2.582   3.083  0.1155  1.4658 -0.1585
 5774SOL     OW28780   4.381   3.661   2.614 -0.1172 -0.5292  0.6294
 5774SOL    HW128781   4.286   3.668   2.612  0.2377  3.8904 -0.1542
 5774SOL    HW228782   4.409   3.569   2.611 -1.5420 -0.9067 -0.7922
 5775SOL     OW28783   1.576   2.802  15.816  0.4678 -0.1031 -0.0388
 5775SOL    HW128784   1.511   2.740  15.783  0.0395  0.3929 -0.1305
 5775SOL    HW228785   1.623   2.747  15.879  2.5025  0.6895 -0.8819
 5776SOL     OW28786   1.270   4.284  15.124  0.1708 -0.6543  0.2653
 5776SOL    HW128787   1.308   4.240  15.200  0.5346 -0.1794  0.3582
 5776SOL    HW228788   1.321   4.363  15.104 -2.3203  0.3042 -2.3330
 5777SOL     OW28789   1.278   1.019  14.101  1.1495 -0.8863  0.5704
 5777SOL    HW128790   1.184   1.000  14.093  0.7932  1.6757 -1.3752
 5777SOL    HW228791   1.307   0.960  14.171 -1.1585 -2.5995  0.0866
 5778SOL     OW28792   0.775   3.162   2.300 -0.4254 -0.1232  0.4436
 5778SOL    HW128793   0.826   3.081   2.308  0.2924  0.4576  1.7427
 5778SOL    HW228794   0.766   3.179   2.207 -1.6741  1.9093  0.9364
 5779SOL     OW28795   3.645   1.299   5.496 -0.0103 -0.0115  0.1367
 5779SOL    HW128796   3.632   1.208   5.469  0.4119 -0.1500  0.4101
 5779SOL    HW228797   3.686   1.276   5.579  1.3742  0.0544 -0.5268
 5780SOL     OW28798   0.407   2.685   8.023 -0.1546 -0.0556  0.6519
 5780SOL    HW128799   0.379   2.720   8.108 -0.0727  0.0965  0.6176
 5780SOL    HW228800   0.344   2.616   8.004  1.0897 -0.4769 -1.8676
 5781SOL     OW28801   2.636   3.923   8.724 -0.6900  0.3429 -0.0836
 5781SOL    HW128802   2.690   3.986   8.771  0.8509  1.2568 -3.0358
 5781SOL    HW228803   2.606   3.974   8.649 -0.2183  3.3518  1.7729
 5782SOL     OW28804   0.210   0.874   0.978  0.1878 -0.1039  0.5761
 5782SOL    HW128805   0.251   0.834   0.902 -0.8382  0.3671 -0.2227
 5782SOL    HW228806   0.283   0.868   1.040  0.7356 -5.0396 -0.5989
 5783SOL     OW28807   2.766   2.761   4.143 -0.3568 -0.5426  0.3938
 5783SOL    HW128808   2.771   2.773   4.238 -2.5277 -0.5850  0.5162
 5783SOL    HW228809   2.823   2.688   4.121  0.2358  0.2923 -0.8345
 5784SOL     OW28810   2.251   3.197   2.197 -0.4798 -0.3374 -0.6042
 5784SOL    HW128811   2.165   3.196   2.155 -0.8911 -1.7482  0.2588
 5784SOL    HW228812   2.237   3.261   2.266 -2.4746 -1.9519  0.4841
 5785SOL     OW28813   2.624   3.771   4.627 -0.1045  0.6628  0.2859
 5785SOL    HW128814   2.716   3.777   4.654 -0.4594  1.8689  1.2212
 5785SOL    HW228815   2.606   3.679   4.647  2.4218 -0.1353 -1.0184
 5786SOL     OW28816   2.856   4.490   1.068  0.0195  0.1976 -0.2338
 5786SOL    HW128817   2.769   4.508   1.034  0.5131  1.7670 -0.6237
 5786SOL    HW228818   2.875   4.403   1.032  0.8707  0.5737 -0.6720
 5787SOL     OW28819   4.157   0.679   4.917  0.3874 -0.2329 -0.6938
 5787SOL    HW128820   4.231   0.740   4.919  0.6498 -0.5997  0.5694
 5787SOL    HW228821   4.088   0.734   4.881  1.6946  1.4073 -0.7257
 5788SOL     OW28822   1.435   4.594   5.333  0.5920  0.4772  0.6119
 5788SOL    HW128823   1.511   4.561   5.381 -1.4815 -1.0264  2.8249
 5788SOL    HW228824   1.363   4.570   5.391  0.0636 -1.2662 -0.7763
 5789SOL     OW28825   1.124   4.547   6.406 -0.1991 -0.3649  0.0412
 5789SOL    HW128826   1.051   4.489   6.428  0.4124 -0.9182  0.6022
 5789SOL    HW228827   1.096   4.629   6.446  0.8228  0.1486 -0.2751
 5790SOL     OW28828   0.348   1.385   8.146 -0.3015 -0.0872  0.1888
 5790SOL    HW128829   0.391   1.421   8.068  1.3750 -0.1394  1.0714
 5790SOL    HW228830   0.295   1.459   8.177 -0.2945 -0.9524  2.2424
 5791SOL     OW28831   4.324   0.399   9.253  0.0879  0.0096 -0.0622
 5791SOL    HW128832   4.399   0.358   9.296  0.7737  2.7058  1.3101
 5791SOL    HW228833   4.349   0.406   9.161 -0.9964 -0.6045 -0.4140
 5792SOL     OW28834   4.068   0.903   1.538  0.0497 -0.6872 -0.0359
 5792SOL    HW128835   4.108   0.882   1.623  1.7083  2.6444 -0.0094
 5792SOL    HW228836   4.058   0.814   1.503 -0.4483  1.5912 -5.6752
 5793SOL     OW28837   1.507   1.706   4.694  0.3316  0.3068 -0.2228
 5793SOL    HW128838   1.525   1.752   4.776  0.3443  1.8220 -1.0790
 5793SOL    HW228839   1.562   1.627   4.698  0.6498  0.5062 -0.6814
 5794SOL     OW28840   4.548   0.482  11.581 -0.3824  0.1842  0.1942
 5794SOL    HW128841   4.554   0.387  11.592  0.6688  0.2789  0.3852
 5794SOL    HW228842   4.586   0.490  11.494 -0.8156  1.3432  0.1132
 5795SOL     OW28843   2.149   3.838   1.340 -0.0823  0.3696  0.5167
 5795SOL    HW128844   2.145   3.814   1.247 -0.7204 -0.2864  0.7134
 5795SOL    HW228845   2.232   3.797   1.364 -0.3564 -1.2876 -1.4006
 5796SOL     OW28846   1.964   2.205   4.209  0.4184 -0.6386  0.6372
 5796SOL    HW128847   1.960   2.115   4.176 -0.9109 -0.9553  1.6773
 5796SOL    HW228848   2.051   2.239   4.187 -0.3031  1.2030  0.6026
 5797SOL     OW28849   3.506   4.072   2.842 -0.8984  0.0102 -0.0984
 5797SOL    HW128850   3.570   4.128   2.887 -0.0800 -0.5253 -0.6195
 5797SOL    HW228851   3.536   4.055   2.753  0.2271 -1.2867  0.5353
 5798SOL     OW28852   1.208   2.339   6.722  0.5448  0.0867 -0.0307
 5798SOL    HW128853   1.256   2.400   6.665  0.2845 -0.8110 -1.2258
 5798SOL    HW228854   1.212   2.259   6.669  0.8020 -1.7232  2.7582
 5799SOL     OW28855   2.501   0.639  15.696  0.3220 -0.8687  0.7740
 5799SOL    HW128856   2.590   0.658  15.669  0.3556 -0.4025  1.2009
 5799SOL    HW228857   2.465   0.629  15.608  1.2092 -2.1412  0.5731
 5800SOL     OW28858   0.833   0.886   5.030  0.3649  0.1796  0.0361
 5800SOL    HW128859   0.834   0.979   5.006 -0.9659 -0.0882 -1.0779
 5800SOL    HW228860   0.775   0.885   5.106  1.5698  1.6173  0.9709
 5801SOL     OW28861   0.333   4.564   6.730 -0.0921  0.2876 -0.0978
 5801SOL    HW128862   0.351   4.583   6.822 -0.3284 -1.5390  0.3231
 5801SOL    HW228863   0.254   4.511   6.739  1.3064 -1.5433  1.4162
 5802SOL     OW28864   0.050   3.047  14.683  1.0778  0.1272  0.0367
 5802SOL    HW128865   0.118   3.047  14.750  0.8443 -0.5716  0.2782
 5802SOL    HW228866   0.100   3.064  14.603 -0.6416  1.7203 -0.6828
 5803SOL     OW28867   1.095   0.511   5.001  0.3298 -0.1459  0.3824
 5803SOL    HW128868   1.008   0.510   5.041  0.0751 -1.2828 -0.2085
 5803SOL    HW228869   1.143   0.432   5.026 -2.6801 -1.8157  0.8999
 5804SOL     OW28870   0.080   1.546   2.286  0.0191  0.2456 -0.3414
 5804SOL    HW128871   0.157   1.572   2.235  1.4303 -0.1250  1.5879
 5804SOL    HW228872   0.007   1.577   2.232 -1.1010 -2.4779 -0.4254
 5805SOL     OW28873   4.494   2.850   3.463  0.4466  0.1561 -0.1179
 5805SOL    HW128874   4.528   2.830   3.376  0.4573  1.4004 -0.4019
 5805SOL    HW228875   4.476   2.763   3.499  1.7171 -0.0587  0.0129
 5806SOL     OW28876   2.800   2.718   4.410 -1.3782  0.4043  0.2442
 5806SOL    HW128877   2.776   2.627   4.388 -1.4163  0.8907 -1.7064
 5806SOL    HW228878   2.752   2.743   4.489 -1.5148 -1.0073  0.6233
 5807SOL     OW28879   2.116   1.896   2.209  0.5418 -0.5352 -0.4131
 5807SOL    HW128880   2.039   1.953   2.199  0.6730 -0.6229 -2.0431
 5807SOL    HW228881   2.120   1.880   2.303  1.2591 -1.0712 -0.5426
 5808SOL     OW28882   3.880   1.778  10.412 -0.3914  0.3160 -0.3107
 5808SOL    HW128883   3.801   1.783  10.357 -0.5654  1.5104  0.0583
 5808SOL    HW228884   3.867   1.685  10.428 -3.5098  0.1716 -3.4000
 5809SOL     OW28885   4.250   2.208   0.169 -0.2932  0.2504  0.1396
 5809SOL    HW128886   4.194   2.166   0.103 -0.3966  0.2294  0.2407
 5809SOL    HW228887   4.183   2.203   0.237 -1.3503  1.6192 -0.7880
 5810SOL     OW28888   3.511   1.117   7.340 -0.0309 -0.1952  0.0387
 5810SOL    HW128889   3.483   1.176   7.410 -0.1165 -1.4948  1.0988
 5810SOL    HW228890   3.605   1.134   7.339  0.2326 -1.6190  0.0385
 5811SOL     OW28891   4.299   4.525   3.945  0.0318 -0.4342 -0.6014
 5811SOL    HW128892   4.391   4.502   3.954  0.1698  0.3710  0.0216
 5811SOL    HW228893   4.296   4.601   3.888  1.1545  1.5985  2.0855
 5812SOL     OW28894   2.129   0.177   5.860 -0.8401 -0.2018  0.0650
 5812SOL    HW128895   2.134   0.130   5.777 -1.1407  1.9720 -1.2003
 5812SOL    HW228896   2.067   0.249   5.849  1.5128  1.6434 -1.2528
 5813SOL     OW28897   1.908   1.107   7.816 -0.5658  0.0296  0.0193
 5813SOL    HW128898   1.875   1.144   7.898  3.2226  0.0992  1.5172
 5813SOL    HW228899   1.987   1.156   7.796 -1.7029  1.7286 -0.2762
 5814SOL     OW28900   0.283   0.733   5.589  0.2731 -0.3883  0.4785
 5814SOL    HW128901   0.378   0.742   5.576  0.1990  1.4893  1.2393
 5814SOL    HW228902   0.252   0.823   5.603 -0.4292 -0.2902 -1.7519
 5815SOL     OW28903   2.751   3.431   5.870  0.3999 -0.3421 -0.6475
 5815SOL    HW128904   2.785   3.481   5.944 -2.4257  0.9973 -0.2598
 5815SOL    HW228905   2.822   3.369   5.852 -0.2569 -1.4989  0.7943
 5816SOL     OW28906   4.499   3.034   1.248  0.2240  0.0233 -0.3477
 5816SOL    HW128907   4.466   2.990   1.170  0.0732 -0.3157 -0.0928
 5816SOL    HW228908   4.502   2.964   1.312 -0.3726  1.0232  0.7866
 5817SOL     OW28909   4.676   3.986   9.895  0.4384  0.6986  0.3038
 5817SOL    HW128910   4.598   3.962   9.945  0.9798  1.4811  1.5368
 5817SOL    HW228911   4.653   4.076   9.875 -1.7756  0.1294  0.2509
 5818SOL     OW28912   1.726   1.506   6.467  0.7560 -0.0674 -0.9914
 5818SOL    HW128913   1.806   1.456   6.483  0.7914  0.5910  0.8788
 5818SOL    HW228914   1.739   1.589   6.513 -0.3828  0.0548 -0.8931
 5819SOL     OW28915   2.004   2.573   6.743  0.3759  0.5880 -0.3304
 5819SOL    HW128916   1.998   2.668   6.731  0.4393  0.2086 -3.3712
 5819SOL    HW228917   2.028   2.562   6.834  0.5575 -2.9177 -0.7871
 5820SOL     OW28918   2.664   4.297   6.528  0.1759  0.2707  0.0735
 5820SOL    HW128919   2.659   4.384   6.489  1.3874 -0.4948 -1.7518
 5820SOL    HW228920   2.741   4.299   6.585  0.7156 -0.1074 -0.6497
 5821SOL     OW28921   2.419   1.971  10.561  0.1446 -0.3013  0.0846
 5821SOL    HW128922   2.424   2.061  10.531  1.6158 -0.2536  0.4769
 5821SOL    HW228923   2.354   1.972  10.631  0.2470  1.7605  0.1273
 5822SOL     OW28924   4.337   0.905   6.466 -0.4229 -0.4352  0.2859
 5822SOL    HW128925   4.333   0.896   6.561 -0.8214 -1.1710  0.2006
 5822SOL    HW228926   4.276   0.842   6.429 -0.1577  0.2619 -1.3228
 5823SOL     OW28927   3.977   1.313   1.848 -0.0986 -0.2257  1.0163
 5823SOL    HW128928   4.028   1.260   1.787  0.0688  2.7709 -1.4303
 5823SOL    HW228929   4.030   1.391   1.862 -3.8949  2.8696 -2.0284
 5824SOL     OW28930   1.996   3.385   2.041 -0.0797 -0.0874 -0.6234
 5824SOL    HW128931   1.905   3.358   2.055 -0.7470  1.8662 -1.1154
 5824SOL    HW228932   1.991   3.478   2.066 -0.3339 -0.4224  0.5715
 5825SOL     OW28933   4.404   2.224   2.770  0.1749  0.0718  0.0839
 5825SOL    HW128934   4.415   2.143   2.721 -0.2094  1.2537 -1.9709
 5825SOL    HW228935   4.429   2.283   2.698  2.9904 -1.5919 -0.3158
 5826SOL     OW28936   1.641   2.374   7.972 -0.2397 -0.2879  0.1108
 5826SOL    HW128937   1.675   2.403   8.057  2.1009  0.6366 -1.1382
 5826SOL    HW228938   1.585   2.448   7.952 -0.6110 -0.7395 -0.5256
 5827SOL     OW28939   4.643   1.489  10.436  0.1551  0.6258  0.2982
 5827SOL    HW128940   4.597   1.525  10.361  0.2831  2.2871  1.0288
 5827SOL    HW228941   4.569   1.443  10.476  0.2692  2.3196  2.4620
 5828SOL     OW28942   4.299   3.974   3.938  0.2784  0.1872 -0.6096
 5828SOL    HW128943   4.306   4.061   3.899 -1.2860  0.6420  0.1183
 5828SOL    HW228944   4.364   3.974   4.008 -3.1382 -0.9463  2.5848
 5829SOL     OW28945   1.994   2.130   7.079  0.1553  0.3799  0.0061
 5829SOL    HW128946   1.979   2.184   7.001 -1.0475  0.8847  0.5885
 5829SOL    HW228947   2.079   2.102   7.046  0.4495 -0.4926  1.5352
 5830SOL     OW28948   4.103   4.234   1.951  0.2835 -0.1868 -0.9849
 5830SOL    HW128949   4.125   4.323   1.926  1.5374 -0.5199 -1.0542
 5830SOL    HW228950   4.097   4.241   2.047  0.0666  2.7173 -1.2125
 5831SOL     OW28951   0.210   3.550  11.955  0.5837 -0.5624 -0.5813
 5831SOL    HW128952   0.131   3.497  11.951  0.2856 -0.2246  0.6289
 5831SOL    HW228953   0.276   3.480  11.956  1.7639  0.5620  1.3077
 5832SOL     OW28954   0.330   3.893   2.943 -0.0397 -0.2980  0.1763
 5832SOL    HW128955   0.389   3.945   2.998  0.5981 -1.2227  0.3767
 5832SOL    HW228956   0.274   3.953   2.895  0.8579 -0.8424 -1.5461
 5833SOL     OW28957   0.754   4.276   0.601 -0.1636 -0.1766 -0.3141
 5833SOL    HW128958   0.778   4.301   0.690 -1.5883 -0.8225  0.2446
 5833SOL    HW228959   0.711   4.192   0.617 -0.8248  0.2356  0.0505
 5834SOL     OW28960   1.481   1.773   9.946  0.0319  0.0808 -0.2260
 5834SOL    HW128961   1.558   1.766   9.890 -0.4722 -0.6029 -0.8466
 5834SOL    HW228962   1.457   1.864   9.931  1.7306  0.1142 -2.7575
 5835SOL     OW28963   1.696   0.536   9.622  0.4148 -0.6440  0.7097
 5835SOL    HW128964   1.653   0.451   9.623 -0.2555 -0.3327 -2.0537
 5835SOL    HW228965   1.790   0.520   9.609  0.8654  1.3878  1.3866
 5836SOL     OW28966   2.919   0.265   4.880 -0.1014 -0.0260  0.3215
 5836SOL    HW128967   2.826   0.268   4.900 -0.1598  2.6353 -0.3729
 5836SOL    HW228968   2.951   0.211   4.952  0.0721  2.3286  2.0122
 5837SOL     OW28969   3.081   1.861   3.974 -0.4107  0.1465 -0.5672
 5837SOL    HW128970   3.175   1.864   3.992 -0.4656  1.6704 -0.4718
 5837SOL    HW228971   3.073   1.933   3.911 -0.8030  2.3793  2.0120
 5838SOL     OW28972   4.469   1.528   0.227 -0.0189 -0.4759  0.0426
 5838SOL    HW128973   4.378   1.546   0.252  0.5379  1.0171  0.9636
 5838SOL    HW228974   4.455   1.473   0.150 -0.7392  0.4019 -0.4475
 5839SOL     OW28975   2.925   1.945   3.158  0.0915 -0.2341 -0.5925
 5839SOL    HW128976   2.887   2.004   3.223 -2.0797 -0.5310 -1.6006
 5839SOL    HW228977   2.947   1.868   3.211  2.9288  0.0698 -1.3599
 5840SOL     OW28978   4.176   0.160   2.296 -0.0291  0.6731  0.4980
 5840SOL    HW128979   4.205   0.069   2.304 -0.0639  0.6139 -0.0332
 5840SOL    HW228980   4.200   0.180   2.205 -0.8571  1.3370  0.4332
 5841SOL     OW28981   3.924   4.223   0.177  0.5317  0.0246 -0.0503
 5841SOL    HW128982   3.834   4.214   0.208  1.1814 -3.6670  0.7142
 5841SOL    HW228983   3.954   4.132   0.176 -1.1096 -0.5104  0.7487
 5842SOL     OW28984   4.197   4.654   5.638 -0.5418  0.4814  0.1487
 5842SOL    HW128985   4.154   4.646   5.553  0.2635 -0.7650 -0.1479
 5842SOL    HW228986   4.245   4.571   5.646  0.8192  1.3148  0.5377
 5843SOL     OW28987   1.401   0.464   2.418 -0.3238  0.3905 -0.0716
 5843SOL    HW128988   1.308   0.486   2.428  0.0390  1.3771  1.1650
 5843SOL    HW228989   1.444   0.547   2.400  0.9426 -0.7983 -2.6037
 5844SOL     OW28990   2.886   1.920   5.169  0.2718  0.6675 -0.1116
 5844SOL    HW128991   2.806   1.935   5.220 -1.3735 -0.7517 -2.2301
 5844SOL    HW228992   2.870   1.971   5.090 -0.9965 -0.2627 -0.4663
 5845SOL     OW28993   0.415   1.165   7.877  0.1861  0.6679 -0.0378
 5845SOL    HW128994   0.469   1.237   7.909 -1.2005  1.4545  0.5380
 5845SOL    HW228995   0.416   1.110   7.955 -0.9860  0.5292 -0.1318
 5846SOL     OW28996   2.233   0.469   4.015  0.2314 -0.0753 -0.5165
 5846SOL    HW128997   2.147   0.446   4.049  0.5122  0.9246  0.8670
 5846SOL    HW228998   2.261   0.386   3.976  1.0193  0.0755 -0.2837
 5847SOL     OW28999   0.278   0.475   7.745  0.0564 -0.2727  0.3942
 5847SOL    HW129000   0.317   0.496   7.830 -0.7398  0.0744  0.6781
 5847SOL    HW229001   0.217   0.546   7.724 -1.3333 -1.4056  0.6213
 5848SOL     OW29002   2.307   1.284  11.838 -0.3807 -0.6265 -0.1918
 5848SOL    HW129003   2.262   1.200  11.847 -1.9917  0.3890  1.1883
 5848SOL    HW229004   2.260   1.345  11.894  2.3511  0.8915  0.4651
 5849SOL     OW29005   1.938   3.276   8.632 -0.3564  0.4421  0.1804
 5849SOL    HW129006   1.909   3.355   8.586 -1.2991 -0.8109 -1.3575
 5849SOL    HW229007   2.033   3.287   8.629 -0.3153  0.0670  0.1571
 5850SOL     OW29008   2.963   4.515  12.264  0.1983 -0.3770 -0.7949
 5850SOL    HW129009   2.878   4.543  12.231  0.0243 -0.6357 -0.5715
 5850SOL    HW229010   3.001   4.479  12.185  1.5934 -0.7791  0.0571
 5851SOL     OW29011   0.498   3.688   2.764  0.5808 -0.3742 -0.3671
 5851SOL    HW129012   0.522   3.605   2.722  3.8138 -0.4865  1.7087
 5851SOL    HW229013   0.516   3.762   2.706  0.9857  0.7788  1.2176
 5852SOL     OW29014   0.945   3.938   8.764  0.6014 -0.2007  0.0343
 5852SOL    HW129015   0.903   3.993   8.830 -2.1510 -1.0033 -1.0775
 5852SOL    HW229016   1.010   3.901   8.825 -1.3876 -0.9073  1.7251
 5853SOL     OW29017   3.646   0.842   6.837 -0.0406 -0.3570 -0.1243
 5853SOL    HW129018   3.723   0.883   6.878  0.1195  1.1320 -1.9145
 5853SOL    HW229019   3.637   0.881   6.751  1.9552  2.2011  0.8150
 5854SOL     OW29020   2.062   0.958   0.332 -0.2942  0.5488 -0.3516
 5854SOL    HW129021   1.988   0.937   0.275 -0.4989  0.5940 -0.0987
 5854SOL    HW229022   2.023   0.937   0.417  0.0523 -0.0671 -0.3424
 5855SOL     OW29023   0.471   3.139  10.596  0.1331  0.8980 -0.1606
 5855SOL    HW129024   0.503   3.069  10.539  0.0831  2.0104 -1.5856
 5855SOL    HW229025   0.544   3.149  10.657  1.8603 -0.8850 -1.9074
 5856SOL     OW29026   3.766   2.029   0.107  0.0074  0.2242  0.0296
 5856SOL    HW129027   3.702   1.960   0.091 -1.1755  1.4026 -0.4183
 5856SOL    HW229028   3.756   2.086   0.031  1.1119 -0.2539 -0.4593
 5857SOL     OW29029   4.422   3.669   1.501 -0.5876  0.8230 -0.6874
 5857SOL    HW129030   4.435   3.764   1.491  2.6256  0.2795 -1.7357
 5857SOL    HW229031   4.479   3.649   1.575 -1.9965  0.0714  0.1923
 5858SOL     OW29032   3.631   4.680   2.172 -0.0903  0.1062  0.4443
 5858SOL    HW129033   3.638   0.037   2.122  1.0234  0.2378  0.8048
 5858SOL    HW229034   3.724   4.675   2.196  0.6918  0.0212 -2.5863
 5859SOL     OW29035   1.384   0.642  16.761 -0.0293  0.4844  0.0080
 5859SOL    HW129036   1.321   0.666  16.693 -0.5212 -2.1230 -0.4570
 5859SOL    HW229037   1.339   0.580  16.818 -2.3197  0.1990 -2.1077
 5860SOL     OW29038   2.937   1.336   4.171 -0.1564 -0.1473 -0.4485
 5860SOL    HW129039   2.999   1.359   4.102  0.9211 -1.0478  0.2260
 5860SOL    HW229040   2.957   1.401   4.238 -1.2720  0.9374 -1.1573
 5861SOL     OW29041   3.991   4.633   0.678 -0.3186  0.9586  0.5748
 5861SOL    HW129042   3.944   4.713   0.656  0.8104  1.5543  0.3098
 5861SOL    HW229043   3.915   4.579   0.701  0.6100 -0.4930  0.2590
 5862SOL     OW29044   2.127   4.330   8.775  0.6991  0.1941  0.1763
 5862SOL    HW129045   2.179   4.339   8.695 -0.2071 -0.2535 -0.4569
 5862SOL    HW229046   2.185   4.364   8.844  0.7809  1.1188 -0.3393
 5863SOL     OW29047   0.325   3.441   7.536 -0.9571 -0.3977 -0.5063
 5863SOL    HW129048   0.299   3.349   7.541 -0.4050 -0.5447 -0.4090
 5863SOL    HW229049   0.379   3.446   7.615 -1.2605 -1.4843 -0.2288
 5864SOL     OW29050   3.194   2.951   4.290  0.1850  0.8590 -0.4245
 5864SOL    HW129051   3.175   2.868   4.333  3.5760  0.5901  0.5483
 5864SOL    HW229052   3.187   3.009   4.366 -2.0152 -0.7872  0.6591
 5865SOL     OW29053   0.821   2.568   6.924 -0.5176  0.0596  0.0613
 5865SOL    HW129054   0.794   2.476   6.923 -0.3722  0.0227 -0.7199
 5865SOL    HW229055   0.736   2.612   6.914 -0.6484  0.1946  1.6748
 5866SOL     OW29056   3.726   3.845   6.844 -0.2533  0.2381 -0.3388
 5866SOL    HW129057   3.750   3.754   6.827 -0.4398 -0.0264  0.8252
 5866SOL    HW229058   3.632   3.846   6.823  0.5040 -0.0977 -3.7113
 5867SOL     OW29059   1.626   2.398  10.305 -0.6695 -0.3637 -0.5690
 5867SOL    HW129060   1.585   2.311  10.312 -0.6906 -0.1822  1.8328
 5867SOL    HW229061   1.711   2.386  10.262 -0.5664  0.7526 -0.6564
 5868SOL     OW29062   3.395   3.299   6.781  0.1490  0.4777  0.2257
 5868SOL    HW129063   3.299   3.289   6.782  0.2486 -0.5701 -1.7277
 5868SOL    HW229064   3.414   3.213   6.819 -0.9914  0.8333  1.6267
 5869SOL     OW29065   0.614   1.239   0.206 -0.0587  0.3557  0.2096
 5869SOL    HW129066   0.698   1.283   0.190 -0.7582  2.1091  1.2943
 5869SOL    HW229067   0.627   1.167   0.144  0.7135 -0.1627  0.9641
 5870SOL     OW29068   2.764   1.833   3.487 -0.1072 -0.0425 -0.0986
 5870SOL    HW129069   2.707   1.851   3.413  0.1967 -1.3449 -0.6554
 5870SOL    HW229070   2.843   1.812   3.437 -0.3050 -0.3963 -0.2610
 5871SOL     OW29071   2.916   0.679  17.208  0.2052  0.0135  0.3568
 5871SOL    HW129072   2.914   0.641  17.120  1.7556  1.5371 -0.3355
 5871SOL    HW229073   2.849   0.622  17.246  0.3148 -0.1993  0.2322
 5872SOL     OW29074   0.673   3.205   5.010  0.1809 -0.2153  0.4511
 5872SOL    HW129075   0.731   3.176   5.080 -2.2883 -0.1811  2.5151
 5872SOL    HW229076   0.666   3.126   4.957 -1.7982  0.7866 -0.7805
 5873SOL     OW29077   4.146   4.125  16.580  0.2461  0.1971  0.8778
 5873SOL    HW129078   4.223   4.178  16.560  0.3526  0.4030  1.8503
 5873SOL    HW229079   4.138   4.163  16.667 -0.0624  1.1695  0.4249
 5874SOL     OW29080   0.556   4.065   3.861 -0.0094  0.0708 -0.1521
 5874SOL    HW129081   0.492   4.134   3.844  0.9588  0.8819 -0.5435
 5874SOL    HW229082   0.624   4.085   3.796  1.5440 -1.6923  0.9462
 5875SOL     OW29083   0.585   3.272   6.328  0.3917  0.2514 -0.2039
 5875SOL    HW129084   0.643   3.195   6.330  0.5291  0.3357 -1.0807
 5875SOL    HW229085   0.514   3.244   6.386  0.6741 -1.7965 -0.8248
 5876SOL     OW29086   1.260   4.227   9.101 -0.0655 -0.0412 -0.3128
 5876SOL    HW129087   1.211   4.170   9.159 -0.2859 -2.0450 -2.4999
 5876SOL    HW229088   1.202   4.297   9.071 -1.5514 -1.8908 -1.7209
 5877SOL     OW29089   1.287   0.267   1.035  0.2274  0.0961 -0.0674
 5877SOL    HW129090   1.228   0.336   1.003 -0.6979 -0.3864  0.6145
 5877SOL    HW229091   1.236   0.248   1.113  1.2456 -2.1182  0.0544
 5878SOL     OW29092   1.694   1.765   8.305  0.2480  0.0265  0.2900
 5878SOL    HW129093   1.703   1.823   8.381 -0.3254  1.6414 -0.8824
 5878SOL    HW229094   1.715   1.831   8.239 -0.1306 -2.2450 -2.1029
 5879SOL     OW29095   4.022   4.091   8.488  0.0127  0.3340 -0.2426
 5879SOL    HW129096   4.009   4.109   8.395 -0.0673  2.1085  0.1139
 5879SOL    HW229097   4.047   4.180   8.512  0.3251 -0.1982  1.3565
 5880SOL     OW29098   3.839   4.253   6.619  0.1909 -1.0613  0.3918
 5880SOL    HW129099   3.828   4.194   6.694 -1.8005 -1.4730 -0.2231
 5880SOL    HW229100   3.750   4.267   6.587  0.1726  2.3563  1.9314
 5881SOL     OW29101   0.354   0.377   6.465 -0.2037  0.5286  0.2609
 5881SOL    HW129102   0.382   0.333   6.384  1.7966  1.7095  0.3284
 5881SOL    HW229103   0.274   0.418   6.432 -0.7421 -1.6675 -1.1790
 5882SOL     OW29104   4.262   2.916  15.880 -0.0960 -0.0285  0.8950
 5882SOL    HW129105   4.217   2.915  15.795  2.0782 -1.1128 -0.2456
 5882SOL    HW229106   4.215   2.848  15.929 -0.4199 -0.8079 -0.4822
 5883SOL     OW29107   4.118   3.962   6.230 -0.5114  0.1062 -0.2270
 5883SOL    HW129108   4.104   3.873   6.196 -0.1135 -1.1729  2.9174
 5883SOL    HW229109   4.109   3.952   6.324  2.2712  1.5055  0.1884
 5884SOL     OW29110   1.235   1.892   4.707  0.5246 -0.2105  0.2614
 5884SOL    HW129111   1.170   1.825   4.731 -0.3693  0.3255 -0.6935
 5884SOL    HW229112   1.281   1.902   4.790  3.5531 -0.5770 -1.4006
 5885SOL     OW29113   0.168   0.006   3.107 -0.7565 -0.0886  0.7460
 5885SOL    HW129114   0.231   4.665   3.075 -0.2187  0.8852 -0.1513
 5885SOL    HW229115   0.083   4.702   3.071 -0.5280 -2.0379  1.7347
 5886SOL     OW29116   2.183   2.841   2.639 -0.2724  0.3818  0.2226
 5886SOL    HW129117   2.163   2.839   2.546 -1.2279  2.9179  0.3788
 5886SOL    HW229118   2.171   2.932   2.667  2.2131  0.5699  0.6761
 5887SOL     OW29119   0.913   3.954   2.177  0.2149  0.0930  0.6803
 5887SOL    HW129120   0.991   3.916   2.217  0.1483 -1.2876 -0.5131
 5887SOL    HW229121   0.873   3.876   2.139  1.3104 -0.1172 -0.0470
 5888SOL     OW29122   0.946   4.554   4.740  0.2449 -0.0224  0.1575
 5888SOL    HW129123   1.021   4.614   4.746 -0.2872  0.5792  0.7015
 5888SOL    HW229124   0.940   4.523   4.830  0.1631 -0.4233  0.0160
 5889SOL     OW29125   2.716   0.896  13.048 -0.3549 -0.1519  0.4217
 5889SOL    HW129126   2.792   0.852  13.086  0.7928 -1.3316 -3.2777
 5889SOL    HW229127   2.642   0.839  13.070 -0.5140 -0.1873 -0.2017
 5890SOL     OW29128   2.036   4.258  11.581  0.0946 -0.2660  0.0187
 5890SOL    HW129129   1.972   4.328  11.577  2.5026  1.9159 -0.0574
 5890SOL    HW229130   2.121   4.302  11.582  1.2759 -2.5446  0.3850
 5891SOL     OW29131   4.022   4.017   4.155  0.2143  0.1523 -0.3439
 5891SOL    HW129132   3.946   3.962   4.172  0.5006  0.2286  1.2461
 5891SOL    HW229133   4.062   3.973   4.080 -2.5942 -0.1861 -1.6359
 5892SOL     OW29134   1.009   3.924  12.718 -0.0863  0.0871 -0.1874
 5892SOL    HW129135   0.917   3.929  12.745 -0.3366 -1.4032 -0.7744
 5892SOL    HW229136   1.056   3.935  12.801 -1.6482 -1.8495  0.9741
 5893SOL     OW29137   3.575   2.353   4.416  0.1773 -0.4101  0.2613
 5893SOL    HW129138   3.604   2.444   4.414  1.3515 -0.7939  0.3471
 5893SOL    HW229139   3.606   2.329   4.504 -1.0001  0.0504  0.8037
 5894SOL     OW29140   1.064   3.972   8.079 -0.5087  0.1578  0.2505
 5894SOL    HW129141   0.998   4.004   8.017  1.1586  1.9141 -0.6318
 5894SOL    HW229142   1.065   4.044   8.142 -0.9468 -1.4510  2.0922
 5895SOL     OW29143   0.857   3.145   6.627 -0.3327 -0.3507 -0.0708
 5895SOL    HW129144   0.763   3.158   6.614 -0.2208 -1.2794 -1.7786
 5895SOL    HW229145   0.886   3.076   6.568 -1.6013 -1.6267  0.8120
 5896SOL     OW29146   1.009   0.191   3.351  0.4663 -0.2191 -0.1837
 5896SOL    HW129147   1.034   0.121   3.291 -1.4735 -2.0890  1.1800
 5896SOL    HW229148   1.035   0.143   3.430  0.9030  1.0794  0.4751
 5897SOL     OW29149   4.263   1.217  15.312  0.0837 -0.5932  0.2922
 5897SOL    HW129150   4.317   1.278  15.363 -1.8257  0.4764  1.0242
 5897SOL    HW229151   4.321   1.151  15.274 -0.8616  0.5261 -3.0354
 5898SOL     OW29152   2.940   4.688   3.814 -0.0143 -0.2625 -0.0128
 5898SOL    HW129153   2.866   4.627   3.814  0.0939 -0.3947  0.5951
 5898SOL    HW229154   3.010   4.625   3.800  0.8745  0.7460 -0.1173
 5899SOL     OW29155   4.129   4.579   2.962  0.2254  0.5962 -0.6529
 5899SOL    HW129156   4.217   4.615   2.966  0.1500  0.6123  1.1005
 5899SOL    HW229157   4.104   4.594   3.054 -0.9096 -0.9063 -0.7055
 5900SOL     OW29158   3.734   1.647  16.314  0.0411 -0.3849 -0.2332
 5900SOL    HW129159   3.700   1.606  16.234 -1.7706  2.7568 -1.0646
 5900SOL    HW229160   3.684   1.602  16.383 -1.3914 -2.0952 -2.3913
 5901SOL     OW29161   4.670   0.679   8.852 -0.5622 -0.4550  0.3847
 5901SOL    HW129162   4.707   0.753   8.901  0.6744 -0.5510 -0.4140
 5901SOL    HW229163   4.589   0.675   8.903 -1.3541  0.1901 -0.8630
 5902SOL     OW29164   2.572   4.100   7.731 -0.1763 -0.4833 -0.0730
 5902SOL    HW129165   2.507   4.161   7.767 -1.6222 -0.8409 -2.0959
 5902SOL    HW229166   2.607   4.061   7.811  0.3463  0.5105  0.1798
 5903SOL     OW29167   2.710   2.028  13.539 -0.1311  0.2517 -0.6783
 5903SOL    HW129168   2.635   2.056  13.591 -0.2466 -0.6660 -0.3544
 5903SOL    HW229169   2.770   2.100  13.559  0.5164 -0.8975  1.4864
 5904SOL     OW29170   0.496   3.825   7.671 -0.3455 -0.0506  0.3803
 5904SOL    HW129171   0.567   3.885   7.651  0.4096 -0.8976  0.4993
 5904SOL    HW229172   0.536   3.739   7.654 -1.9161 -0.2194 -2.4838
 5905SOL     OW29173   1.534   2.190   2.484  0.1598  0.0914 -0.1148
 5905SOL    HW129174   1.531   2.122   2.417  1.1279 -0.5257  0.4651
 5905SOL    HW229175   1.477   2.162   2.557  0.4996  1.8589  0.8219
 5906SOL     OW29176   4.566   4.683   6.702 -0.2368  0.9307 -0.6500
 5906SOL    HW129177   4.606   0.028   6.755  0.7949  0.5261 -0.8940
 5906SOL    HW229178   4.638   4.651   6.647  0.3944  2.9496 -0.9775
 5907SOL     OW29179   0.899   4.400  10.903 -0.5482  0.0983  0.5284
 5907SOL    HW129180   0.969   4.386  10.967  0.2184  0.1425 -0.2873
 5907SOL    HW229181   0.828   4.342  10.928 -2.1209  1.2384 -1.2924
 5908SOL     OW29182   0.291   3.436   4.476  0.2612  0.3442  0.0536
 5908SOL    HW129183   0.384   3.420   4.462  0.3775  1.7469 -0.7363
 5908SOL    HW229184   0.276   3.411   4.568  1.2297  0.3616  0.2137
 5909SOL     OW29185   1.723   0.566   5.749  0.1071  0.6224 -0.5340
 5909SOL    HW129186   1.775   0.645   5.762  0.5390  0.4889 -1.4576
 5909SOL    HW229187   1.640   0.588   5.792  1.2450  2.2232  0.8185
 5910SOL     OW29188   0.643   3.560   6.381 -0.2062 -0.3674  0.4651
 5910SOL    HW129189   0.632   3.614   6.303 -0.1259  0.7297  1.2127
 5910SOL    HW229190   0.617   3.476   6.344 -0.4760 -0.0265 -0.1211
 5911SOL     OW29191   3.436   1.474   8.689  0.3806 -0.1961 -0.3139
 5911SOL    HW129192   3.344   1.448   8.695 -0.0591  1.1443 -1.2384
 5911SOL    HW229193   3.461   1.441   8.603  0.3158 -0.6893 -0.1438
 5912SOL     OW29194   3.575   2.631   5.652  0.5543 -0.3894  0.3224
 5912SOL    HW129195   3.508   2.696   5.675 -0.3022 -0.9014 -0.7128
 5912SOL    HW229196   3.589   2.603   5.742 -1.0984  0.0164  0.7041
 5913SOL     OW29197   0.767   1.447  13.779 -0.3797  0.2639  0.0884
 5913SOL    HW129198   0.706   1.505  13.825 -0.2708  0.4126  0.0455
 5913SOL    HW229199   0.816   1.389  13.838 -1.1852 -0.4390  0.0604
 5914SOL     OW29200   1.367   1.088   5.685 -0.3536 -0.4205 -0.1381
 5914SOL    HW129201   1.331   1.159   5.632 -1.1169 -0.4220  0.3760
 5914SOL    HW229202   1.286   1.039   5.698 -1.2955  1.1386 -0.0673
 5915SOL     OW29203   2.229   0.501   6.204  0.2015 -0.3704  0.3361
 5915SOL    HW129204   2.168   0.457   6.264 -2.4475  1.0138 -1.3541
 5915SOL    HW229205   2.243   0.440   6.131 -2.5603 -0.8835  0.2407
 5916SOL     OW29206   0.634   0.088  12.181  0.3014  0.0889  0.2945
 5916SOL    HW129207   0.699   0.026  12.215 -0.5004 -1.7196 -1.4703
 5916SOL    HW229208   0.591   0.038  12.111 -0.6674 -1.1631  1.7870
 5917SOL     OW29209   2.380   2.257   3.921 -0.0234  0.2975 -0.2356
 5917SOL    HW129210   2.387   2.271   3.826  0.6000  0.6570 -0.1370
 5917SOL    HW229211   2.417   2.168   3.925 -1.4200 -0.3989 -3.0523
 5918SOL     OW29212   4.724   0.831   0.377  0.2199 -0.3267 -0.4912
 5918SOL    HW129213   0.022   0.806   0.288  1.9892  0.1981 -0.1982
 5918SOL    HW229214   4.660   0.761   0.390  0.2418  0.1855  2.5297
 5919SOL     OW29215   3.847   2.818   5.114  0.0659 -0.0171  0.6549
 5919SOL    HW129216   3.777   2.756   5.136 -0.2902 -0.2019 -1.0020
 5919SOL    HW229217   3.922   2.765   5.138 -0.8492 -1.0753  1.1957
 5920SOL     OW29218   4.420   1.504   7.638  0.3750 -0.1731 -0.0425
 5920SOL    HW129219   4.470   1.460   7.707 -2.3587 -0.0030  2.0204
 5920SOL    HW229220   4.340   1.452   7.635  0.2293  0.0443  0.0472
 5921SOL     OW29221   0.223   4.117   2.622 -0.0243 -0.0668 -0.2805
 5921SOL    HW129222   0.251   4.026   2.607 -0.3098 -0.0632 -0.8543
 5921SOL    HW229223   0.177   4.116   2.705 -2.1963  2.9292 -1.4617
 5922SOL     OW29224   1.049   0.004   7.397 -0.7177 -0.7430 -0.2400
 5922SOL    HW129225   1.015   0.066   7.333 -2.0206  0.0457  1.1868
 5922SOL    HW229226   1.014   0.044   7.477  1.0642 -0.5340  0.4308
 5923SOL     OW29227   3.197   0.481   2.232 -0.2700  0.2960  0.2205
 5923SOL    HW129228   3.267   0.435   2.185 -1.8845 -0.1091 -1.7710
 5923SOL    HW229229   3.121   0.430   2.207 -1.5416  0.9216  2.7994
 5924SOL     OW29230   3.982   0.227   3.902 -0.2837  0.0524 -0.1968
 5924SOL    HW129231   3.932   0.195   3.827 -0.3812  3.4488 -1.5725
 5924SOL    HW229232   3.974   0.319   3.878 -0.1911  0.1919  0.2911
 5925SOL     OW29233   3.765   3.719   3.251  0.0681 -0.5760 -0.2756
 5925SOL    HW129234   3.800   3.632   3.273 -0.3339 -1.2201 -2.2090
 5925SOL    HW229235   3.735   3.717   3.160 -0.9767 -0.6785  0.0724
 5926SOL     OW29236   3.610   1.656  11.338  0.0002 -0.2422  0.3762
 5926SOL    HW129237   3.518   1.672  11.357  0.1001  1.0016 -0.2033
 5926SOL    HW229238   3.634   1.707  11.261 -1.1200 -0.7842 -0.3268
 5927SOL     OW29239   2.256   4.229   3.898  0.7974  0.3789  0.2682
 5927SOL    HW129240   2.184   4.168   3.910  0.3341 -0.1507 -5.2147
 5927SOL    HW229241   2.220   4.318   3.902 -0.7302 -0.3424  2.1137
 5928SOL     OW29242   1.208   4.328  16.055  0.3438 -0.7754 -0.0706
 5928SOL    HW129243   1.300   4.346  16.037  0.1223  1.0800  0.6005
 5928SOL    HW229244   1.190   4.383  16.132  0.1097 -0.2433 -0.5005
 5929SOL     OW29245   4.392   1.673   4.735  0.3702  0.1436 -0.5740
 5929SOL    HW129246   4.305   1.682   4.775 -0.4561  1.4265 -2.6454
 5929SOL    HW229247   4.384   1.662   4.640 -1.4752 -0.3253 -0.3608
 5930SOL     OW29248   3.720   4.479   1.865  0.2540  0.0487  0.0516
 5930SOL    HW129249   3.634   4.467   1.905  0.9636 -0.4786  1.4341
 5930SOL    HW229250   3.781   4.476   1.939  0.7381 -2.2734 -0.4329
 5931SOL     OW29251   0.241   0.098   6.398  0.1811 -0.2379 -0.0640
 5931SOL    HW129252   0.194   0.181   6.411  1.7553  0.8706 -1.3469
 5931SOL    HW229253   0.305   0.117   6.329  1.6732 -0.0422  1.3722
 5932SOL     OW29254   2.371   0.995  10.970 -0.0488 -0.5142  0.0724
 5932SOL    HW129255   2.407   1.083  10.957 -0.3711 -0.6396 -1.6175
 5932SOL    HW229256   2.329   0.979  10.885  1.9558 -0.8364 -0.8546
 5933SOL     OW29257   4.261   2.516  15.229  0.3585  0.3792  0.1045
 5933SOL    HW129258   4.190   2.559  15.182  1.1670  1.2907 -0.2857
 5933SOL    HW229259   4.292   2.442  15.177  1.8260 -0.5136  2.2337
 5934SOL     OW29260   2.899   4.606   8.782  0.0062 -0.3628 -0.3908
 5934SOL    HW129261   2.883   4.644   8.868  1.4682 -2.1453  0.6532
 5934SOL    HW229262   2.994   4.603   8.778  0.0563  0.5007  0.0676
 5935SOL     OW29263   2.551   3.351  15.401 -0.3741  0.3813 -0.4748
 5935SOL    HW129264   2.554   3.258  15.420 -0.7352  0.4108 -0.2793
 5935SOL    HW229265   2.640   3.380  15.421  0.4448 -1.3053 -1.7220
 5936SOL     OW29266   3.450   3.084   2.830 -0.2011 -0.1791  0.0670
 5936SOL    HW129267   3.382   3.140   2.868  0.8679  1.0967  0.0780
 5936SOL    HW229268   3.421   3.073   2.740  1.4842  0.7534 -0.5860
 5937SOL     OW29269   2.550   4.519   4.388 -0.6729 -0.1496  0.1186
 5937SOL    HW129270   2.619   4.515   4.321 -0.5012 -0.3406  0.3075
 5937SOL    HW229271   2.501   4.442   4.357 -2.1217  0.1509  1.6703
 5938SOL     OW29272   0.031   3.385   2.067  0.4634 -0.2449  0.2324
 5938SOL    HW129273   0.007   3.477   2.077 -0.6251 -0.2827 -1.9144
 5938SOL    HW229274   0.112   3.399   2.018 -0.7664  1.0672 -1.4252
 5939SOL     OW29275   2.922   1.309   4.931  0.5229 -0.3244  0.1595
 5939SOL    HW129276   2.942   1.336   5.020 -0.7882 -1.7495  0.8979
 5939SOL    HW229277   2.957   1.220   4.934  0.8855 -0.1915 -0.1604
 5940SOL     OW29278   4.290   4.314  13.549  0.6802  0.6871 -0.1923
 5940SOL    HW129279   4.342   4.387  13.515 -1.6209  1.1323 -2.7821
 5940SOL    HW229280   4.346   4.277  13.617  1.0220  0.0498 -0.8153
 5941SOL     OW29281   3.563   2.570  11.833  0.6822  0.2130 -0.0429
 5941SOL    HW129282   3.555   2.621  11.913 -0.1213  0.8729 -0.5380
 5941SOL    HW229283   3.629   2.623  11.789  1.7280 -0.5017  0.6738
 5942SOL     OW29284   1.098   1.046   1.438  0.2676  0.1942  0.1041
 5942SOL    HW129285   1.145   1.085   1.512 -0.8487  1.0217  0.3747
 5942SOL    HW229286   1.073   0.963   1.479  0.6309 -0.7759 -1.6467
 5943SOL     OW29287   1.024   4.562   7.172 -0.1649 -0.0459 -0.1280
 5943SOL    HW129288   1.041   4.565   7.267  2.4018  0.4688 -0.6088
 5943SOL    HW229289   0.941   4.516   7.166  0.3020 -0.7452 -1.0650
 5944SOL     OW29290   0.355   3.468  12.975  0.8965  0.8856  0.0416
 5944SOL    HW129291   0.427   3.518  12.936  0.1763  0.4955 -1.7743
 5944SOL    HW229292   0.301   3.452  12.898  1.0541 -0.5659  0.2276
 5945SOL     OW29293   0.920   0.918   7.693  0.5190 -0.5816  0.0860
 5945SOL    HW129294   0.882   0.871   7.767 -1.7511  0.9646 -0.0962
 5945SOL    HW229295   0.895   1.010   7.703 -1.1783 -0.9281 -1.0583
 5946SOL     OW29296   0.479   4.376   7.122 -0.2503 -0.4277  0.1707
 5946SOL    HW129297   0.496   4.318   7.196  0.5487  0.2144  0.4924
 5946SOL    HW229298   0.432   4.447   7.167 -1.3564 -0.5135 -0.8538
 5947SOL     OW29299   4.084   2.830  10.539 -0.5250 -0.5054 -0.2979
 5947SOL    HW129300   4.159   2.838  10.481  0.4848 -0.7074  0.9854
 5947SOL    HW229301   4.022   2.780  10.486 -0.0857 -1.6289  0.2492
 5948SOL     OW29302   3.325   2.525   9.387  0.3455  0.2502  0.5864
 5948SOL    HW129303   3.341   2.506   9.480 -3.3030 -0.7328  1.0373
 5948SOL    HW229304   3.229   2.529   9.390  0.4226  2.6252 -0.4648
 5949SOL     OW29305   3.226   1.218   6.527 -0.0338  0.7171 -0.0803
 5949SOL    HW129306   3.306   1.231   6.578 -0.7707  2.6834  0.5715
 5949SOL    HW229307   3.251   1.136   6.483 -0.9226  1.5472 -2.1010
 5950SOL     OW29308   4.473   2.102   1.043  0.2458 -0.0983  0.4560
 5950SOL    HW129309   4.412   2.113   0.970 -0.9061  1.1359  1.6059
 5950SOL    HW229310   4.543   2.046   1.009  0.4303  1.0380 -1.0481
 5951SOL     OW29311   2.464   0.436  17.138  0.1961  0.5055 -0.2257
 5951SOL    HW129312   2.416   0.491  17.201  1.1473  1.9039 -0.7388
 5951SOL    HW229313   2.452   0.352  17.184 -1.0373 -1.3714 -3.9622
 5952SOL     OW29314   2.664   0.230  13.583 -0.0304  0.2640  0.2369
 5952SOL    HW129315   2.650   0.232  13.678  0.8969  0.5794  0.3631
 5952SOL    HW229316   2.578   0.229  13.540  0.4673  1.2414 -0.7860
 5953SOL     OW29317   0.280   2.924   7.894 -0.6689  0.0639  0.2841
 5953SOL    HW129318   0.301   2.931   7.988 -0.6149  0.7514  0.2158
 5953SOL    HW229319   0.216   2.855   7.908 -0.3817 -0.3509 -0.4354
 5954SOL     OW29320   3.549   1.282   7.560 -0.4246 -0.0340 -0.4428
 5954SOL    HW129321   3.481   1.261   7.624 -2.9994 -0.0161 -3.1771
 5954SOL    HW229322   3.627   1.252   7.607 -0.5833 -0.4044 -0.4163
 5955SOL     OW29323   3.133   3.993   6.094 -0.3409  0.4324 -0.1502
 5955SOL    HW129324   3.125   3.914   6.148  0.1319  0.6212  0.1928
 5955SOL    HW229325   3.053   3.990   6.041 -1.0623 -0.4001  0.9755
 5956SOL     OW29326   2.280   0.951   8.764 -0.2413  0.6624 -0.9111
 5956SOL    HW129327   2.299   0.990   8.849  0.5181  0.8665 -1.1769
 5956SOL    HW229328   2.211   0.886   8.779  0.5722  0.1311  0.5679
 5957SOL     OW29329   1.392   0.014  17.147  0.0332 -0.0554  0.4384
 5957SOL    HW129330   1.409   0.061  17.066  0.5415 -1.9332 -0.5513
 5957SOL    HW229331   1.332   4.667  17.122 -2.2986  2.3065 -0.7318
 5958SOL     OW29332   1.480   0.816   2.566  1.2917 -0.0704 -0.5580
 5958SOL    HW129333   1.466   0.894   2.620  0.7652 -0.4630 -0.1219
 5958SOL    HW229334   1.428   0.848   2.493  0.6946 -0.2582 -0.2213
 5959SOL     OW29335   2.247   1.518   0.976  0.0757  0.4933  0.7724
 5959SOL    HW129336   2.155   1.522   1.004 -0.3303  1.7911 -0.7348
 5959SOL    HW229337   2.265   1.434   1.019 -1.5681 -0.2170  0.0730
 5960SOL     OW29338   4.338   3.886   3.590  0.1586 -0.5636  0.0335
 5960SOL    HW129339   4.405   3.909   3.655 -0.1557 -0.9214  0.4849
 5960SOL    HW229340   4.255   3.921   3.623  0.5287  0.0116  0.3455
 5961SOL     OW29341   1.408   3.857   2.370  0.2570 -0.0867  0.1352
 5961SOL    HW129342   1.404   3.949   2.397 -0.5607 -0.0403 -0.1480
 5961SOL    HW229343   1.502   3.840   2.364 -0.0276 -2.0563  1.0881
 5962SOL     OW29344   2.156   1.249  15.420  0.0460  0.2664  0.2804
 5962SOL    HW129345   2.095   1.235  15.348  0.5632  0.6035 -0.2255
 5962SOL    HW229346   2.116   1.186  15.480  0.0359 -0.1544 -0.1688
 5963SOL     OW29347   3.487   3.180   0.035  0.2082 -0.3568  0.0849
 5963SOL    HW129348   3.569   3.210  17.692  0.7371  0.0547  1.4976
 5963SOL    HW229349   3.444   3.150  17.651 -1.5345 -0.6721  1.1507
 5964SOL     OW29350   3.469   4.014  12.556 -0.1048  0.2420  0.2293
 5964SOL    HW129351   3.560   3.987  12.561 -0.3503 -0.5955  0.1999
 5964SOL    HW229352   3.422   3.942  12.599  0.6239 -1.8248 -2.4458
 5965SOL     OW29353   3.639   4.025  16.007 -0.2134  0.1330  0.0848
 5965SOL    HW129354   3.652   3.930  16.008  1.6190  0.3860  0.9345
 5965SOL    HW229355   3.652   4.037  16.101 -1.0166 -1.2860  0.3705
 5966SOL     OW29356   0.196   2.805   3.362 -0.0683  0.0520 -0.2234
 5966SOL    HW129357   0.151   2.871   3.415  0.3694 -0.4048  0.7163
 5966SOL    HW229358   0.238   2.869   3.304  0.0121 -0.5362 -0.8046
 5967SOL     OW29359   3.013   0.488   4.760 -0.5069  0.1413 -0.2955
 5967SOL    HW129360   2.976   0.405   4.790  0.9014  0.3185  1.9288
 5967SOL    HW229361   2.940   0.539   4.724  0.3695  0.1757 -2.0400
 5968SOL     OW29362   3.978   4.705   2.251  0.1702  0.0914 -0.5268
 5968SOL    HW129363   3.953   4.692   2.342 -0.6124  1.7164 -0.5129
 5968SOL    HW229364   4.042   0.053   2.249  0.2468  0.0255 -0.4669
 5969SOL     OW29365   1.736   2.266   6.504 -0.6407  0.2931  0.0116
 5969SOL    HW129366   1.727   2.231   6.416  0.9822  1.6274 -0.6829
 5969SOL    HW229367   1.821   2.305   6.484 -0.5996  0.4618  0.4941
 5970SOL     OW29368   3.254   3.632   5.584 -0.1123  0.1637  0.2319
 5970SOL    HW129369   3.223   3.722   5.588  0.4560  0.2865  1.9011
 5970SOL    HW229370   3.338   3.650   5.542  0.2592 -0.9403  0.4814
 5971SOL     OW29371   0.453   1.472  17.595  0.1631  0.0923 -0.3631
 5971SOL    HW129372   0.436   1.453  17.687 -1.4489  0.4209 -0.6075
 5971SOL    HW229373   0.372   1.518  17.575  0.5304  0.4971 -0.9193
 5972SOL     OW29374   0.710   1.760   4.808 -0.4317  0.7623  0.0859
 5972SOL    HW129375   0.762   1.679   4.805 -2.6665 -0.5638 -2.7671
 5972SOL    HW229376   0.631   1.723   4.848 -0.6414  2.2611  1.0521
 5973SOL     OW29377   2.902   0.069   7.703  0.6438 -0.0162 -0.0737
 5973SOL    HW129378   2.976   0.040   7.757  0.8845  0.0692 -0.3604
 5973SOL    HW229379   2.924   0.163   7.702  1.0740 -0.0901  1.4718
 5974SOL     OW29380   1.093   3.808   5.934 -0.3784  0.2195 -0.2900
 5974SOL    HW129381   1.181   3.797   5.899 -0.0110 -3.5686  1.8443
 5974SOL    HW229382   1.047   3.790   5.852 -0.6433 -0.8147  0.0860
 5975SOL     OW29383   2.711   3.124  16.782 -0.4019 -0.3262 -0.4251
 5975SOL    HW129384   2.727   3.045  16.834 -2.1663  0.3117  1.0983
 5975SOL    HW229385   2.617   3.135  16.794 -0.2904 -0.0257  0.2223
 5976SOL     OW29386   3.358   3.161   3.488 -0.0960  0.0963  0.1525
 5976SOL    HW129387   3.275   3.142   3.533  0.0980  0.0479  0.4877
 5976SOL    HW229388   3.329   3.218   3.416 -1.4944  0.3759  0.9287
 5977SOL     OW29389   0.749   4.723  16.807  0.3608  0.0422 -0.5424
 5977SOL    HW129390   0.701   0.037  16.881  1.1259  0.2296 -0.1439
 5977SOL    HW229391   0.737   0.077  16.751  2.2915  1.2741  0.7366
 5978SOL     OW29392   2.417   2.283  11.975 -0.7296 -0.1738  0.2148
 5978SOL    HW129393   2.465   2.366  11.981  1.6948 -1.6372  1.0147
 5978SOL    HW229394   2.334   2.321  11.947 -1.0879  0.2684  1.9118
 5979SOL     OW29395   1.295   4.021   7.768  0.3193  0.0845  0.4490
 5979SOL    HW129396   1.212   4.068   7.773  0.5940  0.7560 -1.1278
 5979SOL    HW229397   1.346   4.072   7.705  0.5676  0.0267  0.6043
 5980SOL     OW29398   0.682   1.340   6.734 -0.0379 -0.1142  0.1790
 5980SOL    HW129399   0.725   1.414   6.691  0.5754  0.0045  1.0007
 5980SOL    HW229400   0.656   1.392   6.810  3.2071  0.1858  1.0769
 5981SOL     OW29401   2.865   3.260   4.722  0.2642  0.2205  0.7214
 5981SOL    HW129402   2.779   3.220   4.706  0.5532  0.0246 -0.3373
 5981SOL    HW229403   2.845   3.351   4.699 -1.0582  0.4900  2.8751
 5982SOL     OW29404   3.101   1.588   5.956  0.8008  0.7509 -0.1922
 5982SOL    HW129405   3.118   1.606   6.049  0.7860  0.5873 -0.1575
 5982SOL    HW229406   3.008   1.609   5.954  0.3959 -1.2832 -2.5830
 5983SOL     OW29407   4.649   4.661   4.138  0.5168 -0.0375  0.2954
 5983SOL    HW129408   4.564   4.706   4.141  0.5402  0.0669 -0.5282
 5983SOL    HW229409   4.626   4.577   4.100  0.2776 -0.2920  0.9927
 5984SOL     OW29410   4.340   1.448  12.513  0.2238  0.3298  0.0351
 5984SOL    HW129411   4.304   1.432  12.601 -0.5035  0.1673 -0.3004
 5984SOL    HW229412   4.360   1.363  12.475  1.1635  0.6297 -0.1633
 5985SOL     OW29413   0.589   1.052   7.687 -0.0234 -0.0346  0.0323
 5985SOL    HW129414   0.619   1.012   7.768 -1.1852  0.0108  0.4839
 5985SOL    HW229415   0.518   1.099   7.731  1.3253  2.8841 -0.8985
 5986SOL     OW29416   3.326   0.368   2.898 -0.2465 -0.6585 -0.6628
 5986SOL    HW129417   3.252   0.310   2.882 -0.7039 -0.6318  1.2945
 5986SOL    HW229418   3.353   0.360   2.990  0.7970 -1.9652 -1.0781
 5987SOL     OW29419   1.684   1.917   2.459 -0.0505 -0.5690  0.0891
 5987SOL    HW129420   1.640   1.880   2.536 -1.1549 -3.0917 -1.7391
 5987SOL    HW229421   1.770   1.931   2.499 -0.6648  1.2601  0.7533
 5988SOL     OW29422   2.878   2.027   5.548 -0.1837  0.4378 -0.4274
 5988SOL    HW129423   2.922   2.103   5.510  2.6238 -0.8730  0.1965
 5988SOL    HW229424   2.789   2.064   5.551 -1.3199 -2.2509 -0.9743
 5989SOL     OW29425   4.705   4.557  12.969  0.4267 -0.1075 -0.2620
 5989SOL    HW129426   4.667   4.592  13.050  0.4398 -3.5916  1.2739
 5989SOL    HW229427   4.632   4.504  12.937  0.2522 -0.3383  0.4970
 5990SOL     OW29428   1.744   4.708   7.031  0.1968  0.7067  0.2382
 5990SOL    HW129429   1.699   4.629   7.059 -0.5071  0.7056 -0.9071
 5990SOL    HW229430   1.685   0.023   6.966  1.9353 -2.3782 -3.1562
 5991SOL     OW29431   2.608   3.646   4.091  0.2371 -0.3384 -0.8086
 5991SOL    HW129432   2.520   3.608   4.093 -0.0518  0.2949 -1.4341
 5991SOL    HW229433   2.611   3.701   4.013 -0.5193  0.2842 -0.4017
 5992SOL     OW29434   3.882   2.300   9.845  0.8135  0.4074 -0.7408
 5992SOL    HW129435   3.934   2.321   9.923  0.5514 -2.4009  0.1884
 5992SOL    HW229436   3.899   2.207   9.830 -0.1092 -0.2595  2.4064
 5993SOL     OW29437   2.429   4.628   3.962  0.0258 -0.0878 -0.4591
 5993SOL    HW129438   2.420   4.559   3.896 -1.9049 -0.1017 -0.1786
 5993SOL    HW229439   2.401   4.586   4.043  0.7264 -2.0700 -1.2594
 5994SOL     OW29440   1.587   4.255   8.148  0.2151 -0.0721  0.3180
 5994SOL    HW129441   1.576   4.161   8.165  1.0985 -0.6312 -2.3169
 5994SOL    HW229442   1.613   4.257   8.056 -1.7958  1.8971 -0.2184
 5995SOL     OW29443   2.442   3.190   4.946 -0.0654  0.2381 -0.2774
 5995SOL    HW129444   2.412   3.117   5.000 -0.6300  1.0897  0.5664
 5995SOL    HW229445   2.399   3.179   4.861 -0.6717 -1.2589  0.2318
 5996SOL     OW29446   3.692   0.509   3.032  0.3344 -0.1518  0.6182
 5996SOL    HW129447   3.646   0.502   3.116 -1.3665 -1.4210 -0.4490
 5996SOL    HW229448   3.643   0.448   2.978  2.9299 -0.0143 -1.8771
 5997SOL     OW29449   4.623   3.501   8.665 -0.1192 -0.7375 -0.6833
 5997SOL    HW129450   4.589   3.548   8.742 -2.6620 -0.7988 -1.7636
 5997SOL    HW229451   4.544   3.495   8.611 -0.9746  2.7285  0.1942
 5998SOL     OW29452   1.656   4.294   7.896  0.4710  0.2985  0.5091
 5998SOL    HW129453   1.696   4.371   7.857  2.3156  0.4035  2.5844
 5998SOL    HW229454   1.720   4.228   7.868  1.1873  0.8727  0.8018
 5999SOL     OW29455   0.534   1.401   3.688 -0.0300  0.0693 -0.1928
 5999SOL    HW129456   0.554   1.494   3.694 -0.4494  0.0146  2.0868
 5999SOL    HW229457   0.515   1.385   3.780  1.3671 -2.2744 -0.2985
 6000SOL     OW29458   4.067   1.206   2.752 -0.7649  0.0158 -0.0834
 6000SOL    HW129459   4.080   1.113   2.738  1.9970  0.5081 -0.7650
 6000SOL    HW229460   4.131   1.224   2.820 -0.3040  0.2009 -0.5636
 6001SOL     OW29461   3.085   3.866   5.589  0.1099 -0.1143 -0.3333
 6001SOL    HW129462   3.024   3.902   5.525  0.6605  0.2072 -0.6735
 6001SOL    HW229463   3.126   3.948   5.617  0.9375 -0.3704 -0.7990
 6002SOL     OW29464   4.396   2.436   9.572  0.4882  0.5359 -0.0787
 6002SOL    HW129465   4.411   2.344   9.551 -2.3269  0.1213 -0.2767
 6002SOL    HW229466   4.490   2.453   9.585  0.8947 -1.4777 -0.2787
 6003SOL     OW29467   2.241   2.836   9.235  0.3167  0.0005 -0.1168
 6003SOL    HW129468   2.272   2.811   9.322  0.2750  0.0136 -0.0983
 6003SOL    HW229469   2.181   2.763   9.219  0.9823 -0.3324 -1.1148
 6004SOL     OW29470   0.630   0.659   9.937 -0.5849 -0.2323  0.0559
 6004SOL    HW129471   0.670   0.658  10.023 -0.5759  2.5426  0.0981
 6004SOL    HW229472   0.535   0.655   9.948 -0.6231 -2.2690 -1.0477
 6005SOL     OW29473   0.200   0.139   4.048  0.0245  0.2267 -0.2013
 6005SOL    HW129474   0.138   0.212   4.057  1.3693  1.0127  2.4743
 6005SOL    HW229475   0.156   0.078   3.988 -0.9648  0.6642  0.0859
 6006SOL     OW29476   0.591   0.348  12.280  0.4862 -0.4828 -0.2356
 6006SOL    HW129477   0.615   0.255  12.270 -1.4148 -1.0707  0.6111
 6006SOL    HW229478   0.640   0.403  12.218  0.5709  0.6298  0.8259
 6007SOL     OW29479   4.248   2.348   4.251  0.3591  0.0883 -1.0624
 6007SOL    HW129480   4.271   2.322   4.162  2.4259  1.4746 -0.9445
 6007SOL    HW229481   4.183   2.418   4.244 -0.1914 -0.3281 -0.1819
 6008SOL     OW29482   4.596   0.625   7.034 -0.1732  0.0861 -0.3049
 6008SOL    HW129483   4.547   0.707   7.025 -0.6803 -0.3078 -1.0974
 6008SOL    HW229484   4.553   0.591   7.112 -2.7150 -1.7950 -2.5499
 6009SOL     OW29485   0.257   4.122  11.562  0.0494 -0.0610 -0.1020
 6009SOL    HW129486   0.317   4.057  11.526 -0.7211  0.2048 -1.8421
 6009SOL    HW229487   0.214   4.155  11.484 -0.5945 -0.8861 -0.0887
 6010SOL     OW29488   2.825   2.721   7.372  0.3342  0.3028  0.1990
 6010SOL    HW129489   2.818   2.629   7.348 -0.2236  0.7485 -1.3103
 6010SOL    HW229490   2.848   2.763   7.289 -1.2944 -1.5794 -1.2130
 6011SOL     OW29491   1.008   1.754   4.252 -0.1971  0.1588 -0.2853
 6011SOL    HW129492   1.076   1.720   4.194 -1.6456  1.4421 -2.7397
 6011SOL    HW229493   1.029   1.845   4.271  0.5565  0.5822 -3.1881
 6012SOL     OW29494   1.679   0.542  14.006 -0.0626 -0.0595 -0.3414
 6012SOL    HW129495   1.744   0.576  13.945 -0.3052  1.4843  0.2505
 6012SOL    HW229496   1.730   0.471  14.043  1.6518  0.9159 -0.8329
 6013SOL     OW29497   3.187   2.163   5.488  0.2836  0.3662 -0.0044
 6013SOL    HW129498   3.276   2.190   5.464  1.1357 -1.3780  1.1427
 6013SOL    HW229499   3.177   2.078   5.445  0.5614  0.7528 -0.8218
 6014SOL     OW29500   2.349   0.120   6.487 -0.0162  0.3491 -0.2232
 6014SOL    HW129501   2.344   0.037   6.534  0.2541  0.5603  0.1736
 6014SOL    HW229502   2.324   0.088   6.400 -0.4157  0.7090 -0.2368
 6015SOL     OW29503   1.822   2.444   5.374 -0.0913  0.5652  0.3482
 6015SOL    HW129504   1.848   2.359   5.410  0.3827 -0.5875 -2.7632
 6015SOL    HW229505   1.783   2.489   5.450  1.8488  0.5055  1.3776
 6016SOL     OW29506   3.271   0.037   7.631 -0.0725  0.2778 -0.2143
 6016SOL    HW129507   3.256   4.700   7.559 -1.7287 -2.7969  2.7148
 6016SOL    HW229508   3.213   4.724   7.697 -1.6786  4.1334  0.5123
 6017SOL     OW29509   0.746   2.326   4.446  0.0194  0.2166  0.2145
 6017SOL    HW129510   0.655   2.299   4.463  0.7808 -2.4266  0.0416
 6017SOL    HW229511   0.796   2.277   4.511 -2.2610 -0.8426  1.1760
 6018SOL     OW29512   2.742   3.869  11.901  0.3346 -0.1368  0.3687
 6018SOL    HW129513   2.783   3.929  11.840  2.2684 -1.6965  0.1251
 6018SOL    HW229514   2.695   3.812  11.840  0.9952 -1.6863  1.2839
 6019SOL     OW29515   2.386   0.961   7.631 -0.0399  0.0863  0.4391
 6019SOL    HW129516   2.383   1.031   7.695 -0.9240  0.2393  0.2299
 6019SOL    HW229517   2.320   0.988   7.567  0.2309 -0.9607 -0.2881
 6020SOL     OW29518   1.647   1.892   5.831  0.0699  0.1606  0.6703
 6020SOL    HW129519   1.713   1.840   5.876 -0.3863  0.2127  1.4118
 6020SOL    HW229520   1.566   1.868   5.876  1.2092 -2.1043  1.4749
 6021SOL     OW29521   1.004   3.644   6.961  0.3158  0.0825  0.3249
 6021SOL    HW129522   0.992   3.609   7.050 -0.6544  1.9015  0.9074
 6021SOL    HW229523   0.914   3.665   6.937  0.6162 -0.7311 -1.5473
 6022SOL     OW29524   2.867   1.523   6.349 -0.0439  0.3620 -0.1201
 6022SOL    HW129525   2.832   1.477   6.272  0.0222 -1.8040  1.1470
 6022SOL    HW229526   2.892   1.463   6.419 -1.7938 -2.1415 -1.6143
 6023SOL     OW29527   4.619   2.777   5.643  0.7473  0.1799 -0.1103
 6023SOL    HW129528   4.706   2.767   5.681  0.3554  2.5712  1.3846
 6023SOL    HW229529   4.580   2.815   5.721  0.7316 -1.5272  0.7015
 6024SOL     OW29530   2.562   0.685   9.488  0.3383 -0.0432 -0.2392
 6024SOL    HW129531   2.543   0.778   9.474 -0.1958 -0.0878  0.1768
 6024SOL    HW229532   2.519   0.651   9.409 -0.8839  1.0033 -0.0166
 6025SOL     OW29533   0.316   2.919  15.392  0.6464 -0.1081  0.0054
 6025SOL    HW129534   0.274   2.922  15.478  0.1771 -0.2087 -0.2149
 6025SOL    HW229535   0.384   2.985  15.397  0.5008 -0.0375  1.1505
 6026SOL     OW29536   2.270   0.044   6.227 -0.1605  0.0703  0.6505
 6026SOL    HW129537   2.277   0.091   6.144 -0.0963 -0.4534  0.3553
 6026SOL    HW229538   2.244   4.684   6.189  1.1706  0.0179 -0.1489
 6027SOL     OW29539   3.342   3.805   4.409 -0.4212 -0.4450  0.3034
 6027SOL    HW129540   3.253   3.777   4.391 -0.8356  0.5109  0.8632
 6027SOL    HW229541   3.345   3.796   4.504  1.5868 -1.4545  0.1464
 6028SOL     OW29542   3.303   3.851   0.858 -0.1539  0.0673  0.1767
 6028SOL    HW129543   3.291   3.914   0.930  0.4040 -0.8575  1.0740
 6028SOL    HW229544   3.297   3.764   0.896 -0.6992 -0.4912 -1.1974
 6029SOL     OW29545   3.568   1.312   3.621  0.4555  0.5064 -0.0169
 6029SOL    HW129546   3.592   1.308   3.714  0.1024  0.5590  0.0793
 6029SOL    HW229547   3.638   1.366   3.585  1.4823 -0.8570 -0.0554
 6030SOL     OW29548   3.550   3.016   4.676  0.2208 -0.8491 -0.7431
 6030SOL    HW129549   3.471   2.981   4.716  0.2907 -0.2510 -0.0850
 6030SOL    HW229550   3.605   2.939   4.691  1.3222 -0.0128 -0.4818
 6031SOL     OW29551   4.714   0.829   8.125 -0.6231  0.2849  0.1869
 6031SOL    HW129552   0.065   0.769   8.133  1.6861  3.1388  0.0604
 6031SOL    HW229553   4.638   0.771   8.130 -0.0611 -0.4127  0.5961
 6032SOL     OW29554   3.113   2.143   2.150  0.4684 -0.0116 -0.0079
 6032SOL    HW129555   3.036   2.197   2.141  1.9760  2.3689  1.3937
 6032SOL    HW229556   3.068   2.060   2.164 -0.4625  0.6399  0.8450
 6033SOL     OW29557   2.380   2.324   5.455 -0.0173  0.3259  0.1522
 6033SOL    HW129558   2.287   2.345   5.447  0.4928  1.4304 -2.8450
 6033SOL    HW229559   2.387   2.259   5.385 -0.4461 -0.3976  0.7877
 6034SOL     OW29560   2.582   1.074   2.146  0.0531 -1.1375 -0.2292
 6034SOL    HW129561   2.563   1.083   2.052 -0.1870  1.2330  0.0411
 6034SOL    HW229562   2.662   1.126   2.152 -0.9968  0.6639 -1.7491
 6035SOL     OW29563   0.919   4.607   1.980 -0.0246 -0.0369  0.0087
 6035SOL    HW129564   0.991   4.631   2.038 -0.7762  0.2330  0.8352
 6035SOL    HW229565   0.943   4.532   1.926  2.5152  0.0306  1.0558
 6036SOL     OW29566   2.011   0.342   2.430 -0.5395 -0.1643 -0.3076
 6036SOL    HW129567   1.966   0.409   2.378  1.0112  0.9813 -0.1725
 6036SOL    HW229568   2.067   0.301   2.363 -2.7976 -0.3024 -2.0904
 6037SOL     OW29569   3.313   2.629  15.825 -0.4189  0.5408 -0.6011
 6037SOL    HW129570   3.391   2.589  15.786 -0.1713 -0.9887  1.4915
 6037SOL    HW229571   3.247   2.617  15.757  0.2354  1.1221 -1.3350
 6038SOL     OW29572   1.897   1.937   4.175 -0.6392  0.0145  0.1715
 6038SOL    HW129573   1.813   1.982   4.164 -0.3388 -0.2988 -3.4665
 6038SOL    HW229574   1.912   1.907   4.085  1.3420  1.7539 -0.0909
 6039SOL     OW29575   1.161   1.853   2.897  0.1507 -0.0408  0.4487
 6039SOL    HW129576   1.213   1.785   2.854 -1.5240 -0.4988 -0.8525
 6039SOL    HW229577   1.221   1.925   2.916 -1.0770  1.0087  0.3168
 6040SOL     OW29578   4.427   1.113   9.231  0.9790  0.2018  0.1949
 6040SOL    HW129579   4.433   1.024   9.196  5.5058  0.6525 -0.2345
 6040SOL    HW229580   4.415   1.086   9.322  2.9901 -0.2905  0.3078
 6041SOL     OW29581   2.331   1.954   2.917 -0.3076  0.1648  0.8143
 6041SOL    HW129582   2.283   2.004   2.983 -0.1238  0.9681  0.3413
 6041SOL    HW229583   2.418   1.989   2.935 -0.2828 -0.3408  1.6915
 6042SOL     OW29584   4.542   0.433   3.392 -0.0944 -0.4824  0.8753
 6042SOL    HW129585   4.455   0.435   3.352  1.6372 -0.0603 -2.8722
 6042SOL    HW229586   4.529   0.401   3.481 -1.9077 -2.0274  0.0502
 6043SOL     OW29587   3.800   2.932  17.393 -0.0428 -0.8363 -0.1235
 6043SOL    HW129588   3.825   3.025  17.394  0.3278 -0.9483  2.3213
 6043SOL    HW229589   3.849   2.898  17.468 -0.9078  0.5973  1.1004
 6044SOL     OW29590   0.725   0.680   4.849 -0.7391  0.5934  0.1701
 6044SOL    HW129591   0.663   0.653   4.917 -2.8208 -0.3510 -2.1481
 6044SOL    HW229592   0.765   0.753   4.897  1.0839  0.0115 -0.4542
 6045SOL     OW29593   3.877   2.896   5.844  0.0380 -0.0055 -0.1214
 6045SOL    HW129594   3.856   2.835   5.773 -0.3926  0.7340 -0.6336
 6045SOL    HW229595   3.866   2.981   5.800  0.3333  0.4426  0.6787
 6046SOL     OW29596   4.062   3.760   2.213  1.1735  0.5434  0.7062
 6046SOL    HW129597   3.975   3.733   2.241  0.0069  2.7169 -0.7645
 6046SOL    HW229598   4.038   3.764   2.120 -2.2426  0.6550  1.6040
 6047SOL     OW29599   4.396   4.096   9.418  0.0324  0.7646 -0.0035
 6047SOL    HW129600   4.329   4.165   9.414 -0.0272  0.8502  2.5810
 6047SOL    HW229601   4.425   4.082   9.328  0.1850  1.4048 -0.0523
 6048SOL     OW29602   0.523   3.890   5.463 -0.7762 -0.0645  0.4882
 6048SOL    HW129603   0.509   3.942   5.542 -0.5123 -1.0246  1.1630
 6048SOL    HW229604   0.449   3.916   5.408 -1.4175  0.8359  1.7780
 6049SOL     OW29605   1.868   3.331   5.958 -0.0365 -0.7153 -0.1367
 6049SOL    HW129606   1.836   3.353   6.045 -1.6245 -2.8911 -0.1854
 6049SOL    HW229607   1.962   3.317   5.970 -0.3186 -1.9260  0.7240
 6050SOL     OW29608   2.857   1.827   8.612 -0.3209  0.4185  0.0009
 6050SOL    HW129609   2.836   1.750   8.664  1.5120 -0.8348 -1.1430
 6050SOL    HW229610   2.914   1.875   8.672 -1.2977 -0.6772  1.8028
 6051SOL     OW29611   2.740   0.960   5.837  0.0711 -0.1122  0.1328
 6051SOL    HW129612   2.809   0.893   5.844  0.5295  0.5672  2.2031
 6051SOL    HW229613   2.690   0.949   5.918  0.3759  0.6026  0.4236
 6052SOL     OW29614   1.984   2.912   9.545 -0.1840 -0.1298 -0.0231
 6052SOL    HW129615   1.998   2.938   9.636  0.7289  0.7498 -0.4153
 6052SOL    HW229616   2.063   2.947   9.505 -0.7457 -0.3801 -1.3636
 6053SOL     OW29617   2.293   1.793   7.939 -0.2146 -0.5979  0.2906
 6053SOL    HW129618   2.298   1.727   8.008 -0.2695 -2.3591 -1.3858
 6053SOL    HW229619   2.199   1.797   7.920  0.3165 -1.8903 -2.6065
 6054SOL     OW29620   1.034   0.656   1.899  0.0246 -0.0443  0.1802
 6054SOL    HW129621   0.979   0.607   1.838 -2.0658  0.8068  1.3861
 6054SOL    HW229622   0.986   0.737   1.917 -0.8356 -0.7194  0.8907
 6055SOL     OW29623   4.447   4.009   6.944 -0.3164  0.3957  0.4578
 6055SOL    HW129624   4.414   4.063   6.873 -0.4504  1.5294  1.3959
 6055SOL    HW229625   4.539   4.032   6.926  0.1870 -1.1054  1.0849
 6056SOL     OW29626   3.106   0.149   3.108  0.3453 -0.7671 -0.1164
 6056SOL    HW129627   3.098   0.113   3.196 -0.7870  0.5713  0.3225
 6056SOL    HW229628   3.022   0.188   3.083  1.3039  1.2122 -0.3144
 6057SOL     OW29629   4.366   0.306   8.734 -0.1583 -0.1450 -0.3811
 6057SOL    HW129630   4.375   0.337   8.644  1.0017  1.6332  0.3293
 6057SOL    HW229631   4.434   0.239   8.735 -0.5865 -0.5600  0.3514
 6058SOL     OW29632   4.124   0.751  12.645  0.3655 -0.7032  0.8131
 6058SOL    HW129633   4.140   0.727  12.736 -1.0427  3.2023  2.0607
 6058SOL    HW229634   4.034   0.782  12.655  0.0310 -2.0175  1.9524
 6059SOL     OW29635   2.340   4.084  10.144  0.3940  0.2019  0.0238
 6059SOL    HW129636   2.304   4.003  10.179 -0.1277  0.4166 -0.0152
 6059SOL    HW229637   2.329   4.148  10.215 -1.1404 -1.8048  1.6194
 6060SOL     OW29638   3.910   3.763   6.506  0.0853 -0.2606 -0.4581
 6060SOL    HW129639   3.818   3.765   6.479  0.1849 -0.2465 -0.8050
 6060SOL    HW229640   3.907   3.703   6.580 -1.1306  0.8574  0.3978
 6061SOL     OW29641   1.812   3.748   5.097  0.0045  0.3438  0.1640
 6061SOL    HW129642   1.847   3.836   5.080 -1.6328  1.2925  1.7423
 6061SOL    HW229643   1.900   3.709   5.099  0.8268  2.1931  0.5515
 6062SOL     OW29644   4.174   1.616  17.183  0.1360  0.4077 -0.9536
 6062SOL    HW129645   4.186   1.703  17.221  1.0108  0.1638 -0.6791
 6062SOL    HW229646   4.191   1.557  17.256 -0.9743  2.0498  0.6243
 6063SOL     OW29647   3.188   0.734  17.133  0.0113  0.3813 -0.2889
 6063SOL    HW129648   3.099   0.725  17.166  0.0187 -0.4898 -0.5138
 6063SOL    HW229649   3.204   0.641  17.122  0.6010  0.7461 -2.4934
 6064SOL     OW29650   3.423   3.996   5.797 -0.4691  0.0931  0.1956
 6064SOL    HW129651   3.392   3.914   5.835  2.7126 -0.2628  1.9616
 6064SOL    HW229652   3.341   4.036   5.766 -0.3249 -0.6281 -1.1246
 6065SOL     OW29653   2.616   0.218   6.705  0.0131 -0.3762 -0.0949
 6065SOL    HW129654   2.666   0.299   6.714  0.8958 -0.9141 -0.0609
 6065SOL    HW229655   2.564   0.220   6.624  0.4139 -2.1551 -0.4108
 6066SOL     OW29656   2.910   4.677   5.267  0.3973 -0.0746  0.4099
 6066SOL    HW129657   2.909   0.005   5.347  0.1100 -0.3083  0.5587
 6066SOL    HW229658   2.863   4.600   5.299  0.8481 -0.7443 -0.5535
 6067SOL     OW29659   0.561   2.459  11.902  0.4241  0.0119  0.4090
 6067SOL    HW129660   0.526   2.494  11.821  1.4782  2.4630  1.0310
 6067SOL    HW229661   0.645   2.424  11.873 -0.0337 -3.5914  3.3304
 6068SOL     OW29662   3.737   0.767   9.688 -0.1165 -0.2116 -0.6268
 6068SOL    HW129663   3.752   0.677   9.715 -0.1032  0.0577  0.2557
 6068SOL    HW229664   3.825   0.804   9.688 -1.2547  2.5163  1.0516
 6069SOL     OW29665   3.627   0.146   0.272  0.2792  0.1635  0.3945
 6069SOL    HW129666   3.657   0.180   0.356  1.0472 -0.2052  0.2662
 6069SOL    HW229667   3.671   0.061   0.270  0.1559  0.0811  1.3052
 6070SOL     OW29668   1.419   0.174   0.057  0.8064 -0.3440  0.1695
 6070SOL    HW129669   1.341   0.220   0.027  0.6685  1.1473  2.8391
 6070SOL    HW229670   1.490   0.229   0.024 -0.1274  1.6440  1.4841
 6071SOL     OW29671   2.662   2.983   1.032 -0.3214 -0.0370  0.4757
 6071SOL    HW129672   2.707   2.928   0.967 -1.4633  0.5451 -0.8039
 6071SOL    HW229673   2.687   3.075   1.020 -4.0324  0.7847 -0.9701
 6072SOL     OW29674   3.891   3.379   4.714  0.3665 -1.0183  0.5086
 6072SOL    HW129675   3.880   3.285   4.699 -0.0091 -0.7258 -1.0006
 6072SOL    HW229676   3.973   3.391   4.761  0.9975 -2.5052 -0.2384
 6073SOL     OW29677   4.259   3.979  15.865 -0.3722 -0.0356 -0.1444
 6073SOL    HW129678   4.203   4.054  15.882  0.7613  0.8679 -0.4162
 6073SOL    HW229679   4.231   3.903  15.917  0.5421  0.5968  1.2689
 6074SOL     OW29680   2.634   0.167  16.451  0.6776  0.4575  0.1428
 6074SOL    HW129681   2.711   0.114  16.471  0.0011  0.1228  1.7927
 6074SOL    HW229682   2.645   0.195  16.360  0.9902  1.6567  0.5451
 6075SOL     OW29683   0.420   2.952   6.156  0.2572 -0.2561 -0.2107
 6075SOL    HW129684   0.438   2.881   6.094 -0.4721 -1.1915  0.6424
 6075SOL    HW229685   0.431   3.031   6.103 -0.6336  0.2070  0.2935
 6076SOL     OW29686   2.664   1.928  12.077 -0.2425  0.1999 -0.4100
 6076SOL    HW129687   2.725   1.980  12.128 -2.1038  1.0071  0.9822
 6076SOL    HW229688   2.726   1.873  12.029  2.2549  0.8097  2.1870
 6077SOL     OW29689   2.736   4.674   6.673  0.8757 -0.1978 -0.5128
 6077SOL    HW129690   2.687   0.032   6.678  1.1440  0.0450 -1.7061
 6077SOL    HW229691   2.715   4.636   6.758 -0.7362 -0.1782 -0.9047
 6078SOL     OW29692   3.089   0.089  15.821 -0.3364  0.0197  1.0543
 6078SOL    HW129693   3.060   0.032  15.749 -1.3930 -0.4283  1.8438
 6078SOL    HW229694   3.156   0.142  15.777  0.0038 -0.8359  0.5145
 6079SOL     OW29695   0.336   0.515   4.556  0.9286 -0.0389  0.4133
 6079SOL    HW129696   0.314   0.579   4.488  1.9390 -2.0502 -1.7951
 6079SOL    HW229697   0.272   0.445   4.545  2.2733 -1.2753  0.4960
 6080SOL     OW29698   4.682   3.555  15.752  0.5565 -0.3991  0.3419
 6080SOL    HW129699   4.713   3.610  15.824  1.5700 -0.5088 -0.0108
 6080SOL    HW229700   4.678   3.618  15.680  1.3018  0.8945  1.4253
 6081SOL     OW29701   1.268   3.609  13.919 -0.3478  0.1669 -0.5595
 6081SOL    HW129702   1.326   3.551  13.969 -2.2890 -1.7770 -0.5087
 6081SOL    HW229703   1.330   3.670  13.881  1.2219 -0.1264  1.5253
 6082SOL     OW29704   2.926   0.589   7.494  0.0755 -0.4195  0.2845
 6082SOL    HW129705   2.964   0.531   7.428 -0.0713 -2.1814  1.7535
 6082SOL    HW229706   2.864   0.536   7.544 -1.0989  1.2233  0.5817
 6083SOL     OW29707   3.444   3.711   6.911  0.3921 -0.2371  0.4296
 6083SOL    HW129708   3.472   3.646   6.846  0.5682  0.8161 -0.5365
 6083SOL    HW229709   3.490   3.676   6.987 -0.5434  1.0011  1.5584
 6084SOL     OW29710   0.158   4.008  13.260 -0.0757  0.0818  0.4066
 6084SOL    HW129711   0.140   3.924  13.217 -0.5283  0.6357 -0.4898
 6084SOL    HW229712   0.079   4.011  13.314  0.1639 -0.6211  0.8002
 6085SOL     OW29713   2.015   1.509  17.084  0.1907  0.2179  1.1762
 6085SOL    HW129714   1.995   1.455  17.007  0.0867  0.4006  1.0760
 6085SOL    HW229715   2.110   1.505  17.092  0.2843 -1.3261 -0.7232
 6086SOL     OW29716   0.189   3.644   0.563  0.5559 -0.2244  0.0658
 6086SOL    HW129717   0.221   3.734   0.570 -0.8302  0.1233  2.0383
 6086SOL    HW229718   0.095   3.658   0.573  0.7790  0.6105  0.9663
 6087SOL     OW29719   1.750   4.364  12.274 -0.4720  0.2154 -0.5903
 6087SOL    HW129720   1.751   4.432  12.341  0.1828  0.0808 -0.4667
 6087SOL    HW229721   1.705   4.301  12.330 -1.3023  1.5192  0.2179
 6088SOL     OW29722   1.787   2.849  12.544 -0.3199 -0.1548  0.1890
 6088SOL    HW129723   1.853   2.812  12.485  1.8745  0.9545  1.9592
 6088SOL    HW229724   1.818   2.939  12.551 -2.3675  0.3893  2.3311
 6089SOL     OW29725   3.034   0.434   7.260  0.2768  0.5636 -0.1184
 6089SOL    HW129726   3.083   0.492   7.203  1.0552  0.0680  0.0441
 6089SOL    HW229727   3.110   0.398   7.305 -0.0851 -1.2899 -0.9616
 6090SOL     OW29728   4.164   1.923  10.399  0.6043  0.4760 -0.2183
 6090SOL    HW129729   4.085   1.868  10.400  0.3282  0.8328 -3.2402
 6090SOL    HW229730   4.159   1.970  10.482  0.6711  1.5623 -0.8316
 6091SOL     OW29731   3.284   0.424   9.531 -0.0041  0.2095 -0.2291
 6091SOL    HW129732   3.313   0.348   9.581 -1.6465 -0.0696  0.2696
 6091SOL    HW229733   3.361   0.476   9.555  1.1480 -1.5331 -0.1296
 6092SOL     OW29734   4.495   1.569  15.635 -0.1893  0.5323  0.5066
 6092SOL    HW129735   4.569   1.615  15.674 -1.5594  0.3881  3.2900
 6092SOL    HW229736   4.423   1.632  15.635 -0.3759  0.3187  0.2532
 6093SOL     OW29737   4.127   0.623   2.385  0.2232  0.0993 -0.0034
 6093SOL    HW129738   4.049   0.572   2.365  0.6671  0.3357 -2.3193
 6093SOL    HW229739   4.197   0.558   2.381 -0.6950 -1.1055  3.2919
 6094SOL     OW29740   3.547   2.362  10.282  0.1471  0.5456  0.0876
 6094SOL    HW129741   3.456   2.375  10.308 -0.2650  0.1342 -1.1377
 6094SOL    HW229742   3.562   2.397  10.194  0.3640 -2.4598 -1.0684
 6095SOL     OW29743   4.576   2.645   2.683 -0.1348  0.0132  0.4544
 6095SOL    HW129744   4.565   2.557   2.649  0.4266  0.2642 -0.3626
 6095SOL    HW229745   4.594   2.691   2.601 -1.5307 -0.9899 -0.4107
 6096SOL     OW29746   2.931   4.567   2.524  0.4844  0.1777 -0.1878
 6096SOL    HW129747   2.999   4.602   2.582 -1.5904  4.1658 -0.1354
 6096SOL    HW229748   2.979   4.534   2.448  1.2216  0.4026  0.1847
 6097SOL     OW29749   3.513   1.209   1.418 -1.0802 -0.1258 -0.1486
 6097SOL    HW129750   3.593   1.219   1.470 -1.0227 -0.8474 -0.0883
 6097SOL    HW229751   3.455   1.244   1.485  0.7004 -1.1207  1.9453
 6098SOL     OW29752   4.225   0.462   3.009  0.3151 -0.4145  0.1712
 6098SOL    HW129753   4.160   0.400   2.976  0.5122  0.1696 -1.3408
 6098SOL    HW229754   4.259   0.486   2.922 -1.6133  0.5317 -0.3393
 6099SOL     OW29755   3.408   2.060   6.692 -0.1937 -0.5435  0.0359
 6099SOL    HW129756   3.488   2.063   6.744  0.1985 -1.3857 -0.5121
 6099SOL    HW229757   3.340   2.043   6.757  0.0764 -0.6067  0.3062
 6100SOL     OW29758   3.248   0.561   6.687 -0.6061 -0.5154 -0.6372
 6100SOL    HW129759   3.305   0.554   6.763 -0.2794  3.7113 -0.4882
 6100SOL    HW229760   3.283   0.637   6.639 -0.8685  0.1566  0.2248
 6101SOL     OW29761   2.832   4.015  15.689 -0.2215  0.0672 -0.0293
 6101SOL    HW129762   2.798   4.093  15.732 -1.2097 -0.6213  0.4443
 6101SOL    HW229763   2.772   3.940  15.691  0.3553 -0.3301  1.8722
 6102SOL     OW29764   0.205   4.703   5.718 -0.2460 -0.0944 -0.0640
 6102SOL    HW129765   0.236   4.673   5.633  0.1120  0.1988 -0.0370
 6102SOL    HW229766   0.113   4.710   5.690 -0.0048  0.3306 -0.7559
 6103SOL     OW29767   0.192   3.915  14.631 -0.1312 -0.4717 -0.1904
 6103SOL    HW129768   0.187   3.906  14.726 -0.7957 -0.2000 -0.2033
 6103SOL    HW229769   0.251   3.839  14.625 -1.7063 -1.7515  0.4493
 6104SOL     OW29770   4.178   0.533  14.767 -0.4156 -0.3722 -0.5593
 6104SOL    HW129771   4.216   0.576  14.844  0.0729 -0.3122 -0.8306
 6104SOL    HW229772   4.097   0.507  14.811 -0.4422  2.9446  1.3372
 6105SOL     OW29773   2.550   2.532  13.090  0.0079 -0.0393 -0.2878
 6105SOL    HW129774   2.552   2.509  12.998 -2.5760 -1.3104 -0.0348
 6105SOL    HW229775   2.582   2.454  13.135 -0.5233  0.2320  0.5685
 6106SOL     OW29776   3.181   0.613   7.093 -0.4962 -0.2363  0.1202
 6106SOL    HW129777   3.162   0.707   7.086 -1.9264 -0.4495  1.2268
 6106SOL    HW229778   3.270   0.617   7.059 -1.5019 -1.2467 -2.6523
 6107SOL     OW29779   3.796   2.900   7.734  0.2846 -0.0260 -0.5237
 6107SOL    HW129780   3.782   2.893   7.640 -0.5333 -2.4048 -0.2303
 6107SOL    HW229781   3.812   2.994   7.735  0.5106 -0.0710  0.1237
 6108SOL     OW29782   2.956   3.974  17.285 -0.1025  0.4414  0.4340
 6108SOL    HW129783   2.958   3.914  17.359 -0.1201 -1.0129 -0.7468
 6108SOL    HW229784   3.046   4.004  17.274  0.0516 -0.3549 -0.4166
 6109SOL     OW29785   1.773   4.179  17.631  0.1567  0.4229  0.3617
 6109SOL    HW129786   1.700   4.239  17.616  0.3981  0.3068 -1.2804
 6109SOL    HW229787   1.761   4.117  17.559 -1.4592 -0.2726  1.2227
 6110SOL     OW29788   4.672   1.605   0.425  0.0247 -0.3309  0.5330
 6110SOL    HW129789   0.020   1.543   0.413  0.6561  0.6167 -0.5772
 6110SOL    HW229790   4.625   1.582   0.345 -0.2358 -1.9024  1.1169
 6111SOL     OW29791   0.323   2.137   3.999  0.2617  0.2360  0.0824
 6111SOL    HW129792   0.362   2.111   3.916 -1.6240 -0.3148 -0.6388
 6111SOL    HW229793   0.229   2.130   3.983  0.3805 -1.2891  0.0086
 6112SOL     OW29794   2.365   0.855   5.078  0.3773  0.1873  0.2720
 6112SOL    HW129795   2.461   0.853   5.075  0.2572  0.1099 -3.5517
 6112SOL    HW229796   2.341   0.844   4.986 -0.5584  1.0121  0.4270
 6113SOL     OW29797   0.426   2.586   1.342 -0.0136  0.0025  0.0410
 6113SOL    HW129798   0.504   2.532   1.339 -0.1182 -0.1274 -0.3121
 6113SOL    HW229799   0.363   2.544   1.283  0.9491 -1.8978  0.3623
 6114SOL     OW29800   4.016   4.039   2.354 -0.0737  0.0354 -0.2018
 6114SOL    HW129801   3.984   3.992   2.278 -0.7739  1.4632 -0.7946
 6114SOL    HW229802   4.085   3.978   2.379 -0.5364 -0.5732 -0.4174
 6115SOL     OW29803   0.503   2.152   0.684  0.2326 -0.3189  0.0669
 6115SOL    HW129804   0.470   2.146   0.594 -0.5394  0.4557  0.2902
 6115SOL    HW229805   0.523   2.246   0.685  1.6967 -0.6573  1.8947
 6116SOL     OW29806   3.225   2.152  14.290 -0.1235 -0.3949  0.2179
 6116SOL    HW129807   3.245   2.062  14.318 -1.7228 -0.0564  2.4964
 6116SOL    HW229808   3.155   2.143  14.226 -0.6934  0.5420  0.7020
 6117SOL     OW29809   3.671   4.121   4.348  0.6705  0.3780  0.5456
 6117SOL    HW129810   3.585   4.163   4.362 -0.3018 -1.1416 -0.8990
 6117SOL    HW229811   3.674   4.058   4.420 -2.1866  1.0622  1.2846
 6118SOL     OW29812   4.569   2.197  11.949  0.7884  0.3855  0.0451
 6118SOL    HW129813   4.519   2.166  11.873  0.6303 -4.2419  2.0166
 6118SOL    HW229814   4.626   2.261  11.906 -0.0098 -0.1302 -1.7735
 6119SOL     OW29815   1.763   2.747   8.036  0.2298  0.1190 -0.5215
 6119SOL    HW129816   1.741   2.840   8.035 -0.3677 -0.0033  1.3953
 6119SOL    HW229817   1.744   2.720   7.946  0.5347  0.7801 -0.7826
 6120SOL     OW29818   0.903   2.379   3.975 -0.3048 -0.0631  0.4022
 6120SOL    HW129819   0.829   2.322   3.955  0.7918 -0.7979 -1.5531
 6120SOL    HW229820   0.873   2.410   4.061 -0.6472  1.7480 -0.3657
 6121SOL     OW29821   2.391   1.504   9.022 -0.4109  0.2612  0.5782
 6121SOL    HW129822   2.314   1.560   9.030 -0.6682 -0.0656  0.3562
 6121SOL    HW229823   2.367   1.437   9.085  1.2149  1.8573  2.9020
 6122SOL     OW29824   3.651   2.240  12.040 -0.1920  0.5165 -0.7653
 6122SOL    HW129825   3.708   2.255  12.115 -1.0447  0.4820 -0.1198
 6122SOL    HW229826   3.626   2.148  12.052  0.5937  0.4482  0.3488
 6123SOL     OW29827   2.629   0.627   3.140  0.8395  0.3517 -0.1478
 6123SOL    HW129828   2.548   0.580   3.159  0.4376  0.5690 -1.3529
 6123SOL    HW229829   2.585   0.708   3.116 -0.1231  0.7121  2.8026
 6124SOL     OW29830   1.666   2.495   3.495 -0.2953  0.3281 -0.5618
 6124SOL    HW129831   1.706   2.419   3.452 -1.8787 -1.1807  0.6421
 6124SOL    HW229832   1.579   2.478   3.460  0.6231 -3.6501 -0.9006
 6125SOL     OW29833   2.544   3.149  11.992  0.2988 -0.8960  0.5644
 6125SOL    HW129834   2.505   3.067  12.022  2.7853 -1.9557  0.9030
 6125SOL    HW229835   2.633   3.128  12.018  1.3658  1.1197 -1.5106
 6126SOL     OW29836   3.059   0.672  13.404  0.4380  0.9692  0.5761
 6126SOL    HW129837   3.136   0.705  13.359  0.3881  0.8156  0.3778
 6126SOL    HW229838   3.068   0.717  13.488  0.9846 -0.2028  1.1554
 6127SOL     OW29839   4.619   4.392  15.588 -0.0945 -0.7541 -0.0366
 6127SOL    HW129840   4.710   4.406  15.613 -0.4529  2.3895 -0.5274
 6127SOL    HW229841   4.626   4.346  15.504  0.3324  0.0891 -0.4582
 6128SOL     OW29842   0.553   3.443   3.901 -0.6486  0.2091 -0.3072
 6128SOL    HW129843   0.557   3.358   3.945 -2.4476  0.1265 -0.3280
 6128SOL    HW229844   0.511   3.419   3.818 -0.0283  1.4976 -0.9880
 6129SOL     OW29845   1.374   3.081   0.643  0.0629  0.5402  0.6679
 6129SOL    HW129846   1.438   3.013   0.661 -0.8553 -0.6837 -0.7736
 6129SOL    HW229847   1.387   3.084   0.548  1.9097 -1.4105  0.8543
 6130SOL     OW29848   2.112   4.546  14.752  0.3053 -0.0325 -0.4026
 6130SOL    HW129849   2.126   4.629  14.707 -2.1028  0.8340  0.4234
 6130SOL    HW229850   2.086   4.494  14.676  0.4009 -0.7871  0.0773
 6131SOL     OW29851   1.467   0.223   7.294 -0.4000  0.6378 -0.7812
 6131SOL    HW129852   1.538   0.238   7.232  1.7545  0.4611  1.5999
 6131SOL    HW229853   1.459   0.309   7.335  1.1498 -0.6691  2.2853
 6132SOL     OW29854   2.419   4.396  13.183 -0.0721 -0.5692  0.2980
 6132SOL    HW129855   2.347   4.456  13.161  0.5745 -0.3504 -1.2339
 6132SOL    HW229856   2.481   4.407  13.111 -1.4121  0.3346 -0.7232
 6133SOL     OW29857   4.660   4.023  15.645  0.1794  0.4871 -0.3711
 6133SOL    HW129858   4.708   3.988  15.720 -1.3732  3.3606  1.9453
 6133SOL    HW229859   0.003   4.028  15.576  2.6150 -2.7136  1.7322
 6134SOL     OW29860   3.191   0.671   1.535 -0.1487 -0.1909 -0.0849
 6134SOL    HW129861   3.153   0.583   1.539  0.7377 -0.6153 -0.9400
 6134SOL    HW229862   3.107   0.717   1.530 -0.6196 -1.3547 -2.4946
 6135SOL     OW29863   0.524   1.334   0.882  0.1827 -0.3886 -0.3794
 6135SOL    HW129864   0.528   1.293   0.796  2.2544  0.9031 -0.8758
 6135SOL    HW229865   0.610   1.373   0.894  1.0186 -1.8335 -1.6171
 6136SOL     OW29866   3.538   4.648   6.241  0.0018 -0.2048  0.1746
 6136SOL    HW129867   3.529   0.011   6.281  0.7291  0.6324 -1.5131
 6136SOL    HW229868   3.490   4.647   6.158 -0.8523  0.3719  0.6577
 6137SOL     OW29869   2.046   0.068   8.974  0.2768  0.6421  0.0018
 6137SOL    HW129870   2.011   4.711   8.938  0.2599  0.8477 -0.4476
 6137SOL    HW229871   2.014   0.130   8.908 -2.9888 -1.7509 -0.6435
 6138SOL     OW29872   2.965   4.296   8.490  0.2638  0.3042 -0.5767
 6138SOL    HW129873   2.940   4.246   8.568  0.0945  0.5252 -0.4876
 6138SOL    HW229874   3.047   4.257   8.460 -0.6253 -2.2705  0.2768
 6139SOL     OW29875   4.113   0.881   4.071  0.0739  0.3127 -0.2252
 6139SOL    HW129876   4.107   0.856   4.163  2.1291  0.6711 -0.0117
 6139SOL    HW229877   4.136   0.797   4.031  2.4593  0.2022  1.4145
 6140SOL     OW29878   2.152   1.945   8.792 -0.7491  0.7232  0.1171
 6140SOL    HW129879   2.090   1.873   8.795 -0.2321  0.3525  1.9392
 6140SOL    HW229880   2.163   1.955   8.698 -0.9114 -0.8733 -0.0765
 6141SOL     OW29881   3.160   2.731   3.310  0.0047  0.3404  0.0013
 6141SOL    HW129882   3.253   2.718   3.289 -0.2801  1.6940 -2.1877
 6141SOL    HW229883   3.119   2.660   3.261 -0.1256 -1.4654  2.7575
 6142SOL     OW29884   4.162   3.206   3.626 -0.5805 -0.1999  0.5316
 6142SOL    HW129885   4.207   3.148   3.565 -3.2728 -0.6741 -1.0120
 6142SOL    HW229886   4.222   3.280   3.621 -0.0129 -0.5670  1.9973
 6143SOL     OW29887   1.467   0.290   8.000  0.9639  0.0397 -0.0796
 6143SOL    HW129888   1.547   0.246   8.029 -0.2294 -2.5763 -0.6998
 6143SOL    HW229889   1.493   0.381   8.016  1.3290  0.0051 -0.4743
 6144SOL     OW29890   2.523   3.417   5.386  0.5175 -0.4584 -0.0967
 6144SOL    HW129891   2.557   3.490   5.437  0.6324 -0.6813  0.1444
 6144SOL    HW229892   2.512   3.354   5.457  0.9582 -0.9989 -0.5094
 6145SOL     OW29893   3.345   3.358  11.255  0.6983  0.5484  0.0493
 6145SOL    HW129894   3.354   3.453  11.266  0.9821  0.5424 -0.1234
 6145SOL    HW229895   3.256   3.341  11.285  0.6743  0.8130  0.1364
 6146SOL     OW29896   0.530   1.107  13.423  0.0193 -0.0234 -0.0684
 6146SOL    HW129897   0.473   1.078  13.494 -1.0378  2.1655 -0.0509
 6146SOL    HW229898   0.566   1.191  13.451  1.6786 -0.4229 -1.0054
 6147SOL     OW29899   0.807   3.877   1.824 -0.4324 -0.1167  0.5648
 6147SOL    HW129900   0.872   3.848   1.760 -1.4037  0.5118 -0.7116
 6147SOL    HW229901   0.789   3.796   1.871 -3.6249  1.6479  2.3948
 6148SOL     OW29902   0.926   1.384   3.879 -0.1064  0.2737  0.5995
 6148SOL    HW129903   0.998   1.321   3.869  0.2240  1.0210 -1.5641
 6148SOL    HW229904   0.879   1.332   3.945 -2.6034  0.7245 -0.8744
 6149SOL     OW29905   3.575   2.109   8.335 -0.4442 -0.4103 -0.9641
 6149SOL    HW129906   3.486   2.097   8.368 -0.1312  0.9661  0.3608
 6149SOL    HW229907   3.556   2.125   8.243 -0.8379 -1.1591 -1.0086
 6150SOL     OW29908   0.167   4.261   6.440  0.7761 -0.1696 -0.2277
 6150SOL    HW129909   0.194   4.171   6.460  0.3066 -0.2342  0.1143
 6150SOL    HW229910   0.092   4.232   6.387 -0.5709  3.1085 -0.1229
 6151SOL     OW29911   2.464   0.098   6.914 -0.0520  0.0920  0.2645
 6151SOL    HW129912   2.482   0.191   6.928 -1.5262  0.4100  0.0046
 6151SOL    HW229913   2.532   0.073   6.852 -0.7137 -3.5878  0.9995
 6152SOL     OW29914   2.481   3.318   2.114 -0.5998 -0.4463  0.1344
 6152SOL    HW129915   2.413   3.375   2.077 -0.0819 -0.1738 -0.3872
 6152SOL    HW229916   2.430   3.253   2.163  0.9576 -1.1431  0.8388
 6153SOL     OW29917   1.536   0.048   3.201 -0.2605  0.0271 -0.0962
 6153SOL    HW129918   1.611   0.028   3.145  1.7803  0.4447  2.5315
 6153SOL    HW229919   1.558   0.133   3.240 -2.2383  0.5747 -0.1521
 6154SOL     OW29920   0.928   4.343  17.483 -0.4625  0.3171 -0.6933
 6154SOL    HW129921   0.916   4.370  17.392 -1.4775 -1.7646 -1.1846
 6154SOL    HW229922   0.896   4.427  17.517 -1.7805 -0.8114  0.8539
 6155SOL     OW29923   0.813   3.902   9.241 -0.0273  0.2087  0.0672
 6155SOL    HW129924   0.803   3.820   9.290 -0.0770  0.6454  0.7788
 6155SOL    HW229925   0.768   3.963   9.299 -1.1858  0.5199 -1.1528
 6156SOL     OW29926   1.276   3.410   8.499  0.9158  0.0353  0.0309
 6156SOL    HW129927   1.287   3.503   8.518  0.0244  0.4904 -1.6505
 6156SOL    HW229928   1.199   3.410   8.443 -0.1065 -1.1886  1.4324
 6157SOL     OW29929   1.431   3.303   8.290  0.5610  0.9921 -0.0986
 6157SOL    HW129930   1.366   3.336   8.352  1.0079  0.0353  0.8702
 6157SOL    HW229931   1.467   3.380   8.245 -0.1430  1.7635  0.6386
 6158SOL     OW29932   2.092   3.942   9.922  0.2119 -0.1908  0.5503
 6158SOL    HW129933   2.020   3.988   9.965 -1.2954 -1.8265 -0.2733
 6158SOL    HW229934   2.119   4.011   9.861  1.9199 -0.7799  0.6354
 6159SOL     OW29935   2.442   0.083   3.030  0.4020 -0.2128  0.2316
 6159SOL    HW129936   2.505   0.019   3.064  1.0704  0.5517  0.4303
 6159SOL    HW229937   2.489   0.166   3.037 -2.7378  1.2585  3.9120
 6160SOL     OW29938   1.014   2.316  12.046  0.6832  0.2039  0.0977
 6160SOL    HW129939   1.031   2.332  12.139 -1.3487  1.0922  0.3053
 6160SOL    HW229940   0.957   2.240  12.042  1.1439 -0.3360  3.9848
 6161SOL     OW29941   4.564   4.713   3.781  0.1286 -0.2135  0.0057
 6161SOL    HW129942   4.483   0.041   3.783  0.5435  0.4753 -1.1760
 6161SOL    HW229943   4.548   4.638   3.840  1.9403  2.2204  3.5920
 6162SOL     OW29944   1.711   1.755  10.218 -0.2552  0.8575 -0.1607
 6162SOL    HW129945   1.715   1.687  10.285  2.1746  1.9594  0.8009
 6162SOL    HW229946   1.623   1.782  10.245  0.1874  1.3680  0.7881
 6163SOL     OW29947   2.401   1.361   9.424 -0.3227  0.0184  0.0410
 6163SOL    HW129948   2.434   1.441   9.465 -0.9928 -0.3625  1.3267
 6163SOL    HW229949   2.488   1.325   9.409  0.7114  2.4972  0.1212
 6164SOL     OW29950   2.921   2.072  14.886 -0.4776 -0.5808  0.4054
 6164SOL    HW129951   2.844   2.116  14.922 -1.1861 -0.8807 -0.7634
 6164SOL    HW229952   2.912   1.991  14.936 -4.2853  0.5808  1.6041
 6165SOL     OW29953   2.815   2.170   7.397  0.5648 -0.6232 -0.1166
 6165SOL    HW129954   2.818   2.182   7.492  3.3328 -1.4032 -0.1019
 6165SOL    HW229955   2.735   2.118   7.400  0.2125 -0.0202  0.9128
 6166SOL     OW29956   1.498   2.945   4.564 -0.1835 -0.2077  0.1899
 6166SOL    HW129957   1.522   3.001   4.637  0.8104 -0.6979  0.2413
 6166SOL    HW229958   1.565   2.876   4.571  0.2636  0.2912  0.8122
 6167SOL     OW29959   0.430   0.498   7.976  0.0542  0.4362  0.5413
 6167SOL    HW129960   0.461   0.580   7.937 -1.4002 -0.4021 -2.4440
 6167SOL    HW229961   0.439   0.516   8.069 -0.7293  1.0307  0.5042
 6168SOL     OW29962   3.505   3.252   1.138 -0.4685 -0.1910  0.2252
 6168SOL    HW129963   3.444   3.182   1.162 -0.2120 -0.6890 -0.5603
 6168SOL    HW229964   3.489   3.323   1.199  0.8071  1.1834 -1.0276
 6169SOL     OW29965   3.322   2.075   8.461  0.0021  0.2789  0.2997
 6169SOL    HW129966   3.289   2.126   8.535 -0.3884  0.7734 -0.2156
 6169SOL    HW229967   3.285   1.990   8.482  1.0858 -0.4934 -0.9323
 6170SOL     OW29968   2.490   1.106  17.215  0.2155 -0.0499  0.2626
 6170SOL    HW129969   2.492   1.056  17.297 -0.6590 -0.2657  0.1458
 6170SOL    HW229970   2.468   1.033  17.158  4.1382 -0.7652 -0.3110
 6171SOL     OW29971   1.968   2.583   9.853 -0.4230  1.0122  0.2589
 6171SOL    HW129972   1.904   2.563   9.922 -0.0972 -0.2046  0.2082
 6171SOL    HW229973   1.960   2.678   9.854  2.5276  1.2857 -1.5818
 6172SOL     OW29974   3.447   2.478   2.652 -0.2861  0.1396 -0.7741
 6172SOL    HW129975   3.508   2.433   2.593  2.0766 -0.2510  1.9803
 6172SOL    HW229976   3.372   2.451   2.599  0.0386 -1.8357 -0.2219
 6173SOL     OW29977   3.375   3.538   5.829  0.0545 -0.0349 -0.0365
 6173SOL    HW129978   3.337   3.558   5.744 -1.5725 -1.0331  0.4473
 6173SOL    HW229979   3.343   3.611   5.882  1.4666  0.3811  0.2428
 6174SOL     OW29980   3.829   1.680   6.071  0.6064  0.1382  0.0160
 6174SOL    HW129981   3.844   1.614   6.002 -0.4471 -0.0645 -0.0231
 6174SOL    HW229982   3.840   1.619   6.144  0.1740 -1.3405 -1.1418
 6175SOL     OW29983   3.061   2.360   3.961 -0.4334  0.1563 -0.3947
 6175SOL    HW129984   3.069   2.265   3.963  2.2140  0.4317  2.1340
 6175SOL    HW229985   3.134   2.386   3.905  0.1872 -2.0239 -0.5722
 6176SOL     OW29986   3.533   2.253   5.961  0.4854  0.3038 -0.4939
 6176SOL    HW129987   3.535   2.348   5.959  0.4120  0.2646 -2.0845
 6176SOL    HW229988   3.553   2.231   6.052 -1.3884  0.2716 -0.0795
 6177SOL     OW29989   1.206   0.491  14.081  0.4005 -0.2221 -0.0274
 6177SOL    HW129990   1.224   0.579  14.048  1.0076 -1.0238 -1.8079
 6177SOL    HW229991   1.288   0.450  14.053 -0.2847 -1.9536  0.4820
 6178SOL     OW29992   0.112   3.723   4.965 -0.1079  0.1276  0.4195
 6178SOL    HW129993   0.182   3.739   4.902 -0.1788 -2.3430 -0.3027
 6178SOL    HW229994   0.108   3.804   5.015 -0.5799 -0.8559  1.9804
 6179SOL     OW29995   4.369   1.126   2.125 -0.4440 -0.3826 -0.1269
 6179SOL    HW129996   4.363   1.182   2.203 -0.3946 -0.1027 -0.3242
 6179SOL    HW229997   4.308   1.175   2.070  0.7434 -0.9526 -1.9398
 6180SOL     OW29998   2.944   1.896   8.103 -0.1601  0.6784 -0.0017
 6180SOL    HW129999   3.020   1.916   8.158 -0.4444  3.4272 -0.6252
 6180SOL    HW230000   2.872   1.909   8.163 -0.5619  1.3401 -0.6233
 6181SOL     OW30001   2.854   3.120   7.205  0.2361  0.5530  0.1773
 6181SOL    HW130002   2.904   3.162   7.136  1.2227 -1.2235 -0.1939
 6181SOL    HW230003   2.879   3.028   7.198 -0.4641  0.3615  0.2036
 6182SOL     OW30004   1.397   1.259   8.899 -0.0476 -0.2477 -0.1557
 6182SOL    HW130005   1.381   1.345   8.937 -1.1867 -1.2183  1.5725
 6182SOL    HW230006   1.491   1.262   8.883  0.2126  3.1390  2.1776
 6183SOL     OW30007   0.468   0.214   6.260  0.3606  0.2818 -0.2168
 6183SOL    HW130008   0.484   0.228   6.167  1.4486 -1.0155 -0.2198
 6183SOL    HW230009   0.503   0.128   6.280 -1.9556 -0.5760  0.1989
 6184SOL     OW30010   2.561   4.720   2.790  0.2043 -0.4018 -0.4543
 6184SOL    HW130011   2.508   4.683   2.861 -1.3968  0.4496 -1.1903
 6184SOL    HW230012   2.566   4.643   2.734  1.8760 -1.0244  0.5800
 6185SOL     OW30013   0.803   3.300   6.118  0.3752  0.1879  0.0677
 6185SOL    HW130014   0.734   3.329   6.178 -0.8289  1.6955 -2.0461
 6185SOL    HW230015   0.791   3.206   6.117  1.5638  0.0306  0.0093
 6186SOL     OW30016   0.597   3.635   6.121  0.3203  0.0095  0.0792
 6186SOL    HW130017   0.554   3.560   6.079  0.8676 -0.0827 -0.3184
 6186SOL    HW230018   0.526   3.698   6.116  0.8859  0.6682  0.4084
 6187SOL     OW30019   2.433   0.847   6.049 -0.1705  0.2117 -0.4254
 6187SOL    HW130020   2.353   0.828   6.099  2.0487 -1.1509  2.6390
 6187SOL    HW230021   2.401   0.823   5.962 -1.0256  2.2267 -0.6627
 6188SOL     OW30022   2.284   1.855  11.536  0.2883 -0.1091  0.0389
 6188SOL    HW130023   2.200   1.876  11.495  0.0656 -1.8841 -0.4342
 6188SOL    HW230024   2.300   1.767  11.500 -2.0910 -0.3851 -0.3386
 6189SOL     OW30025   1.947   2.217   5.758  0.1499  0.2434  0.0266
 6189SOL    HW130026   1.856   2.199   5.783  0.5155  0.5396  1.5638
 6189SOL    HW230027   1.985   2.134   5.786 -0.6897  0.0730  0.6333
 6190SOL     OW30028   3.280   0.466   7.391  0.4177 -0.6130 -0.3808
 6190SOL    HW130029   3.338   0.502   7.323  0.5806  0.9241  0.5811
 6190SOL    HW230030   3.298   0.519   7.468 -0.5668  1.6938 -1.7424
 6191SOL     OW30031   1.295   0.660   7.248  0.3235  0.1289 -0.1708
 6191SOL    HW130032   1.364   0.604   7.213 -2.4665 -1.2063 -3.4477
 6191SOL    HW230033   1.300   0.637   7.341  0.7980 -0.5078 -0.3536
 6192SOL     OW30034   2.560   1.091   6.724 -0.2790 -0.1690 -0.2713
 6192SOL    HW130035   2.549   1.008   6.678  0.4588 -0.2621 -0.2857
 6192SOL    HW230036   2.592   1.053   6.806 -0.5226  0.3177  0.0511
 6193SOL     OW30037   0.514   0.648   3.801  0.2467 -0.0185  0.2168
 6193SOL    HW130038   0.572   0.599   3.859  0.7768  1.8103  1.2632
 6193SOL    HW230039   0.584   0.706   3.770 -0.6328  0.1513 -1.4180
 6194SOL     OW30040   1.008   2.898   2.931  0.2385 -0.3806 -0.0788
 6194SOL    HW130041   0.987   2.870   2.842 -2.3351  0.7689  0.1915
 6194SOL    HW230042   0.979   2.988   2.917  0.3027 -0.3203  0.1823
 6195SOL     OW30043   4.259   0.111   4.962 -0.5787 -0.2395  0.8112
 6195SOL    HW130044   4.250   0.066   5.046 -1.2911  0.5517  1.1628
 6195SOL    HW230045   4.185   0.168   4.940  0.9476 -0.1755 -4.2611
 6196SOL     OW30046   4.182   2.925  13.723 -0.2284  0.7775  0.3962
 6196SOL    HW130047   4.111   2.973  13.766 -2.6323 -0.6374 -1.9477
 6196SOL    HW230048   4.138   2.891  13.645 -0.4347  0.3001  0.7175
 6197SOL     OW30049   0.336   3.272   1.654  0.3810 -0.3670 -0.1821
 6197SOL    HW130050   0.303   3.182   1.661  0.2512 -0.4766 -2.2366
 6197SOL    HW230051   0.278   3.299   1.583  1.5507  1.1807 -0.5343
 6198SOL     OW30052   0.305   4.666  14.671 -0.0770  0.0282 -0.9269
 6198SOL    HW130053   0.348   4.590  14.711 -0.6917 -0.6350 -1.5333
 6198SOL    HW230054   0.258   4.706  14.744 -0.2246 -1.0108 -0.4441
 6199SOL     OW30055   3.753   3.812  10.710  0.1431  0.1090 -0.7010
 6199SOL    HW130056   3.793   3.727  10.691 -1.7098 -1.1124  0.9174
 6199SOL    HW230057   3.665   3.788  10.739 -0.9219  2.5862 -1.9188
 6200SOL     OW30058   2.070   1.563   9.234  0.4037 -0.2999  0.2394
 6200SOL    HW130059   2.087   1.469   9.226  0.3234 -0.1605 -1.4770
 6200SOL    HW230060   2.090   1.580   9.326  1.3317  0.7294 -0.1494
 6201SOL     OW30061   0.230   3.653   1.788 -0.0034  0.2189  0.4222
 6201SOL    HW130062   0.193   3.709   1.857 -0.2528  1.3850 -0.6593
 6201SOL    HW230063   0.157   3.592   1.782  0.3449 -0.4008  2.2965
 6202SOL     OW30064   0.622   0.506   2.275 -0.2108  0.0452 -0.3543
 6202SOL    HW130065   0.542   0.489   2.226  0.7114 -0.9804 -1.4795
 6202SOL    HW230066   0.679   0.489   2.200 -0.1305 -0.5875 -0.1451
 6203SOL     OW30067   4.216   2.983   0.053  0.4704  0.0638  0.3925
 6203SOL    HW130068   4.247   2.903   0.095  0.6689 -0.2097 -0.2776
 6203SOL    HW230069   4.225   3.045   0.125  0.7306  0.8316 -0.2964
 6204SOL     OW30070   2.063   0.667  15.757  0.0408 -0.5138 -0.5826
 6204SOL    HW130071   2.143   0.712  15.730 -0.9314  1.2270 -0.5085
 6204SOL    HW230072   2.097   0.633  15.840  1.2677  1.0303 -0.4589
 6205SOL     OW30073   1.751   2.132   7.943 -0.5877 -0.6888  0.2712
 6205SOL    HW130074   1.833   2.147   7.898 -0.2876  2.2285  1.7398
 6205SOL    HW230075   1.725   2.224   7.955 -1.1760 -1.0202  1.6098
 6206SOL     OW30076   1.028   4.588   7.749  0.4439  0.6880  0.0383
 6206SOL    HW130077   0.972   4.556   7.678 -0.3738 -1.1846  1.5334
 6206SOL    HW230078   1.006   4.680   7.738 -1.3367  0.1144 -1.2222
 6207SOL     OW30079   4.524   1.780  13.953  0.4028  0.3210 -0.2560
 6207SOL    HW130080   4.571   1.783  14.036 -0.6062  0.3094  0.3214
 6207SOL    HW230081   4.435   1.776  13.990 -0.1535 -0.3973 -1.6592
 6208SOL     OW30082   1.607   1.962  14.012 -0.4555  0.1369  0.1586
 6208SOL    HW130083   1.693   2.004  14.008 -1.3699  2.0089  0.0279
 6208SOL    HW230084   1.608   1.927  14.101 -0.1624  1.8511  0.8432
 6209SOL     OW30085   0.587   0.904   8.398  0.0244  0.4419 -0.0629
 6209SOL    HW130086   0.554   0.851   8.324 -0.2636  0.7941 -0.1856
 6209SOL    HW230087   0.637   0.833   8.437  0.4644  0.5566 -0.4186
 6210SOL     OW30088   2.558   3.810   2.392  0.2735 -0.1432 -0.3871
 6210SOL    HW130089   2.585   3.901   2.383 -0.2905  0.0702  0.0680
 6210SOL    HW230090   2.630   3.768   2.439 -0.6337 -0.2604  0.8884
 6211SOL     OW30091   2.237   4.414   7.118  0.6960  0.1833 -0.1258
 6211SOL    HW130092   2.308   4.463   7.075 -0.7399 -0.0060 -2.7029
 6211SOL    HW230093   2.259   4.324   7.093 -1.5662  0.2223 -2.2708
 6212SOL     OW30094   2.034   1.825   5.216  0.4611  0.5047 -0.0892
 6212SOL    HW130095   2.065   1.734   5.220  1.2523  0.7620 -0.3341
 6212SOL    HW230096   1.999   1.841   5.304 -1.5220  1.2566 -1.0119
 6213SOL     OW30097   4.244   0.862  10.042 -0.0942 -0.0067 -0.4154
 6213SOL    HW130098   4.279   0.874  10.130 -2.0835 -1.1437  0.5145
 6213SOL    HW230099   4.260   0.945   9.997 -0.4479  1.3140  1.8775
 6214SOL     OW30100   3.553   2.298   2.227  0.1697  0.3928  0.2515
 6214SOL    HW130101   3.575   2.282   2.319  1.5808  0.8433 -0.0009
 6214SOL    HW230102   3.465   2.262   2.219 -0.0762  0.7994  1.2242
 6215SOL     OW30103   0.033   1.139   5.138 -0.1609 -0.1579 -0.2594
 6215SOL    HW130104   0.005   1.227   5.166  1.9766  0.7322 -0.9105
 6215SOL    HW230105   0.128   1.144   5.148 -0.2801  0.4722  0.6090
 6216SOL     OW30106   0.849   3.187   3.818  0.0344 -0.0378  0.0950
 6216SOL    HW130107   0.940   3.216   3.812 -0.4297  1.2418 -0.9867
 6216SOL    HW230108   0.878   3.125   3.884  1.7369 -1.6648 -2.1725
 6217SOL     OW30109   2.425   1.658   7.367  0.4537 -0.1141 -0.5524
 6217SOL    HW130110   2.401   1.747   7.341 -1.6713 -0.3138  0.7438
 6217SOL    HW230111   2.429   1.614   7.282  1.1776 -0.8723 -0.1267
 6218SOL     OW30112   3.983   3.718   3.503  0.4646 -0.2256 -0.0829
 6218SOL    HW130113   4.045   3.703   3.575 -0.9721 -0.6301  1.0863
 6218SOL    HW230114   3.956   3.807   3.528  1.1952  0.7823 -2.8621
 6219SOL     OW30115   0.383   3.865   2.201  0.1917  0.0480 -0.1314
 6219SOL    HW130116   0.443   3.870   2.126 -0.2082  0.4637 -0.4170
 6219SOL    HW230117   0.344   3.778   2.189 -1.7562  0.9130 -0.0564
 6220SOL     OW30118   4.365   2.737  12.188 -0.2772  0.0148  0.5878
 6220SOL    HW130119   4.426   2.748  12.115 -0.2026 -0.8150  0.5177
 6220SOL    HW230120   4.427   2.702  12.252  0.2202 -0.7218 -0.2856
 6221SOL     OW30121   1.348   3.629   8.688  0.0450  0.3067  0.4490
 6221SOL    HW130122   1.440   3.608   8.669  0.1072  1.5061 -0.5356
 6221SOL    HW230123   1.347   3.707   8.633  0.2896 -0.2263 -0.3285
 6222SOL     OW30124   3.824   2.023  12.188 -1.0185 -0.3660  0.2232
 6222SOL    HW130125   3.827   1.927  12.192  3.0183 -0.1515  2.9584
 6222SOL    HW230126   3.808   2.047  12.279 -0.8089  1.5473 -0.2398
 6223SOL     OW30127   0.737   3.753   6.948 -0.4229  0.2424 -0.0810
 6223SOL    HW130128   0.646   3.781   6.945  0.1892  2.3911  1.8094
 6223SOL    HW230129   0.734   3.677   7.005 -2.0223  1.4084  1.3764
 6224SOL     OW30130   0.800   2.527   9.061 -0.1076  0.5201 -0.0820
 6224SOL    HW130131   0.716   2.539   9.016  0.8072 -0.1240 -1.9794
 6224SOL    HW230132   0.770   2.501   9.148 -0.1642  2.6540  0.5448
 6225SOL     OW30133   1.660   0.842  17.090 -0.4109  0.7177  0.5123
 6225SOL    HW130134   1.683   0.834  16.997  0.9092 -0.6261  0.9525
 6225SOL    HW230135   1.654   0.751  17.118 -0.9227  0.3299 -0.8805
 6226SOL     OW30136   1.762   2.526   1.062  0.3027  0.2924  0.6549
 6226SOL    HW130137   1.846   2.519   1.107 -0.3765 -0.6854  1.7769
 6226SOL    HW230138   1.702   2.499   1.132  0.9488 -0.3347  0.9643
 6227SOL     OW30139   3.120   0.594  13.083  0.1538 -0.4966 -0.0966
 6227SOL    HW130140   3.111   0.606  12.989  1.0627  0.5696 -0.0513
 6227SOL    HW230141   3.154   0.505  13.084  2.2837  0.3235 -0.9134
 6228SOL     OW30142   2.353   1.190   2.109  0.4544 -0.5975 -0.0762
 6228SOL    HW130143   2.431   1.158   2.154 -0.7817 -1.3977  1.4844
 6228SOL    HW230144   2.378   1.152   2.024  1.6509  0.2509 -0.0871
 6229SOL     OW30145   2.576   1.889  16.302  0.6965 -0.3637 -0.6378
 6229SOL    HW130146   2.577   1.949  16.376 -0.0614  0.1316 -1.0280
 6229SOL    HW230147   2.641   1.924  16.242 -1.9324  0.9569 -2.7519
 6230SOL     OW30148   4.399   1.193   6.894  0.8357 -0.0912 -0.5154
 6230SOL    HW130149   4.438   1.279   6.910  0.3817 -0.1405  0.8605
 6230SOL    HW230150   4.465   1.160   6.833  1.0206  1.0643 -0.9279
 6231SOL     OW30151   2.215   2.238  16.900  0.2147  0.3970 -0.2937
 6231SOL    HW130152   2.131   2.200  16.875  1.9367 -3.4336 -0.3319
 6231SOL    HW230153   2.193   2.291  16.977 -4.1084 -2.3627  0.3651
 6232SOL     OW30154   0.594   3.220   3.690  0.3050 -0.4769 -0.4388
 6232SOL    HW130155   0.676   3.217   3.741  1.0792  0.9542 -1.5866
 6232SOL    HW230156   0.611   3.168   3.611 -4.8625 -0.6432 -1.3802
 6233SOL     OW30157   0.514   3.956   1.962  0.6565 -0.7183 -0.7491
 6233SOL    HW130158   0.437   4.001   1.928  1.0447 -0.4760 -1.2929
 6233SOL    HW230159   0.536   3.904   1.885  1.4858 -0.5482 -0.6291
 6234SOL     OW30160   0.275   3.543   6.243 -0.1427  0.1227  0.1101
 6234SOL    HW130161   0.305   3.578   6.326 -1.1264  0.5813  0.2735
 6234SOL    HW230162   0.280   3.618   6.184 -0.5126  0.2647  0.2610
 6235SOL     OW30163   4.283   0.879  14.249  0.2914 -0.2505  0.0125
 6235SOL    HW130164   4.288   0.827  14.168 -0.9121  0.9534 -0.8441
 6235SOL    HW230165   4.238   0.823  14.312 -0.8310  0.4679 -0.1466
 6236SOL     OW30166   2.593   3.137   3.550  0.2098 -0.9125  0.6315
 6236SOL    HW130167   2.506   3.106   3.523 -0.6065  0.6626  1.4437
 6236SOL    HW230168   2.612   3.063   3.608  0.5094  1.0038  2.9660
 6237SOL     OW30169   4.223   1.977   5.718 -0.0044 -0.2901  0.6725
 6237SOL    HW130170   4.150   1.926   5.753 -1.1715  0.7776 -0.2031
 6237SOL    HW230171   4.168   2.046   5.682  1.3234  0.2736 -0.2608
 6238SOL     OW30172   0.595   0.272   1.958 -0.2784  0.2004  0.1558
 6238SOL    HW130173   0.529   0.336   1.986 -0.8127  0.3679 -1.5224
 6238SOL    HW230174   0.623   0.231   2.041 -3.1861 -1.4425  0.3346
 6239SOL     OW30175   3.723   2.712  10.785  0.1972  0.4116 -0.3656
 6239SOL    HW130176   3.641   2.695  10.832  0.3029 -0.7609 -0.5819
 6239SOL    HW230177   3.716   2.671  10.698 -0.8974  1.5824 -0.8171
 6240SOL     OW30178   2.474   2.771  17.327 -1.0550  0.7085  0.3267
 6240SOL    HW130179   2.436   2.838  17.384  0.3887  2.0187 -0.2391
 6240SOL    HW230180   2.482   2.702  17.393  1.6684  0.5658 -0.1255
 6241SOL     OW30181   0.193   2.999  11.170 -0.3004  0.0813 -0.2509
 6241SOL    HW130182   0.121   3.062  11.180 -1.0640 -0.8167 -0.0529
 6241SOL    HW230183   0.194   2.949  11.252  0.4548  0.6433  0.0823
 6242SOL     OW30184   0.103   1.108   4.833 -0.3859 -0.6133  0.4921
 6242SOL    HW130185   0.109   1.200   4.858 -0.1258  0.0905 -2.1386
 6242SOL    HW230186   0.011   1.106   4.809 -0.7608 -2.7100  2.0868
 6243SOL     OW30187   4.035   1.253   7.368  0.0548 -0.1826  0.2032
 6243SOL    HW130188   4.039   1.261   7.463 -2.6497  0.3794  0.2764
 6243SOL    HW230189   4.033   1.343   7.335 -1.1815 -0.0448  0.6506
 6244SOL     OW30190   0.956   1.112   1.202 -0.2225 -0.8574  0.4523
 6244SOL    HW130191   0.997   1.196   1.182  1.5362 -1.0944  2.9878
 6244SOL    HW230192   0.972   1.091   1.294  0.3413 -0.5714  0.4153
 6245SOL     OW30193   4.157   2.784   3.506 -0.3114 -0.1177 -1.1296
 6245SOL    HW130194   4.066   2.772   3.533  0.4461  0.2710  1.5553
 6245SOL    HW230195   4.168   2.872   3.541 -0.2843 -0.3838 -0.4677
 6246SOL     OW30196   1.538   0.463   5.221  0.2889  0.4626  0.2316
 6246SOL    HW130197   1.531   0.547   5.176  0.7414  0.5996  0.4129
 6246SOL    HW230198   1.542   0.414   5.139 -0.4694 -1.4043  1.3018
 6247SOL     OW30199   1.948   0.924   8.082  0.5384  0.2037 -0.5246
 6247SOL    HW130200   2.020   0.945   8.141 -1.2381  2.1536  0.9057
 6247SOL    HW230201   1.991   0.922   7.996  1.2963  2.6256 -0.1991
 6248SOL     OW30202   3.013   0.244   8.804  0.1895  0.5668  0.9527
 6248SOL    HW130203   2.997   0.243   8.899 -2.0841 -0.6581  0.5376
 6248SOL    HW230204   3.090   0.187   8.804 -0.0605  0.2285  1.4748
 6249SOL     OW30205   3.958   2.052   8.410  0.7845  0.4570 -0.2008
 6249SOL    HW130206   3.983   1.984   8.472 -0.2964  1.4448  1.3278
 6249SOL    HW230207   3.952   1.992   8.336  0.4756  1.0642 -0.6686
 6250SOL     OW30208   1.706   1.123   5.625 -0.4880  0.1960 -0.1720
 6250SOL    HW130209   1.674   1.067   5.554 -0.4256  1.0534 -0.8884
 6250SOL    HW230210   1.646   1.198   5.621  1.2134  1.5882  0.3721
 6251SOL     OW30211   0.304   0.248  16.031 -0.0709  0.8003 -0.2858
 6251SOL    HW130212   0.223   0.296  16.011 -1.0061 -0.9822 -0.7714
 6251SOL    HW230213   0.264   0.178  16.083 -2.5926  2.2723 -0.2343
 6252SOL     OW30214   3.742   1.192   8.592 -0.8072 -0.1145 -0.2243
 6252SOL    HW130215   3.805   1.120   8.601  1.4459  1.8668 -0.2110
 6252SOL    HW230216   3.813   1.253   8.572 -1.6370  0.6510 -0.8217
 6253SOL     OW30217   4.113   4.009  16.939  0.7838  0.2186 -0.4497
 6253SOL    HW130218   4.201   3.976  16.921  1.0827  1.3451 -1.0617
 6253SOL    HW230219   4.098   3.968  17.024 -0.3355  2.0019  0.2117
 6254SOL     OW30220   2.205   2.990  17.000 -0.3395 -0.0819  0.4484
 6254SOL    HW130221   2.214   2.996  17.095 -2.6626  1.2513  0.5839
 6254SOL    HW230222   2.144   3.060  16.979 -2.2375 -1.7353  0.4312
 6255SOL     OW30223   4.034   3.046   6.468  0.0576 -0.4885  0.3552
 6255SOL    HW130224   4.003   2.961   6.499  1.5459 -0.7109  1.2731
 6255SOL    HW230225   4.077   3.081   6.546 -0.8189  0.4429  0.4173
 6256SOL     OW30226   3.317   2.511  13.416  0.8305  0.5114  0.0745
 6256SOL    HW130227   3.324   2.573  13.344  1.5090  0.4789  0.1188
 6256SOL    HW230228   3.341   2.568  13.489  3.0937  0.2790 -0.4884
 6257SOL     OW30229   2.340   0.084   3.390  0.4649 -0.0882 -0.1459
 6257SOL    HW130230   2.371   0.174   3.396  0.1874 -0.0655  0.8656
 6257SOL    HW230231   2.421   0.034   3.396  2.3920  3.2876  1.9527
 6258SOL     OW30232   2.051   4.004   2.804  0.0583 -0.2577 -0.5896
 6258SOL    HW130233   2.093   3.918   2.805 -2.7243 -1.6305 -1.4223
 6258SOL    HW230234   2.114   4.051   2.748  2.6800 -3.0405 -0.0127
 6259SOL     OW30235   1.130   0.023  11.069  0.1271 -0.1551  0.0488
 6259SOL    HW130236   1.149   4.689  10.995 -0.9851 -0.0159 -0.3487
 6259SOL    HW230237   1.200   0.003  11.130 -1.9335 -1.9155  1.8514
 6260SOL     OW30238   0.148   1.644   3.033  0.2052  0.0018  0.1208
 6260SOL    HW130239   0.238   1.627   3.004  0.8135  1.8314  0.9301
 6260SOL    HW230240   0.112   1.677   2.951 -0.4361  0.6515  0.6655
 6261SOL     OW30241   3.804   2.538  14.556 -0.2548 -0.1510  0.0890
 6261SOL    HW130242   3.715   2.517  14.527  0.4175 -3.0185  0.1369
 6261SOL    HW230243   3.797   2.606  14.623 -0.2883 -1.2781  1.2273
 6262SOL     OW30244   1.171   4.642   2.473 -0.2875  0.5901  0.0998
 6262SOL    HW130245   1.251   4.668   2.519  0.0046 -0.0494 -0.0484
 6262SOL    HW230246   1.177   4.547   2.477  1.6343  0.6429 -1.7560
 6263SOL     OW30247   3.003   1.644   5.056 -0.6485 -0.2767  0.1518
 6263SOL    HW130248   2.986   1.735   5.079 -3.2656 -0.0734 -2.6339
 6263SOL    HW230249   2.950   1.626   4.978  0.2683  0.6355 -0.6867
 6264SOL     OW30250   3.574   0.324   8.130  0.1248  0.1306 -0.0189
 6264SOL    HW130251   3.637   0.290   8.194  0.3765 -0.8717 -0.8132
 6264SOL    HW230252   3.519   0.384   8.180 -0.4829  0.0062 -0.5425
 6265SOL     OW30253   3.503   2.451   8.059  0.5397 -0.2246  0.1362
 6265SOL    HW130254   3.441   2.383   8.034 -0.6722  0.7259  0.5067
 6265SOL    HW230255   3.583   2.400   8.069  0.0409 -0.7942  1.2451
 6266SOL     OW30256   0.983   2.464  13.757 -0.3860 -0.0610 -0.1128
 6266SOL    HW130257   1.050   2.531  13.768 -0.9193  0.7361 -1.7503
 6266SOL    HW230258   0.943   2.478  13.843  0.0033  2.1154 -0.2771
 6267SOL     OW30259   1.215   2.499   8.173 -0.2981 -0.0485 -0.1874
 6267SOL    HW130260   1.214   2.571   8.110  0.2767  0.4776  0.4239
 6267SOL    HW230261   1.123   2.485   8.198 -0.4210  2.8367  0.9526
 6268SOL     OW30262   1.424   2.152   5.093 -0.5012  0.3061  0.1469
 6268SOL    HW130263   1.452   2.174   5.004  0.6366 -2.0950 -0.0992
 6268SOL    HW230264   1.497   2.197   5.135  0.4240 -0.1559 -0.9646
 6269SOL     OW30265   1.939   1.970   6.121  0.4727  0.1982  0.1350
 6269SOL    HW130266   1.853   1.952   6.160  0.3867  0.6818  0.1746
 6269SOL    HW230267   1.939   2.066   6.113  1.1420  0.2720  1.0253
 6270SOL     OW30268   1.101   0.801   7.092 -0.7372  0.2752  0.2475
 6270SOL    HW130269   1.165   0.864   7.060  0.6275 -0.0237  2.3822
 6270SOL    HW230270   1.158   0.746   7.145  0.1398  0.2113 -0.7648
 6271SOL     OW30271   0.818   2.149  17.463  0.3483 -0.0451  0.5608
 6271SOL    HW130272   0.862   2.100  17.394 -1.5113 -0.8577 -0.0399
 6271SOL    HW230273   0.775   2.083  17.518  0.1672 -1.3036 -1.1030
 6272SOL     OW30274   0.094   0.218   3.298  0.9180  0.3877  0.4720
 6272SOL    HW130275   0.068   0.179   3.381  0.7304 -1.0157 -0.2334
 6272SOL    HW230276   0.094   0.141   3.241  1.3828 -1.0385  2.3854
 6273SOL     OW30277   3.787   1.080   9.508 -0.3647  0.1939  0.0912
 6273SOL    HW130278   3.839   1.160   9.505 -0.6961  0.4136  0.2611
 6273SOL    HW230279   3.825   1.038   9.585 -2.5848 -1.3850  0.3360
 6274SOL     OW30280   0.005   3.870   9.368  0.1248  0.0039 -0.4362
 6274SOL    HW130281   0.022   3.792   9.422  1.8229 -0.4190 -1.5771
 6274SOL    HW230282   4.671   3.904   9.436  1.0697 -1.7062  1.2555
 6275SOL     OW30283   0.838   3.924   7.878 -0.2490  0.1078  0.2538
 6275SOL    HW130284   0.844   3.829   7.872 -1.4378  0.1951 -2.1846
 6275SOL    HW230285   0.770   3.932   7.944 -1.7248  1.2508 -1.4082
 6276SOL     OW30286   1.153   4.339   8.732 -0.0501  0.5269 -0.0587
 6276SOL    HW130287   1.192   4.347   8.819  1.8432 -3.4215 -0.5129
 6276SOL    HW230288   1.098   4.417   8.728 -0.4292  0.2696  0.1642
 6277SOL     OW30289   0.845   3.400   1.885 -0.1232  0.0133  0.2066
 6277SOL    HW130290   0.796   3.431   1.808  2.2357  0.4268 -1.1296
 6277SOL    HW230291   0.774   3.406   1.949  0.2064  0.8755  0.4780
 6278SOL     OW30292   0.509   4.487  16.432 -0.4506  0.1484 -0.5708
 6278SOL    HW130293   0.604   4.491  16.447 -0.4795  1.9731 -0.7871
 6278SOL    HW230294   0.501   4.402  16.389 -4.9503  1.3607 -2.1479
 6279SOL     OW30295   4.406   4.575  15.627 -0.0120  0.3580  0.6294
 6279SOL    HW130296   4.354   4.547  15.552  1.4609  0.9850 -0.6032
 6279SOL    HW230297   4.487   4.525  15.612 -0.3292  0.1957 -0.5508
 6280SOL     OW30298   4.099   4.363   2.777 -0.4426 -1.0543 -0.4613
 6280SOL    HW130299   4.107   4.436   2.839 -1.1152  0.3151 -1.9772
 6280SOL    HW230300   4.143   4.293   2.825 -0.5820 -0.3997  0.6187
 6281SOL     OW30301   3.310   4.503   6.168 -0.0118  0.1120  0.3103
 6281SOL    HW130302   3.375   4.504   6.238  0.2974  1.4037  0.0008
 6281SOL    HW230303   3.228   4.541   6.200 -1.0382 -0.3553 -1.7568
 6282SOL     OW30304   4.632   3.689   7.914  0.0900 -0.0897  0.1060
 6282SOL    HW130305   4.719   3.703   7.952  0.1578 -0.8096  0.2233
 6282SOL    HW230306   4.585   3.751   7.969  0.4886 -0.1457  0.5104
 6283SOL     OW30307   2.261   3.814  10.848  0.1522  0.0981  0.3907
 6283SOL    HW130308   2.328   3.753  10.879 -0.7495 -1.8613 -1.5784
 6283SOL    HW230309   2.183   3.763  10.869 -0.6742  1.7287  1.3026
 6284SOL     OW30310   4.389   1.598   1.743  0.0208 -0.4144  0.5217
 6284SOL    HW130311   4.340   1.534   1.692  0.7339 -2.2764  2.1966
 6284SOL    HW230312   4.326   1.636   1.803  0.5398  2.7208 -0.8819
 6285SOL     OW30313   0.447   3.610   5.394 -0.1583  0.5739  0.3100
 6285SOL    HW130314   0.535   3.576   5.377 -0.3688  0.3938 -0.4534
 6285SOL    HW230315   0.458   3.704   5.405  0.4327  0.5189  0.1597
 6286SOL     OW30316   4.695   2.997   1.572  0.3851 -0.0554 -0.3123
 6286SOL    HW130317   4.643   3.011   1.650  1.2990 -0.7249  0.4156
 6286SOL    HW230318   4.636   2.934   1.530 -0.1177  0.0189  0.2926
 6287SOL     OW30319   4.444   1.355   2.344 -0.6817 -0.1608 -0.4931
 6287SOL    HW130320   4.390   1.431   2.323 -1.4278 -0.1807  1.3169
 6287SOL    HW230321   4.453   1.358   2.439 -0.4141  0.6231 -0.5452
 6288SOL     OW30322   3.856   2.009   3.076 -0.2603 -0.3706  0.0364
 6288SOL    HW130323   3.818   1.935   3.122 -2.9464  1.6832  1.1025
 6288SOL    HW230324   3.783   2.070   3.066  0.0147 -0.2777 -1.4460
 6289SOL     OW30325   3.764   1.191   2.809 -0.0015 -0.0099  0.2182
 6289SOL    HW130326   3.746   1.283   2.790 -1.4644 -0.2863  0.2640
 6289SOL    HW230327   3.806   1.160   2.729  2.6039  1.2554  1.0782
 6290SOL     OW30328   0.480   1.589   4.975  0.2710 -0.0486 -0.2731
 6290SOL    HW130329   0.517   1.514   4.928  0.4584 -0.5786  0.7295
 6290SOL    HW230330   0.393   1.595   4.934  0.7557 -0.9199 -1.4221
 6291SOL     OW30331   2.463   3.134   4.314  0.3594 -0.1561 -0.8953
 6291SOL    HW130332   2.439   3.094   4.231 -0.2518 -1.0929 -0.2708
 6291SOL    HW230333   2.449   3.059   4.372  0.8388  0.8475  0.5279
 6292SOL     OW30334   1.242   1.068   9.116 -0.6586 -0.2069 -0.3005
 6292SOL    HW130335   1.189   0.988   9.108 -1.1867  0.0940  0.2264
 6292SOL    HW230336   1.167   1.124   9.094 -1.1792 -0.5622  0.5800
 6293SOL     OW30337   1.377   3.898   1.645 -0.3587  0.7338  0.1218
 6293SOL    HW130338   1.390   3.893   1.550 -1.9149  2.0140 -0.1605
 6293SOL    HW230339   1.306   3.837   1.664  0.1664  0.9041  2.6099
 6294SOL     OW30340   2.147   2.170   4.773 -0.2278  0.2168  0.3983
 6294SOL    HW130341   2.198   2.223   4.835  0.0003 -0.4195  0.7594
 6294SOL    HW230342   2.215   2.116   4.732 -2.0333 -1.1342 -0.8218
 6295SOL     OW30343   3.574   3.239   2.022 -0.0713 -0.3800 -0.9264
 6295SOL    HW130344   3.481   3.262   2.017 -0.1404 -0.7922 -1.5051
 6295SOL    HW230345   3.566   3.176   2.093  0.3664 -1.1582 -1.5621
 6296SOL     OW30346   1.255   2.682  16.946  0.2995 -0.2921  0.1292
 6296SOL    HW130347   1.231   2.598  16.985 -0.4316  0.5190  1.4018
 6296SOL    HW230348   1.286   2.729  17.023  2.2737  1.3208 -1.6383
 6297SOL     OW30349   2.043   0.020   4.201  0.1589 -0.1159 -0.5971
 6297SOL    HW130350   1.965   0.074   4.207 -0.6086 -1.4226  1.4257
 6297SOL    HW230351   2.020   4.669   4.145  0.7889  0.1680 -1.2360
 6298SOL     OW30352   3.451   2.294  12.396 -0.0836  0.2749  0.3247
 6298SOL    HW130353   3.475   2.202  12.398  0.3485  0.3790 -0.2239
 6298SOL    HW230354   3.480   2.322  12.483  1.9734 -1.6838  0.2667
 6299SOL     OW30355   4.370   4.601   4.632 -0.4189  0.1054 -0.3307
 6299SOL    HW130356   4.455   4.559   4.647 -1.8554 -2.2094  1.1810
 6299SOL    HW230357   4.361   4.593   4.537 -0.9492 -1.7470 -0.1073
 6300SOL     OW30358   2.221   4.297   9.188 -0.2298  0.3678  0.7210
 6300SOL    HW130359   2.270   4.380   9.185 -0.1692  0.2810 -0.7919
 6300SOL    HW230360   2.223   4.267   9.097  0.6531  0.9648  0.5430
 6301SOL     OW30361   4.536   4.182   8.554 -0.2586  0.1662 -0.0982
 6301SOL    HW130362   4.480   4.179   8.477 -0.9091 -0.7950  0.4202
 6301SOL    HW230363   4.620   4.190   8.508  0.7374 -0.0997  1.6496
 6302SOL     OW30364   4.380   0.275   3.875 -0.4685 -0.5469 -0.2949
 6302SOL    HW130365   4.326   0.227   3.939 -0.4129 -0.7661 -0.4126
 6302SOL    HW230366   4.326   0.354   3.868 -0.1332 -0.3228 -0.3343
 6303SOL     OW30367   1.778   4.404   7.328  0.1409 -0.1260  0.2131
 6303SOL    HW130368   1.830   4.365   7.399  0.5126 -0.0500 -0.0187
 6303SOL    HW230369   1.840   4.402   7.255 -1.3289 -1.1759 -0.9988
 6304SOL     OW30370   4.247   1.318  16.568  0.4127  0.3091  0.0542
 6304SOL    HW130371   4.208   1.400  16.538  0.2617  0.0059 -0.5776
 6304SOL    HW230372   4.278   1.358  16.649 -1.4239 -1.2624  1.5354
 6305SOL     OW30373   3.840   4.462  11.105 -0.5875 -0.5161  0.6497
 6305SOL    HW130374   3.748   4.449  11.124 -1.2913  1.4357 -1.4332
 6305SOL    HW230375   3.856   4.554  11.125  0.1621 -0.8566  1.6232
 6306SOL     OW30376   3.329   0.977   3.042 -0.0083 -0.3399 -0.4726
 6306SOL    HW130377   3.372   0.896   3.067  2.1363  0.8933 -0.1654
 6306SOL    HW230378   3.405   1.035   3.030 -0.7652  0.8470  0.4580
 6307SOL     OW30379   4.516   1.047   8.543  0.0141 -0.0970 -0.2373
 6307SOL    HW130380   4.464   0.995   8.605 -0.6180 -1.0660 -1.5692
 6307SOL    HW230381   4.536   0.974   8.484  0.0388 -0.2135 -0.0851
 6308SOL     OW30382   4.721   0.319   4.968  0.1345 -0.5491 -0.2253
 6308SOL    HW130383   0.031   0.361   4.889 -3.1115 -1.2924 -2.0026
 6308SOL    HW230384   4.647   0.376   4.986 -0.2492 -0.6395 -1.4829
 6309SOL     OW30385   0.048   3.445   3.475 -0.0901 -0.4917 -0.1843
 6309SOL    HW130386   0.026   3.491   3.393 -0.4415 -0.4206 -0.0494
 6309SOL    HW230387   4.684   3.445   3.514  1.5873 -0.7366  3.4862
 6310SOL     OW30388   0.143   1.581  14.650 -0.4317  0.1149 -0.2314
 6310SOL    HW130389   0.215   1.592  14.587 -3.0734 -0.1764 -3.2994
 6310SOL    HW230390   0.176   1.650  14.708  0.7700  0.0809 -0.8717
 6311SOL     OW30391   1.524   0.838  15.088  0.1287 -0.4990  0.0653
 6311SOL    HW130392   1.521   0.791  15.171  1.4775 -1.9077 -0.6760
 6311SOL    HW230393   1.603   0.891  15.102  1.9062 -3.0960  0.0298
 6312SOL     OW30394   2.195   4.478   3.244  0.2501  0.2789 -0.0756
 6312SOL    HW130395   2.176   4.563   3.205 -1.7518  0.4888  1.3573
 6312SOL    HW230396   2.291   4.479   3.238  0.1547  2.3090 -1.1439
 6313SOL     OW30397   2.694   0.039   4.168  0.6004  0.1288 -0.2242
 6313SOL    HW130398   2.789   0.050   4.181  0.9649 -2.7934 -0.4836
 6313SOL    HW230399   2.693   4.668   4.158  0.0443  0.3458 -2.1890
 6314SOL     OW30400   4.430   0.939   0.629 -0.5625  0.8280 -0.0544
 6314SOL    HW130401   4.356   0.966   0.682 -1.8871 -1.5640 -0.6761
 6314SOL    HW230402   4.390   0.923   0.543 -0.0284  0.4076 -0.2249
 6315SOL     OW30403   1.964   0.214   0.153  0.1520 -0.1929  0.1653
 6315SOL    HW130404   1.998   0.175   0.233  0.0154 -0.9403 -0.1429
 6315SOL    HW230405   1.995   0.161   0.080  0.0673  0.1362 -0.1132
 6316SOL     OW30406   0.757   0.450   2.914  0.6910 -0.1362  0.0451
 6316SOL    HW130407   0.843   0.407   2.916 -1.4641 -4.3492  0.5025
 6316SOL    HW230408   0.703   0.403   2.977  2.0248  0.6255  1.7342
 6317SOL     OW30409   0.440   0.324   6.729 -0.1387  0.0076  0.2687
 6317SOL    HW130410   0.428   0.324   6.634  1.4903 -4.3167  0.0527
 6317SOL    HW230411   0.356   0.357   6.761 -0.5797  0.4862 -1.3609
 6318SOL     OW30412   2.945   0.852  15.678 -0.2537 -0.4319  0.3806
 6318SOL    HW130413   2.900   0.863  15.762  0.0645 -0.7215  0.5860
 6318SOL    HW230414   2.944   0.947  15.667 -1.3730 -0.4474  0.3484
 6319SOL     OW30415   4.323   0.109   3.289  0.0567  0.6018  0.3062
 6319SOL    HW130416   4.356   0.199   3.292  0.0783  0.6823 -2.4086
 6319SOL    HW230417   4.359   0.071   3.369 -0.9565 -0.9463  0.0326
 6320SOL     OW30418   0.786   4.101   1.227 -0.3173 -0.0703 -0.0535
 6320SOL    HW130419   0.714   4.158   1.254 -0.5625  0.4433 -1.7561
 6320SOL    HW230420   0.867   4.151   1.240  0.3067 -0.6648 -1.6033
 6321SOL     OW30421   3.356   1.343   4.446 -0.4648  0.2139  0.0826
 6321SOL    HW130422   3.322   1.320   4.532  4.0642 -0.5490  1.6181
 6321SOL    HW230423   3.377   1.257   4.409 -1.3513 -0.0963  0.2907
 6322SOL     OW30424   4.065   0.015  12.428 -0.2542  0.0062  0.2326
 6322SOL    HW130425   4.144   0.064  12.452  1.0831 -2.0193 -0.1022
 6322SOL    HW230426   4.021   4.718  12.510 -0.9302 -2.1283 -0.6799
 6323SOL     OW30427   1.839   2.322   6.806 -0.1672 -0.1293 -0.2521
 6323SOL    HW130428   1.907   2.369   6.855 -0.9208  2.0110 -1.2527
 6323SOL    HW230429   1.766   2.315   6.867  1.1080 -0.9740  1.2017
 6324SOL     OW30430   1.469   3.402   2.337 -0.0172 -0.5477 -0.6045
 6324SOL    HW130431   1.390   3.418   2.287 -0.7336 -0.2336  0.6212
 6324SOL    HW230432   1.431   3.377   2.421 -0.6608 -0.4233 -0.8618
 6325SOL     OW30433   4.598   3.212  16.111 -0.7455  0.2830 -0.4029
 6325SOL    HW130434   4.510   3.187  16.139 -0.5211 -0.2158 -0.1284
 6325SOL    HW230435   4.578   3.278  16.045 -2.0860  0.7648  0.4840
 6326SOL     OW30436   3.669   4.000   3.733  0.3641 -0.5337 -0.0784
 6326SOL    HW130437   3.724   3.944   3.788 -1.2337 -1.0575  0.9755
 6326SOL    HW230438   3.677   3.961   3.646  0.4228 -1.8331  0.5167
 6327SOL     OW30439   1.075   0.960   3.770 -0.0208 -0.5125  0.4206
 6327SOL    HW130440   1.019   0.921   3.703 -1.8247  0.2620  1.4782
 6327SOL    HW230441   1.158   0.937   3.729 -0.0917 -1.1297  0.6241
 6328SOL     OW30442   1.741   4.396   3.871  0.2854 -0.1990  0.0954
 6328SOL    HW130443   1.665   4.448   3.845  1.0022 -0.4564 -2.4889
 6328SOL    HW230444   1.787   4.382   3.788 -3.4189  1.2919 -2.2190
 6329SOL     OW30445   1.319   4.428  16.579 -0.1714  0.2383  0.5516
 6329SOL    HW130446   1.250   4.395  16.521  2.2030  0.8920 -2.6570
 6329SOL    HW230447   1.384   4.457  16.516  0.2578 -0.9016  0.4611
 6330SOL     OW30448   3.959   0.925   9.711  1.0634  0.4691  0.0600
 6330SOL    HW130449   3.993   0.963   9.791 -1.2326  2.0182  0.3098
 6330SOL    HW230450   4.039   0.920   9.659 -1.0617 -1.2166 -3.0755
 6331SOL     OW30451   0.008   2.843  14.349  0.4695  0.2829  0.2952
 6331SOL    HW130452   4.652   2.797  14.324  1.2643 -2.0336  1.9419
 6331SOL    HW230453   0.070   2.785  14.305 -0.7617 -0.2414 -0.7362
 6332SOL     OW30454   0.233   2.878   7.452 -0.5621 -0.6564  0.7455
 6332SOL    HW130455   0.155   2.824   7.467  0.3762 -2.0611  0.5315
 6332SOL    HW230456   0.299   2.812   7.431  0.2620  0.5028 -0.3038
 6333SOL     OW30457   2.169   4.447   5.539 -0.2502 -0.1532 -0.3572
 6333SOL    HW130458   2.166   4.479   5.629  1.1426  2.0379 -1.1117
 6333SOL    HW230459   2.077   4.447   5.512  0.4949 -0.5266 -2.8800
 6334SOL     OW30460   4.545   3.608  14.938  0.1734  0.1081 -0.0912
 6334SOL    HW130461   4.590   3.692  14.941  0.3429  0.0934 -2.3994
 6334SOL    HW230462   4.463   3.634  14.980 -0.2061 -0.0518 -0.7392
 6335SOL     OW30463   1.261   0.860  11.519 -0.2158  0.6206 -0.3580
 6335SOL    HW130464   1.287   0.824  11.435  1.7676  0.8718  0.1558
 6335SOL    HW230465   1.167   0.855  11.503 -0.1536 -2.2144  0.2118
 6336SOL     OW30466   3.059   4.689  12.743 -0.2089 -0.3777  0.3054
 6336SOL    HW130467   2.995   4.621  12.765  0.3933 -0.9079  0.4190
 6336SOL    HW230468   3.002   0.036  12.714 -3.6730 -2.4850  1.9954
 6337SOL     OW30469   4.146   1.093   6.360  0.1288  0.0165 -0.0315
 6337SOL    HW130470   4.173   1.104   6.268 -2.1938  3.4105 -0.2703
 6337SOL    HW230471   4.209   1.024   6.383 -1.7779 -1.0516  1.9037
 6338SOL     OW30472   1.155   1.712   8.536  0.3679 -0.1060  0.0389
 6338SOL    HW130473   1.198   1.796   8.551  0.3926 -0.0826 -0.1691
 6338SOL    HW230474   1.064   1.741   8.546  0.1947 -0.2179 -1.2145
 6339SOL     OW30475   2.037   0.574   4.802 -0.2068 -0.0153  0.6482
 6339SOL    HW130476   2.029   0.655   4.751 -0.3674  0.3262  1.2158
 6339SOL    HW230477   2.132   0.579   4.817 -0.0520  0.8775 -0.6035
 6340SOL     OW30478   0.828   1.039   4.711  0.0310  0.4682 -0.0183
 6340SOL    HW130479   0.873   0.970   4.662  2.5853  3.3728 -1.7864
 6340SOL    HW230480   0.895   1.053   4.778 -1.0472  0.8738  0.9919
 6341SOL     OW30481   3.757   0.766   4.111  0.0505 -0.8693 -0.2451
 6341SOL    HW130482   3.661   0.772   4.105  0.1390 -0.2486 -1.0108
 6341SOL    HW230483   3.773   0.845   4.162 -0.1218 -0.5375 -0.6994
 6342SOL     OW30484   4.098   3.209   6.269  0.2455 -0.2914 -0.3540
 6342SOL    HW130485   4.041   3.149   6.318  0.2843  0.4779  0.6169
 6342SOL    HW230486   4.054   3.205   6.184 -0.0602 -1.2199 -0.1560
 6343SOL     OW30487   1.427   1.942   4.227 -0.4084  0.4975 -0.3010
 6343SOL    HW130488   1.504   1.993   4.202 -0.5906 -0.6076 -3.0787
 6343SOL    HW230489   1.464   1.917   4.312  1.3036  0.2479 -1.1150
 6344SOL     OW30490   3.175   0.769   4.148  0.0774 -0.0737  0.9358
 6344SOL    HW130491   3.085   0.742   4.165  0.1956 -0.7269  0.5156
 6344SOL    HW230492   3.221   0.725   4.221 -0.4801 -1.8214  0.2325
 6345SOL     OW30493   1.221   4.386   4.692 -0.4359  0.3870 -0.0052
 6345SOL    HW130494   1.296   4.398   4.633 -0.4499 -2.3553 -0.6137
 6345SOL    HW230495   1.221   4.475   4.727  0.3388  0.7189 -0.8467
 6346SOL     OW30496   3.164   2.993   9.789  0.4357 -0.2289  0.4451
 6346SOL    HW130497   3.140   2.925   9.851  2.3207 -1.2190  0.0955
 6346SOL    HW230498   3.214   2.941   9.725  0.8752  1.1803 -0.3564
 6347SOL     OW30499   1.682   2.121  14.762  0.3670  0.2928  0.1602
 6347SOL    HW130500   1.687   2.108  14.668 -0.0387  2.9841 -0.2290
 6347SOL    HW230501   1.689   2.027  14.780  0.0164 -0.2237 -2.4997
 6348SOL     OW30502   0.930   2.955   5.043  0.0949  0.1065 -0.0315
 6348SOL    HW130503   0.870   2.882   5.026 -2.5415  1.9685  1.1994
 6348SOL    HW230504   0.886   3.004   5.113 -0.2236 -0.2760  0.0354
 6349SOL     OW30505   2.354   3.901  11.517 -0.1709  0.0204 -0.1162
 6349SOL    HW130506   2.322   3.867  11.601 -1.7501 -0.8482 -1.0538
 6349SOL    HW230507   2.267   3.900  11.475 -0.9949  1.4911  1.5568
 6350SOL     OW30508   3.524   3.937   7.164 -0.1195  0.1691  0.1515
 6350SOL    HW130509   3.492   3.961   7.077  0.5556  0.4977 -0.0136
 6350SOL    HW230510   3.540   3.843   7.152 -1.5591 -0.0153 -0.2373
 6351SOL     OW30511   2.602   2.156  15.259  0.2802  0.0776 -0.3833
 6351SOL    HW130512   2.566   2.236  15.299  0.8231 -0.0492  0.3587
 6351SOL    HW230513   2.526   2.120  15.214 -1.4047  2.1747  0.7714
 6352SOL     OW30514   0.578   3.133   7.408 -0.4893 -0.6093  0.0974
 6352SOL    HW130515   0.558   3.100   7.321 -0.2357 -2.0019  0.5639
 6352SOL    HW230516   0.519   3.087   7.468 -1.8535  0.7773 -0.1923
 6353SOL     OW30517   3.147   2.690   1.557  0.2249 -0.4776  0.2102
 6353SOL    HW130518   3.141   2.659   1.647 -1.2431 -2.9103 -0.7572
 6353SOL    HW230519   3.103   2.623   1.506  1.0743 -0.6612 -0.2807
 6354SOL     OW30520   2.506   1.456   4.197  0.2115  0.7527 -0.2511
 6354SOL    HW130521   2.581   1.462   4.138  0.5280 -1.0527 -0.0132
 6354SOL    HW230522   2.458   1.534   4.168  0.9193  1.3016  0.0375
 6355SOL     OW30523   2.234   4.624   6.575  0.4381  0.0750  0.4520
 6355SOL    HW130524   2.271   4.600   6.659 -1.5090  1.0229  1.5843
 6355SOL    HW230525   2.165   4.558   6.564  1.7615 -0.8990 -1.9752
 6356SOL     OW30526   0.953   0.769  11.208  0.7806 -0.2258 -0.1001
 6356SOL    HW130527   0.992   0.764  11.295 -1.0748 -1.1032  0.6775
 6356SOL    HW230528   1.032   0.794  11.161  1.0813 -1.2780 -0.1508
 6357SOL     OW30529   1.972   0.621   8.147  0.0971 -0.1656  0.2404
 6357SOL    HW130530   2.030   0.649   8.218 -0.4217 -0.7744  0.9106
 6357SOL    HW230531   1.956   0.702   8.098 -1.7433 -2.1159 -2.3540
 6358SOL     OW30532   3.822   3.965   2.116  0.2522 -0.3936  0.3621
 6358SOL    HW130533   3.861   4.032   2.061  2.7823 -1.7553  0.5209
 6358SOL    HW230534   3.774   3.915   2.049 -2.1701  0.1307  1.6795
 6359SOL     OW30535   3.924   0.162   2.526  0.0970  0.9331 -0.0128
 6359SOL    HW130536   3.893   0.073   2.509  0.0725  0.8861  0.2683
 6359SOL    HW230537   4.017   0.142   2.541  0.4927  0.7738 -2.7332
 6360SOL     OW30538   3.377   4.597   3.627 -0.1450  0.5691  0.0825
 6360SOL    HW130539   3.319   4.546   3.570 -0.6688  0.5360  0.6495
 6360SOL    HW230540   3.370   4.540   3.704 -0.6132 -1.4249 -1.4382
 6361SOL     OW30541   2.690   3.635  13.303  0.5875 -0.4853  0.1065
 6361SOL    HW130542   2.732   3.617  13.387  0.9280 -0.4959 -0.0671
 6361SOL    HW230543   2.700   3.730  13.297 -0.8377 -0.1924  2.3612
 6362SOL     OW30544   4.354   2.927  15.480  0.0060  0.2382 -0.4141
 6362SOL    HW130545   4.279   2.912  15.537  1.4793 -3.1009  0.6477
 6362SOL    HW230546   4.345   3.021  15.464 -1.8219  0.2649  0.8216
 6363SOL     OW30547   3.268   4.680   2.954 -0.2772  0.5103  0.3705
 6363SOL    HW130548   3.215   4.709   3.029 -0.7684 -0.6991  0.4878
 6363SOL    HW230549   3.240   0.023   2.890  1.4885  0.6765 -0.2220
 6364SOL     OW30550   0.841   3.062   0.978  0.5350 -0.0854  0.3753
 6364SOL    HW130551   0.839   3.113   0.897  0.7628  0.5680  0.7852
 6364SOL    HW230552   0.778   2.996   0.949  0.2479 -0.1223  1.0846
 6365SOL     OW30553   2.220   4.560   0.203  0.1587 -0.5282 -0.0033
 6365SOL    HW130554   2.238   4.588   0.293 -2.1746 -0.4370  0.4263
 6365SOL    HW230555   2.303   4.547   0.158  1.0445  0.8960  1.1788
 6366SOL     OW30556   2.034   4.482   0.619 -0.2479  0.8814  0.3828
 6366SOL    HW130557   1.980   4.480   0.698 -0.0673 -1.4212  0.4669
 6366SOL    HW230558   2.111   4.529   0.652  1.1721 -1.2335  0.0938
 6367SOL     OW30559   1.782   2.262   8.815 -0.0870  0.0578  0.3974
 6367SOL    HW130560   1.750   2.173   8.831 -1.1565  0.0686 -1.7243
 6367SOL    HW230561   1.790   2.300   8.903  0.5509  1.3888 -0.2374
 6368SOL     OW30562   2.961   2.297   5.457  1.1851 -0.1970  0.9378
 6368SOL    HW130563   3.037   2.244   5.481  0.7319 -1.4627 -0.4301
 6368SOL    HW230564   3.002   2.381   5.478 -0.8907  0.4428  2.4126
 6369SOL     OW30565   2.085   2.160  14.865  0.2332  0.0973  0.3886
 6369SOL    HW130566   2.179   2.180  14.863  0.4945 -1.1597 -0.0543
 6369SOL    HW230567   2.046   2.247  14.863 -0.0524  0.0437  3.7750
 6370SOL     OW30568   3.471   2.625   6.565  0.4715 -0.2681 -0.0022
 6370SOL    HW130569   3.387   2.669   6.568 -0.5413 -2.1992  0.1186
 6370SOL    HW230570   3.445   2.542   6.525  0.6019 -0.5044  0.3980
 6371SOL     OW30571   3.979   1.627   6.448 -0.2827 -0.6161 -0.3067
 6371SOL    HW130572   3.902   1.603   6.396 -1.3941  0.9109  0.6425
 6371SOL    HW230573   3.950   1.601   6.535  0.4198 -0.4731 -0.0299
 6372SOL     OW30574   1.223   1.398   8.076 -0.0831  0.1136  0.1643
 6372SOL    HW130575   1.299   1.438   8.033 -0.0300  0.9116  1.0057
 6372SOL    HW230576   1.256   1.313   8.106 -1.1670 -0.8184 -1.2808
 6373SOL     OW30577   3.165   4.702   6.843 -0.2334  0.4133 -0.1907
 6373SOL    HW130578   3.138   4.638   6.777 -1.9281  1.9685 -0.9936
 6373SOL    HW230579   3.128   0.057   6.804 -2.2440  0.0922  1.0376
 6374SOL     OW30580   0.336   1.159   1.055  0.2772  0.0760  0.3077
 6374SOL    HW130581   0.360   1.083   1.002 -0.3028 -0.3254  0.6265
 6374SOL    HW230582   0.368   1.227   0.996 -0.2329  0.0475 -0.0071
 6375SOL     OW30583   2.465   2.695  15.106  0.1596  0.0232  0.6993
 6375SOL    HW130584   2.470   2.605  15.137  0.9531 -0.5688 -1.1485
 6375SOL    HW230585   2.490   2.677  15.015 -1.4583 -1.3976  0.5264
 6376SOL     OW30586   2.945   2.927   3.162 -0.4040  0.2449 -0.1146
 6376SOL    HW130587   2.981   2.844   3.193 -1.5071 -0.2667 -0.2043
 6376SOL    HW230588   3.022   2.974   3.129 -0.2220  0.8511  1.1738
 6377SOL     OW30589   3.873   0.045  12.971  0.5898 -0.0396 -0.0417
 6377SOL    HW130590   3.945   0.032  12.909  0.0197 -1.1436 -0.4775
 6377SOL    HW230591   3.840   4.681  12.987  0.3283  0.0985  0.1793
 6378SOL     OW30592   3.044   3.174   2.074  0.4494 -0.2937  0.2000
 6378SOL    HW130593   3.056   3.110   2.144  1.2909 -0.0711  0.2521
 6378SOL    HW230594   2.973   3.134   2.022 -0.7385 -0.0599  1.6515
 6379SOL     OW30595   0.929   4.217   6.031 -0.0235  0.2784 -0.4363
 6379SOL    HW130596   0.942   4.125   6.055  1.9528  0.0528 -2.3178
 6379SOL    HW230597   0.842   4.216   5.992  0.5282  1.7085 -1.6926
 6380SOL     OW30598   3.238   1.757   4.284 -0.0953  0.0966  0.6998
 6380SOL    HW130599   3.288   1.767   4.203 -1.2595  1.4672  0.1682
 6380SOL    HW230600   3.279   1.823   4.340  0.6964 -1.0275  1.4585
 6381SOL     OW30601   4.263   1.945  11.952  0.4708  0.7676  0.0384
 6381SOL    HW130602   4.202   1.912  11.886  0.6468 -1.1114  0.8290
 6381SOL    HW230603   4.309   2.016  11.907  1.0463 -0.7932 -1.8171
 6382SOL     OW30604   4.351   0.869   8.208  0.3413 -0.3223  0.4727
 6382SOL    HW130605   4.319   0.846   8.295  2.1015  2.1642  1.7829
 6382SOL    HW230606   4.363   0.964   8.206 -3.1283  0.1427  2.3650
 6383SOL     OW30607   1.531   4.656   0.125 -0.1095 -0.1292  0.0570
 6383SOL    HW130608   1.485   0.012   0.099  0.2037  1.3416  4.0196
 6383SOL    HW230609   1.469   4.585   0.107  0.4213 -0.5392 -0.1703
 6384SOL     OW30610   0.244   2.034   4.987 -0.4494  0.1137 -0.3097
 6384SOL    HW130611   0.199   2.105   4.940 -0.4263  0.2480 -0.1295
 6384SOL    HW230612   0.266   2.081   5.068 -0.0972  1.7063 -1.3318
 6385SOL     OW30613   2.861   1.164   8.001  0.9769  0.1438  0.3912
 6385SOL    HW130614   2.818   1.122   8.077 -0.5198 -0.4069 -0.7499
 6385SOL    HW230615   2.785   1.219   7.981 -1.4971 -2.9501  1.2129
 6386SOL     OW30616   4.405   3.033   6.546 -0.7591 -0.7900 -0.8592
 6386SOL    HW130617   4.342   3.061   6.480  0.1104 -0.6391 -1.6205
 6386SOL    HW230618   4.346   3.051   6.619  0.4015  0.2819 -0.1715
 6387SOL     OW30619   0.107   2.344   9.326  0.1778 -0.6879  0.2473
 6387SOL    HW130620   0.132   2.400   9.399 -1.9846 -1.4945  1.5920
 6387SOL    HW230621   0.161   2.269   9.350  1.2169 -0.8405 -2.5113
 6388SOL     OW30622   4.173   1.873   2.311  0.2818  0.1277  0.3697
 6388SOL    HW130623   4.218   1.955   2.293 -0.2027  0.1666 -0.6181
 6388SOL    HW230624   4.080   1.889   2.297  0.3719 -0.3714 -0.8289
 6389SOL     OW30625   1.520   3.919   1.882 -0.4873  0.4794  0.7988
 6389SOL    HW130626   1.468   3.926   1.802  0.9610 -0.3559 -0.2251
 6389SOL    HW230627   1.601   3.882   1.846 -1.0904 -0.1441  0.0789
 6390SOL     OW30628   4.560   4.478   5.700  0.1250 -0.1356 -0.3440
 6390SOL    HW130629   4.591   4.566   5.677 -2.0986  0.7957  0.2502
 6390SOL    HW230630   4.536   4.445   5.613 -2.7471 -1.2762  0.8858
 6391SOL     OW30631   0.250   2.408   9.587  0.3618  0.4078  0.0072
 6391SOL    HW130632   0.283   2.321   9.610  3.5075  1.1292 -1.7323
 6391SOL    HW230633   0.169   2.410   9.637  0.6602  0.9016  0.4766
 6392SOL     OW30634   0.789   3.134  13.869 -0.3559 -0.4044  0.1995
 6392SOL    HW130635   0.858   3.163  13.929  1.1957  0.0257 -1.7850
 6392SOL    HW230636   0.759   3.209  13.818  0.0454  0.6902  1.5626
 6393SOL     OW30637   1.712   2.775   2.582  0.7145 -0.2462  0.0371
 6393SOL    HW130638   1.619   2.751   2.581  0.7419 -0.2061 -3.5807
 6393SOL    HW230639   1.713   2.813   2.494  1.6213  0.2159  0.2508
 6394SOL     OW30640   2.987   2.359   0.671  0.0654  0.6502 -0.2892
 6394SOL    HW130641   2.946   2.415   0.604 -0.7596 -1.2228 -1.3628
 6394SOL    HW230642   2.972   2.413   0.748 -0.4648  0.1882 -0.0697
 6395SOL     OW30643   3.771   1.045   8.210  0.2774  0.4642  0.4741
 6395SOL    HW130644   3.678   1.065   8.209  0.3579  0.7436 -2.3189
 6395SOL    HW230645   3.792   1.112   8.144  1.1452 -2.0055 -1.7591
 6396SOL     OW30646   0.145   2.199  11.356 -0.2083 -0.1428 -0.2698
 6396SOL    HW130647   0.077   2.232  11.297  0.9841 -0.9019 -2.0486
 6396SOL    HW230648   0.093   2.148  11.418 -2.3552  1.2662 -0.8885
 6397SOL     OW30649   4.101   2.819   0.346 -0.1229  0.2997  0.2782
 6397SOL    HW130650   4.113   2.809   0.441  1.1393  1.6944  0.2582
 6397SOL    HW230651   4.037   2.890   0.347  0.3198  0.7009 -0.6401
 6398SOL     OW30652   2.221   3.354  15.399  0.6297 -0.1588 -0.2288
 6398SOL    HW130653   2.302   3.378  15.443  0.1066 -2.1343  1.8083
 6398SOL    HW230654   2.238   3.263  15.373 -1.2290 -0.3844 -0.6391
 6399SOL     OW30655   3.542   3.247   4.516  0.2760 -0.1881 -0.3807
 6399SOL    HW130656   3.544   3.175   4.580  2.4265  0.4360  0.2542
 6399SOL    HW230657   3.633   3.247   4.485  0.5113 -0.5689  0.3146
 6400SOL     OW30658   3.232   2.846   2.925 -0.3325 -0.3498  0.4608
 6400SOL    HW130659   3.221   2.935   2.892 -0.5468  0.4363  2.6716
 6400SOL    HW230660   3.303   2.817   2.867 -1.6792  0.1051 -1.4066
 6401SOL     OW30661   4.172   1.667   5.900 -0.1229 -0.0938 -0.0943
 6401SOL    HW130662   4.205   1.608   5.968 -1.4540  1.1844  1.6768
 6401SOL    HW230663   4.213   1.632   5.821  0.8777  2.7586 -0.8346
 6402SOL     OW30664   4.096   3.835  16.589  0.6193 -0.1880 -0.2672
 6402SOL    HW130665   4.008   3.844  16.554  0.3528 -1.5800  0.0359
 6402SOL    HW230666   4.101   3.924  16.625 -0.6451 -0.4039  0.4494
 6403SOL     OW30667   3.647   2.552   3.149  0.3649 -0.1984  0.2892
 6403SOL    HW130668   3.677   2.462   3.162 -2.1001 -1.0762 -0.1083
 6403SOL    HW230669   3.604   2.538   3.064 -2.2110  1.2675  1.3694
 6404SOL     OW30670   0.055   1.049   9.366  0.3590 -0.4851  0.5346
 6404SOL    HW130671   0.096   1.115   9.422 -0.4375  0.1358  0.3790
 6404SOL    HW230672   0.012   1.109   9.305 -0.8645 -0.9057  1.0018
 6405SOL     OW30673   0.753   1.154   3.750  0.0672  0.0382  0.2257
 6405SOL    HW130674   0.762   1.107   3.833  0.4328  2.7848  1.7216
 6405SOL    HW230675   0.797   1.238   3.744 -2.6106  1.4032 -0.3309
 6406SOL     OW30676   2.220   3.196   9.062  0.3347 -0.7101 -0.0689
 6406SOL    HW130677   2.283   3.180   9.132  2.3672 -1.4684 -2.0931
 6406SOL    HW230678   2.208   3.290   9.075 -0.8772 -0.5822 -2.1406
 6407SOL     OW30679   0.635   2.672  10.829  0.4404  0.1542 -0.0342
 6407SOL    HW130680   0.699   2.660  10.759  0.6183 -1.1666  0.3525
 6407SOL    HW230681   0.600   2.760  10.817 -0.7083 -0.4057 -0.7538
 6408SOL     OW30682   4.246   3.408   6.866 -0.4781 -0.2634 -0.1409
 6408SOL    HW130683   4.239   3.488   6.814 -0.1001 -0.3304 -0.2933
 6408SOL    HW230684   4.169   3.425   6.921  0.4091 -0.1830  1.0815
 6409SOL     OW30685   3.472   0.350   8.837  0.4841  0.2029 -0.0561
 6409SOL    HW130686   3.518   0.267   8.853  0.1835  0.2166  0.8588
 6409SOL    HW230687   3.544   0.408   8.815 -1.5437  2.4146 -0.7935
 6410SOL     OW30688   0.435   3.425   6.058  0.1284 -0.0319  0.1694
 6410SOL    HW130689   0.449   3.335   6.029  2.2918 -0.0556  1.3702
 6410SOL    HW230690   0.385   3.408   6.138 -0.8377 -0.6432 -0.5580
 6411SOL     OW30691   4.180   3.494   5.286 -0.5871 -0.1376 -0.6152
 6411SOL    HW130692   4.171   3.583   5.321 -2.1826 -0.2133 -0.8614
 6411SOL    HW230693   4.189   3.453   5.372  1.3808 -0.5614 -1.0055
 6412SOL     OW30694   1.496   3.148  17.383 -0.2797  0.4669  0.2161
 6412SOL    HW130695   1.582   3.105  17.384  0.1913  1.4331  0.6494
 6412SOL    HW230696   1.439   3.073  17.365  0.8139 -0.3025 -0.0850
 6413SOL     OW30697   3.792   2.426   7.606 -0.2059 -0.4263  0.4119
 6413SOL    HW130698   3.814   2.341   7.644  0.5360 -0.7556 -0.7609
 6413SOL    HW230699   3.709   2.446   7.652 -0.7905 -0.0086 -0.8355
 6414SOL     OW30700   3.895   0.505   8.281  0.1951 -0.1121  0.1645
 6414SOL    HW130701   3.940   0.532   8.361 -1.9241  0.4083  1.1578
 6414SOL    HW230702   3.838   0.580   8.265  1.9925  1.1013 -0.5597
 6415SOL     OW30703   0.150   3.930   9.709  0.6485  0.2181 -0.2363
 6415SOL    HW130704   0.065   3.947   9.750  0.0517 -1.7066 -0.6684
 6415SOL    HW230705   0.209   3.920   9.784 -1.1365 -0.3349  1.0991
 6416SOL     OW30706   4.012   3.502  15.115 -0.4916 -0.2358 -0.0979
 6416SOL    HW130707   4.027   3.590  15.150  2.2401 -0.3935 -0.8877
 6416SOL    HW230708   4.015   3.452  15.197  3.3039  1.6562  0.8840
 6417SOL     OW30709   1.365   2.253  17.491 -0.2590  0.0961 -0.3377
 6417SOL    HW130710   1.355   2.268  17.397  1.2239 -0.0944 -0.5351
 6417SOL    HW230711   1.273   2.246  17.516 -0.3001 -1.5692 -0.9763
 6418SOL     OW30712   3.385   0.789  13.957  0.5296 -0.1697  0.7638
 6418SOL    HW130713   3.401   0.834  14.040 -1.1233 -0.5488  1.3069
 6418SOL    HW230714   3.466   0.801  13.909 -1.8404  0.3689 -3.0669
 6419SOL     OW30715   0.179   2.409   1.319 -0.3409  0.1771 -0.2738
 6419SOL    HW130716   0.157   2.474   1.252  1.0916 -1.2318 -2.1192
 6419SOL    HW230717   0.139   2.458   1.390  0.5849 -1.6843  1.5397
 6420SOL     OW30718   2.071   2.599   0.862 -0.0840  0.0026  0.1374
 6420SOL    HW130719   2.013   2.612   0.938 -2.3085 -0.0193 -1.5391
 6420SOL    HW230720   2.059   2.675   0.804 -0.5930  1.3917  2.0612
 6421SOL     OW30721   1.560   4.168  11.155 -0.4923 -0.0588  0.3665
 6421SOL    HW130722   1.642   4.145  11.200  0.8089 -0.6731 -2.2977
 6421SOL    HW230723   1.542   4.096  11.095 -0.3090 -1.1606  1.6368
 6422SOL     OW30724   2.918   0.147  16.593  0.4563 -0.2077 -0.2598
 6422SOL    HW130725   2.931   0.124  16.501  1.4654  0.8292 -0.3727
 6422SOL    HW230726   2.995   0.105  16.631  0.5794  1.5703  1.4532
 6423SOL     OW30727   2.724   1.496   4.042  0.4254  0.1225 -0.9441
 6423SOL    HW130728   2.794   1.559   4.028  0.4069  0.0660 -1.3049
 6423SOL    HW230729   2.762   1.424   3.993  2.7159 -0.2608  1.4368
 6424SOL     OW30730   1.817   3.788   3.294  0.0135 -0.7387 -0.0470
 6424SOL    HW130731   1.767   3.721   3.247 -1.1668 -0.1118  0.3137
 6424SOL    HW230732   1.747   3.802   3.358  1.4466  2.1660  0.8876
 6425SOL     OW30733   4.118   2.032   6.362  0.1458  0.0587  0.1593
 6425SOL    HW130734   4.027   2.044   6.334 -0.2384 -0.7686  1.0455
 6425SOL    HW230735   4.101   2.028   6.456 -1.1089 -0.1011 -0.0766
 6426SOL     OW30736   0.338   4.646   5.496 -0.5334 -0.0139 -0.0810
 6426SOL    HW130737   0.315   4.688   5.413 -2.4814  1.7101  1.3129
 6426SOL    HW230738   0.433   4.641   5.491 -0.3812 -0.0320  2.5714
 6427SOL     OW30739   4.299   3.046   3.436  0.2242  0.2485  0.0118
 6427SOL    HW130740   4.387   3.082   3.427  1.5001 -2.6651  0.6427
 6427SOL    HW230741   4.313   2.952   3.423  2.9649  0.4867  1.1308
 6428SOL     OW30742   3.081   2.733   4.383  0.0084 -0.2164 -0.0714
 6428SOL    HW130743   3.092   2.671   4.311 -3.0970 -1.3804  0.4752
 6428SOL    HW230744   2.986   2.720   4.388  0.0663 -0.4612  0.3574
 6429SOL     OW30745   0.093   1.431   6.408  0.0590 -0.3278  0.0272
 6429SOL    HW130746   0.164   1.486   6.374  0.5897 -1.1657 -0.2214
 6429SOL    HW230747   0.022   1.457   6.350  2.7521  0.5022 -2.8850
 6430SOL     OW30748   3.058   2.916  10.100 -0.3057 -0.3459 -0.4594
 6430SOL    HW130749   3.013   2.869  10.029 -0.6925  1.3197 -1.3260
 6430SOL    HW230750   3.145   2.881  10.084 -0.3375 -0.7677  0.3059
 6431SOL     OW30751   2.852   3.545   6.415 -0.0144  0.4220 -0.3960
 6431SOL    HW130752   2.757   3.546   6.432  0.3100  0.3799  1.4605
 6431SOL    HW230753   2.859   3.465   6.362 -2.0375 -0.1964  0.2598
 6432SOL     OW30754   1.331   0.623   9.829  0.2787  0.9599  0.1539
 6432SOL    HW130755   1.251   0.583   9.864  1.4854 -0.1312  1.6991
 6432SOL    HW230756   1.403   0.559   9.835 -0.0617  0.3206 -2.3797
 6433SOL     OW30757   2.178   4.621   7.821  0.0977  0.6173  0.8236
 6433SOL    HW130758   2.130   4.538   7.832  0.0004  0.6275  0.4648
 6433SOL    HW230759   2.207   4.615   7.731  0.5667 -1.1580  1.0972
 6434SOL     OW30760   4.034   0.751   6.091  0.1466 -0.3242 -0.0373
 6434SOL    HW130761   4.003   0.688   6.026  0.6379  0.3180 -0.8865
 6434SOL    HW230762   3.950   0.753   6.138  0.3076  0.5562  0.2128
 6435SOL     OW30763   0.344   1.411   6.279  0.6028 -0.2303  0.6523
 6435SOL    HW130764   0.329   1.498   6.244 -0.8982 -0.9076 -0.4129
 6435SOL    HW230765   0.429   1.425   6.321 -0.5590  0.0351  2.9143
 6436SOL     OW30766   1.621   4.478   7.085 -0.5762 -0.1734 -0.0679
 6436SOL    HW130767   1.528   4.494   7.095 -0.6624 -0.6088 -0.1533
 6436SOL    HW230768   1.645   4.412   7.150  0.2828 -0.2798 -0.4810
 6437SOL     OW30769   2.724   0.505   4.767  0.0566 -0.2698 -0.2964
 6437SOL    HW130770   2.653   0.567   4.786 -0.5547 -1.1776  0.3946
 6437SOL    HW230771   2.696   0.417   4.790 -3.3921  0.8069 -0.4498
 6438SOL     OW30772   0.434   4.664   5.900  0.0601 -0.0103 -0.1117
 6438SOL    HW130773   0.361   4.674   5.840 -0.5407 -0.3029  0.5684
 6438SOL    HW230774   0.393   4.620   5.975 -3.5630  2.5940 -0.5775
 6439SOL     OW30775   1.173   3.527   9.617  0.3212 -0.1365  0.2436
 6439SOL    HW130776   1.078   3.516   9.619  0.4787 -1.2080  1.8118
 6439SOL    HW230777   1.182   3.560   9.527  1.8224  0.6786  0.6881
 6440SOL     OW30778   4.433   2.001   2.606  0.7836 -0.0974  0.3747
 6440SOL    HW130779   4.435   1.916   2.649 -1.4821  0.0164  0.6690
 6440SOL    HW230780   4.353   1.990   2.554  1.5492 -2.3936 -0.3268
 6441SOL     OW30781   2.196   0.432   5.191 -0.5255  0.3878  0.2743
 6441SOL    HW130782   2.220   0.352   5.237 -2.3885  0.0371  0.6433
 6441SOL    HW230783   2.173   0.478   5.272  1.6967  0.9602  0.5562
 6442SOL     OW30784   2.029   1.152  10.611  0.0806 -0.2040  0.4018
 6442SOL    HW130785   2.016   1.245  10.629  1.0895 -0.0258  0.2061
 6442SOL    HW230786   1.991   1.132  10.526  0.9465 -2.3442  0.5065
 6443SOL     OW30787   3.737   2.171  11.391 -0.4108 -0.0475 -0.4770
 6443SOL    HW130788   3.717   2.085  11.428 -0.6578  0.7768  1.3157
 6443SOL    HW230789   3.828   2.194  11.411 -0.0543 -2.3844  0.6167
 6444SOL     OW30790   2.367   3.923   3.411 -0.3435  0.2988 -0.2837
 6444SOL    HW130791   2.442   3.865   3.420  0.0361  1.0496  1.4326
 6444SOL    HW230792   2.301   3.858   3.386 -2.1944  0.8565  3.0460
 6445SOL     OW30793   2.864   0.379  16.402  0.5522 -0.1080 -0.1985
 6445SOL    HW130794   2.866   0.474  16.385  0.4866 -0.3253 -1.4807
 6445SOL    HW230795   2.885   0.352  16.312 -0.8107 -1.6646 -0.0382
 6446SOL     OW30796   3.776   1.255   1.184  0.3054  0.5624 -0.0365
 6446SOL    HW130797   3.777   1.172   1.232  0.2535  0.5615 -0.0373
 6446SOL    HW230798   3.743   1.313   1.253 -2.4726 -0.3852 -0.5589
 6447SOL     OW30799   0.958   1.095   3.291 -0.3490 -0.4402  0.0952
 6447SOL    HW130800   0.886   1.049   3.248 -0.0057 -0.3287 -0.5914
 6447SOL    HW230801   1.016   1.022   3.315 -1.6681 -1.2989  0.7086
 6448SOL     OW30802   2.315   3.196  17.459  0.0932 -0.0901  0.1160
 6448SOL    HW130803   2.324   3.230  17.370 -0.0072 -1.1938 -0.3208
 6448SOL    HW230804   2.249   3.256  17.494  1.2154  2.0954 -1.4650
 6449SOL     OW30805   1.180   2.831   6.465  0.4385 -0.0820  0.0918
 6449SOL    HW130806   1.221   2.745   6.478  1.9212  0.5202 -0.5629
 6449SOL    HW230807   1.230   2.881   6.530 -0.1403 -1.0494  1.2800
 6450SOL     OW30808   2.516   3.135   7.561  0.3085 -0.4992 -0.4816
 6450SOL    HW130809   2.551   3.046   7.568 -0.9050 -0.9385 -0.0879
 6450SOL    HW230810   2.512   3.136   7.465  0.4991  1.6989 -0.4641
 6451SOL     OW30811   1.818   3.425   4.692 -0.2733 -0.0295  0.0218
 6451SOL    HW130812   1.763   3.436   4.615 -2.6911 -2.3832  1.4054
 6451SOL    HW230813   1.761   3.386   4.759  0.0846 -0.3183  0.1613
 6452SOL     OW30814   1.678   4.333  17.262  0.0956 -0.0781  0.5538
 6452SOL    HW130815   1.719   4.290  17.187  1.3091  0.1864  1.0658
 6452SOL    HW230816   1.750   4.345  17.324 -0.1212  2.1731  0.3863
 6453SOL     OW30817   1.105   1.784   0.494 -0.2680  0.7375 -0.4294
 6453SOL    HW130818   1.063   1.857   0.448 -0.0098  1.9229  1.2230
 6453SOL    HW230819   1.192   1.786   0.454  0.0532 -3.0805  0.1266
 6454SOL     OW30820   0.933   1.280  13.944  0.7791 -0.2748  0.2061
 6454SOL    HW130821   1.021   1.302  13.974  0.3861 -0.4611  1.4676
 6454SOL    HW230822   0.960   1.208  13.886  1.4020 -0.6685  0.9924
 6455SOL     OW30823   3.651   2.823   1.206  0.3871 -0.0736  0.4310
 6455SOL    HW130824   3.711   2.894   1.224  0.3700  0.0557 -0.0135
 6455SOL    HW230825   3.652   2.785   1.294 -1.5666 -0.2634  0.3703
 6456SOL     OW30826   3.131   2.777   4.648 -0.0470  0.3310 -0.2483
 6456SOL    HW130827   3.114   2.735   4.564  0.4917  1.0717 -0.7309
 6456SOL    HW230828   3.066   2.734   4.704 -1.6854 -0.5128 -2.8132
 6457SOL     OW30829   2.100   2.991   5.321  0.2956 -0.3918  0.3437
 6457SOL    HW130830   2.158   2.954   5.388 -0.1600 -0.5155  0.6705
 6457SOL    HW230831   2.019   2.957   5.358 -0.0112 -2.4163 -2.2039
 6458SOL     OW30832   3.547   3.423  10.613  0.4000  0.0151 -0.2756
 6458SOL    HW130833   3.541   3.438  10.518  0.2994  3.1373  0.2283
 6458SOL    HW230834   3.639   3.444  10.629  0.0447 -0.4983  2.4052
 6459SOL     OW30835   0.975   4.102   7.044 -0.4416 -0.5912  0.2684
 6459SOL    HW130836   0.918   4.149   7.104  0.2696  0.0262  0.4701
 6459SOL    HW230837   0.924   4.111   6.964  0.0238 -1.1140 -0.0841
 6460SOL     OW30838   3.991   4.188   6.079  0.1407 -0.5876  0.0602
 6460SOL    HW130839   4.032   4.119   6.131 -0.1882 -1.5814 -0.9957
 6460SOL    HW230840   4.004   4.269   6.130  0.3456 -0.6628  0.1290
 6461SOL     OW30841   3.363   4.057  13.944 -0.2311  0.1137  0.1268
 6461SOL    HW130842   3.289   4.110  13.915  0.0531  0.0876 -0.6380
 6461SOL    HW230843   3.316   4.003  14.008  0.7954  0.5513  1.2370
 6462SOL     OW30844   2.824   2.408   0.254  0.5838  0.2103  0.3153
 6462SOL    HW130845   2.813   2.329   0.307  0.8805 -1.0937 -1.5852
 6462SOL    HW230846   2.846   2.466   0.327  1.1447 -1.7363  1.6892
 6463SOL     OW30847   2.313   1.124   0.827 -0.6772 -0.0428  0.0020
 6463SOL    HW130848   2.320   1.148   0.734 -1.1711  1.2859  0.3097
 6463SOL    HW230849   2.358   1.194   0.873  2.0401 -1.2829 -0.7407
 6464SOL     OW30850   4.482   0.427  16.657 -0.0945  0.1672  0.3930
 6464SOL    HW130851   4.391   0.406  16.634  0.1477 -2.4988  1.9224
 6464SOL    HW230852   4.475   0.396  16.747 -1.3205 -0.6067  0.0336
 6465SOL     OW30853   1.472   4.668   4.323 -0.0635  0.0097  0.0071
 6465SOL    HW130854   1.452   4.577   4.346  0.0111  0.5999  2.4186
 6465SOL    HW230855   1.555   4.657   4.275 -1.0894  0.7699 -1.9462
 6466SOL     OW30856   3.327   1.637   9.887 -0.3354  0.3699 -0.5980
 6466SOL    HW130857   3.279   1.643   9.970  1.1199 -1.8012  0.4158
 6466SOL    HW230858   3.253   1.630   9.826  0.1850 -3.7966 -0.7415
 6467SOL     OW30859   4.036   1.694  11.793  0.2230  0.0084 -0.0688
 6467SOL    HW130860   4.066   1.781  11.767  0.0050  0.8130  2.4054
 6467SOL    HW230861   3.953   1.710  11.839  1.3202  0.3890  1.7961
 6468SOL     OW30862   3.582   3.734   7.457  0.6941 -0.0837  0.7228
 6468SOL    HW130863   3.652   3.798   7.471 -1.5819  2.1364  1.8506
 6468SOL    HW230864   3.505   3.777   7.493  0.8401 -0.4500  1.4734
 6469SOL     OW30865   1.389   1.173   6.301  0.7667 -0.0330 -0.5860
 6469SOL    HW130866   1.311   1.138   6.257  1.2310  0.2354 -1.6296
 6469SOL    HW230867   1.419   1.105   6.362 -0.5573 -1.0285 -1.0362
 6470SOL     OW30868   4.589   3.670   5.495  0.3471 -1.1590 -0.1678
 6470SOL    HW130869   4.513   3.712   5.536  2.4119  1.4139  1.0399
 6470SOL    HW230870   4.572   3.577   5.503  3.9644 -1.7051  1.2933
 6471SOL     OW30871   2.756   4.614   1.926 -0.1040 -0.5443 -0.0738
 6471SOL    HW130872   2.693   4.549   1.959 -1.5361  2.1544  2.5634
 6471SOL    HW230873   2.787   4.579   1.843  0.5699 -0.6957  0.2418
 6472SOL     OW30874   4.440   1.095   5.364  0.0542 -0.0774 -0.0560
 6472SOL    HW130875   4.386   1.076   5.287 -0.1866  1.2244 -0.2030
 6472SOL    HW230876   4.414   1.186   5.379 -2.8933 -0.7286 -1.2727
 6473SOL     OW30877   2.572   4.111  11.976  0.0713 -0.4824  0.3608
 6473SOL    HW130878   2.598   4.035  11.924 -2.5600 -0.0194 -1.6189
 6473SOL    HW230879   2.491   4.130  11.929  0.7284  1.8658  0.1747
 6474SOL     OW30880   1.213   2.118   6.126 -0.4228  0.1923  0.0690
 6474SOL    HW130881   1.133   2.165   6.103 -0.7960 -0.7195 -0.4951
 6474SOL    HW230882   1.223   2.134   6.220  0.6381  0.2841 -0.0650
 6475SOL     OW30883   0.361   4.049   4.484  0.5439 -0.2483 -0.0708
 6475SOL    HW130884   0.333   3.975   4.538  0.9976 -1.7588 -1.8690
 6475SOL    HW230885   0.317   4.031   4.400  1.2294 -0.3912 -0.3961
 6476SOL     OW30886   3.560   3.806   8.832 -0.3584  0.0726 -0.1081
 6476SOL    HW130887   3.481   3.764   8.865  0.7130 -0.1457  2.1773
 6476SOL    HW230888   3.540   3.898   8.849  0.2497  0.4299 -1.3186
 6477SOL     OW30889   1.246   3.580   1.505  0.2508 -0.4290  0.2631
 6477SOL    HW130890   1.157   3.604   1.479  0.2842 -0.5388  0.0458
 6477SOL    HW230891   1.258   3.491   1.471 -0.5879 -0.1946 -0.6368
 6478SOL     OW30892   1.012   1.190   9.023 -0.4379 -0.5814 -0.6411
 6478SOL    HW130893   0.918   1.190   9.038 -0.7730  2.5834 -2.9210
 6478SOL    HW230894   1.024   1.185   8.929 -1.8847 -0.9058 -0.8072
 6479SOL     OW30895   3.684   4.715   5.414 -0.1831 -0.1865 -0.5525
 6479SOL    HW130896   3.728   0.046   5.349 -0.5367  2.6587  1.6269
 6479SOL    HW230897   3.710   4.627   5.389  0.1331 -1.0380  2.8205
 6480SOL     OW30898   3.259   2.249   3.416 -0.3724  0.2339  0.3930
 6480SOL    HW130899   3.296   2.213   3.497 -1.2999 -1.8091 -0.0870
 6480SOL    HW230900   3.235   2.171   3.368  1.4426 -0.1431  0.1044
 6481SOL     OW30901   0.836   3.259  15.212  0.0434 -0.5030 -0.3830
 6481SOL    HW130902   0.859   3.329  15.274  0.1469  0.4023 -1.4556
 6481SOL    HW230903   0.765   3.213  15.256  1.1409 -1.3000  0.5382
 6482SOL     OW30904   3.278   1.520   6.620 -0.2506  1.0497 -0.3700
 6482SOL    HW130905   3.281   1.465   6.542  1.4565 -1.1549  1.2635
 6482SOL    HW230906   3.222   1.597   6.606  0.2528  0.8302 -3.5216
 6483SOL     OW30907   3.295   0.491   4.585  0.3569 -0.0252 -0.1582
 6483SOL    HW130908   3.307   0.586   4.587  0.2911 -0.0962  3.9107
 6483SOL    HW230909   3.216   0.476   4.636 -0.4509 -0.2097 -1.4799
 6484SOL     OW30910   3.026   4.501   0.725 -0.6343  0.4440 -0.1814
 6484SOL    HW130911   2.954   4.502   0.663  0.0209  1.1991 -0.9309
 6484SOL    HW230912   3.106   4.479   0.678 -0.0713  2.7290 -0.2962
 6485SOL     OW30913   4.100   1.471   3.074  0.1954 -0.1631  0.0471
 6485SOL    HW130914   4.173   1.534   3.073 -1.6606  1.9130 -2.7627
 6485SOL    HW230915   4.142   1.397   3.031  0.2196  0.3288 -0.7690
 6486SOL     OW30916   1.590   1.998   3.064 -0.0240 -0.5200  0.0396
 6486SOL    HW130917   1.564   1.968   3.151  0.9072 -0.6589  0.2729
 6486SOL    HW230918   1.675   1.954   3.051 -0.1017 -0.8183  0.5504
 6487SOL     OW30919   2.706   0.392  16.787 -0.1234 -0.3326 -0.3897
 6487SOL    HW130920   2.645   0.466  16.794  0.3786 -0.0509  0.9903
 6487SOL    HW230921   2.650   0.320  16.818 -0.9031 -0.1168 -1.3056
 6488SOL     OW30922   1.285   1.992   0.670  0.5962 -0.2795 -0.1463
 6488SOL    HW130923   1.353   2.058   0.658 -1.2100  1.2997 -1.6643
 6488SOL    HW230924   1.339   1.913   0.672 -0.3421 -0.9157  0.3486
 6489SOL     OW30925   1.318   2.208  11.149 -0.6084 -0.2175 -0.4688
 6489SOL    HW130926   1.286   2.136  11.095 -1.2637 -0.8333  0.7302
 6489SOL    HW230927   1.288   2.283  11.099 -1.3161  1.4328  2.3987
 6490SOL     OW30928   0.470   1.177   2.164  0.2798 -0.3132 -0.4690
 6490SOL    HW130929   0.399   1.224   2.207  1.3168 -0.2936  1.2491
 6490SOL    HW230930   0.467   1.210   2.074  0.0149  1.2237  0.1134
 6491SOL     OW30931   1.566   1.309   9.563  0.5106  0.3505 -0.0352
 6491SOL    HW130932   1.552   1.267   9.478 -0.6044 -1.4115  1.0159
 6491SOL    HW230933   1.483   1.298   9.608  1.3218  0.0784  1.3978
 6492SOL     OW30934   3.680   2.699   9.173  0.1748 -0.3976 -0.1490
 6492SOL    HW130935   3.596   2.672   9.211  0.2171  2.1889  1.7517
 6492SOL    HW230936   3.720   2.612   9.181 -0.6111 -0.7776 -0.3119
 6493SOL     OW30937   3.962   4.266  11.751 -0.1704 -0.5904 -0.2146
 6493SOL    HW130938   3.951   4.360  11.759 -0.1377 -0.6104  0.0489
 6493SOL    HW230939   3.886   4.238  11.802  0.9338 -0.4885  1.4980
 6494SOL     OW30940   1.846   3.122   9.034  0.1631  0.5068 -0.2708
 6494SOL    HW130941   1.853   3.051   9.097 -0.5346  0.4136 -0.3024
 6494SOL    HW230942   1.903   3.081   8.968 -0.7027  0.5707 -1.0547
 6495SOL     OW30943   3.610   3.410   7.190 -0.0775 -0.1188  0.3366
 6495SOL    HW130944   3.667   3.334   7.177  0.3999  0.5699 -1.5115
 6495SOL    HW230945   3.544   3.379   7.252 -2.8616  0.8389 -2.1474
 6496SOL     OW30946   3.532   2.124   3.168 -0.1539  0.6791  0.0373
 6496SOL    HW130947   3.439   2.149   3.164 -0.2177  0.3405 -0.6264
 6496SOL    HW230948   3.523   2.034   3.138  0.2120  0.7127 -0.1859
 6497SOL     OW30949   4.012   0.890   2.440 -0.2507 -0.5774 -0.2999
 6497SOL    HW130950   4.070   0.814   2.442  0.4278 -0.1023 -1.6807
 6497SOL    HW230951   3.934   0.855   2.397  0.4235 -0.6683 -1.4854
 6498SOL     OW30952   2.557   2.635   2.965  0.0200  0.6631  0.8297
 6498SOL    HW130953   2.480   2.689   2.948  0.3584  1.2539  1.1581
 6498SOL    HW230954   2.597   2.699   3.024  2.0425 -1.0433  1.3124
 6499SOL     OW30955   1.807   0.656   0.090  0.3257 -0.1938  0.2190
 6499SOL    HW130956   1.713   0.674   0.086  0.2113 -0.3830  2.4149
 6499SOL    HW230957   1.813   0.564   0.063 -0.4856 -0.6614  1.6547
 6500SOL     OW30958   1.637   3.474  16.873 -0.1897 -0.0806  0.2700
 6500SOL    HW130959   1.552   3.494  16.911 -0.3991  1.5091 -0.9921
 6500SOL    HW230960   1.694   3.530  16.926 -2.0728  0.5933  1.5717
 6501SOL     OW30961   3.422   0.018   6.989 -0.1290 -0.1098 -0.2509
 6501SOL    HW130962   3.364   4.665   6.995  1.2072 -0.9552  1.7109
 6501SOL    HW230963   3.369   0.067   6.926  0.1275 -0.3120 -0.6208
 6502SOL     OW30964   1.417   1.271   7.065  0.3284 -0.0295 -0.5486
 6502SOL    HW130965   1.485   1.260   6.998  0.7311 -0.8734  0.0094
 6502SOL    HW230966   1.467   1.287   7.145 -0.4628  0.7101 -0.2072
 6503SOL     OW30967   0.704   1.539   3.363  0.2035 -0.0915 -0.6100
 6503SOL    HW130968   0.677   1.447   3.362  0.5497 -0.1932 -0.7691
 6503SOL    HW230969   0.613   1.562   3.346 -0.1751 -1.2861 -0.2312
 6504SOL     OW30970   0.623   3.570   7.110 -0.0048  0.3267 -0.1832
 6504SOL    HW130971   0.606   3.517   7.188  0.3781  0.4487 -0.0186
 6504SOL    HW230972   0.549   3.540   7.056  0.7458  0.0319 -1.0543
 6505SOL     OW30973   4.427   2.837   5.081  0.3013  0.4702  0.3609
 6505SOL    HW130974   4.415   2.840   5.176 -1.4509 -0.3832  0.1682
 6505SOL    HW230975   4.424   2.744   5.062 -2.2234  0.4887  0.5964
 6506SOL     OW30976   2.114   2.604   5.277 -0.2450 -0.3065  0.5172
 6506SOL    HW130977   2.062   2.523   5.273  1.6915 -1.6504  2.7195
 6506SOL    HW230978   2.141   2.607   5.369 -4.4784 -0.7981  1.8003
 6507SOL     OW30979   1.889   4.399  17.418  0.1284 -0.0804 -0.6831
 6507SOL    HW130980   1.984   4.384  17.411 -0.1736 -1.0132 -2.7409
 6507SOL    HW230981   1.878   4.493  17.406 -0.3479  0.1044  1.2688
 6508SOL     OW30982   0.216   2.455  11.264 -0.2037 -0.0704  0.4870
 6508SOL    HW130983   0.149   2.522  11.281  1.6028  1.7088  0.5379
 6508SOL    HW230984   0.211   2.407  11.346  0.1538  0.0721  0.5870
 6509SOL     OW30985   0.501   1.685  11.484  0.2214 -0.4847  0.4918
 6509SOL    HW130986   0.510   1.676  11.390 -0.5100 -2.3596  0.6104
 6509SOL    HW230987   0.434   1.752  11.499  0.7802 -0.3464  2.4053
 6510SOL     OW30988   2.242   1.894   6.149  0.0706 -0.2571  0.0654
 6510SOL    HW130989   2.168   1.836   6.129  1.3031 -2.3097  1.5278
 6510SOL    HW230990   2.266   1.940   6.068  0.0381 -2.2918 -1.1093
 6511SOL     OW30991   4.258   1.944   9.582  0.0835  0.4304 -0.1643
 6511SOL    HW130992   4.229   1.863   9.540  0.3679 -0.2020  0.8784
 6511SOL    HW230993   4.171   1.984   9.581 -0.5513 -0.9878 -0.1880
 6512SOL     OW30994   2.073   3.624   4.076 -0.5646  0.3160  0.7921
 6512SOL    HW130995   2.036   3.655   4.158 -0.2839  1.2439  0.5744
 6512SOL    HW230996   2.012   3.660   4.011  1.6112  1.8377 -0.4188
 6513SOL     OW30997   2.764   0.406  12.809  0.0597  0.2676 -0.1398
 6513SOL    HW130998   2.700   0.429  12.877  1.6290 -0.3099  1.5330
 6513SOL    HW230999   2.813   0.488  12.800  0.2337  0.4228  2.2926
 6514SOL     OW31000   3.035   0.216   9.070  0.0092  0.1029 -0.1052
 6514SOL    HW131001   3.083   0.284   9.118  0.0706  0.5253 -0.7605
 6514SOL    HW231002   2.947   0.244   9.093 -0.5023 -0.8474 -0.9537
 6515SOL     OW31003   1.676   0.354   3.159  0.1722  0.2854 -0.1028
 6515SOL    HW131004   1.648   0.342   3.069 -1.5401  2.9078  0.0627
 6515SOL    HW231005   1.771   0.342   3.161  0.2164  0.4931 -0.9049
 6516SOL     OW31006   4.556   3.496   2.955 -0.0593  0.2710  0.0688
 6516SOL    HW131007   4.589   3.573   2.909 -1.3608  1.6401  1.4285
 6516SOL    HW231008   4.465   3.502   2.925  0.1259 -0.8406 -0.7099
 6517SOL     OW31009   2.466   2.613   4.805 -0.7278  0.1318 -0.2137
 6517SOL    HW131010   2.399   2.606   4.873  0.2491  0.9127  0.8206
 6517SOL    HW231011   2.473   2.519   4.788  2.7936  0.4162 -0.4320
 6518SOL     OW31012   3.082   1.272   3.955  0.3935 -0.6316  0.3068
 6518SOL    HW131013   3.133   1.226   4.022  0.3674  0.9080  1.4093
 6518SOL    HW231014   3.127   1.249   3.875 -0.7540 -0.0555 -0.5081
 6519SOL     OW31015   3.448   1.957  13.985 -0.3059 -0.5759  0.4106
 6519SOL    HW131016   3.522   1.996  13.939 -1.4079  1.4366  0.3863
 6519SOL    HW231017   3.374   1.991  13.935 -0.5142 -2.0525 -0.3087
 6520SOL     OW31018   2.340   2.309  15.148 -0.0489  0.0849 -0.4136
 6520SOL    HW131019   2.415   2.338  15.200 -1.1771  2.1347  0.0849
 6520SOL    HW231020   2.342   2.365  15.071 -1.1080  0.2017 -0.3519
 6521SOL     OW31021   3.817   1.437   3.756  0.1502  0.4758  0.8315
 6521SOL    HW131022   3.797   1.484   3.675  2.1153 -3.0467 -1.7163
 6521SOL    HW231023   3.912   1.448   3.758  0.2371 -0.3698  1.0061
 6522SOL     OW31024   2.836   0.366   6.416  0.7193  0.1502  0.2844
 6522SOL    HW131025   2.783   0.293   6.386 -2.1182  2.5000 -0.4645
 6522SOL    HW231026   2.842   0.414   6.334  0.5858 -2.0473 -0.9964
 6523SOL     OW31027   0.283   2.628  17.603  0.3070 -0.0970  0.4695
 6523SOL    HW131028   0.224   2.637  17.528 -1.2992 -0.0760  1.7438
 6523SOL    HW231029   0.231   2.676  17.668  1.5876  0.3469  1.1708
 6524SOL     OW31030   1.783   3.350   4.050  0.5975  0.2864 -0.0349
 6524SOL    HW131031   1.848   3.338   4.119  1.7720 -1.3269 -1.4318
 6524SOL    HW231032   1.827   3.315   3.972  1.8303 -0.2350  0.9029
 6525SOL     OW31033   3.428   2.318  13.814  0.1434 -0.0250 -0.1834
 6525SOL    HW131034   3.377   2.294  13.736  0.4606  1.4241 -0.8265
 6525SOL    HW231035   3.460   2.230  13.838 -0.6896 -0.8079 -1.9249
 6526SOL     OW31036   4.542   2.054   0.759 -0.3744 -0.0358  0.0491
 6526SOL    HW131037   4.555   1.973   0.708  1.4767  0.9195 -1.0220
 6526SOL    HW231038   4.456   2.077   0.725 -0.9453 -0.0136  1.5506
 6527SOL     OW31039   2.515   1.053  17.648 -0.2563  0.5540  0.8099
 6527SOL    HW131040   2.579   1.030   0.019  0.9640 -0.5354 -0.7034
 6527SOL    HW231041   2.438   1.027   0.002  0.1402 -1.0806  0.5755
 6528SOL     OW31042   4.413   3.833   9.481 -0.8595  0.1429 -0.2723
 6528SOL    HW131043   4.406   3.928   9.490 -0.0459  0.4133 -2.5009
 6528SOL    HW231044   4.410   3.806   9.572 -1.8201 -0.1179 -0.3736
 6529SOL     OW31045   1.017   1.778   5.028 -0.1547  0.0184  0.2205
 6529SOL    HW131046   1.107   1.810   5.025 -0.1350 -0.2341 -1.9581
 6529SOL    HW231047   1.031   1.683   5.031  0.7253  0.1029 -1.1387
 6530SOL     OW31048   2.226   2.982  17.285  0.1909  0.5861  0.1067
 6530SOL    HW131049   2.304   3.010  17.332 -0.8268  0.5606  1.7903
 6530SOL    HW231050   2.237   2.887  17.283  1.0111  0.7005 -1.2445
 6531SOL     OW31051   4.285   4.080   2.427 -0.2132 -0.2518  0.5789
 6531SOL    HW131052   4.253   4.159   2.384  0.7424 -0.2908 -0.2117
 6531SOL    HW231053   4.308   4.016   2.360  1.3070  1.5608 -0.6218
 6532SOL     OW31054   3.384   1.016   7.067  0.1248  0.2837 -0.1249
 6532SOL    HW131055   3.359   1.109   7.067 -1.4131 -0.1308  1.7578
 6532SOL    HW231056   3.415   1.015   7.158  0.5167  2.5327 -0.2372
 6533SOL     OW31057   1.578   2.388   9.868 -0.2990  0.0209 -0.5932
 6533SOL    HW131058   1.598   2.299   9.899  0.4508  0.8084  1.1940
 6533SOL    HW231059   1.657   2.418   9.821  0.1825  0.4683  0.4925
 6534SOL     OW31060   4.309   4.067   8.731  0.2248  0.0251 -0.3280
 6534SOL    HW131061   4.365   4.063   8.654  0.9242 -0.9352  0.2419
 6534SOL    HW231062   4.367   4.121   8.784  0.9328 -2.7622  1.6865
 6535SOL     OW31063   1.375   0.328   8.608  0.2323 -0.5208 -0.1991
 6535SOL    HW131064   1.439   0.350   8.541  1.7708 -2.0992  0.7486
 6535SOL    HW231065   1.378   0.232   8.610 -1.8839 -0.6257 -2.0730
 6536SOL     OW31066   2.152   1.094  16.447  0.0877  0.0294  0.0724
 6536SOL    HW131067   2.204   1.114  16.525  0.6361 -1.4568  0.0879
 6536SOL    HW231068   2.179   1.166  16.390 -1.5753  0.0756 -0.6470
 6537SOL     OW31069   1.318   2.929  17.344 -0.2399  1.1009 -0.2363
 6537SOL    HW131070   1.323   2.874  17.266 -0.1693 -0.4116  0.8492
 6537SOL    HW231071   1.256   3.001  17.331  0.4059  1.7541  0.2928
 6538SOL     OW31072   0.879   2.124  12.247 -0.0392 -0.1407 -0.2377
 6538SOL    HW131073   0.903   2.105  12.157  1.1148  0.3381 -0.0294
 6538SOL    HW231074   0.802   2.067  12.247  0.9668 -1.4978 -1.5658
 6539SOL     OW31075   3.806   4.322   7.286 -0.4477  0.0728  0.2423
 6539SOL    HW131076   3.836   4.234   7.265 -0.4880  0.2684 -0.6285
 6539SOL    HW231077   3.746   4.341   7.214  2.3137 -0.5488 -2.2122
 6540SOL     OW31078   3.984   1.642   4.351  0.5306 -0.4577 -0.4257
 6540SOL    HW131079   3.894   1.675   4.353  1.3640  1.7870  0.7040
 6540SOL    HW231080   3.988   1.619   4.444 -2.9697  1.2481  0.1249
 6541SOL     OW31081   3.823   0.193   3.684 -0.3717  0.1811  0.6390
 6541SOL    HW131082   3.784   0.115   3.643  1.5804  0.4747 -1.7669
 6541SOL    HW231083   3.844   0.241   3.604  0.3604 -0.2123  0.6017
 6542SOL     OW31084   2.298   2.324   2.450  0.0131 -0.0397  0.2537
 6542SOL    HW131085   2.388   2.314   2.419 -0.5104 -1.2686 -0.8505
 6542SOL    HW231086   2.281   2.418   2.452  1.2369  0.1879 -0.0437
 6543SOL     OW31087   1.938   3.634  10.110 -0.1866  0.3406 -0.6142
 6543SOL    HW131088   1.883   3.706  10.142 -0.5280 -0.7224  1.2769
 6543SOL    HW231089   2.027   3.669  10.112 -0.6388  1.3806  2.1286
 6544SOL     OW31090   0.050   4.625   7.485  0.4370  0.1345 -0.1203
 6544SOL    HW131091   0.076   4.537   7.459 -1.7124 -0.0768 -1.5867
 6544SOL    HW231092   0.131   4.674   7.476 -0.2148  1.3324  0.4341
 6545SOL     OW31093   2.588   0.340  15.781 -0.0019  0.4656 -0.3536
 6545SOL    HW131094   2.680   0.345  15.808 -0.2876 -1.0426  0.9100
 6545SOL    HW231095   2.585   0.359  15.687  2.4665  0.8285 -0.3592
 6546SOL     OW31096   1.149   4.195   4.886 -0.0197 -0.7611  0.1921
 6546SOL    HW131097   1.103   4.150   4.815 -4.7486  0.5139  2.4709
 6546SOL    HW231098   1.175   4.276   4.842 -1.3334 -1.0754 -1.1584
 6547SOL     OW31099   1.982   3.433   5.226  0.0201  0.0316 -0.2934
 6547SOL    HW131100   2.062   3.425   5.279 -0.4605  1.0986  0.6083
 6547SOL    HW231101   2.014   3.484   5.152 -0.9268 -0.2383 -0.8859
 6548SOL     OW31102   3.875   0.035  15.766 -0.1597 -0.2569 -0.2227
 6548SOL    HW131103   3.843   0.101  15.829  0.9735  1.6060 -1.6100
 6548SOL    HW231104   3.875   4.692  15.834 -4.5600 -1.8833 -1.8293
 6549SOL     OW31105   3.384   0.046   5.528  0.3310 -0.1214 -0.3530
 6549SOL    HW131106   3.388   4.722   5.611  1.8478  0.1339 -0.2854
 6549SOL    HW231107   3.379   4.696   5.467  1.2325 -0.1673 -0.3664
 6550SOL     OW31108   0.174   2.191   5.246 -0.3364  0.4245 -0.3879
 6550SOL    HW131109   0.210   2.271   5.284  0.3654  0.0685 -0.3162
 6550SOL    HW231110   0.079   2.206   5.252 -0.8721 -2.7859 -0.8751
 6551SOL     OW31111   2.856   3.824   6.273  0.6967 -0.3259 -0.4490
 6551SOL    HW131112   2.828   3.912   6.299 -1.9770 -1.0336 -0.9608
 6551SOL    HW231113   2.905   3.797   6.350 -0.3385 -2.5107 -0.5514
 6552SOL     OW31114   1.257   0.554   6.049  0.0190  0.4736 -0.3473
 6552SOL    HW131115   1.337   0.548   5.996 -2.1686 -2.2857 -3.3702
 6552SOL    HW231116   1.195   0.485   6.023 -0.0308  0.5479 -0.4250
 6553SOL     OW31117   2.934   3.527   8.057  0.3750  0.4400  0.4220
 6553SOL    HW131118   2.979   3.603   8.093 -0.4012  0.1885  1.9130
 6553SOL    HW231119   2.901   3.479   8.132  3.2580 -2.7633 -0.3495
 6554SOL     OW31120   1.670   0.280  13.845  0.1276  0.0884 -0.1699
 6554SOL    HW131121   1.736   0.307  13.910  0.3154  0.5977 -0.5819
 6554SOL    HW231122   1.592   0.331  13.866 -0.5640 -1.1707  0.3321
 6555SOL     OW31123   0.653   1.008   0.059 -0.3879  0.1319  0.3420
 6555SOL    HW131124   0.707   1.036  17.681 -0.8791  0.3099  0.0544
 6555SOL    HW231125   0.700   0.925   0.073  0.4819  0.6079  0.2321
 6556SOL     OW31126   1.072   3.815   1.675  0.5957  0.1370  0.3397
 6556SOL    HW131127   1.063   3.720   1.682 -0.4338  0.2311  0.3051
 6556SOL    HW231128   1.077   3.829   1.580  0.9995 -0.4095  0.2843
 6557SOL     OW31129   0.135   1.801  14.857 -0.2775 -0.5794 -0.3148
 6557SOL    HW131130   0.159   1.892  14.871 -0.6672 -0.5111 -0.0869
 6557SOL    HW231131   0.049   1.808  14.898  0.8731  0.2895  1.9302
 6558SOL     OW31132   1.294   0.104   6.273  0.1110  0.4349  0.3761
 6558SOL    HW131133   1.348   0.036   6.231  0.2902  0.6077  0.3258
 6558SOL    HW231134   1.220   0.052   6.302 -1.0688  2.2167  0.5231
 6559SOL     OW31135   0.927   0.598  17.350 -0.1590  0.1602 -0.7026
 6559SOL    HW131136   0.861   0.529  17.357  1.5029 -0.9241  4.0529
 6559SOL    HW231137   0.896   0.661  17.414  2.4132 -0.7067  1.3724
 6560SOL     OW31138   1.788   0.877   8.905  0.5364  0.1869 -0.0329
 6560SOL    HW131139   1.804   0.877   9.000  0.1109 -0.4469  0.0389
 6560SOL    HW231140   1.731   0.954   8.900  2.1917  1.5674  1.6781
 6561SOL     OW31141   0.890   3.472   9.551 -0.5677  0.2484  0.1399
 6561SOL    HW131142   0.926   3.383   9.544  0.2581  0.5454  0.5378
 6561SOL    HW231143   0.799   3.451   9.573 -0.6863  1.6786  0.9901
 6562SOL     OW31144   2.536   4.459   0.161 -0.7290 -0.1478 -0.3170
 6562SOL    HW131145   2.525   4.371   0.198 -0.3538 -0.9194 -2.0637
 6562SOL    HW231146   2.631   4.469   0.174 -0.7038 -1.4260  0.5032
 6563SOL     OW31147   2.953   3.940   3.107  0.3487 -0.1691 -0.3864
 6563SOL    HW131148   2.864   3.928   3.139  0.3556 -2.3520 -1.1755
 6563SOL    HW231149   2.993   3.868   3.156 -0.3208  0.2801  0.8017
 6564SOL     OW31150   4.211   1.426   4.718 -0.1659 -0.5252 -0.2837
 6564SOL    HW131151   4.281   1.364   4.735  0.6284  0.6517  0.7336
 6564SOL    HW231152   4.243   1.467   4.637  2.5755 -1.1698  0.4792
 6565SOL     OW31153   4.359   3.151   9.916 -0.7546 -0.2255  0.0341
 6565SOL    HW131154   4.415   3.156   9.994 -1.6699 -3.0249  0.8535
 6565SOL    HW231155   4.346   3.245   9.902  3.3550  0.3220 -0.1311
 6566SOL     OW31156   1.846   2.213   7.325  0.5557  0.1597 -0.0238
 6566SOL    HW131157   1.880   2.165   7.400  0.6997  0.2699 -0.0179
 6566SOL    HW231158   1.899   2.184   7.251  1.8500 -0.4780  1.1618
 6567SOL     OW31159   1.492   3.525  16.614 -0.2903  0.1154 -0.0274
 6567SOL    HW131160   1.438   3.592  16.656 -0.4673  1.0609 -1.7643
 6567SOL    HW231161   1.574   3.524  16.663 -0.4118 -2.4754  0.1211
 6568SOL     OW31162   1.431   0.359   4.740 -0.3706 -0.2681  0.3072
 6568SOL    HW131163   1.413   0.447   4.705  0.7738 -1.3141 -2.8988
 6568SOL    HW231164   1.488   0.326   4.671  0.3550 -1.1789  1.3578
 6569SOL     OW31165   1.582   3.161   3.924 -0.1730  0.2828 -0.7487
 6569SOL    HW131166   1.507   3.103   3.936 -1.8188  3.0974  2.5709
 6569SOL    HW231167   1.641   3.088   3.907 -0.1042 -0.0069  0.6955
 6570SOL     OW31168   1.748   0.788  16.573 -0.1659  0.1207 -0.5347
 6570SOL    HW131169   1.842   0.806  16.564 -0.0392  0.1278  0.7954
 6570SOL    HW231170   1.708   0.823  16.493  0.3066  2.9783  0.4877
 6571SOL     OW31171   3.335   0.799   7.605 -0.2555  0.6139  0.2983
 6571SOL    HW131172   3.423   0.761   7.614 -0.9414 -1.0932 -0.2010
 6571SOL    HW231173   3.286   0.747   7.668 -2.1998 -0.8975 -2.4558
 6572SOL     OW31174   4.321   4.517  12.569  0.6596 -0.1036 -0.0404
 6572SOL    HW131175   4.332   4.427  12.541 -0.6262 -0.3960  0.4155
 6572SOL    HW231176   4.362   4.563  12.496 -0.2000 -0.5527 -0.8052
 6573SOL     OW31177   3.005   0.396   5.236  0.0213  0.1419  0.2030
 6573SOL    HW131178   2.920   0.400   5.192 -0.7718 -1.1141  1.6655
 6573SOL    HW231179   3.032   0.312   5.200 -1.6166 -1.0826  1.8733
 6574SOL     OW31180   3.930   0.599  13.089 -0.0125 -0.0248  0.3636
 6574SOL    HW131181   3.898   0.513  13.062 -2.0486  0.5515  0.9510
 6574SOL    HW231182   3.903   0.581  13.180  0.7382  1.6611  0.9064
 6575SOL     OW31183   1.024   2.120   6.544  0.4697 -0.5286 -0.1306
 6575SOL    HW131184   1.030   2.060   6.618  1.6957 -2.7090 -2.0110
 6575SOL    HW231185   0.936   2.155   6.552  0.4594 -0.5048 -0.3343
 6576SOL     OW31186   4.386   3.110   4.353  0.4462 -0.0381 -0.0683
 6576SOL    HW131187   4.328   3.186   4.348 -2.2482 -1.9488  2.6706
 6576SOL    HW231188   4.322   3.047   4.386  1.4815 -1.3489 -0.5790
 6577SOL     OW31189   2.474   3.738   0.871 -0.1348 -0.2192 -0.1184
 6577SOL    HW131190   2.489   3.833   0.871 -2.1533  0.0814 -1.6494
 6577SOL    HW231191   2.473   3.730   0.776  0.4397  1.0811 -0.2320
 6578SOL     OW31192   3.921   2.381  15.251  0.1696  0.0452  0.0299
 6578SOL    HW131193   3.951   2.464  15.212 -0.2778  0.3610  0.3587
 6578SOL    HW231194   3.831   2.404  15.274  0.4064 -0.5065  1.5077
 6579SOL     OW31195   2.635   0.042  10.883  0.2293 -0.0053  0.4295
 6579SOL    HW131196   2.572   0.114  10.877 -1.0375 -1.1458  0.1736
 6579SOL    HW231197   2.607   0.005  10.967 -0.6736 -1.4433 -0.5091
 6580SOL     OW31198   3.368   2.421   6.398 -0.1862  0.3495  0.2047
 6580SOL    HW131199   3.385   2.335   6.360 -1.1187  1.4813 -2.7298
 6580SOL    HW231200   3.285   2.397   6.438 -1.3595  1.0714 -1.8123
 6581SOL     OW31201   2.924   4.233   5.070 -0.2094  1.0000 -0.8039
 6581SOL    HW131202   2.973   4.256   5.149  2.6507  1.3757 -2.6827
 6581SOL    HW231203   2.965   4.288   5.003  2.8098 -0.2380  0.0074
 6582SOL     OW31204   3.012   1.908   2.869 -0.0863  0.3424  0.2581
 6582SOL    HW131205   3.092   1.961   2.869  1.0706 -1.3982 -0.2313
 6582SOL    HW231206   2.990   1.929   2.959 -1.2432 -2.9772  0.7321
 6583SOL     OW31207   2.132   2.912  14.027 -0.2731  0.3497  0.2003
 6583SOL    HW131208   2.060   2.887  14.084  0.7777 -0.2737  1.2636
 6583SOL    HW231209   2.157   2.824  14.000  0.0637  1.3314 -2.7199
 6584SOL     OW31210   3.627   1.434   3.025 -0.1550  0.2993 -0.1477
 6584SOL    HW131211   3.714   1.452   3.060  0.0903  2.3571 -1.8463
 6584SOL    HW231212   3.655   1.459   2.937 -2.0074 -0.8964 -1.0764
 6585SOL     OW31213   2.876   1.604   3.670 -0.1275 -0.5076  0.6344
 6585SOL    HW131214   2.903   1.557   3.591  0.8781 -1.6609  1.6726
 6585SOL    HW231215   2.961   1.634   3.703 -0.4831  2.7115 -1.2904
 6586SOL     OW31216   4.525   2.459   9.066 -0.0777 -0.5508  0.0788
 6586SOL    HW131217   4.593   2.392   9.073 -1.1248 -1.5600  0.5781
 6586SOL    HW231218   4.548   2.524   9.133 -2.8623  0.4669  0.0522
 6587SOL     OW31219   3.108   4.662   7.850 -0.4003 -0.1131 -0.2643
 6587SOL    HW131220   3.187   4.639   7.899 -0.3854 -0.2328 -0.3466
 6587SOL    HW231221   3.055   4.670   7.929 -0.3171  0.6048 -0.2808
 6588SOL     OW31222   3.318   3.109   2.031  0.2225 -0.2122  0.0210
 6588SOL    HW131223   3.241   3.165   2.024  0.0471 -0.5742 -0.8784
 6588SOL    HW231224   3.318   3.087   2.125  0.3180  2.4129  0.6312
 6589SOL     OW31225   4.302   1.617   2.222 -0.0792 -0.1985 -0.0752
 6589SOL    HW131226   4.353   1.689   2.185 -2.3088  0.7695 -1.2512
 6589SOL    HW231227   4.309   1.553   2.151 -1.3133 -0.1947 -0.1880
 6590SOL     OW31228   1.479   3.226  13.951 -0.1383 -0.5350 -0.2633
 6590SOL    HW131229   1.510   3.175  13.876 -1.5636 -0.2234 -1.0628
 6590SOL    HW231230   1.393   3.186  13.963 -1.3875  2.9138  2.2500
 6591SOL     OW31231   1.531   2.764   8.588 -0.1536 -0.1987  0.1196
 6591SOL    HW131232   1.495   2.692   8.639  2.3874 -0.7775  1.1102
 6591SOL    HW231233   1.479   2.833   8.629 -1.3493 -2.1549  1.8952
 6592SOL     OW31234   0.089   4.633   6.517 -0.0100  0.2856  0.2811
 6592SOL    HW131235   0.179   4.600   6.518 -0.4183 -0.8517 -0.4198
 6592SOL    HW231236   0.108   4.720   6.483  0.7399  1.4971  3.8058
 6593SOL     OW31237   1.847   4.426  14.602  0.3735  0.5784  0.1303
 6593SOL    HW131238   1.796   4.382  14.534 -0.1460  0.1930  0.7747
 6593SOL    HW231239   1.913   4.357  14.593  0.2805  0.0677  3.5559
 6594SOL     OW31240   0.277   2.767   4.388 -0.2873  0.0005 -0.0577
 6594SOL    HW131241   0.305   2.714   4.463 -0.7852 -1.1283 -0.6747
 6594SOL    HW231242   0.356   2.764   4.335 -1.0292  0.1004 -1.1712
 6595SOL     OW31243   2.388   1.562   5.949 -0.1984 -0.5695 -0.1147
 6595SOL    HW131244   2.403   1.603   5.863 -0.9167  0.7596  0.3986
 6595SOL    HW231245   2.463   1.502   5.948  0.4307  0.2089  1.8134
 6596SOL     OW31246   2.075   0.558   6.724  0.1333  0.6152  0.0421
 6596SOL    HW131247   2.121   0.639   6.700  1.5238 -0.5642 -1.2487
 6596SOL    HW231248   2.027   0.586   6.802 -0.1507 -2.6388  1.0086
 6597SOL     OW31249   3.291   3.061   1.198 -0.4084 -0.3147  0.0451
 6597SOL    HW131250   3.204   3.101   1.192 -0.2173  0.2234  0.8248
 6597SOL    HW231251   3.276   2.967   1.199 -0.1944 -0.3647 -2.7527
 6598SOL     OW31252   0.685   4.024  16.769  0.9778 -0.0195 -0.1386
 6598SOL    HW131253   0.657   3.978  16.690 -0.2531 -0.0262  0.3173
 6598SOL    HW231254   0.634   4.104  16.751 -1.3535 -1.1800  1.3777
 6599SOL     OW31255   4.577   2.357  15.231  0.0476 -0.4376 -0.4035
 6599SOL    HW131256   4.663   2.386  15.262  0.4426  0.5941 -2.4835
 6599SOL    HW231257   4.578   2.378  15.137 -0.5164  2.0390  0.1604
 6600SOL     OW31258   2.640   0.280   4.868  0.3827  0.3260 -0.3267
 6600SOL    HW131259   2.547   0.288   4.888  0.5837  3.7986 -0.7403
 6600SOL    HW231260   2.649   0.199   4.818  3.1562  0.2880  0.2148
 6601SOL     OW31261   2.070   0.789  11.072 -0.2263  0.2295 -0.4130
 6601SOL    HW131262   2.090   0.696  11.087  0.4282  0.6326  1.1419
 6601SOL    HW231263   2.124   0.833  11.137 -1.1553 -0.3793  0.7857
 6602SOL     OW31264   3.108   4.401   4.909  0.3198 -0.1805  0.4113
 6602SOL    HW131265   3.031   4.452   4.936 -1.3648 -3.3729  1.5882
 6602SOL    HW231266   3.178   4.449   4.952  1.4730 -2.0307  0.5958
 6603SOL     OW31267   2.532   3.101  15.506 -0.3225 -0.7622 -0.1239
 6603SOL    HW131268   2.617   3.056  15.510 -0.7432 -1.4194  1.1143
 6603SOL    HW231269   2.471   3.031  15.529 -0.3422 -0.9959 -0.9002
 6604SOL     OW31270   2.322   3.874   4.292 -0.8257 -0.2963 -0.5930
 6604SOL    HW131271   2.329   3.799   4.351  1.5230  1.1691  0.9511
 6604SOL    HW231272   2.403   3.918   4.317 -2.1071  1.8786 -0.2574
 6605SOL     OW31273   2.608   3.497   9.908  0.3284 -0.1601  0.2959
 6605SOL    HW131274   2.546   3.429   9.882 -1.1578  1.2808  0.0780
 6605SOL    HW231275   2.664   3.456   9.974  0.6373  0.0171  0.1447
 6606SOL     OW31276   2.411   2.909  12.027 -0.3487  0.0129 -0.2206
 6606SOL    HW131277   2.366   2.856  11.961  1.8324 -1.2384 -0.6918
 6606SOL    HW231278   2.353   2.893  12.101 -0.4009  0.6780 -0.1102
 6607SOL     OW31279   4.373   4.510   6.758  0.2033 -0.6760  0.5589
 6607SOL    HW131280   4.406   4.478   6.842 -0.0413  1.1018  1.3385
 6607SOL    HW231281   4.436   4.581   6.740 -0.9426  0.0151 -0.7237
 6608SOL     OW31282   3.587   1.813   4.775 -0.0354 -0.0588 -0.3856
 6608SOL    HW131283   3.549   1.775   4.696 -1.6929  1.0907 -0.1524
 6608SOL    HW231284   3.678   1.827   4.749 -0.0095 -0.0872 -0.3107
 6609SOL     OW31285   0.916   3.513   0.340  0.5958 -0.0918  0.4684
 6609SOL    HW131286   0.880   3.570   0.272 -0.1951 -2.3298 -0.9952
 6609SOL    HW231287   0.998   3.561   0.352  1.0513 -0.5236 -0.8637
 6610SOL     OW31288   0.082   2.711   7.921 -0.1663  0.2122 -0.6573
 6610SOL    HW131289   4.711   2.722   7.921 -0.2778 -0.7074  1.7695
 6610SOL    HW231290   0.091   2.616   7.918 -2.5517  0.0815 -3.3655
 6611SOL     OW31291   1.317   0.446   4.107  0.4673  0.4936 -0.3250
 6611SOL    HW131292   1.282   0.535   4.110 -0.7747 -0.0129  0.2196
 6611SOL    HW231293   1.243   0.413   4.057  0.5078  0.9210 -0.6668
 6612SOL     OW31294   3.650   1.309   7.139  0.1571  0.2653  0.4324
 6612SOL    HW131295   3.702   1.253   7.197  1.7054 -0.9536 -2.0998
 6612SOL    HW231296   3.686   1.395   7.159 -0.9711  0.7696  0.2833
 6613SOL     OW31297   1.727   1.838  14.835  0.2548 -0.0395  0.2183
 6613SOL    HW131298   1.710   1.839  14.741 -1.3487  1.5673  0.5364
 6613SOL    HW231299   1.739   1.744  14.849 -0.0397 -0.4118 -1.9252
 6614SOL     OW31300   3.368   2.005   2.912  0.8184 -0.1423  0.0834
 6614SOL    HW131301   3.392   1.915   2.888 -1.2368 -1.0940  1.6234
 6614SOL    HW231302   3.428   2.062   2.863 -1.0103  2.1893  0.5577
 6615SOL     OW31303   3.739   3.933   4.174  0.3865  0.5301 -0.0786
 6615SOL    HW131304   3.685   4.002   4.212  0.4459 -0.7919  2.3957
 6615SOL    HW231305   3.679   3.858   4.175 -0.4813  1.1649 -3.5998
 6616SOL     OW31306   1.020   1.792   6.477  1.2996  0.6821  0.2546
 6616SOL    HW131307   1.019   1.887   6.481  2.2394  0.7393 -0.7172
 6616SOL    HW231308   1.086   1.777   6.545 -0.4734 -0.8120  1.6309
 6617SOL     OW31309   1.728   4.159   0.215 -0.7532 -0.4651 -0.2509
 6617SOL    HW131310   1.734   4.155   0.119  0.2483  2.3473 -0.3090
 6617SOL    HW231311   1.689   4.244   0.236  2.0594  0.6123  0.5312
 6618SOL     OW31312   3.956   0.510  17.066  0.5224 -0.1208  0.0135
 6618SOL    HW131313   4.036   0.507  17.119 -0.8676 -0.6743  2.0872
 6618SOL    HW231314   3.880   0.528  17.122 -1.6428 -3.0136 -2.0145
 6619SOL     OW31315   3.450   0.601   5.643  0.1386  0.1441 -0.1702
 6619SOL    HW131316   3.383   0.665   5.618  0.3548  0.7185  0.7294
 6619SOL    HW231317   3.456   0.541   5.569 -3.4748  0.8787 -1.0523
 6620SOL     OW31318   3.784   4.111   6.823  0.0740  0.6055 -0.3057
 6620SOL    HW131319   3.762   4.176   6.889  1.0443  0.1223  0.5054
 6620SOL    HW231320   3.789   4.026   6.867 -3.6596 -0.2671 -1.5992
 6621SOL     OW31321   4.684   2.149   9.791 -0.1345  0.7334 -0.4472
 6621SOL    HW131322   4.646   2.067   9.762  0.2732 -0.0480  1.2566
 6621SOL    HW231323   4.676   2.118   9.881  2.9411 -2.2180 -1.1908
 6622SOL     OW31324   0.003   0.704  11.671  0.6421 -0.0172  0.0158
 6622SOL    HW131325   4.640   0.740  11.653  0.0922 -0.8432  1.0351
 6622SOL    HW231326   4.715   0.609  11.665 -0.3404  0.3575 -3.8850
 6623SOL     OW31327   0.320   3.744   9.007  1.0268  0.3685 -0.2600
 6623SOL    HW131328   0.282   3.806   9.070  0.8364  0.2711 -0.2804
 6623SOL    HW231329   0.247   3.682   9.011  1.9868 -0.6753  0.9530
 6624SOL     OW31330   0.217   0.564   6.258 -0.3539 -0.2376  0.5459
 6624SOL    HW131331   0.252   0.652   6.268  2.3897 -1.4289  1.4135
 6624SOL    HW231332   0.127   0.576   6.289  0.3312  2.0937  1.6398
 6625SOL     OW31333   4.424   3.191   6.822  0.3461 -0.5892  0.5496
 6625SOL    HW131334   4.346   3.238   6.851  0.6603  2.1709 -3.0068
 6625SOL    HW231335   4.482   3.222   6.892 -1.4841  0.6401  1.5165
 6626SOL     OW31336   1.939   1.272  16.637 -0.6638 -0.1958 -0.0995
 6626SOL    HW131337   1.861   1.221  16.614  0.4320 -1.2402 -1.4827
 6626SOL    HW231338   1.989   1.273  16.556 -1.0798 -2.6039 -0.3644
 6627SOL     OW31339   1.343   4.671  11.238  0.8762  0.1309  0.6626
 6627SOL    HW131340   1.418   0.004  11.256  0.4463  0.1747  2.3217
 6627SOL    HW231341   1.326   4.637  11.326  0.3576  0.9041  0.8613
 6628SOL     OW31342   3.451   2.173   1.379 -0.3003  0.4466  0.0877
 6628SOL    HW131343   3.490   2.158   1.466 -2.7312 -0.1756  1.0890
 6628SOL    HW231344   3.525   2.209   1.331  0.5120  0.6580  1.4897
 6629SOL     OW31345   1.021   2.589   4.711  0.4288 -0.6249 -0.0689
 6629SOL    HW131346   1.050   2.622   4.626  0.2034 -0.1199  0.0461
 6629SOL    HW231347   0.935   2.558   4.686  0.4279 -0.7905  0.1464
 6630SOL     OW31348   1.283   4.105  12.121 -0.1966  0.4327  0.4982
 6630SOL    HW131349   1.313   4.174  12.179 -2.0213  0.8908  0.9108
 6630SOL    HW231350   1.366   4.080  12.080 -1.2387  0.7391 -1.8063
 6631SOL     OW31351   1.638   3.083   2.919  0.0740  0.0014  0.1025
 6631SOL    HW131352   1.730   3.102   2.937 -0.2706  1.6904  0.1374
 6631SOL    HW231353   1.611   3.033   2.996  0.5108  0.8655  0.8237
 6632SOL     OW31354   4.638   3.640  11.158  0.2077 -0.0376  0.0456
 6632SOL    HW131355   4.553   3.620  11.196 -0.7134  1.6178 -1.1890
 6632SOL    HW231356   4.685   3.618  11.239 -0.2413 -0.0998  0.2866
 6633SOL     OW31357   0.311   2.157   7.407  0.0108 -0.5608 -0.1422
 6633SOL    HW131358   0.326   2.098   7.480  1.0378  1.0280  0.9423
 6633SOL    HW231359   0.285   2.242   7.442 -1.7486 -1.2283  0.1647
 6634SOL     OW31360   3.793   3.692   6.186 -0.7352  0.5290 -0.3002
 6634SOL    HW131361   3.821   3.603   6.209 -0.0007  0.4320 -1.5747
 6634SOL    HW231362   3.705   3.680   6.149 -0.1627 -0.3235 -1.3711
 6635SOL     OW31363   1.584   2.978   8.876 -0.3199  0.1718  0.2238
 6635SOL    HW131364   1.512   2.943   8.823 -0.0302 -0.4923  0.2679
 6635SOL    HW231365   1.648   2.920   8.835 -1.9287 -1.0554 -0.5348
 6636SOL     OW31366   1.884   4.613   8.589  0.1095  0.5391 -0.5141
 6636SOL    HW131367   1.844   4.600   8.503 -2.5521  1.0942  0.6298
 6636SOL    HW231368   1.976   4.614   8.561 -0.5939 -1.0780 -2.9205
 6637SOL     OW31369   3.866   2.295   9.454 -0.1070 -0.0425  0.5431
 6637SOL    HW131370   3.822   2.380   9.458  0.5512  0.2845  0.9181
 6637SOL    HW231371   3.803   2.233   9.490 -2.0660  1.1055 -0.9448
 6638SOL     OW31372   1.757   1.606   7.364  0.1850 -0.4851  0.1641
 6638SOL    HW131373   1.721   1.540   7.423  2.0791 -0.1789  1.6550
 6638SOL    HW231374   1.747   1.553   7.285  0.9783 -0.7623  0.2490
 6639SOL     OW31375   0.233   0.603  10.252  0.1379 -0.0673  0.0069
 6639SOL    HW131376   0.173   0.653  10.196  0.1295  0.2712  0.3126
 6639SOL    HW231377   0.187   0.619  10.335  3.4381 -0.5178  1.9292
 6640SOL     OW31378   1.124   1.261   3.118 -0.2771  0.2193  0.0692
 6640SOL    HW131379   1.201   1.208   3.096 -0.1011  0.4628  0.0928
 6640SOL    HW231380   1.069   1.198   3.164  0.1968  0.4862  1.0034
 6641SOL     OW31381   2.729   0.997   4.359  0.2857 -0.4461 -0.1931
 6641SOL    HW131382   2.810   1.005   4.308 -0.1744 -0.3116 -0.8874
 6641SOL    HW231383   2.728   1.084   4.399  0.5748 -1.5898  2.3453
 6642SOL     OW31384   2.757   3.551   2.965 -0.5736 -0.3352  0.5001
 6642SOL    HW131385   2.670   3.571   2.999 -0.6614  0.1839 -0.0457
 6642SOL    HW231386   2.769   3.468   3.012  1.1490  0.7684  2.0212
 6643SOL     OW31387   4.299   2.005   4.177 -0.4654 -0.1632 -0.1034
 6643SOL    HW131388   4.305   1.916   4.210 -0.3016  1.3346  3.9486
 6643SOL    HW231389   4.220   2.039   4.221 -0.0122  0.9979 -0.1870
 6644SOL     OW31390   1.156   2.123   3.421 -0.0714 -0.1029 -0.1139
 6644SOL    HW131391   1.246   2.135   3.450 -0.5006 -0.9995  1.5864
 6644SOL    HW231392   1.106   2.148   3.499 -0.4101  4.8468 -1.9322
 6645SOL     OW31393   0.614   2.251   7.509  0.1119 -0.3833 -0.3670
 6645SOL    HW131394   0.571   2.304   7.442 -0.6158 -2.4075 -1.5094
 6645SOL    HW231395   0.594   2.168   7.466  0.0544 -0.4875 -0.1406
 6646SOL     OW31396   2.599   0.347  13.267 -0.3371  0.1147  0.6482
 6646SOL    HW131397   2.582   0.435  13.234  0.7131 -0.7930 -2.3088
 6646SOL    HW231398   2.693   0.334  13.252 -0.4538 -1.3165  1.1009
 6647SOL     OW31399   1.955   3.705   4.310  0.2451  0.1937  0.0112
 6647SOL    HW131400   1.989   3.635   4.366  1.2946  0.0281 -0.8502
 6647SOL    HW231401   1.870   3.666   4.287 -0.4828  3.4558 -2.6947
 6648SOL     OW31402   1.178   2.686  13.794 -0.3901  0.2810  0.4826
 6648SOL    HW131403   1.163   2.774  13.830 -1.5563  0.1700  0.2582
 6648SOL    HW231404   1.253   2.653  13.843  0.6067  1.0827 -0.4872
 6649SOL     OW31405   3.910   2.936   4.463 -0.7340  0.2512  0.0948
 6649SOL    HW131406   3.837   2.881   4.493  1.3776 -1.6435  1.6940
 6649SOL    HW231407   3.976   2.867   4.469  1.0564  1.9477 -0.3405
 6650SOL     OW31408   0.116   0.564   5.072 -0.6053  0.1537 -0.4475
 6650SOL    HW131409   0.196   0.583   5.024  0.0381  2.4336  1.5357
 6650SOL    HW231410   0.068   0.508   5.011 -0.0276  0.3402 -1.0734
 6651SOL     OW31411   3.262   0.030   9.066 -0.4718  0.7020  0.0638
 6651SOL    HW131412   3.256   0.058   8.974 -0.4935  0.5948  0.0321
 6651SOL    HW231413   3.182   0.067   9.103 -1.3592 -0.3420 -0.7953
 6652SOL     OW31414   1.792   3.056   8.610  1.0962 -0.8300  0.5115
 6652SOL    HW131415   1.697   3.067   8.611  0.8239 -3.1794  1.0075
 6652SOL    HW231416   1.826   3.144   8.626  0.8847 -0.5689 -0.4644
 6653SOL     OW31417   3.970   2.548   5.489  0.3369 -0.3943  0.9650
 6653SOL    HW131418   3.933   2.634   5.471 -0.9512 -0.4634  3.2886
 6653SOL    HW231419   3.993   2.557   5.582 -1.7173  2.1357  1.2120
 6654SOL     OW31420   2.704   2.065  13.108  0.3740 -0.1861  0.7568
 6654SOL    HW131421   2.746   2.133  13.056 -0.0169 -0.7769 -0.3349
 6654SOL    HW231422   2.733   1.990  13.056  0.4798 -0.7611  1.6411
 6655SOL     OW31423   4.564   0.352   4.682  0.1259  0.4566 -0.1121
 6655SOL    HW131424   4.514   0.279   4.716  1.5552 -0.8894 -0.8684
 6655SOL    HW231425   4.501   0.422   4.701  2.0272  2.2795 -0.4131
 6656SOL     OW31426   0.517   1.030   3.952 -0.2547 -0.1583 -0.2237
 6656SOL    HW131427   0.585   0.965   3.934 -1.1706 -1.3573  0.6221
 6656SOL    HW231428   0.538   1.057   4.041 -0.8248 -2.9148  0.7537
 6657SOL     OW31429   3.714   1.784   8.058 -0.1459  0.3479 -0.0248
 6657SOL    HW131430   3.717   1.829   8.142 -1.0041 -2.4376  1.4806
 6657SOL    HW231431   3.662   1.709   8.087  0.4624  0.4673  1.3429
 6658SOL     OW31432   0.834   0.195   8.592 -0.3481 -0.4228 -0.1891
 6658SOL    HW131433   0.806   0.214   8.681  2.0382  1.7690  0.0867
 6658SOL    HW231434   0.895   0.123   8.605 -0.7992 -1.0691 -1.6056
 6659SOL     OW31435   1.657   3.231   9.700 -0.5667 -0.2111  0.3827
 6659SOL    HW131436   1.622   3.302   9.753  1.8286  0.1616  1.4826
 6659SOL    HW231437   1.670   3.266   9.612  2.6887 -0.2473  0.8505
 6660SOL     OW31438   1.798   0.768  15.312 -0.0356 -0.6529  0.0562
 6660SOL    HW131439   1.834   0.812  15.388 -0.2273  0.7195 -0.6584
 6660SOL    HW231440   1.787   0.837  15.246  0.4487  2.4737  3.2994
 6661SOL     OW31441   4.122   4.621   6.740  0.5863 -0.9853  0.2018
 6661SOL    HW131442   4.135   4.692   6.677 -0.3662 -2.4955 -1.7215
 6661SOL    HW231443   4.213   4.591   6.743  0.8966 -0.0153  0.4215
 6662SOL     OW31444   4.170   2.040  12.348  0.0165 -0.4384 -0.5244
 6662SOL    HW131445   4.253   2.000  12.371 -0.1017 -0.4271 -0.0757
 6662SOL    HW231446   4.147   1.977  12.279  0.3688  0.5206 -1.5149
 6663SOL     OW31447   2.399   0.715  12.449 -0.1908 -0.2178  0.6324
 6663SOL    HW131448   2.474   0.733  12.506  2.1315 -1.4123 -2.0446
 6663SOL    HW231449   2.360   0.661  12.519 -0.7799  0.8144  1.0989
 6664SOL     OW31450   1.253   3.778  15.326  0.2775  0.3437 -0.3253
 6664SOL    HW131451   1.290   3.753  15.411 -2.0321 -0.8874  0.3164
 6664SOL    HW231452   1.279   3.702  15.274  1.7565  0.1554  0.6814
 6665SOL     OW31453   3.964   1.033  15.007 -0.2827 -0.7639 -0.4914
 6665SOL    HW131454   3.994   0.952  14.964 -0.2278 -0.4434 -1.0517
 6665SOL    HW231455   3.872   1.014  15.024 -0.5540  0.2015 -0.8976
 6666SOL     OW31456   2.528   1.267   5.950  0.0875  0.3554 -0.2234
 6666SOL    HW131457   2.569   1.184   5.974  0.6950  0.3565 -1.2664
 6666SOL    HW231458   2.458   1.245   5.888  0.9029 -1.3655 -0.5440
 6667SOL     OW31459   0.879   4.460   7.546 -0.1162  0.0896 -0.3474
 6667SOL    HW131460   0.828   4.492   7.471  0.4672 -0.2627 -0.8904
 6667SOL    HW231461   0.813   4.407   7.590 -2.4386  2.0055 -1.5186
 6668SOL     OW31462   1.156   0.222   6.008 -0.2121 -0.3433  0.0299
 6668SOL    HW131463   1.109   0.139   6.014  0.8742 -0.8185  1.9121
 6668SOL    HW231464   1.221   0.216   6.078  2.3845  0.7742 -2.2822
 6669SOL     OW31465   4.034   4.411   6.256 -0.2773 -0.6074 -0.0059
 6669SOL    HW131466   4.016   4.429   6.349  2.6888  0.4728  0.3413
 6669SOL    HW231467   4.128   4.427   6.247 -0.4229 -0.2404 -0.8826
 6670SOL     OW31468   2.266   3.043   1.688  0.5451  0.5224  0.2328
 6670SOL    HW131469   2.217   3.117   1.723  0.3769 -0.3311  1.8176
 6670SOL    HW231470   2.291   3.009   1.774 -1.5098  1.1193  1.0622
 6671SOL     OW31471   3.136   2.097   5.112 -0.1483  0.2515 -0.2412
 6671SOL    HW131472   3.041   2.107   5.110 -0.1506  0.4419  1.2041
 6671SOL    HW231473   3.153   2.054   5.028  1.2876  0.2248  0.0613
 6672SOL     OW31474   0.743   2.869  13.782 -0.6301 -0.2118  0.6787
 6672SOL    HW131475   0.761   2.960  13.802  1.8453 -0.4235 -0.6213
 6672SOL    HW231476   0.687   2.852  13.858  0.3941  1.9560  1.9227
 6673SOL     OW31477   1.496   3.971  15.255  0.1244  0.7087 -0.5172
 6673SOL    HW131478   1.526   3.895  15.305 -1.6678  1.2978  1.4752
 6673SOL    HW231479   1.485   4.035  15.325  0.4670 -0.4742  0.6235
 6674SOL     OW31480   2.815   3.135  12.818 -0.5711  0.5299 -0.3718
 6674SOL    HW131481   2.798   3.081  12.895 -2.8263  2.7932  0.7059
 6674SOL    HW231482   2.903   3.103  12.798 -0.5734 -0.2087  0.7994
 6675SOL     OW31483   1.451   1.354   5.886 -0.7171 -0.0055  0.3377
 6675SOL    HW131484   1.515   1.371   5.817 -1.4337 -3.0965 -1.0939
 6675SOL    HW231485   1.502   1.302   5.949  2.1299 -0.3791 -2.2641
 6676SOL     OW31486   2.800   0.760  15.450 -0.5422  0.0887  0.3249
 6676SOL    HW131487   2.764   0.848  15.441 -0.4934  0.2925  2.1220
 6676SOL    HW231488   2.859   0.776  15.524  0.7777 -1.9659 -0.2978
 6677SOL     OW31489   0.156   3.094  10.867  0.6319 -0.0571  0.0153
 6677SOL    HW131490   0.181   3.134  10.784  0.5026  0.3725  0.1880
 6677SOL    HW231491   0.103   3.168  10.896  0.1234 -0.3824 -0.0688
 6678SOL     OW31492   1.773   0.602   5.445  0.5483 -0.0554  0.3143
 6678SOL    HW131493   1.852   0.617   5.496 -0.9441  1.4283  2.1844
 6678SOL    HW231494   1.731   0.688   5.451  0.7049 -0.0397  1.1921
 6679SOL     OW31495   2.708   1.676   6.486 -0.0050 -0.4768  0.4165
 6679SOL    HW131496   2.756   1.609   6.437  0.3842  1.6429 -2.1218
 6679SOL    HW231497   2.717   1.756   6.434  0.9344 -1.3131 -0.7114
 6680SOL     OW31498   0.676   2.273   3.119  0.1898  0.2136  0.2971
 6680SOL    HW131499   0.735   2.276   3.195 -1.9458  1.5309  1.9108
 6680SOL    HW231500   0.672   2.365   3.092 -1.0478  0.1836  0.3588
 6681SOL     OW31501   3.265   4.476   1.005 -0.9745 -0.0133 -0.5701
 6681SOL    HW131502   3.194   4.500   1.064 -1.0459  1.4131 -1.2407
 6681SOL    HW231503   3.326   4.457   1.076 -1.8184  3.2466  0.9939
 6682SOL     OW31504   1.776   1.567  10.406  0.0742  0.0128  0.8076
 6682SOL    HW131505   1.791   1.474  10.426  0.4088 -0.4109 -1.4529
 6682SOL    HW231506   1.781   1.608  10.493  0.5143  2.6291 -0.4701
 6683SOL     OW31507   3.091   0.774   4.493  0.3966 -0.3097  0.0531
 6683SOL    HW131508   3.026   0.707   4.473  1.4994 -0.8241 -1.8733
 6683SOL    HW231509   3.065   0.802   4.581  0.5689  0.8468 -0.2617
 6684SOL     OW31510   0.917   2.261   2.684 -0.1986  0.2113 -0.3891
 6684SOL    HW131511   0.836   2.300   2.718  0.6966 -0.4292  2.4534
 6684SOL    HW231512   0.973   2.263   2.762 -1.0071 -1.1365  0.2285
 6685SOL     OW31513   1.656   3.915  15.782 -0.1602  0.1733 -0.0399
 6685SOL    HW131514   1.620   3.827  15.773 -0.8563  0.7466 -2.7771
 6685SOL    HW231515   1.748   3.889  15.770  0.2592  1.4061  0.4262
 6686SOL     OW31516   4.689   3.445   6.193  0.2704 -0.1606  0.1231
 6686SOL    HW131517   4.712   3.524   6.144 -0.0246 -1.1151 -1.5558
 6686SOL    HW231518   4.710   3.468   6.284 -2.1426  0.1613  0.5766
 6687SOL     OW31519   0.583   4.699   5.233  0.3008 -0.5125  0.7151
 6687SOL    HW131520   0.515   0.019   5.284 -0.5299 -1.2234  0.2024
 6687SOL    HW231521   0.572   0.021   5.150  1.1514  1.0131  1.4406
 6688SOL     OW31522   3.725   4.378   3.354  0.0704  0.3547  0.7472
 6688SOL    HW131523   3.647   4.414   3.397 -0.6444  0.5742 -0.7272
 6688SOL    HW231524   3.772   4.461   3.343  2.1339 -0.6624  2.0609
 6689SOL     OW31525   1.284   3.228   6.582  0.4054  0.3568 -0.0004
 6689SOL    HW131526   1.346   3.289   6.624 -0.8281 -1.4928  4.5300
 6689SOL    HW231527   1.236   3.205   6.662 -0.5484  0.2435 -0.6127
 6690SOL     OW31528   0.753   0.271   8.842  0.9241 -0.0191  0.1334
 6690SOL    HW131529   0.671   0.221   8.846  1.5372 -0.8530  2.7539
 6690SOL    HW231530   0.779   0.281   8.934  1.6280 -4.6728  0.4435
 6691SOL     OW31531   1.073   2.543   6.093 -0.0118 -0.5613  0.4234
 6691SOL    HW131532   1.123   2.528   6.172 -0.0826 -0.0798  0.5567
 6691SOL    HW231533   1.089   2.460   6.048  0.2921  1.8554 -3.8868
 6692SOL     OW31534   2.051   0.275  13.588 -0.2945  0.2964 -0.3137
 6692SOL    HW131535   1.956   0.277  13.585 -0.2451  0.7218 -1.4140
 6692SOL    HW231536   2.082   0.366  13.589  1.7636 -0.4028  0.9345
 6693SOL     OW31537   3.414   4.257   4.231 -0.1555  0.3771 -0.6510
 6693SOL    HW131538   3.456   4.277   4.148  0.5795  1.0399 -0.1178
 6693SOL    HW231539   3.411   4.163   4.218  0.1730  0.2502  0.1858
 6694SOL     OW31540   1.562   0.232   2.278 -1.1575 -0.0731 -0.0739
 6694SOL    HW131541   1.498   0.302   2.286 -0.7117  0.2072  1.0756
 6694SOL    HW231542   1.543   0.203   2.189  0.1970 -1.8801  0.2302
 6695SOL     OW31543   1.277   1.238   6.771 -0.0552 -0.0058 -0.4226
 6695SOL    HW131544   1.354   1.289   6.796 -0.8403  0.1588  1.7113
 6695SOL    HW231545   1.205   1.278   6.819 -1.4804  0.5512 -3.0624
 6696SOL     OW31546   2.289   2.089   7.914  0.3430  0.3537  0.5900
 6696SOL    HW131547   2.308   1.995   7.911 -0.4042  0.2894 -2.2300
 6696SOL    HW231548   2.314   2.104   8.006  0.9910  0.9247  0.3210
 6697SOL     OW31549   0.990   1.668  10.910  0.4706  0.1429  0.4995
 6697SOL    HW131550   0.908   1.713  10.932 -1.1116 -2.6151  0.2548
 6697SOL    HW231551   0.963   1.592  10.859 -2.7046  2.4725 -1.3036
 6698SOL     OW31552   3.550   0.081   8.908 -0.6492 -0.3229 -0.1032
 6698SOL    HW131553   3.614   0.055   8.973 -1.0636  1.4959  1.0383
 6698SOL    HW231554   3.485   0.011   8.915  0.6615 -1.6231 -0.9505
 6699SOL     OW31555   0.867   1.305   9.585  0.2610  0.1751 -0.6333
 6699SOL    HW131556   0.857   1.220   9.627  0.7442  0.4045 -0.0545
 6699SOL    HW231557   0.905   1.286   9.499 -0.0398 -1.3085 -0.4334
 6700SOL     OW31558   3.194   1.245  11.484 -0.2863  0.4253 -0.5291
 6700SOL    HW131559   3.231   1.304  11.418 -0.8464  0.4063 -0.8559
 6700SOL    HW231560   3.108   1.222  11.448 -0.2426 -0.4046 -0.0882
 6701SOL     OW31561   3.697   0.809   5.441 -0.1684 -0.3375 -0.1306
 6701SOL    HW131562   3.707   0.759   5.522  0.6176  0.3038  0.1705
 6701SOL    HW231563   3.703   0.741   5.373 -0.9135 -0.1334 -0.3954
 6702SOL     OW31564   2.029   2.924   8.902  0.6386  0.5105  0.0429
 6702SOL    HW131565   2.094   2.855   8.891 -1.2031 -1.1707 -0.2096
 6702SOL    HW231566   1.954   2.885   8.858  0.1783  0.2315  1.0836
 6703SOL     OW31567   4.711   2.988  13.869 -0.3307  0.3098 -0.9965
 6703SOL    HW131568   4.680   3.073  13.898 -0.8984 -0.2016 -0.1350
 6703SOL    HW231569   0.066   2.967  13.919 -0.2734 -0.6742 -1.4865
 6704SOL     OW31570   3.752   3.415   8.154 -0.2607 -0.1201  0.5033
 6704SOL    HW131571   3.721   3.324   8.150 -3.0625  0.8611 -0.1298
 6704SOL    HW231572   3.846   3.403   8.164 -0.6332 -2.6563  1.0290
 6705SOL     OW31573   1.919   3.685   3.859  0.2684  0.5858 -1.0329
 6705SOL    HW131574   1.825   3.670   3.869  0.1025  3.5635  1.9755
 6705SOL    HW231575   1.923   3.723   3.771 -1.1487 -1.6581 -2.0564
 6706SOL     OW31576   0.139   1.557   3.316  0.0377  0.1629  0.5219
 6706SOL    HW131577   0.118   1.630   3.375 -0.8888  1.1973 -1.0668
 6706SOL    HW231578   0.134   1.604   3.232  2.8179  0.3996  0.4884
 6707SOL     OW31579   4.603   4.177   5.139 -0.0944 -0.9653  0.4517
 6707SOL    HW131580   4.691   4.170   5.104  0.0423  1.5336  0.3588
 6707SOL    HW231581   4.562   4.257   5.107  0.2708 -1.4018 -1.1025
 6708SOL     OW31582   1.329   1.910   1.473  0.1168 -0.2700  0.3515
 6708SOL    HW131583   1.371   1.836   1.518 -0.2411 -1.1770 -0.7907
 6708SOL    HW231584   1.293   1.860   1.400  0.8733  0.9514 -0.8508
 6709SOL     OW31585   2.692   2.845  17.170  0.7294  0.4622 -0.0044
 6709SOL    HW131586   2.682   2.936  17.199 -0.5156 -0.2939  1.9420
 6709SOL    HW231587   2.625   2.793  17.213 -0.1718 -0.1163 -2.1396
 6710SOL     OW31588   0.362   1.784   3.693  0.5270 -0.0121 -0.6229
 6710SOL    HW131589   0.370   1.722   3.765  0.8847  0.4324 -0.2798
 6710SOL    HW231590   0.268   1.798   3.680  0.5234 -2.1209 -2.8545
 6711SOL     OW31591   3.055   2.402   2.726  0.0431  0.0586  0.8615
 6711SOL    HW131592   3.079   2.320   2.769 -1.7970 -1.3272 -0.7402
 6711SOL    HW231593   3.052   2.456   2.805 -0.8372  2.1946 -0.6250
 6712SOL     OW31594   2.056   2.080  15.408  0.6261  0.4862 -0.3312
 6712SOL    HW131595   2.139   2.127  15.417  0.2168  0.9982  0.6884
 6712SOL    HW231596   2.081   2.034  15.327  0.0863 -0.4098  0.0167
 6713SOL     OW31597   3.743   2.767   3.340 -0.8078  0.4717  0.2189
 6713SOL    HW131598   3.676   2.760   3.272 -2.7511  0.1275  2.1763
 6713SOL    HW231599   3.818   2.757   3.282 -1.8238 -1.6627 -0.6920
 6714SOL     OW31600   3.890   1.422   8.180  0.9042  0.1458 -0.1003
 6714SOL    HW131601   3.863   1.345   8.129  1.4459  0.1163 -0.3536
 6714SOL    HW231602   3.819   1.484   8.168 -1.1308 -2.0345  0.7566
 6715SOL     OW31603   2.874   1.898   2.173  0.5455 -0.0567 -0.2829
 6715SOL    HW131604   2.938   1.834   2.142  0.0063 -0.2933 -0.8876
 6715SOL    HW231605   2.801   1.844   2.201  0.6091  0.3313  0.6384
 6716SOL     OW31606   1.717   2.996   5.073 -0.0134 -0.3588 -0.4325
 6716SOL    HW131607   1.768   2.927   5.118 -3.3612 -0.4742  3.2063
 6716SOL    HW231608   1.719   2.961   4.984 -0.1925 -0.4408 -0.4036
 6717SOL     OW31609   2.762   4.211  14.075  0.2011 -0.0371 -0.1285
 6717SOL    HW131610   2.765   4.216  13.979  1.6164 -0.5100 -0.1114
 6717SOL    HW231611   2.700   4.280  14.096  1.1342  0.4220  1.1031
 6718SOL     OW31612   3.622   2.169   6.211 -0.0667 -0.3894 -0.2049
 6718SOL    HW131613   3.581   2.172   6.297  1.5865  1.2820  0.5106
 6718SOL    HW231614   3.707   2.127   6.225 -0.0386  0.3064  1.6943
 6719SOL     OW31615   0.493   1.861   3.271  0.4213 -0.3927  0.1383
 6719SOL    HW131616   0.531   1.949   3.262 -2.2305  0.3913 -3.3422
 6719SOL    HW231617   0.460   1.854   3.182 -0.3428 -0.7612  0.4524
 6720SOL     OW31618   4.071   3.742   4.037 -0.7636 -0.2106 -0.0420
 6720SOL    HW131619   4.036   3.703   4.117  0.1696 -1.0002 -0.0280
 6720SOL    HW231620   4.162   3.716   4.049 -0.0709  2.1366 -0.2218
 6721SOL     OW31621   4.677   0.549  11.355 -0.2743  0.1448  0.5861
 6721SOL    HW131622   0.048   0.538  11.353 -0.6503 -2.2918 -3.3078
 6721SOL    HW231623   4.672   0.644  11.342  2.6009  0.0120 -1.2595
 6722SOL     OW31624   4.555   1.699   2.726 -0.4320  0.0440 -0.4373
 6722SOL    HW131625   4.637   1.667   2.689 -0.1657 -0.2544  0.4092
 6722SOL    HW231626   4.587   1.760   2.792  3.9116  0.3860 -2.8782
 6723SOL     OW31627   0.517   4.002   3.450  0.1120 -0.3134  0.1958
 6723SOL    HW131628   0.560   4.072   3.500 -1.7884  0.2124  1.0994
 6723SOL    HW231629   0.431   4.045   3.451  1.6952  2.8160  1.9797
 6724SOL     OW31630   2.636   0.645   6.063 -0.4180  0.0754 -0.3656
 6724SOL    HW131631   2.582   0.622   5.988 -1.1718  0.9422 -0.0851
 6724SOL    HW231632   2.592   0.726   6.092 -0.8714 -0.2923 -0.0289
 6725SOL     OW31633   0.452   3.135  15.115  0.2752 -0.5972 -0.5647
 6725SOL    HW131634   0.485   3.050  15.086  2.3828  0.7928 -2.2264
 6725SOL    HW231635   0.460   3.172  15.028  0.3879 -0.4450 -0.4902
 6726SOL     OW31636   4.171   2.414   6.591 -0.4564 -0.5849  0.1913
 6726SOL    HW131637   4.245   2.353   6.584 -0.6406 -0.5926 -1.6257
 6726SOL    HW231638   4.117   2.382   6.520  0.8451 -1.5580 -0.3692
 6727SOL     OW31639   2.224   3.402   4.073 -0.8586  0.3476 -0.1285
 6727SOL    HW131640   2.251   3.423   3.983  0.4467 -0.4602  0.0889
 6727SOL    HW231641   2.157   3.468   4.092  0.5517  2.1183 -1.3344
 6728SOL     OW31642   1.793   0.548   7.581 -0.5603  0.3012 -0.3311
 6728SOL    HW131643   1.880   0.529   7.546 -0.0980  0.6653  0.6096
 6728SOL    HW231644   1.815   0.532   7.673 -0.3516  0.3102 -0.3778
 6729SOL     OW31645   0.711   2.297   6.967  0.2833 -0.0597 -0.5771
 6729SOL    HW131646   0.759   2.225   6.926 -0.2303 -0.2216 -0.8848
 6729SOL    HW231647   0.652   2.330   6.900 -0.7364 -1.4005 -0.3435
 6730SOL     OW31648   3.397   3.830   5.477 -0.0340  0.5541 -0.2186
 6730SOL    HW131649   3.384   3.820   5.383  0.5263  0.3807 -0.2797
 6730SOL    HW231650   3.355   3.912   5.505  0.7827  0.5866  0.8980
 6731SOL     OW31651   1.782   1.163   8.817  0.2439 -0.1816 -0.3486
 6731SOL    HW131652   1.837   1.234   8.782 -1.9873  2.1560  0.9627
 6731SOL    HW231653   1.821   1.150   8.903  2.4561  3.8566 -0.7472
 6732SOL     OW31654   2.455   2.268   2.739  0.2113  0.2625  0.4388
 6732SOL    HW131655   2.364   2.294   2.728 -0.4586 -1.9079  0.8319
 6732SOL    HW231656   2.494   2.354   2.720  0.6277 -0.6852 -2.9683
 6733SOL     OW31657   0.848   2.774  12.242 -0.0653  0.2175  0.1781
 6733SOL    HW131658   0.803   2.696  12.210  1.2158  0.0119 -1.1350
 6733SOL    HW231659   0.809   2.842  12.187  0.2498  0.7012  0.5444
 6734SOL     OW31660   0.664   2.912  17.076 -0.4488 -0.0376  0.3250
 6734SOL    HW131661   0.615   2.979  17.123 -0.0854  0.3811  0.1072
 6734SOL    HW231662   0.716   2.970  17.021 -0.0302  0.4720  1.2835
 6735SOL     OW31663   4.061   0.965  13.075 -0.1942  0.2390 -0.1737
 6735SOL    HW131664   4.114   0.952  13.153  2.3460 -2.6550 -2.3633
 6735SOL    HW231665   4.102   0.897  13.021  0.9693  0.6655  0.1885
 6736SOL     OW31666   2.865   1.258   2.536  0.7159 -0.2670  0.1564
 6736SOL    HW131667   2.807   1.189   2.569 -0.6755  1.1193  0.5879
 6736SOL    HW231668   2.836   1.329   2.593 -0.8304 -2.4980  2.1530
 6737SOL     OW31669   4.395   2.291   5.156 -0.2097 -0.0657  0.0792
 6737SOL    HW131670   4.361   2.204   5.177  0.8341  0.1011  2.4586
 6737SOL    HW231671   4.412   2.293   5.062  1.4722 -0.4796  0.3699
 6738SOL     OW31672   3.082   4.640   6.226 -0.0121 -0.0232  0.1140
 6738SOL    HW131673   3.067   0.008   6.202  0.7803  0.4130  1.2696
 6738SOL    HW231674   3.017   4.620   6.293 -1.9570  1.0515 -1.4314
 6739SOL     OW31675   1.641   3.204  11.979  0.0825 -0.9407 -0.4525
 6739SOL    HW131676   1.617   3.284  11.932  1.0317  0.5685  1.6630
 6739SOL    HW231677   1.626   3.149  11.902 -4.0804  1.5576 -1.3984
 6740SOL     OW31678   1.487   4.667   7.753 -0.0293  0.4743  0.2043
 6740SOL    HW131679   1.571   4.711   7.739 -0.9393  1.5634 -1.9474
 6740SOL    HW231680   1.504   4.591   7.808  0.0382 -0.6121 -1.3094
 6741SOL     OW31681   1.392   2.815   0.239  0.3987 -0.5475 -0.1039
 6741SOL    HW131682   1.435   2.824   0.324 -1.3426 -0.6090  0.7908
 6741SOL    HW231683   1.386   2.908   0.215  2.6936 -0.2770  0.4019
 6742SOL     OW31684   3.310   0.022   5.140 -0.1835 -0.0637  0.4595
 6742SOL    HW131685   3.248   0.038   5.069 -0.5003 -1.5592  0.4154
 6742SOL    HW231686   3.386   4.716   5.089 -0.7389 -0.3232 -0.2258
 6743SOL     OW31687   3.273   3.331   0.922 -0.1855  0.3298 -0.2268
 6743SOL    HW131688   3.198   3.313   0.978 -0.5021  1.2750 -0.3517
 6743SOL    HW231689   3.332   3.256   0.933  0.0940  0.5885  0.0724
 6744SOL     OW31690   2.629   4.350  12.070  0.2989 -0.2196 -0.3656
 6744SOL    HW131691   2.605   4.262  12.040  1.1658 -0.4588 -0.3634
 6744SOL    HW231692   2.616   4.337  12.164  1.7113  0.1125 -0.1287
 6745SOL     OW31693   2.440   3.312   3.039 -0.1453  0.0105 -0.0738
 6745SOL    HW131694   2.452   3.246   2.971 -0.1438 -1.3147  1.2181
 6745SOL    HW231695   2.345   3.323   3.041 -0.2996 -1.4797  0.2886
 6746SOL     OW31696   1.092   2.142   2.993  0.4622 -0.1564 -0.0694
 6746SOL    HW131697   1.155   2.094   3.047  1.6716  0.0889 -1.2493
 6746SOL    HW231698   1.011   2.107   3.030 -0.1818 -0.5483 -1.8457
 6747SOL     OW31699   1.988   3.439  11.504 -0.2345  0.1051  0.2334
 6747SOL    HW131700   2.023   3.350  11.500 -0.9013 -0.3282  3.6407
 6747SOL    HW231701   2.016   3.478  11.587 -0.3405  2.1437 -0.6929
 6748SOL     OW31702   3.248   4.443   4.026  0.1663 -0.0859 -0.0300
 6748SOL    HW131703   3.242   4.376   4.095 -0.2110 -0.6676 -0.6296
 6748SOL    HW231704   3.320   4.500   4.054  0.2979 -1.0421  1.5786
 6749SOL     OW31705   4.476   1.748   7.765  0.3172 -0.2684  0.2952
 6749SOL    HW131706   4.383   1.740   7.782  0.0304  3.3123  0.3706
 6749SOL    HW231707   4.498   1.674   7.708 -1.2384 -1.6621  1.5159
 6750SOL     OW31708   0.840   1.983   5.020  0.3607 -0.4451  0.0443
 6750SOL    HW131709   0.893   2.062   5.024 -0.3792 -0.0067  1.1853
 6750SOL    HW231710   0.905   1.913   5.030  0.3861 -0.4709 -0.2993
 6751SOL     OW31711   4.403   0.309   6.746  0.0488 -0.0602  0.2476
 6751SOL    HW131712   4.314   0.307   6.781 -0.1102 -1.7505 -0.2438
 6751SOL    HW231713   4.434   0.399   6.755  1.5063 -0.3812 -1.7775
 6752SOL     OW31714   1.536   3.849   4.843  0.3223  0.0674 -0.0099
 6752SOL    HW131715   1.623   3.882   4.818 -0.3904 -0.7107 -3.5118
 6752SOL    HW231716   1.488   3.912   4.896 -1.8228  0.6927 -2.7621
 6753SOL     OW31717   0.673   3.733   8.253  0.1319  0.2077  0.7159
 6753SOL    HW131718   0.768   3.736   8.266  0.2610 -1.3716  0.0259
 6753SOL    HW231719   0.648   3.690   8.334 -0.1172  0.8480  0.9768
 6754SOL     OW31720   0.111   1.616   8.141  0.3606 -0.0514  0.2002
 6754SOL    HW131721   0.112   1.706   8.172  0.1675 -0.5352  1.6326
 6754SOL    HW231722   0.104   1.637   8.048  0.0579 -1.7653 -0.1713
 6755SOL     OW31723   4.446   1.854   7.039  0.0219 -0.1605 -0.0917
 6755SOL    HW131724   4.494   1.781   7.001  0.7891  0.6245 -0.6192
 6755SOL    HW231725   4.499   1.922   6.997 -3.5483  1.3372 -2.1784
 6756SOL     OW31726   4.507   2.862   5.882  0.1079  0.3080  0.3543
 6756SOL    HW131727   4.548   2.881   5.967 -1.6548  1.0219  1.0390
 6756SOL    HW231728   4.466   2.947   5.869 -0.2875  0.2290  1.1032
 6757SOL     OW31729   1.072   0.711  17.063 -0.1173 -0.3216 -0.0889
 6757SOL    HW131730   1.005   0.735  17.128  0.9586  1.7053  0.2504
 6757SOL    HW231731   1.064   0.777  16.995 -0.8813 -0.3427 -0.0193
 6758SOL     OW31732   3.359   3.633   1.708  0.1123 -0.1177 -0.0423
 6758SOL    HW131733   3.274   3.676   1.709  0.0413 -0.3110  2.0764
 6758SOL    HW231734   3.330   3.548   1.676  0.6697 -0.2520 -0.1988
 6759SOL     OW31735   0.725   4.417   2.575 -0.0446 -0.4411  0.0073
 6759SOL    HW131736   0.744   4.416   2.481  0.2905 -0.2880  0.0742
 6759SOL    HW231737   0.767   4.335   2.598  0.9814  0.6517  1.9985
 6760SOL     OW31738   2.133   0.961  11.462  0.0783  0.3608 -0.0567
 6760SOL    HW131739   2.160   0.960  11.370  0.2668  3.5503 -0.0516
 6760SOL    HW231740   2.110   0.871  11.483 -2.0821  1.8573  3.8613
 6761SOL     OW31741   2.711   0.541   0.115  0.7453 -0.0358 -0.1823
 6761SOL    HW131742   2.659   0.554   0.194 -2.0235 -0.7278 -1.8789
 6761SOL    HW231743   2.707   0.623   0.066 -1.7761  1.1723  2.0271
 6762SOL     OW31744   3.438   3.673   1.254  0.6128 -0.0757 -0.0186
 6762SOL    HW131745   3.391   3.755   1.237  0.8228 -0.3283 -1.8914
 6762SOL    HW231746   3.475   3.688   1.340 -1.6293  1.4172  0.6818
 6763SOL     OW31747   0.236   2.972   1.608  0.3218 -0.0415  0.3740
 6763SOL    HW131748   0.142   2.973   1.588  0.6849 -0.4419 -1.3048
 6763SOL    HW231749   0.253   2.878   1.605  0.0952 -0.0364 -1.1016
 6764SOL     OW31750   4.590   2.264   8.085 -0.1481  0.2145  0.5813
 6764SOL    HW131751   4.630   2.178   8.077  1.1576  0.7353  1.5145
 6764SOL    HW231752   4.647   2.301   8.153 -1.1279  3.2658 -0.2469
 6765SOL     OW31753   0.409   1.767  11.775 -0.1795 -0.2873  0.4841
 6765SOL    HW131754   0.345   1.754  11.845 -1.4023  0.9092 -0.3882
 6765SOL    HW231755   0.350   1.798  11.706 -1.0752 -1.2732  0.8096
 6766SOL     OW31756   0.880   0.047   5.764 -0.4759 -0.3216 -0.1185
 6766SOL    HW131757   0.927   4.688   5.765 -0.3265 -0.2795 -2.2172
 6766SOL    HW231758   0.867   0.049   5.858  0.9275 -1.6037  0.1069
 6767SOL     OW31759   2.202   0.016   3.137 -0.3341 -0.4830  0.1921
 6767SOL    HW131760   2.228   0.036   3.226 -2.3746  0.8816  0.4754
 6767SOL    HW231761   2.280   0.045   3.090 -0.4709 -0.6209 -0.1227
 6768SOL     OW31762   3.787   4.338   3.803 -0.0065 -0.0440 -0.2945
 6768SOL    HW131763   3.857   4.298   3.855  0.9521  1.1812 -0.6155
 6768SOL    HW231764   3.719   4.352   3.868  2.6563 -2.0613  2.9690
 6769SOL     OW31765   0.989   4.575   2.875 -0.3749 -0.4043 -0.2134
 6769SOL    HW131766   1.053   4.635   2.835 -0.5689  0.2199  0.4151
 6769SOL    HW231767   1.022   4.491   2.842  1.4251  1.1980 -2.5193
 6770SOL     OW31768   2.967   0.796   9.859 -0.0967 -0.4346  0.0982
 6770SOL    HW131769   2.898   0.803   9.793 -0.6714 -0.1584  0.7365
 6770SOL    HW231770   3.026   0.741   9.806 -0.3214 -0.1680 -0.4218
 6771SOL     OW31771   4.564   4.534   8.812 -0.4575 -0.1959  0.4110
 6771SOL    HW131772   4.651   4.546   8.851 -0.2302 -2.3555  0.5722
 6771SOL    HW231773   4.518   4.536   8.896 -0.3896  4.1431  0.3473
 6772SOL     OW31774   2.305   1.779   2.016  0.0863  0.1547 -0.9656
 6772SOL    HW131775   2.366   1.753   1.947  3.1306 -0.3009  1.9385
 6772SOL    HW231776   2.287   1.701   2.068  0.0328  0.2137 -0.8947
 6773SOL     OW31777   0.115   1.352   3.684 -0.1803  0.2392 -0.4316
 6773SOL    HW131778   0.159   1.336   3.768  1.6164 -1.0889 -1.6299
 6773SOL    HW231779   0.134   1.266   3.648  1.0017 -0.4640  1.8566
 6774SOL     OW31780   0.927   2.552   2.716 -0.2794 -0.3216  0.0001
 6774SOL    HW131781   0.921   2.514   2.803  1.4848  1.5511  0.9518
 6774SOL    HW231782   0.857   2.616   2.724 -2.0191 -2.0370 -1.4302
 6775SOL     OW31783   4.031   1.582   3.392 -0.1151  0.0252  0.4765
 6775SOL    HW131784   4.050   1.660   3.341  0.4499 -0.0448  0.5737
 6775SOL    HW231785   4.106   1.524   3.377  1.1221  1.8784 -0.4296
 6776SOL     OW31786   4.620   3.176  10.492  0.0951 -0.7269 -0.3953
 6776SOL    HW131787   4.552   3.222  10.441  1.4069  0.3708 -1.1512
 6776SOL    HW231788   4.584   3.088  10.500 -1.0008 -0.4016 -1.7927
 6777SOL     OW31789   2.625   2.552   7.590  0.1130  0.3227 -0.2751
 6777SOL    HW131790   2.560   2.483   7.580 -0.5704  1.0961 -1.1838
 6777SOL    HW231791   2.709   2.508   7.605 -0.0361  0.1362  0.0099
 6778SOL     OW31792   3.797   3.597   6.717 -0.0441 -0.2345 -0.2963
 6778SOL    HW131793   3.711   3.556   6.710  0.7830 -2.3071  1.3471
 6778SOL    HW231794   3.850   3.517   6.727 -1.9427 -1.6724 -1.7555
 6779SOL     OW31795   1.720   0.878   5.397 -0.6003  0.2758 -0.2839
 6779SOL    HW131796   1.712   0.904   5.305 -0.2780  0.5877 -0.2232
 6779SOL    HW231797   1.636   0.906   5.432  0.3247  1.9841  0.5698
 6780SOL     OW31798   3.740   2.364   2.932 -0.2570 -0.1156  0.3515
 6780SOL    HW131799   3.767   2.454   2.950 -0.5148 -0.1018  0.6702
 6780SOL    HW231800   3.781   2.344   2.847  0.0685  0.4789  0.3662
 6781SOL     OW31801   2.877   4.247   6.713  0.2776 -0.1122 -0.1654
 6781SOL    HW131802   2.815   4.251   6.786 -0.8199  3.2355 -1.2501
 6781SOL    HW231803   2.921   4.163   6.722  0.4787  0.0050 -0.0531
 6782SOL     OW31804   0.530   3.800   8.824  0.3535 -0.3404 -0.4503
 6782SOL    HW131805   0.463   3.770   8.886  0.1519 -0.7077 -0.8422
 6782SOL    HW231806   0.595   3.830   8.887 -0.6975  0.2857  0.3336
 6783SOL     OW31807   2.861   4.072   1.514  0.5822  0.1700  0.7183
 6783SOL    HW131808   2.796   4.047   1.449 -0.4379  1.6396  1.1713
 6783SOL    HW231809   2.923   4.126   1.465 -0.4370 -0.7757 -1.6150
 6784SOL     OW31810   1.085   0.266   4.431  0.7081  0.2585 -0.2586
 6784SOL    HW131811   1.066   0.291   4.522  1.4556  3.2524 -0.9262
 6784SOL    HW231812   1.040   0.324   4.371 -2.1504 -1.0873  0.5818
 6785SOL     OW31813   3.327   2.922   4.789 -0.2444 -0.1003  0.1056
 6785SOL    HW131814   3.260   2.861   4.758  0.1236 -1.0454  1.1307
 6785SOL    HW231815   3.280   2.964   4.861  0.0104  1.1707 -0.4808
 6786SOL     OW31816   4.169   1.020   6.070  0.0574  0.1617  0.2690
 6786SOL    HW131817   4.116   0.947   6.102 -2.7828  0.9243 -2.7308
 6786SOL    HW231818   4.131   1.022   5.983  0.6147  2.1066  0.0640
 6787SOL     OW31819   0.542   0.920   4.813 -0.3792 -0.2308  0.5271
 6787SOL    HW131820   0.483   0.847   4.800  0.8432 -0.6930 -2.3105
 6787SOL    HW231821   0.484   0.987   4.778 -2.5801 -0.8001  3.0605
 6788SOL     OW31822   0.085   3.151   5.556 -0.3562  0.8982  0.1997
 6788SOL    HW131823   0.126   3.182   5.475 -1.3107  0.1472 -0.5662
 6788SOL    HW231824   0.005   3.111   5.523 -0.3836  0.5351  0.6998
 6789SOL     OW31825   0.995   2.469   9.419 -0.5941 -0.2523  0.0518
 6789SOL    HW131826   0.928   2.537   9.418  0.0637  0.3532 -2.4429
 6789SOL    HW231827   0.952   2.396   9.462  1.0288 -2.2666 -1.7634
 6790SOL     OW31828   0.743   1.134   8.879  0.5974 -0.2119 -0.1868
 6790SOL    HW131829   0.681   1.207   8.885  0.4160 -0.2161 -1.9671
 6790SOL    HW231830   0.766   1.143   8.786 -0.1193  0.5290 -0.2931
 6791SOL     OW31831   1.715   2.710   0.002 -0.1283  0.5111 -0.2174
 6791SOL    HW131832   1.651   2.653   0.044 -1.1759  0.8967 -1.3092
 6791SOL    HW231833   1.767   2.637  17.663 -2.5753 -0.2367 -2.2132
 6792SOL     OW31834   2.861   4.523  15.935  0.2686 -0.0027 -0.1718
 6792SOL    HW131835   2.842   4.607  15.894 -0.0491 -0.7019 -1.4897
 6792SOL    HW231836   2.917   4.475  15.874 -0.0551 -0.0953 -0.3994
 6793SOL     OW31837   0.058   2.639   8.804  0.6614  0.6497 -0.2214
 6793SOL    HW131838   4.715   2.578   8.774  1.5382 -0.8672  0.9328
 6793SOL    HW231839   0.066   2.610   8.895  1.5514 -0.1523 -0.5501
 6794SOL     OW31840   0.867   1.709   5.424  0.1855  0.2812 -0.2365
 6794SOL    HW131841   0.870   1.769   5.349 -0.5572  1.1729  0.4473
 6794SOL    HW231842   0.940   1.740   5.478  1.1902  0.5189 -1.7178
 6795SOL     OW31843   4.103   2.302  10.015 -0.5999  0.1203 -0.1686
 6795SOL    HW131844   4.182   2.255   9.989 -0.6830  0.4053 -0.9474
 6795SOL    HW231845   4.143   2.387   9.995 -1.6887  0.8575  0.7863
 6796SOL     OW31846   1.137   2.148   8.987 -0.2531 -0.1099  0.5293
 6796SOL    HW131847   1.231   2.132   8.972 -0.3518 -0.7286  0.5512
 6796SOL    HW231848   1.140   2.243   8.995  1.9823 -0.3086  2.1541
 6797SOL     OW31849   0.521   0.664   6.102 -0.0803 -0.4859 -0.3146
 6797SOL    HW131850   0.510   0.656   6.197 -0.3016 -1.3321 -0.4205
 6797SOL    HW231851   0.488   0.753   6.087 -0.2711 -0.0167  2.8423
 6798SOL     OW31852   2.745   3.068   8.068 -0.3217 -0.2959  0.5303
 6798SOL    HW131853   2.746   3.014   8.147 -0.7651 -1.3005 -0.1580
 6798SOL    HW231854   2.838   3.091   8.057  0.0967 -1.9466  0.6843
 6799SOL     OW31855   2.850   1.978   1.778  0.1698 -0.5127 -0.2590
 6799SOL    HW131856   2.797   1.917   1.831 -1.7890 -0.0119 -1.6301
 6799SOL    HW231857   2.838   2.067   1.812 -1.3514 -0.8516  0.0997
 6800SOL     OW31858   3.967   0.513  14.926 -0.0372 -0.0397 -0.2765
 6800SOL    HW131859   3.894   0.545  14.873 -1.1784 -1.5233  0.4271
 6800SOL    HW231860   3.917   0.465  14.992  0.7322  0.3536  0.5960
 6801SOL     OW31861   1.975   1.660   7.883  0.1900  0.7096  0.0708
 6801SOL    HW131862   1.992   1.569   7.861  0.0878  0.7373 -0.1239
 6801SOL    HW231863   1.879   1.657   7.889  0.2712  4.1951  3.4669
 6802SOL     OW31864   1.061   3.865   1.371  0.0222 -0.5193 -0.0423
 6802SOL    HW131865   1.041   3.863   1.277 -0.4283 -1.4400  0.0804
 6802SOL    HW231866   1.156   3.864   1.365 -0.0645 -1.8886 -1.2841
 6803SOL     OW31867   0.362   1.092   4.751 -0.7327 -0.3515  0.6636
 6803SOL    HW131868   0.353   1.176   4.706 -1.9547  0.2503  2.0303
 6803SOL    HW231869   0.270   1.070   4.765 -0.4308 -2.0640  0.0031
 6804SOL     OW31870   1.025   3.719  15.468  0.6691 -0.6705  0.0125
 6804SOL    HW131871   1.078   3.767  15.403 -0.3061 -0.1543 -0.3897
 6804SOL    HW231872   1.067   3.633  15.466  0.2566 -0.8414 -2.1290
 6805SOL     OW31873   2.428   2.295   6.221  0.6710  0.3959  0.1203
 6805SOL    HW131874   2.410   2.277   6.313 -0.7236 -1.4667 -0.5137
 6805SOL    HW231875   2.481   2.374   6.220  1.1799  0.0481 -0.7578
 6806SOL     OW31876   0.878   2.015   1.217 -0.0145 -0.1961  0.1508
 6806SOL    HW131877   0.970   2.028   1.240  0.5907 -0.9709 -1.9024
 6806SOL    HW231878   0.888   1.942   1.156 -0.2002  0.4894 -0.6917
 6807SOL     OW31879   4.347   2.786   9.169 -0.5783  0.0115 -0.3082
 6807SOL    HW131880   4.366   2.879   9.165  4.1173 -0.9072  0.2951
 6807SOL    HW231881   4.426   2.739   9.143  0.7697  0.4192  3.0929
 6808SOL     OW31882   1.054   1.942   7.339 -0.5335  0.0036 -0.2025
 6808SOL    HW131883   1.130   1.913   7.390 -1.5910  0.5143  1.6857
 6808SOL    HW231884   1.064   1.895   7.256 -0.0300  0.1039 -0.2034
 6809SOL     OW31885   2.959   0.312  15.183 -1.1711  0.3351 -0.2048
 6809SOL    HW131886   2.943   0.310  15.089  0.9567  1.7605 -0.6097
 6809SOL    HW231887   2.928   0.398  15.211  0.3449  1.6451 -2.5921
 6810SOL     OW31888   2.777   1.082   0.196 -0.2655 -0.0606 -0.7238
 6810SOL    HW131889   2.705   1.020   0.181 -0.0730 -0.5963  0.5230
 6810SOL    HW231890   2.727   1.164   0.193 -0.6881 -0.3437 -1.6194
 6811SOL     OW31891   2.734   0.647  13.349  0.5277 -0.7975 -0.2923
 6811SOL    HW131892   2.741   0.698  13.269  1.1000  0.3923  0.5121
 6811SOL    HW231893   2.656   0.685  13.389  0.0866 -1.9457 -0.0544
 6812SOL     OW31894   0.607   1.214   3.052 -0.5496 -0.4863  0.1637
 6812SOL    HW131895   0.675   1.281   3.058  0.2060 -1.2265 -0.2011
 6812SOL    HW231896   0.595   1.183   3.142  1.0624  0.5640  0.7241
 6813SOL     OW31897   0.776   1.207   7.880 -0.4579 -0.0436 -0.3708
 6813SOL    HW131898   0.822   1.192   7.798 -0.7416  0.0189 -0.5434
 6813SOL    HW231899   0.847   1.235   7.937 -1.4122 -1.2772  1.4284
 6814SOL     OW31900   2.980   0.331   2.171 -0.7594 -0.1024  0.5029
 6814SOL    HW131901   2.981   0.237   2.157  0.8590 -0.4329  2.7344
 6814SOL    HW231902   2.920   0.326   2.246 -0.6367 -1.5653  0.4889
 6815SOL     OW31903   0.657   1.171  16.096  0.0373  0.5773  0.0912
 6815SOL    HW131904   0.585   1.114  16.126 -1.0261  0.9327 -1.7330
 6815SOL    HW231905   0.605   1.251  16.089  0.3591  0.8225  0.5154
 6816SOL     OW31906   0.051   0.568   3.397 -0.6363 -0.4781  0.2485
 6816SOL    HW131907   4.694   0.517   3.398 -0.1854 -1.1973 -0.3243
 6816SOL    HW231908   0.121   0.507   3.376  0.8362  0.9148  1.1223
 6817SOL     OW31909   2.198   3.420   2.340  0.2645 -0.1032 -0.3851
 6817SOL    HW131910   2.105   3.430   2.358  0.2997 -1.6272  0.6388
 6817SOL    HW231911   2.226   3.479   2.410 -1.7477  1.1777 -0.6709
 6818SOL     OW31912   0.030   3.340   2.860 -0.2617 -0.5730 -0.2492
 6818SOL    HW131913   4.668   3.382   2.871  1.4977  2.9149  0.3905
 6818SOL    HW231914   0.031   3.327   2.765  0.2845 -1.3442 -0.1397
 6819SOL     OW31915   0.799   3.067   6.291 -0.1712  0.0267 -0.0416
 6819SOL    HW131916   0.859   3.030   6.357  1.5090  0.5961 -1.2414
 6819SOL    HW231917   0.750   2.987   6.275  0.3824 -0.0539 -1.3334
 6820SOL     OW31918   2.372   3.301   1.096  0.3387  0.4782  0.2170
 6820SOL    HW131919   2.448   3.300   1.154  0.7871  0.3905 -0.3694
 6820SOL    HW231920   2.348   3.392   1.113 -0.6354 -0.1820  2.3022
 6821SOL     OW31921   0.906   2.588   0.771  0.9883 -0.3453 -0.2308
 6821SOL    HW131922   0.976   2.648   0.799 -0.4251  1.1126  0.2041
 6821SOL    HW231923   0.847   2.645   0.722  1.5221  1.6176  1.3882
 6822SOL     OW31924   0.815   4.219  16.949  0.2778  0.4422 -0.0248
 6822SOL    HW131925   0.793   4.192  16.860  0.8607 -0.0045 -0.0317
 6822SOL    HW231926   0.854   4.134  16.969  0.7667  0.3550 -1.3346
 6823SOL     OW31927   4.634   3.144  12.384 -0.0972 -0.2970 -0.0405
 6823SOL    HW131928   4.678   3.133  12.468 -0.9997 -0.2254  0.4408
 6823SOL    HW231929   4.552   3.099  12.404 -0.2726 -0.9852 -2.2657
 6824SOL     OW31930   3.285   0.286   7.734 -0.0147  0.2093  0.5436
 6824SOL    HW131931   3.276   0.203   7.688 -0.7932  1.9149 -2.3421
 6824SOL    HW231932   3.310   0.249   7.819  2.0701 -1.9093 -1.0045
 6825SOL     OW31933   0.587   4.304   2.031  0.2261  0.0247 -0.3226
 6825SOL    HW131934   0.647   4.266   2.095  2.4095  1.6848 -1.4113
 6825SOL    HW231935   0.590   4.227   1.974  0.0429 -0.4339  0.2803
 6826SOL     OW31936   0.234   1.952  15.175  0.1055  0.4488  0.1646
 6826SOL    HW131937   0.163   1.895  15.204 -1.7093  0.4428 -4.2582
 6826SOL    HW231938   0.208   2.038  15.206  0.0108  0.5843 -0.2917
 6827SOL     OW31939   1.550   1.551   2.395  0.4631  0.3386  0.2420
 6827SOL    HW131940   1.604   1.472   2.389 -0.2733 -0.1066 -0.5901
 6827SOL    HW231941   1.476   1.504   2.431 -0.6657  1.9671  0.0280
 6828SOL     OW31942   1.171   3.437   4.585  0.5001 -0.0458  0.3435
 6828SOL    HW131943   1.204   3.350   4.565 -1.6784 -0.7472 -0.2118
 6828SOL    HW231944   1.235   3.496   4.545 -0.4688  1.1247  0.5007
 6829SOL     OW31945   0.391   4.167   8.872 -0.0910  0.0431  0.6973
 6829SOL    HW131946   0.386   4.262   8.879 -1.4093  0.2434 -3.0548
 6829SOL    HW231947   0.460   4.143   8.934  0.9057  0.7659 -0.1469
 6830SOL     OW31948   2.546   3.343   6.177 -0.0678 -0.4300 -0.6083
 6830SOL    HW131949   2.542   3.373   6.086 -0.5541  0.6069 -0.2465
 6830SOL    HW231950   2.477   3.278   6.169  0.2122 -1.1959  2.9928
 6831SOL     OW31951   1.962   0.891   3.851 -0.0967  0.3829  0.3085
 6831SOL    HW131952   2.032   0.900   3.916  2.0135 -2.1469 -1.6431
 6831SOL    HW231953   1.879   0.886   3.899  0.2921  1.8882  1.1491
 6832SOL     OW31954   4.266   1.718  14.051 -0.1069 -0.0990 -0.0411
 6832SOL    HW131955   4.282   1.719  14.146 -0.5320 -0.2349  0.0283
 6832SOL    HW231956   4.268   1.623  14.039  1.2209 -0.4473  2.8362
 6833SOL     OW31957   2.523   4.069   9.601  0.3084  0.2923  0.2502
 6833SOL    HW131958   2.561   4.070   9.689 -0.8589 -2.5243  0.7739
 6833SOL    HW231959   2.586   4.007   9.564  0.2281  0.3143  0.0794
 6834SOL     OW31960   3.337   0.460   5.874 -0.3650 -0.3902  0.2012
 6834SOL    HW131961   3.391   0.486   5.799  2.0699 -3.6246  0.8340
 6834SOL    HW231962   3.312   0.544   5.911 -0.0942 -0.0091 -0.4811
 6835SOL     OW31963   1.109   3.443   2.704  0.9399  0.5958 -0.0862
 6835SOL    HW131964   1.203   3.429   2.693  0.5203 -1.5135 -1.0158
 6835SOL    HW231965   1.114   3.517   2.764 -0.8176 -1.1710  2.2587
 6836SOL     OW31966   0.164   2.762  10.538 -0.0459 -0.1669  0.6178
 6836SOL    HW131967   0.075   2.756  10.504  1.0200  0.5715 -2.2903
 6836SOL    HW231968   0.179   2.668  10.529 -1.1970 -0.0291 -2.7975
 6837SOL     OW31969   3.882   2.032   9.308  0.1135  0.1675 -0.1886
 6837SOL    HW131970   3.832   1.968   9.358 -1.3837 -0.0283 -1.9475
 6837SOL    HW231971   3.837   2.117   9.314  1.8977  1.1053 -0.0115
 6838SOL     OW31972   0.607   4.069   9.070  1.1211  0.3239  0.6922
 6838SOL    HW131973   0.668   3.997   9.088  0.1841 -1.2013 -2.2072
 6838SOL    HW231974   0.549   4.069   9.146  1.6358 -2.7653  1.0726
 6839SOL     OW31975   3.771   0.622  14.439 -0.0399  0.2768  0.5579
 6839SOL    HW131976   3.702   0.618  14.373  0.9894 -1.6631 -0.4095
 6839SOL    HW231977   3.780   0.531  14.467  2.7659  0.8715  1.6168
 6840SOL     OW31978   1.809   0.445   6.067  0.2035  0.3370  0.6498
 6840SOL    HW131979   1.791   0.352   6.081  1.1937  0.2345  1.2354
 6840SOL    HW231980   1.835   0.432   5.976  0.6598 -2.7408  1.2211
 6841SOL     OW31981   4.428   4.647   5.954 -0.2469  0.5466 -0.3850
 6841SOL    HW131982   4.419   4.552   5.946 -0.3292  0.6474 -1.3982
 6841SOL    HW231983   4.512   4.651   6.000  0.3768 -2.3542 -1.2895
 6842SOL     OW31984   4.289   3.421   1.499  0.6936 -0.1271 -0.5794
 6842SOL    HW131985   4.299   3.499   1.553  0.4522 -0.0393 -0.6617
 6842SOL    HW231986   4.200   3.398   1.524  1.0036  0.0353  0.6557
 6843SOL     OW31987   0.237   3.464   6.652 -0.2045  0.4673 -0.4309
 6843SOL    HW131988   0.272   3.461   6.740 -1.9704 -2.8209  0.1566
 6843SOL    HW231989   0.290   3.531   6.609  0.7276 -0.9287 -1.4305
 6844SOL     OW31990   1.464   2.118   1.365 -0.1472 -0.1687  0.1235
 6844SOL    HW131991   1.544   2.067   1.376  0.3400  0.4478 -0.5611
 6844SOL    HW231992   1.397   2.054   1.388  0.2234  0.0743  1.8824
 6845SOL     OW31993   0.995   2.169   6.987  0.2446  0.0312 -0.1180
 6845SOL    HW131994   1.017   2.259   6.964  2.7124 -1.0084 -1.8296
 6845SOL    HW231995   1.076   2.134   7.025 -0.0035  0.5728  0.9338
 6846SOL     OW31996   0.538   2.120   3.301 -0.4719  0.8347  0.1197
 6846SOL    HW131997   0.454   2.165   3.302 -0.9850 -0.0954 -0.5189
 6846SOL    HW231998   0.589   2.180   3.246 -0.1352  1.5860  1.2480
 6847SOL     OW31999   2.670   1.690   8.095  0.6317 -0.2304 -0.1215
 6847SOL    HW132000   2.662   1.614   8.037  1.3709 -0.2341 -0.2283
 6847SOL    HW232001   2.737   1.673   8.161  0.1715  0.1043  0.4233
 6848SOL     OW32002   1.347   4.016   6.720  0.3247  0.1951 -0.1513
 6848SOL    HW132003   1.256   4.002   6.749  0.0238  0.9875 -0.7181
 6848SOL    HW232004   1.358   4.107   6.744 -0.1211  0.6181 -1.5532
 6849SOL     OW32005   1.059   1.905   7.921  0.1682  0.0218 -0.6593
 6849SOL    HW132006   1.099   1.952   7.994 -1.7019 -0.5571  0.7421
 6849SOL    HW232007   1.022   1.829   7.965 -2.4286  0.8396 -1.4042
 6850SOL     OW32008   0.497   0.229   4.434  0.0315 -0.3029  0.0880
 6850SOL    HW132009   0.521   0.175   4.359 -0.8294 -0.0933 -0.3410
 6850SOL    HW232010   0.436   0.295   4.400 -0.4054 -0.6334  0.2245
 6851SOL     OW32011   0.610   1.092   4.210  0.0647 -0.4596  0.3624
 6851SOL    HW132012   0.650   1.011   4.242  0.9385 -0.6542 -1.2794
 6851SOL    HW232013   0.546   1.095   4.282  0.7261 -0.4354  0.9511
 6852SOL     OW32014   1.800   2.073   0.286  0.3231  0.3191  0.1662
 6852SOL    HW132015   1.864   2.064   0.215  0.7940  0.5530  0.5677
 6852SOL    HW232016   1.780   2.165   0.270 -0.4421 -0.3365 -2.7746
 6853SOL     OW32017   2.097   4.198   8.005 -0.0861 -0.1313  0.1875
 6853SOL    HW132018   2.052   4.177   7.924  0.1195  0.6796 -0.1285
 6853SOL    HW232019   2.162   4.259   7.971 -2.1590  1.0339 -1.5968
 6854SOL     OW32020   1.271   1.256  11.840 -0.1643  0.8470  0.1242
 6854SOL    HW132021   1.330   1.286  11.909  0.1677  0.4553  0.0167
 6854SOL    HW232022   1.193   1.297  11.877 -1.5339 -2.1611  0.6149
 6855SOL     OW32023   1.293   3.269  15.222  0.4954  0.1797  0.2052
 6855SOL    HW132024   1.295   3.207  15.295  0.6187 -0.1122 -0.0471
 6855SOL    HW232025   1.363   3.235  15.167  0.5881  2.4554 -1.1121
 6856SOL     OW32026   3.395   0.371  14.232 -0.2588  0.1218  0.5867
 6856SOL    HW132027   3.312   0.361  14.186  0.6561 -2.4719 -0.4774
 6856SOL    HW232028   3.398   0.281  14.265 -0.4225  0.7187  2.2642
 6857SOL     OW32029   2.801   1.300  14.490  0.0419  0.2898  0.4356
 6857SOL    HW132030   2.866   1.269  14.428  0.2076 -0.2818  0.9013
 6857SOL    HW232031   2.805   1.234  14.559 -0.0390  0.2718  0.4233
 6858SOL     OW32032   4.591   4.450   2.964  0.4955  0.1447  0.1459
 6858SOL    HW132033   4.637   4.534   2.971 -1.4832  1.4297 -2.2359
 6858SOL    HW232034   4.576   4.463   2.871  3.2189  0.0337 -0.3131
 6859SOL     OW32035   0.122   4.149   4.862  0.9057  0.3966  0.3283
 6859SOL    HW132036   0.118   4.066   4.815  1.7802  1.4029 -1.5488
 6859SOL    HW232037   0.208   4.142   4.902  1.4692  1.0999 -0.7515
 6860SOL     OW32038   3.927   2.573  14.015  0.0402  0.4909 -0.0973
 6860SOL    HW132039   3.958   2.663  14.020 -0.1412  0.4455  1.7538
 6860SOL    HW232040   3.845   2.574  14.065  0.0045 -1.7692 -0.1020
 6861SOL     OW32041   2.438   1.632   6.453 -0.1849  0.0378  0.7031
 6861SOL    HW132042   2.523   1.649   6.495 -0.3912  2.0277  0.2924
 6861SOL    HW232043   2.422   1.722   6.427 -0.8653 -0.8220 -1.7723
 6862SOL     OW32044   4.649   0.656  10.132 -0.1712  0.5113  0.3700
 6862SOL    HW132045   4.716   0.711  10.090 -1.1589  1.7276  0.4066
 6862SOL    HW232046   4.569   0.708  10.130 -0.6029 -0.1496  0.8060
 6863SOL     OW32047   0.104   2.179   0.340  0.4994 -0.2557 -0.4416
 6863SOL    HW132048   0.067   2.257   0.298  3.1509  1.6413  0.7697
 6863SOL    HW232049   0.170   2.214   0.400  0.4447  0.7839 -0.9746
 6864SOL     OW32050   1.852   4.622   8.318  0.3696 -0.7354 -0.1694
 6864SOL    HW132051   1.811   4.580   8.242 -0.5117 -2.4708  1.2679
 6864SOL    HW232052   1.936   4.648   8.279 -1.1627  1.5908 -1.9753
 6865SOL     OW32053   2.768   4.238  15.830  0.5135 -0.5756 -0.2005
 6865SOL    HW132054   2.831   4.228  15.902 -1.1233 -0.6462  1.2054
 6865SOL    HW232055   2.772   4.333  15.828 -0.1292 -0.5160  1.3883
 6866SOL     OW32056   1.090   3.419  15.066 -0.0302  0.1807  0.5394
 6866SOL    HW132057   1.131   3.357  15.126  1.6138 -0.0083 -0.7777
 6866SOL    HW232058   1.076   3.383  14.978  2.8072  2.4262 -0.8309
 6867SOL     OW32059   2.810   0.727   9.620  0.1149 -1.3362  0.2153
 6867SOL    HW132060   2.717   0.732   9.600  0.5119  0.8511 -1.0727
 6867SOL    HW232061   2.855   0.755   9.540 -2.3748  1.0806 -0.3205
 6868SOL     OW32062   3.871   3.488   3.045 -0.2933  0.0387 -0.5039
 6868SOL    HW132063   3.919   3.419   2.999 -0.7182  0.4269 -1.5418
 6868SOL    HW232064   3.935   3.540   3.095 -1.2881 -0.3522  1.1460
 6869SOL     OW32065   3.619   2.128  16.641 -0.1974  0.2218  0.8323
 6869SOL    HW132066   3.634   2.100  16.731  0.6930  0.0806  0.6329
 6869SOL    HW232067   3.607   2.042  16.599 -0.1345 -0.1057  1.4921
 6870SOL     OW32068   4.117   1.107  11.431  0.3084 -0.5471  0.8726
 6870SOL    HW132069   4.148   1.169  11.497  0.1845  1.5848 -1.0789
 6870SOL    HW232070   4.156   1.023  11.458  1.3016 -0.8604 -1.4811
 6871SOL     OW32071   1.923   2.830  17.049 -0.3958  0.0173  0.2507
 6871SOL    HW132072   1.950   2.775  16.976  1.9434  0.3638  0.8466
 6871SOL    HW232073   1.976   2.909  17.038 -1.0333  0.3156 -0.6390
 6872SOL     OW32074   0.905   0.415   5.513  0.2543 -0.1397  0.6954
 6872SOL    HW132075   0.898   0.389   5.605  0.0148 -0.9530  0.4506
 6872SOL    HW232076   0.921   0.328   5.478 -1.2072  0.7492 -2.1529
 6873SOL     OW32077   2.252   0.798   5.839 -0.1413  0.1070  0.3129
 6873SOL    HW132078   2.187   0.861   5.868  1.4142  1.2458  1.3315
 6873SOL    HW232079   2.258   0.815   5.745 -0.2659  0.7827  0.4309
 6874SOL     OW32080   2.246   0.205   4.178 -0.3422  0.1115  0.0290
 6874SOL    HW132081   2.169   0.147   4.183  0.4660 -0.7944  2.1334
 6874SOL    HW232082   2.265   0.187   4.086 -1.2717 -0.3933 -0.0599
 6875SOL     OW32083   0.213   0.374   7.137 -0.6082  0.1277 -0.2533
 6875SOL    HW132084   0.299   0.355   7.101  0.2509  0.6765  1.5061
 6875SOL    HW232085   0.194   0.283   7.157  0.1142 -0.0927 -0.5869
 6876SOL     OW32086   3.612   2.995   2.133 -0.2521  0.5590 -0.0731
 6876SOL    HW132087   3.666   2.930   2.089  0.2038  0.4429  0.6489
 6876SOL    HW232088   3.602   2.966   2.224  1.6140 -0.3921 -0.1642
 6877SOL     OW32089   1.129   4.025   1.842 -0.0567  0.3904 -0.1490
 6877SOL    HW132090   1.055   4.085   1.831 -0.4086 -0.0771 -0.3629
 6877SOL    HW232091   1.097   3.943   1.803 -1.8022 -0.0069  2.1269
 6878SOL     OW32092   3.663   2.473   8.672 -0.1265  0.0631  0.3999
 6878SOL    HW132093   3.633   2.483   8.763  0.2860  2.2787  0.2799
 6878SOL    HW232094   3.756   2.493   8.681 -0.4425  1.1145  1.3369
 6879SOL     OW32095   2.639   0.861  10.133  0.1101  0.4608  0.2227
 6879SOL    HW132096   2.717   0.908  10.164  0.2819 -0.0108  0.5013
 6879SOL    HW232097   2.629   0.914  10.054  0.7863 -0.4976 -0.5019
 6880SOL     OW32098   3.684   2.804   2.955 -0.2619 -0.0970 -0.3116
 6880SOL    HW132099   3.640   2.830   2.874 -1.4740  0.5231  0.5474
 6880SOL    HW232100   3.742   2.736   2.923  0.2233  1.6820 -3.2483
 6881SOL     OW32101   1.143   4.521   3.556 -0.0936 -0.3652  0.1188
 6881SOL    HW132102   1.209   4.590   3.559 -0.3272 -0.2897  3.7370
 6881SOL    HW232103   1.067   4.580   3.555  0.8479  0.8315 -1.0314
 6882SOL     OW32104   4.590   3.020  11.349 -0.1108 -0.0076  0.9440
 6882SOL    HW132105   4.528   2.948  11.339 -1.8210  1.4269  1.2215
 6882SOL    HW232106   4.662   2.970  11.389  0.4048  0.1773  0.2481
 6883SOL     OW32107   1.497   4.342   6.109 -0.4785 -0.3244  0.0606
 6883SOL    HW132108   1.500   4.246   6.110  0.9706 -0.2925 -2.8041
 6883SOL    HW232109   1.567   4.365   6.049 -0.2087  0.4917  0.6888
 6884SOL     OW32110   1.001   2.691  17.155 -0.6632  0.0133 -0.0333
 6884SOL    HW132111   1.045   2.670  17.073  2.6391 -0.4673  1.8666
 6884SOL    HW232112   1.044   2.631  17.216 -2.8767 -1.2688  0.2641
 6885SOL     OW32113   3.629   0.285   2.863 -0.1515  0.0417 -0.3837
 6885SOL    HW132114   3.571   0.278   2.787 -0.3304 -1.1161 -0.1430
 6885SOL    HW232115   3.565   0.259   2.929  0.8059 -1.5674 -0.0865
 6886SOL     OW32116   4.711   0.291   7.712  0.3836 -0.0760  0.5043
 6886SOL    HW132117   4.681   0.307   7.801 -1.9138  0.2449 -0.3493
 6886SOL    HW232118   0.079   0.266   7.728  0.5169 -0.0718 -0.2074
 6887SOL     OW32119   2.191   2.368   2.717 -0.4335 -0.4805  0.4173
 6887SOL    HW132120   2.183   2.318   2.636  2.4450  1.9948 -1.3838
 6887SOL    HW232121   2.162   2.452   2.681  0.9517  0.8455  2.3892
 6888SOL     OW32122   0.725   1.469   1.343 -0.3981  0.8117  0.3271
 6888SOL    HW132123   0.649   1.422   1.310  0.6735  0.5260 -1.7272
 6888SOL    HW232124   0.743   1.527   1.270  0.8872  2.3405  1.8473
 6889SOL     OW32125   2.981   2.863  16.934 -0.5441  0.1215  0.6020
 6889SOL    HW132126   3.018   2.947  16.908  2.6350 -1.5027 -0.0499
 6889SOL    HW232127   2.888   2.870  16.912  0.1823  1.8358 -1.9034
 6890SOL     OW32128   2.033   3.488   4.483  0.4714  0.7447 -0.0003
 6890SOL    HW132129   1.994   3.436   4.553  0.3574  0.6509 -0.1347
 6890SOL    HW232130   2.108   3.525   4.529  0.0251  0.0986  1.2571
 6891SOL     OW32131   2.016   1.068   3.113 -0.0517 -0.4187  0.1610
 6891SOL    HW132132   1.986   1.066   3.022  0.7462 -0.2297 -0.1086
 6891SOL    HW232133   2.057   0.982   3.126 -1.2770 -0.8521  1.0983
 6892SOL     OW32134   4.387   2.048   7.995  0.3581  0.2380 -0.1304
 6892SOL    HW132135   4.443   2.125   8.008  0.5628 -0.0472  0.6518
 6892SOL    HW232136   4.373   2.050   7.900 -0.3866 -1.2128 -0.0372
 6893SOL     OW32137   4.374   0.943   5.764  0.3996 -0.3273  0.1025
 6893SOL    HW132138   4.391   0.879   5.695  1.6392 -0.7285  0.7744
 6893SOL    HW232139   4.305   0.994   5.722 -0.2730 -0.3252  1.2061
 6894SOL     OW32140   3.102   3.752   4.806 -0.8681  0.0417 -0.4552
 6894SOL    HW132141   3.085   3.846   4.805  1.0954  0.3971  0.7767
 6894SOL    HW232142   3.026   3.712   4.848  0.0330  1.1627  2.1918
 6895SOL     OW32143   0.823   0.424   5.108  0.0072  0.9855 -0.5633
 6895SOL    HW132144   0.774   0.377   5.040 -0.1683  0.2605  0.0729
 6895SOL    HW232145   0.820   0.365   5.182  4.1531 -0.3146 -1.4501
 6896SOL     OW32146   3.041   0.323   2.607 -0.0196 -0.0997 -0.9023
 6896SOL    HW132147   2.974   0.267   2.566 -1.5517  1.2452 -0.2168
 6896SOL    HW232148   3.119   0.310   2.553 -0.1717  0.4008 -1.2385
 6897SOL     OW32149   2.606   4.670   3.335 -0.2704  0.0503  0.2943
 6897SOL    HW132150   2.568   4.602   3.279  2.2360 -1.1228 -0.0299
 6897SOL    HW232151   2.644   4.722   3.264  0.5642 -0.5971  0.2567
 6898SOL     OW32152   0.928   0.964   2.476 -0.4080 -0.3446 -0.6483
 6898SOL    HW132153   0.901   0.905   2.546  1.3421  0.8799  1.0890
 6898SOL    HW232154   0.851   1.020   2.471 -0.5072 -0.2881  1.2592
 6899SOL     OW32155   0.562   1.147   1.844 -0.1682  0.7199  0.0080
 6899SOL    HW132156   0.588   1.171   1.754  0.8004  2.7308  0.8083
 6899SOL    HW232157   0.586   1.225   1.895 -0.1538  0.0460  1.0169
 6900SOL     OW32158   1.309   3.377   2.911 -0.5830 -0.2158  0.0947
 6900SOL    HW132159   1.396   3.371   2.872 -0.7026 -1.2092 -0.0082
 6900SOL    HW232160   1.324   3.326   2.991  1.1896 -2.7231 -1.8653
 6901SOL     OW32161   0.182   0.140  11.253 -0.4485 -0.5596 -0.1952
 6901SOL    HW132162   0.210   0.140  11.161 -2.2556  2.9459 -0.7496
 6901SOL    HW232163   0.092   0.168  11.234  0.1002  0.0679 -1.9229
 6902SOL     OW32164   2.141   0.479  17.569  0.1935  0.0319 -0.2914
 6902SOL    HW132165   2.096   0.539  17.628  0.5548  0.0762 -0.0600
 6902SOL    HW232166   2.206   0.440  17.628 -1.3489 -1.2657  0.5296
 6903SOL     OW32167   0.696   3.245   5.475 -0.3727 -0.4532  0.9506
 6903SOL    HW132168   0.707   3.167   5.529  1.1394 -0.6104  0.4207
 6903SOL    HW232169   0.603   3.262   5.487 -0.0443  0.7480  1.9186
 6904SOL     OW32170   4.093   4.311   3.157  0.8212 -0.3773  0.2207
 6904SOL    HW132171   4.103   4.406   3.167 -2.1803 -0.2171  1.6888
 6904SOL    HW232172   4.028   4.306   3.228  1.5670 -1.2056  0.8488
 6905SOL     OW32173   2.766   2.695  14.008 -0.1456 -0.2606 -0.0083
 6905SOL    HW132174   2.749   2.771  14.064 -1.2288 -0.0681 -0.5990
 6905SOL    HW232175   2.840   2.651  14.050  0.0452  2.2402  2.2747
 6906SOL     OW32176   3.734   0.984  15.334  0.6055  0.4873  0.1469
 6906SOL    HW132177   3.642   0.974  15.312 -0.3002 -1.4946  4.6782
 6906SOL    HW232178   3.741   1.075  15.306  0.7928 -0.1276 -1.7665
 6907SOL     OW32179   1.734   1.929   8.510 -0.4705 -0.8286 -0.0765
 6907SOL    HW132180   1.722   1.943   8.604  3.8582 -1.5781  0.6250
 6907SOL    HW232181   1.811   1.981   8.489 -1.3316  0.2033 -0.6562
 6908SOL     OW32182   0.995   1.454   8.775  0.1626  0.6805 -0.2217
 6908SOL    HW132183   0.976   1.508   8.699 -0.2563 -0.6981 -1.0942
 6908SOL    HW232184   1.017   1.367   8.741 -1.4548  0.1411  0.0815
 6909SOL     OW32185   2.769   1.007   7.725 -0.0262 -0.1327  0.6150
 6909SOL    HW132186   2.784   1.097   7.753  1.7663 -0.5224  0.9183
 6909SOL    HW232187   2.817   0.959   7.793 -0.2446 -0.1104  0.7853
 6910SOL     OW32188   3.448   3.105   6.031 -0.3373  0.8382 -0.2429
 6910SOL    HW132189   3.490   3.066   5.954  0.0580 -1.0616  0.9400
 6910SOL    HW232190   3.522   3.142   6.078  0.3307 -0.0170 -0.6184
 6911SOL     OW32191   3.261   2.476   3.003 -0.1872  0.3108 -0.2148
 6911SOL    HW132192   3.311   2.548   3.042  0.8026  0.4942 -1.7969
 6911SOL    HW232193   3.204   2.532   2.950 -3.3072 -1.9867  0.7241
 6912SOL     OW32194   2.143   3.722   5.749  0.0799 -0.3044  0.4806
 6912SOL    HW132195   2.075   3.771   5.795 -1.3344 -0.9852 -0.8849
 6912SOL    HW232196   2.126   3.635   5.786  1.1267 -1.4717 -1.7987
 6913SOL     OW32197   4.525   3.720   6.230 -0.3359 -0.4475 -0.3569
 6913SOL    HW132198   4.487   3.805   6.209 -0.4479  0.0573  1.8074
 6913SOL    HW232199   4.517   3.668   6.150  0.9952  0.6544 -1.2090
 6914SOL     OW32200   4.629   4.479   1.896 -0.0240 -0.2701 -0.3296
 6914SOL    HW132201   4.656   4.569   1.916 -1.5099 -0.3228  1.8950
 6914SOL    HW232202   4.685   4.463   1.820  1.2961 -0.7511  0.7460
 6915SOL     OW32203   4.550   3.892  11.104  0.4746 -0.7546  0.1282
 6915SOL    HW132204   4.502   3.842  11.038 -0.5778  0.2316  0.1345
 6915SOL    HW232205   4.615   3.824  11.118  0.0289 -1.1476  0.3080
 6916SOL     OW32206   0.978   4.203   8.196  0.2825 -0.2956 -0.2189
 6916SOL    HW132207   1.048   4.185   8.259 -1.4814 -1.2814  1.4782
 6916SOL    HW232208   0.913   4.144   8.234  1.4194 -0.2261  1.8724
 6917SOL     OW32209   4.340   1.532   6.518 -0.7404 -0.1820 -0.4669
 6917SOL    HW132210   4.376   1.468   6.457 -0.0423  0.1797 -0.4438
 6917SOL    HW232211   4.381   1.496   6.598 -2.2455 -0.0356  0.3616
 6918SOL     OW32212   2.874   0.401  13.551  0.2604 -0.2418  0.2556
 6918SOL    HW132213   2.918   0.433  13.630  1.1611  2.2588 -1.2512
 6918SOL    HW232214   2.798   0.349  13.577 -0.3296  0.4275 -0.1306
 6919SOL     OW32215   4.105   3.365   2.108  0.4779  0.7963 -0.0796
 6919SOL    HW132216   4.016   3.344   2.078 -0.2639 -0.1601  2.8169
 6919SOL    HW232217   4.112   3.450   2.063 -0.2530  1.2139  0.5891
 6920SOL     OW32218   2.588   3.177   7.282 -0.6270 -0.0540 -0.2463
 6920SOL    HW132219   2.609   3.228   7.204  0.9902 -1.4187 -0.6948
 6920SOL    HW232220   2.667   3.123   7.286 -1.3266 -1.0870 -0.2690
 6921SOL     OW32221   1.524   3.215   6.364  0.3368 -0.0330  0.3312
 6921SOL    HW132222   1.451   3.213   6.426  0.6110 -0.1672  0.6475
 6921SOL    HW232223   1.527   3.310   6.349 -2.9617 -0.0125 -0.4141
 6922SOL     OW32224   3.717   3.845   1.895  0.5071 -0.0934 -0.6904
 6922SOL    HW132225   3.779   3.888   1.836  1.7384  0.0763  0.7109
 6922SOL    HW232226   3.627   3.860   1.865  0.0434 -2.4414 -0.4626
 6923SOL     OW32227   0.565   0.681   8.196  0.4999  0.2015  0.0936
 6923SOL    HW132228   0.533   0.599   8.234  1.1181 -1.1046 -2.2012
 6923SOL    HW232229   0.657   0.666   8.219  0.6826  0.6817 -0.3104
 6924SOL     OW32230   4.312   2.121  15.821 -0.4994  0.8086 -0.3049
 6924SOL    HW132231   4.321   2.213  15.796  1.9296  0.3964 -0.9261
 6924SOL    HW232232   4.270   2.089  15.741  1.7170 -0.6982 -0.8409
 6925SOL     OW32233   3.708   2.130   7.662 -0.6932 -0.3767  0.7277
 6925SOL    HW132234   3.722   2.050   7.713 -0.6671  0.0996  1.4518
 6925SOL    HW232235   3.614   2.138   7.676 -0.8297 -0.3402 -0.1832
 6926SOL     OW32236   3.289   0.285   4.404  0.2712  0.4435  0.2231
 6926SOL    HW132237   3.291   0.331   4.320  0.2329  1.1165  0.5927
 6926SOL    HW232238   3.270   0.359   4.462  0.2873 -1.0441  2.1295
 6927SOL     OW32239   1.956   4.499  10.050  0.0250  0.1720  0.5710
 6927SOL    HW132240   1.869   4.459  10.039  0.0018  0.0607  1.2025
 6927SOL    HW232241   2.019   4.428  10.046  1.8384  1.8386 -0.3619
 6928SOL     OW32242   3.274   3.942   9.799  0.0067  0.1249  0.6138
 6928SOL    HW132243   3.191   3.930   9.846 -0.4282  2.0703  0.3471
 6928SOL    HW232244   3.248   3.970   9.712 -1.1103  1.0234  1.2362
 6929SOL     OW32245   3.671   1.680  10.855 -0.2804  0.5894 -0.5577
 6929SOL    HW132246   3.723   1.688  10.775 -0.6916 -0.9195 -0.9758
 6929SOL    HW232247   3.729   1.711  10.925 -0.1155 -1.2298  0.1246
 6930SOL     OW32248   1.705   2.803   3.319  0.0063 -0.2404 -0.2834
 6930SOL    HW132249   1.770   2.753   3.269  0.6185 -1.2196  1.4850
 6930SOL    HW232250   1.736   2.798   3.409  0.4092 -4.9431 -0.7233
 6931SOL     OW32251   4.397   0.503   9.894  0.4683  0.2265  0.3653
 6931SOL    HW132252   4.360   0.508   9.982 -2.1148  1.5381 -0.7758
 6931SOL    HW232253   4.482   0.464   9.913  0.1095  0.8749  3.2697
 6932SOL     OW32254   3.487   3.434   1.324  0.1590 -0.1643 -0.1859
 6932SOL    HW132255   3.437   3.434   1.406 -0.9557  0.0954 -0.8635
 6932SOL    HW232256   3.466   3.526   1.308 -1.9129 -0.1482  2.6096
 6933SOL     OW32257   1.623   0.272   7.621  0.8593  0.2216 -0.6845
 6933SOL    HW132258   1.665   0.357   7.617  0.7196  0.3549  0.5930
 6933SOL    HW232259   1.543   0.296   7.667  1.6195  2.1354 -0.3592
 6934SOL     OW32260   3.415   4.354   9.485 -0.5740  0.1854  0.1812
 6934SOL    HW132261   3.379   4.382   9.569 -3.3113 -1.5222 -0.4318
 6934SOL    HW232262   3.341   4.303   9.451  0.0153 -0.4840 -0.1122
 6935SOL     OW32263   2.086   2.247   0.137 -0.5687 -0.5919  0.2947
 6935SOL    HW132264   2.139   2.319   0.102 -0.9231 -0.4545  0.0433
 6935SOL    HW232265   2.107   2.256   0.230  0.1147 -2.0959  0.2939
 6936SOL     OW32266   1.429   0.647  11.647 -0.0671  0.4612 -0.1275
 6936SOL    HW132267   1.517   0.628  11.680  0.2666  0.3379 -1.0656
 6936SOL    HW232268   1.419   0.741  11.662 -1.6563  0.2729 -0.0511
 6937SOL     OW32269   4.594   1.803   2.292  0.0866  0.1754  0.0941
 6937SOL    HW132270   4.532   1.870   2.265  1.2369  0.8037 -0.9676
 6937SOL    HW232271   4.590   1.747   2.214  2.0947 -0.8302  0.6939
 6938SOL     OW32272   3.939   0.322   6.700  0.7042  0.1004  1.2072
 6938SOL    HW132273   3.984   0.238   6.684 -3.4824 -1.6575 -1.3214
 6938SOL    HW232274   3.971   0.384   6.636  0.0492 -0.2750  0.5139
 6939SOL     OW32275   0.833   4.497   6.030 -0.0399 -0.2527 -0.8117
 6939SOL    HW132276   0.759   4.489   5.970 -1.4944  1.5297  0.7903
 6939SOL    HW232277   0.877   4.413   6.018  1.7755  0.5729  0.0805
 6940SOL     OW32278   1.596   0.614  11.419 -0.0443  0.0121  0.1618
 6940SOL    HW132279   1.528   0.606  11.486  0.8769 -0.4810  1.0404
 6940SOL    HW232280   1.584   0.706  11.397 -0.7365 -0.2966 -0.7430
 6941SOL     OW32281   1.164   4.348  17.269  0.5011 -0.0064  0.4038
 6941SOL    HW132282   1.168   4.335  17.174 -0.6508  2.8820 -0.0442
 6941SOL    HW232283   1.254   4.380  17.282  0.8334 -1.4766  1.7090
 6942SOL     OW32284   0.846   3.114   0.679  0.0348  0.3927 -0.6376
 6942SOL    HW132285   0.932   3.075   0.688  0.2208  0.7217 -1.0204
 6942SOL    HW232286   0.868   3.205   0.661  1.3362  0.3737  0.8968
 6943SOL     OW32287   3.222   2.569   3.847 -0.5713 -0.0931  0.3781
 6943SOL    HW132288   3.318   2.573   3.848 -0.5925  0.5533  0.0590
 6943SOL    HW232289   3.205   2.629   3.920  0.2879  2.9351 -1.9188
 6944SOL     OW32290   0.141   1.107   6.316  0.2369 -0.4590 -0.2838
 6944SOL    HW132291   0.138   1.177   6.381  1.2712 -0.0139 -0.7132
 6944SOL    HW232292   0.066   1.127   6.260  1.6215 -0.6825 -2.2162
 6945SOL     OW32293   0.689   2.455   6.500 -0.1019  0.0210 -0.5277
 6945SOL    HW132294   0.622   2.455   6.431  0.1793 -1.8361 -0.8055
 6945SOL    HW232295   0.702   2.361   6.501 -0.3510 -0.0198 -0.9862
 6946SOL     OW32296   4.267   3.050  17.493 -0.2108 -0.2485 -0.1782
 6946SOL    HW132297   4.348   3.090  17.524 -0.7978  2.5208 -2.2744
 6946SOL    HW232298   4.234   3.013  17.575  2.9536 -1.4081  0.5901
 6947SOL     OW32299   0.158   2.126   7.709 -0.1119 -0.0815  0.1820
 6947SOL    HW132300   0.066   2.100   7.715  0.1931 -1.2236 -0.0189
 6947SOL    HW232301   0.154   2.193   7.641 -1.6110  0.9070  1.2192
 6948SOL     OW32302   4.539   2.303   2.196 -0.5100  0.1214  0.0590
 6948SOL    HW132303   4.534   2.271   2.106 -0.8458 -1.1626  0.5258
 6948SOL    HW232304   4.508   2.392   2.179  0.9809  0.9977  1.9587
 6949SOL     OW32305   0.592   4.505   0.569 -0.1544 -0.4108 -0.4714
 6949SOL    HW132306   0.661   4.439   0.572  0.9523  0.7658 -0.1812
 6949SOL    HW232307   0.525   4.476   0.507  0.8956  1.9024 -2.7015
 6950SOL     OW32308   0.115   1.279   9.091  0.3130  0.6360 -0.0095
 6950SOL    HW132309   0.036   1.261   9.142  1.5247  0.3888  1.7581
 6950SOL    HW232310   0.092   1.210   9.029 -0.5961 -0.0330  1.0839
 6951SOL     OW32311   4.262   1.589   8.211  0.0664 -0.1148  0.2311
 6951SOL    HW132312   4.355   1.605   8.226  0.4875 -2.4386  0.1743
 6951SOL    HW232313   4.266   1.534   8.133 -0.9671 -2.1857  1.6490
 6952SOL     OW32314   3.064   2.521   5.547 -0.3604  0.4022 -0.0766
 6952SOL    HW132315   3.153   2.515   5.513  0.1537  1.2812  1.1192
 6952SOL    HW232316   3.031   2.595   5.497  0.7489 -0.4640 -2.0809
 6953SOL     OW32317   0.904   3.417   3.150  0.1754 -0.0225 -0.4941
 6953SOL    HW132318   0.838   3.347   3.149 -1.0971  1.1793 -1.1735
 6953SOL    HW232319   0.849   3.495   3.153  0.9209  0.5157 -1.0479
 6954SOL     OW32320   1.741   3.855   1.708 -0.5223  0.3834  0.0570
 6954SOL    HW132321   1.693   3.840   1.626  2.0014 -1.3389 -1.1002
 6954SOL    HW232322   1.818   3.887   1.661  0.0903  1.6712  1.9759
 6955SOL     OW32323   4.477   3.715   9.714  0.1621  0.1592 -0.2938
 6955SOL    HW132324   4.431   3.641   9.753  0.5486 -0.0722 -0.2740
 6955SOL    HW232325   4.552   3.677   9.668  1.6744 -1.4900  3.5123
 6956SOL     OW32326   2.846   4.487   2.864  0.1846 -0.2993 -0.3111
 6956SOL    HW132327   2.912   4.424   2.835 -0.7306 -0.8963 -1.0840
 6956SOL    HW232328   2.824   4.525   2.779 -0.6531 -0.3959 -0.1323
 6957SOL     OW32329   4.673   0.173  17.503 -0.3155 -0.3472  0.2829
 6957SOL    HW132330   4.627   0.257  17.508  1.3132  0.6134 -0.8263
 6957SOL    HW232331   4.651   0.138  17.417  0.8838 -0.1696 -0.0974
 6958SOL     OW32332   2.130   1.733   1.087 -0.0890  0.3489  0.3112
 6958SOL    HW132333   2.103   1.784   1.011 -0.4205 -0.3654 -0.0511
 6958SOL    HW232334   2.200   1.686   1.043  0.2968  1.0503  0.1772
 6959SOL     OW32335   4.242   3.059   5.520  0.6213  0.5430  0.3070
 6959SOL    HW132336   4.258   2.965   5.527  1.5345  0.4581 -3.1007
 6959SOL    HW232337   4.147   3.049   5.508  1.0612  0.0164 -2.6291
 6960SOL     OW32338   3.247   1.328   1.490 -0.6941 -0.0388 -0.3680
 6960SOL    HW132339   3.246   1.371   1.576  2.7331 -1.6199  0.4840
 6960SOL    HW232340   3.191   1.383   1.436 -1.3623 -0.0208  0.3412
 6961SOL     OW32341   1.145   0.225  12.469 -0.2435 -0.0334  0.3872
 6961SOL    HW132342   1.130   0.248  12.377 -4.3427 -1.7162  0.6396
 6961SOL    HW232343   1.061   0.258  12.500  0.4029 -1.0273  3.1884
 6962SOL     OW32344   2.006   2.382   3.308 -0.7510 -0.1682 -0.5109
 6962SOL    HW132345   1.992   2.468   3.346 -1.0214 -0.0549 -0.8621
 6962SOL    HW232346   1.979   2.401   3.218  0.5459  0.4256 -0.7680
 6963SOL     OW32347   3.997   0.119  16.930  0.3106 -0.0875  0.3386
 6963SOL    HW132348   3.982   0.213  16.917 -0.1505 -0.1335  0.5231
 6963SOL    HW232349   4.049   0.115  17.010 -0.7203 -2.6051  0.8945
 6964SOL     OW32350   0.565   3.924   1.635  0.0641  0.7860 -0.5337
 6964SOL    HW132351   0.659   3.911   1.650  0.0085  0.0283 -0.8315
 6964SOL    HW232352   0.555   3.964   1.548 -3.6507  0.7331 -0.1337
 6965SOL     OW32353   0.013   2.018  16.538 -0.5002 -0.2499  0.6789
 6965SOL    HW132354   0.072   2.030  16.464 -0.4776 -2.9320  0.2811
 6965SOL    HW232355   0.037   2.096  16.588 -1.8254  0.2039  0.6143
 6966SOL     OW32356   2.516   2.746   1.433  0.4188  0.5253 -0.2430
 6966SOL    HW132357   2.515   2.770   1.340 -2.2568 -1.2098 -0.6766
 6966SOL    HW232358   2.556   2.829   1.460 -0.2071  0.2224  1.6336
 6967SOL     OW32359   1.914   3.688   4.702  0.2309 -0.3101 -0.5430
 6967SOL    HW132360   2.008   3.670   4.700  0.2242 -0.3581 -0.4238
 6967SOL    HW232361   1.877   3.600   4.687  0.0293  0.3179 -3.6722
 6968SOL     OW32362   0.087   3.859  10.330  0.5667  0.4866  0.5013
 6968SOL    HW132363   0.022   3.916  10.370 -0.0897  0.7844 -0.9973
 6968SOL    HW232364   0.088   3.895  10.242  1.1238 -3.7010 -1.1946
 6969SOL     OW32365   1.626   0.429   0.180 -0.0563  0.2183 -0.4941
 6969SOL    HW132366   1.549   0.484   0.163 -0.9739 -1.0960 -0.6309
 6969SOL    HW232367   1.645   0.440   0.274 -3.3217 -0.1166  0.2144
 6970SOL     OW32368   1.277   1.473   3.074 -0.1134 -0.0050  0.0024
 6970SOL    HW132369   1.215   1.532   3.031  0.1495  1.7987  2.1003
 6970SOL    HW232370   1.220   1.400   3.100 -0.3064  0.1417 -0.0069
 6971SOL     OW32371   2.407   2.991  11.731 -0.3140  0.1347 -0.3874
 6971SOL    HW132372   2.438   3.070  11.776 -0.2819 -0.2989  0.3369
 6971SOL    HW232373   2.315   3.007  11.752 -0.2736  1.7661 -1.4159
 6972SOL     OW32374   2.869   3.258   8.655  0.1321  0.0548 -0.2143
 6972SOL    HW132375   2.788   3.270   8.704 -0.4736  1.2882 -1.5064
 6972SOL    HW232376   2.824   3.238   8.573 -2.4699 -0.5301  1.3914
 6973SOL     OW32377   3.840   3.937  12.270  0.6409  0.8248  0.7525
 6973SOL    HW132378   3.771   3.895  12.322 -1.8024  1.1546 -2.2025
 6973SOL    HW232379   3.874   4.013  12.316  1.0994  0.4504  1.0299
 6974SOL     OW32380   1.449   0.497   3.394 -0.3089  0.0144 -0.0439
 6974SOL    HW132381   1.520   0.439   3.367 -0.7392  0.3879 -2.0015
 6974SOL    HW232382   1.378   0.438   3.369 -1.3425  0.8529  0.8930
 6975SOL     OW32383   1.315   1.129   5.283  0.0741 -0.0782 -0.2004
 6975SOL    HW132384   1.236   1.082   5.309 -0.5323 -0.7303 -3.2321
 6975SOL    HW232385   1.271   1.212   5.262  2.2297  1.1703  0.2181
 6976SOL     OW32386   3.341   3.082   7.723 -0.4456  0.0668 -0.1144
 6976SOL    HW132387   3.412   3.033   7.680 -1.0079 -0.7143 -0.1536
 6976SOL    HW232388   3.266   3.058   7.669  0.1724 -3.6791  0.6672
 6977SOL     OW32389   3.907   4.614  12.672  0.8666  0.0091  0.2632
 6977SOL    HW132390   3.819   4.611  12.635  0.6869  0.3413  0.6526
 6977SOL    HW232391   3.936   4.525  12.690 -0.1045 -0.5552 -0.9940
 6978SOL     OW32392   1.286   1.021   4.505  0.5029 -0.2920  0.3282
 6978SOL    HW132393   1.313   1.085   4.571 -0.3221  1.6290 -1.2045
 6978SOL    HW232394   1.296   0.939   4.552  0.1190 -1.1926 -1.1638
 6979SOL     OW32395   3.449   3.027   8.497 -0.6969 -0.2268  0.7630
 6979SOL    HW132396   3.444   3.045   8.591 -1.7559 -0.8486  0.8314
 6979SOL    HW232397   3.507   2.951   8.499  1.8751  1.6229 -5.5378
 6980SOL     OW32398   2.161   3.173   7.288  0.6534  0.7761 -0.1658
 6980SOL    HW132399   2.125   3.109   7.349 -2.1022  1.5545 -0.9610
 6980SOL    HW232400   2.085   3.222   7.255 -0.8637 -1.8708 -0.6278
 6981SOL     OW32401   3.163   3.726   9.488 -0.4292  0.0152  0.5822
 6981SOL    HW132402   3.190   3.644   9.531 -1.3118 -0.6648 -0.1640
 6981SOL    HW232403   3.126   3.781   9.557 -1.2998 -2.7801  2.3747
 6982SOL     OW32404   1.710   0.049   2.079 -0.0303  0.1307  0.5591
 6982SOL    HW132405   1.734   4.681   2.078 -3.6833 -0.7601 -3.9976
 6982SOL    HW232406   1.627   0.056   2.032  0.8805  0.5112 -0.9962
 6983SOL     OW32407   0.187   1.436  10.593  0.0965  0.4671 -0.3131
 6983SOL    HW132408   0.124   1.477  10.535  0.0626  1.1051  0.1718
 6983SOL    HW232409   0.214   1.357  10.545  0.1437 -1.0662  2.2125
 6984SOL     OW32410   0.771   2.186   6.494 -0.6255  0.4071 -0.4135
 6984SOL    HW132411   0.753   2.146   6.579 -0.8676 -1.5413 -1.3814
 6984SOL    HW232412   0.725   2.127   6.434  1.4580 -1.8853  0.2268
 6985SOL     OW32413   1.849   0.489  11.477 -0.3102 -0.7860  0.1346
 6985SOL    HW132414   1.865   0.439  11.396 -0.1028  1.8011 -1.4163
 6985SOL    HW232415   1.765   0.533  11.463  0.0361  0.9487  3.5585
 6986SOL     OW32416   4.383   3.222  16.405  0.1647 -0.0482  0.0430
 6986SOL    HW132417   4.295   3.208  16.442  0.5776  0.5004  1.2393
 6986SOL    HW232418   4.386   3.317  16.420 -2.4849  0.2877 -1.4714
 6987SOL     OW32419   0.926   2.189   6.185 -0.0782 -0.0559 -0.1723
 6987SOL    HW132420   0.893   2.278   6.178  3.0742  1.0935 -0.4052
 6987SOL    HW232421   0.887   2.159   6.267 -0.0772  1.4524  0.3812
 6988SOL     OW32422   2.662   2.332   5.346 -0.4458 -0.4275  0.3028
 6988SOL    HW132423   2.601   2.310   5.416 -2.6022 -2.9416 -2.3390
 6988SOL    HW232424   2.751   2.310   5.374 -0.0493 -1.8240 -2.0294
 6989SOL     OW32425   0.100   0.947   2.892  0.2844  0.0343  0.2031
 6989SOL    HW132426   0.120   1.012   2.824  1.1026  1.8039  2.1508
 6989SOL    HW232427   0.172   0.964   2.953 -1.0515  0.6202  1.6035
 6990SOL     OW32428   1.197   0.261   8.351  0.1187 -0.0200 -0.2560
 6990SOL    HW132429   1.263   0.205   8.391 -0.5962  1.7341  3.3065
 6990SOL    HW232430   1.152   0.188   8.308 -0.4072  1.6211 -2.4794
 6991SOL     OW32431   2.184   0.555   7.159 -0.1947  0.3716 -0.0258
 6991SOL    HW132432   2.163   0.601   7.078 -1.7468 -1.7089 -0.7945
 6991SOL    HW232433   2.255   0.610   7.193 -1.3075  1.9766 -0.3361
 6992SOL     OW32434   4.349   3.618  15.560 -0.2970 -0.0943 -0.3154
 6992SOL    HW132435   4.280   3.627  15.495  1.0693 -0.7928 -1.8583
 6992SOL    HW232436   4.339   3.528  15.591  1.2798  1.1937  4.0143
 6993SOL     OW32437   4.226   2.896   4.425  0.2801 -0.0390 -0.0936
 6993SOL    HW132438   4.278   2.825   4.385 -0.3722 -0.0870 -0.8533
 6993SOL    HW232439   4.225   2.859   4.513  0.6324  1.3120  0.4774
 6994SOL     OW32440   0.019   3.139  12.131 -0.2019  0.5998 -0.5491
 6994SOL    HW132441   0.094   3.080  12.119 -0.3624  0.1697  0.5516
 6994SOL    HW232442   0.021   3.151  12.226  1.9151  1.8732 -0.7404
 6995SOL     OW32443   3.196   0.760   3.388  0.3606  0.3015 -0.0412
 6995SOL    HW132444   3.118   0.787   3.436 -0.0325 -0.3870 -0.2969
 6995SOL    HW232445   3.242   0.844   3.382  0.8065  0.0450 -0.2564
 6996SOL     OW32446   4.229   4.565  12.889  0.4166 -0.1575  0.5050
 6996SOL    HW132447   4.259   4.539  12.976  0.3514 -1.0563  0.2672
 6996SOL    HW232448   4.196   4.479  12.863 -0.3475  0.4743 -0.6065
 6997SOL     OW32449   0.897   3.300   2.589  0.0114  0.3385 -0.8253
 6997SOL    HW132450   0.906   3.257   2.504 -0.2555  0.7290 -1.0500
 6997SOL    HW232451   0.984   3.340   2.600 -1.6231  4.0749 -1.4399
 6998SOL     OW32452   1.920   1.763   0.107 -0.5988 -0.1702 -0.5200
 6998SOL    HW132453   1.893   1.814   0.031 -1.5440  2.0254  1.3170
 6998SOL    HW232454   1.972   1.825   0.158  0.8131 -0.0842 -2.0472
 6999SOL     OW32455   4.085   2.049   2.946 -0.2157  0.3909 -0.2270
 6999SOL    HW132456   4.008   2.021   2.995  0.7615  2.3561  2.4282
 6999SOL    HW232457   4.126   2.109   3.008  0.6437  1.6112 -1.9737
 7000SOL     OW32458   4.545   1.206   2.912  0.4585  1.1810  0.1377
 7000SOL    HW132459   4.614   1.188   2.976 -1.0069 -2.0122  0.8203
 7000SOL    HW232460   4.595   1.247   2.842  0.8660 -0.4055 -0.5113
 7001SOL     OW32461   0.984   0.629  14.181 -0.3645  0.2168 -0.9026
 7001SOL    HW132462   1.034   0.614  14.262 -1.1463  0.5396 -0.3542
 7001SOL    HW232463   1.027   0.569  14.119 -2.4819 -1.5466 -0.6546
 7002SOL     OW32464   3.233   0.059   4.561  0.6564  0.1768  0.0885
 7002SOL    HW132465   3.302   0.010   4.606 -1.1278 -1.2976  1.2253
 7002SOL    HW232466   3.277   0.136   4.524 -0.7521  1.2853  0.7461
 7003SOL     OW32467   4.536   2.571   6.197 -0.1065  0.1341 -0.6633
 7003SOL    HW132468   4.566   2.520   6.272  0.7634  0.3582 -0.8578
 7003SOL    HW232469   4.524   2.657   6.237 -0.0877  1.0394 -2.6037
 7004SOL     OW32470   4.448   3.533   2.289 -0.4301 -0.7835  0.4484
 7004SOL    HW132471   4.368   3.528   2.341 -1.1514 -1.3447 -0.7115
 7004SOL    HW232472   4.449   3.446   2.247 -0.6068 -0.9420  0.7751
 7005SOL     OW32473   0.068   2.419   0.239 -0.1335 -0.2630  0.3405
 7005SOL    HW132474   0.081   2.401   0.146 -1.0267 -0.1579  0.1884
 7005SOL    HW232475   0.157   2.437   0.269 -0.1452  1.4224 -0.6436
 7006SOL     OW32476   2.145   4.661   3.546  0.3101  0.2211 -0.0736
 7006SOL    HW132477   2.222   4.706   3.512 -0.1795  0.3450 -1.0371
 7006SOL    HW232478   2.080   4.715   3.502  0.1541 -0.2768 -0.4488
 7007SOL     OW32479   3.254   3.506   5.057  0.2691 -0.2927 -0.3983
 7007SOL    HW132480   3.294   3.429   5.098 -1.0037 -0.7519 -0.0008
 7007SOL    HW232481   3.280   3.576   5.117  0.7077 -0.9816  0.2126
 7008SOL     OW32482   3.050   3.096  11.029 -0.5739 -0.0876  0.9929
 7008SOL    HW132483   3.029   3.011  10.990  0.7897 -0.6055  1.3793
 7008SOL    HW232484   2.962   3.132  11.024 -0.8915 -1.2823 -1.7236
 7009SOL     OW32485   0.072   4.074   2.395  0.0082  0.1153 -0.0597
 7009SOL    HW132486   0.147   4.039   2.443  0.4623  0.0584 -0.8075
 7009SOL    HW232487   0.063   4.026   2.313  1.2100  0.8445 -0.6286
 7010SOL     OW32488   4.714   0.470   3.810  0.3358 -0.5754 -0.4178
 7010SOL    HW132489   4.699   0.564   3.803  0.2084 -0.6940 -1.8175
 7010SOL    HW232490   4.658   0.446   3.736 -0.3516 -0.9466  0.2289
 7011SOL     OW32491   1.515   4.607   6.805 -0.2723  0.5391 -0.6474
 7011SOL    HW132492   1.558   4.643   6.727 -0.5818 -0.6534 -1.3769
 7011SOL    HW232493   1.451   4.552   6.760 -0.0121  0.5527 -1.0395
 7012SOL     OW32494   3.393   2.025   3.525 -0.1129  0.6289  0.3550
 7012SOL    HW132495   3.321   1.972   3.559  0.2072 -0.8586 -1.3076
 7012SOL    HW232496   3.375   2.016   3.432 -1.7825  0.8714  0.6578
 7013SOL     OW32497   0.210   4.084   3.517  0.4286 -0.1140 -0.1102
 7013SOL    HW132498   0.148   4.062   3.448  0.3238  0.5193 -0.2205
 7013SOL    HW232499   0.197   4.009   3.575 -0.4310  1.7581  2.1002
 7014SOL     OW32500   3.291   3.047  15.532 -0.4076 -0.0196  0.8234
 7014SOL    HW132501   3.345   3.001  15.468  0.8387  0.6700  1.3836
 7014SOL    HW232502   3.242   2.980  15.580 -0.5654 -1.0532 -0.7716
 7015SOL     OW32503   1.019   0.845   1.634 -0.2386  0.3176  0.4107
 7015SOL    HW132504   1.110   0.819   1.646  0.4823  2.1648 -1.1161
 7015SOL    HW232505   0.975   0.763   1.657 -0.3597  0.3435  0.2681
 7016SOL     OW32506   3.661   0.097   7.789 -0.2727 -0.2501 -0.6497
 7016SOL    HW132507   3.732   0.099   7.852 -1.6425 -0.6483  0.8972
 7016SOL    HW232508   3.701   0.106   7.702  1.0768  1.0867  0.1341
 7017SOL     OW32509   4.025   4.215   3.966 -0.0601  0.5132  0.0115
 7017SOL    HW132510   4.083   4.264   4.024  0.7390 -0.7484  0.2904
 7017SOL    HW232511   4.003   4.139   4.020  0.4195 -0.1279 -0.6997
 7018SOL     OW32512   1.013   3.130  15.027 -0.1834  0.3236  0.7842
 7018SOL    HW132513   0.948   3.180  15.077  1.1683  1.9779  0.8731
 7018SOL    HW232514   1.046   3.063  15.087 -1.3207 -0.7988  0.1791
 7019SOL     OW32515   3.839   3.504  14.919  0.3360 -0.4278 -0.2661
 7019SOL    HW132516   3.813   3.596  14.909 -0.4112 -0.9108 -2.8114
 7019SOL    HW232517   3.900   3.510  14.992  2.1277 -0.1326 -1.7976
 7020SOL     OW32518   3.052   2.910   0.622 -0.2011 -0.4647 -0.6541
 7020SOL    HW132519   2.989   2.951   0.564 -0.5701 -1.1893 -0.7661
 7020SOL    HW232520   3.073   2.985   0.678 -1.2836 -0.4771 -0.2317
 7021SOL     OW32521   3.734   0.576   5.578 -0.2448  0.6563  0.4460
 7021SOL    HW132522   3.646   0.563   5.613 -1.4657 -0.2127 -2.9251
 7021SOL    HW232523   3.745   0.494   5.529  1.8779  0.7352  0.7866
 7022SOL     OW32524   0.349   4.021   5.860  0.0477 -0.1805 -0.5768
 7022SOL    HW132525   0.403   4.069   5.797  2.9197 -2.7023 -0.0429
 7022SOL    HW232526   0.339   3.940   5.809  1.0599 -2.3298  2.6252
 7023SOL     OW32527   3.877   2.946   7.426  0.3036 -0.2791 -0.2305
 7023SOL    HW132528   3.951   2.972   7.370  0.3270  1.0064  0.3995
 7023SOL    HW232529   3.861   3.029   7.470 -2.7251 -1.1508  0.2549
 7024SOL     OW32530   0.629   2.142  13.536 -0.3909  0.0963  0.2102
 7024SOL    HW132531   0.598   2.063  13.493  0.2717 -0.3488  0.5625
 7024SOL    HW232532   0.692   2.095  13.591  0.8702  1.6753  0.1089
 7025SOL     OW32533   0.840   3.147   4.477  0.8010 -0.4444  0.6783
 7025SOL    HW132534   0.807   3.140   4.567  2.1796  0.2108  1.2336
 7025SOL    HW232535   0.854   3.242   4.478 -1.2549 -0.1329 -1.0143
 7026SOL     OW32536   4.653   2.156   9.155 -0.3721 -0.2032  0.1712
 7026SOL    HW132537   0.014   2.120   9.129 -1.2975 -2.1208 -0.1645
 7026SOL    HW232538   4.673   2.204   9.236  0.7208 -2.7375  1.3926
 7027SOL     OW32539   3.746   2.268  16.434  0.1054 -0.1792 -0.4314
 7027SOL    HW132540   3.670   2.233  16.481 -2.4865  0.4538 -4.1234
 7027SOL    HW232541   3.772   2.182  16.402  1.1525 -0.0879  0.1952
 7028SOL     OW32542   0.518   3.564   5.095  0.8098 -0.3274  0.1436
 7028SOL    HW132543   0.596   3.520   5.060 -0.0854 -2.1105  0.4026
 7028SOL    HW232544   0.493   3.495   5.156  3.7547  0.1753  1.9358
 7029SOL     OW32545   2.934   1.836  12.525  0.7041  0.2141 -0.3848
 7029SOL    HW132546   2.839   1.829  12.535  0.7325  0.1736 -0.1454
 7029SOL    HW232547   2.962   1.917  12.568  0.8477 -0.7748  1.3745
 7030SOL     OW32548   3.260   4.193  11.792  0.2430 -0.5477 -0.3384
 7030SOL    HW132549   3.257   4.249  11.714 -1.1948 -1.6211 -1.0496
 7030SOL    HW232550   3.272   4.250  11.869 -0.1407 -0.4496 -0.3528
 7031SOL     OW32551   1.291   3.183   4.242  0.1603  0.1015 -0.3029
 7031SOL    HW132552   1.251   3.269   4.229  0.1756  0.2479  0.5584
 7031SOL    HW232553   1.217   3.129   4.270  0.0044 -0.7935 -2.4943
 7032SOL     OW32554   4.325   3.033  14.834 -0.4628 -0.2091 -0.0338
 7032SOL    HW132555   4.404   3.000  14.793 -0.0272 -1.8388  2.1016
 7032SOL    HW232556   4.327   2.966  14.902 -2.7555 -1.8447 -1.5553
 7033SOL     OW32557   1.827   1.388   4.511  0.3260  0.5657  0.1147
 7033SOL    HW132558   1.841   1.382   4.417  1.6634  0.3998  0.3212
 7033SOL    HW232559   1.826   1.295   4.537 -0.9254  0.6402  0.3350
 7034SOL     OW32560   4.633   4.060  14.361 -0.0245 -0.2166 -0.5197
 7034SOL    HW132561   4.615   4.001  14.288  2.6029  0.0479 -1.3829
 7034SOL    HW232562   4.550   4.108  14.360 -2.4683 -4.4418 -0.5910
 7035SOL     OW32563   0.468   3.077   1.263 -0.4355  0.0526 -0.9509
 7035SOL    HW132564   0.479   3.054   1.171 -1.0558  0.0563 -1.0286
 7035SOL    HW232565   0.429   2.994   1.288  0.9983 -0.4249 -0.2913
 7036SOL     OW32566   2.666   3.855   3.504  0.0123 -0.2097 -0.1449
 7036SOL    HW132567   2.714   3.931   3.537  0.5289  0.0112 -1.4255
 7036SOL    HW232568   2.660   3.859   3.408  0.6520 -0.9863 -0.2078
 7037SOL     OW32569   0.061   4.170   8.438  0.2108  0.6414 -0.8176
 7037SOL    HW132570   0.050   4.076   8.454 -3.5981  1.3065  0.2980
 7037SOL    HW232571   0.101   4.164   8.351  1.1517 -0.6339 -0.3069
 7038SOL     OW32572   3.020   2.575  14.090  0.0658  0.4128 -0.4157
 7038SOL    HW132573   3.048   2.590  14.180  1.7416  0.1593 -0.8773
 7038SOL    HW232574   3.054   2.486  14.079 -2.6083 -0.5847 -0.3949
 7039SOL     OW32575   2.031   1.075   7.437 -0.4222  0.3667  0.5330
 7039SOL    HW132576   1.997   1.108   7.354 -0.1102  0.5617  0.4819
 7039SOL    HW232577   1.991   1.132   7.502 -0.7674  0.5124  0.1890
 7040SOL     OW32578   1.266   2.050   3.181  0.3410 -0.1583  0.3146
 7040SOL    HW132579   1.308   1.966   3.199  1.0801 -0.3316 -2.3079
 7040SOL    HW232580   1.222   2.058   3.266 -3.4958 -1.6410 -1.5022
 7041SOL     OW32581   0.975   1.395   1.435  0.0304  0.2979  0.1117
 7041SOL    HW132582   0.891   1.422   1.399  0.9054  0.6012 -1.7126
 7041SOL    HW232583   0.952   1.313   1.478  1.6317  0.3920  1.1728
 7042SOL     OW32584   1.644   4.081   6.652 -0.1072  0.2820  0.1200
 7042SOL    HW132585   1.697   4.003   6.634  0.3094  0.5790  0.0677
 7042SOL    HW232586   1.599   4.044   6.728 -1.0859 -0.8262 -1.0156
 7043SOL     OW32587   2.697   0.156  15.535  0.2460  0.3065  0.0371
 7043SOL    HW132588   2.693   0.252  15.530 -3.7537  0.1503  0.0858
 7043SOL    HW232589   2.722   0.133  15.445 -2.0690 -0.2605 -0.4816
 7044SOL     OW32590   1.680   0.185   6.838 -0.0539  0.4593  0.6408
 7044SOL    HW132591   1.600   0.192   6.890 -0.0993  1.5622  0.4252
 7044SOL    HW232592   1.649   0.199   6.749  1.4618  1.4169  0.2595
 7045SOL     OW32593   3.733   0.333  10.632 -0.1942  0.0677  0.4030
 7045SOL    HW132594   3.677   0.256  10.648 -0.0552 -0.4655 -1.6187
 7045SOL    HW232595   3.776   0.306  10.551  0.7939 -1.2478  1.3551
 7046SOL     OW32596   1.362   4.189  16.258  0.1582  0.3867  0.3013
 7046SOL    HW132597   1.319   4.206  16.174  0.2087 -1.2711 -0.0581
 7046SOL    HW232598   1.414   4.268  16.272 -2.1689  1.8612  0.5571
 7047SOL     OW32599   2.242   2.774   4.168  0.0391 -0.0187 -0.2425
 7047SOL    HW132600   2.213   2.697   4.120  1.8084 -0.7493 -0.1375
 7047SOL    HW232601   2.185   2.759   4.243  0.4664  0.2784  0.1450
 7048SOL     OW32602   3.729   0.636   3.701  0.1383  0.0747 -0.9089
 7048SOL    HW132603   3.775   0.718   3.719  1.5683 -1.2171  1.3151
 7048SOL    HW232604   3.651   0.661   3.651  1.6811  0.5543 -3.0834
 7049SOL     OW32605   2.566   2.301   3.380  0.5386  0.0695 -0.0192
 7049SOL    HW132606   2.475   2.287   3.355  1.1462 -1.1640 -1.5268
 7049SOL    HW232607   2.588   2.377   3.326 -2.2518 -0.0969 -1.3608
 7050SOL     OW32608   1.518   3.512   3.619 -0.0694 -0.0371  0.1906
 7050SOL    HW132609   1.601   3.466   3.604 -0.1464 -0.2269  0.3436
 7050SOL    HW232610   1.457   3.454   3.573  0.6499 -0.3070 -0.4227
 7051SOL     OW32611   1.199   3.144   2.205  0.1589  0.4440  0.6896
 7051SOL    HW132612   1.131   3.172   2.144 -0.7724  1.2665  2.0957
 7051SOL    HW232613   1.170   3.168   2.294 -0.7187 -0.3747  0.6209
 7052SOL     OW32614   3.488   4.120   3.163 -0.1558 -0.0711 -0.1363
 7052SOL    HW132615   3.545   4.122   3.240 -1.0131  2.7108  0.4040
 7052SOL    HW232616   3.546   4.163   3.099  2.5844 -0.8329  1.8281
 7053SOL     OW32617   3.508   2.697   3.589 -0.5441 -0.1399  0.4931
 7053SOL    HW132618   3.572   2.634   3.557 -1.4584  0.0557 -1.7210
 7053SOL    HW232619   3.482   2.735   3.505 -1.4305  0.0472  0.8500
 7054SOL     OW32620   0.519   1.152   8.498 -0.3711  0.3008  0.1644
 7054SOL    HW132621   0.425   1.156   8.480 -0.7907 -1.1613  2.0505
 7054SOL    HW232622   0.554   1.073   8.458  1.0458  0.5663  0.8844
 7055SOL     OW32623   2.380   2.264   3.629  0.1034  0.4134  0.1817
 7055SOL    HW132624   2.422   2.188   3.589  0.1784  0.1377  0.7924
 7055SOL    HW232625   2.320   2.280   3.555 -0.1614  0.8279  0.4851
 7056SOL     OW32626   1.429   2.291  16.028 -0.1360  0.3422 -0.3414
 7056SOL    HW132627   1.358   2.236  15.994 -0.6672  1.4391 -1.0213
 7056SOL    HW232628   1.483   2.277  15.950  1.4960 -0.0918  0.8736
 7057SOL     OW32629   0.691   3.910   2.861 -0.9783 -0.2522  0.0457
 7057SOL    HW132630   0.770   3.962   2.874 -1.1801 -0.2492  1.2365
 7057SOL    HW232631   0.641   3.940   2.936 -3.1278 -2.5270 -0.4598
 7058SOL     OW32632   1.238   3.422   2.206 -0.0856 -0.2358  0.1274
 7058SOL    HW132633   1.211   3.503   2.164 -0.8053 -0.4547  0.1780
 7058SOL    HW232634   1.165   3.370   2.171  1.4103 -1.6805 -0.8966
 7059SOL     OW32635   3.825   1.439  14.320 -0.0788 -0.4292  0.4152
 7059SOL    HW132636   3.894   1.480  14.372 -1.0525 -1.1501  2.2961
 7059SOL    HW232637   3.800   1.515  14.267 -0.6686 -1.3066 -0.5514
 7060SOL     OW32638   0.108   3.583  16.517 -0.3359  0.8865 -0.2378
 7060SOL    HW132639   0.017   3.584  16.489 -0.6081  1.5455  0.6800
 7060SOL    HW232640   0.141   3.498  16.487 -1.5985  0.6988 -1.0660
 7061SOL     OW32641   3.005   2.168   7.216  0.3510  0.3594  0.4293
 7061SOL    HW132642   3.033   2.087   7.260 -0.5777  0.2753  0.8612
 7061SOL    HW232643   2.925   2.163   7.268 -0.2547  0.9162 -0.4448
 7062SOL     OW32644   0.671   3.857  12.434 -0.4846 -0.4069  0.2447
 7062SOL    HW132645   0.725   3.854  12.355  1.0058  1.9460  1.1622
 7062SOL    HW232646   0.733   3.847  12.506 -1.4323  1.9145  1.3773
 7063SOL     OW32647   1.542   1.561   3.180  0.0250  0.0018  0.5964
 7063SOL    HW132648   1.521   1.589   3.269 -0.6058 -0.5432  0.6183
 7063SOL    HW232649   1.466   1.511   3.151  0.9861 -0.8351 -0.5148
 7064SOL     OW32650   1.132   2.423  12.401 -0.5239  0.0095  0.2648
 7064SOL    HW132651   1.178   2.363  12.342 -0.6412  0.0022  0.1791
 7064SOL    HW232652   1.059   2.367  12.431 -2.3020  0.9541 -2.3493
 7065SOL     OW32653   3.007   3.315   5.771  0.2484 -0.4766  0.3905
 7065SOL    HW132654   2.990   3.221   5.781 -4.6388  0.4441  0.7358
 7065SOL    HW232655   3.074   3.309   5.703 -0.1269  1.4298 -0.1560
 7066SOL     OW32656   2.045   3.324   8.017 -0.5446 -0.1647 -0.2191
 7066SOL    HW132657   2.095   3.331   7.936 -1.7672  1.6227 -0.8141
 7066SOL    HW232658   1.956   3.316   7.982 -0.6753  0.0690  0.0669
 7067SOL     OW32659   0.019   3.038  12.875  0.0491 -0.3130  0.5223
 7067SOL    HW132660   0.071   2.968  12.835 -0.0664 -1.4338  2.3187
 7067SOL    HW232661   4.666   2.986  12.899 -0.3865  1.5549  3.1932
 7068SOL     OW32662   0.082   0.819   7.311  0.3114  0.0588  0.3456
 7068SOL    HW132663   0.177   0.812   7.324 -0.1407 -1.2593  3.0570
 7068SOL    HW232664   0.056   0.727   7.320  1.3381 -0.2863 -0.1320
 7069SOL     OW32665   3.603   0.579   3.951  0.1300 -0.0074  0.2785
 7069SOL    HW132666   3.636   0.611   3.867  1.3719  1.8597  1.4686
 7069SOL    HW232667   3.640   0.649   4.004  3.4902 -2.1235  0.7119
 7070SOL     OW32668   3.188   2.894  14.197 -0.2788  0.3794 -0.3697
 7070SOL    HW132669   3.168   2.887  14.103 -0.0921 -0.7445 -0.3253
 7070SOL    HW232670   3.231   2.978  14.207  1.6969 -1.0714  3.0321
 7071SOL     OW32671   4.612   2.776   7.216 -0.0362  0.6847  0.0826
 7071SOL    HW132672   4.707   2.778   7.216 -0.0574  1.7772  0.5897
 7071SOL    HW232673   4.593   2.870   7.219  2.0568  1.0757  1.3060
 7072SOL     OW32674   4.242   1.878   0.125 -0.0898  0.0745  0.1556
 7072SOL    HW132675   4.231   1.784   0.134  0.0890 -0.2413 -2.8286
 7072SOL    HW232676   4.162   1.908   0.169 -0.9538  0.1311 -1.4340
 7073SOL     OW32677   2.377   3.394   4.292 -0.2357 -0.0701  0.2353
 7073SOL    HW132678   2.326   3.395   4.211 -0.6305  0.2515  0.4861
 7073SOL    HW232679   2.414   3.306   4.292  0.1404  0.0846  2.0031
 7074SOL     OW32680   0.262   1.579   1.923  0.4153 -0.0285  0.6440
 7074SOL    HW132681   0.245   1.608   2.013 -0.5103 -0.5974  0.6447
 7074SOL    HW232682   0.220   1.493   1.927  1.2057 -0.4453  0.0276
 7075SOL     OW32683   0.538   0.807  15.823  0.2032 -0.3636 -0.2429
 7075SOL    HW132684   0.483   0.802  15.901  2.6132  1.9046  1.5906
 7075SOL    HW232685   0.487   0.753  15.762  1.6647 -2.4486  0.3647
 7076SOL     OW32686   4.159   0.677   0.478  0.1317  0.1158  0.2105
 7076SOL    HW132687   4.115   0.756   0.508  0.5117 -0.0785  1.2789
 7076SOL    HW232688   4.174   0.643   0.567  3.3008 -1.5381 -0.9390
 7077SOL     OW32689   3.454   3.834   7.808  0.0156 -0.4523  0.1943
 7077SOL    HW132690   3.377   3.814   7.861  1.6324  3.2502  3.9176
 7077SOL    HW232691   3.416   3.876   7.730  0.8884 -2.7183 -1.4605
 7078SOL     OW32692   4.354   0.854   2.308 -0.4926 -0.1100  0.3179
 7078SOL    HW132693   4.362   0.761   2.331  1.6821  0.0161  0.0433
 7078SOL    HW232694   4.366   0.910   2.384 -0.4605 -0.3729  0.5065
 7079SOL     OW32695   2.163   1.519   5.524  0.0601  0.2407 -1.0442
 7079SOL    HW132696   2.223   1.527   5.450  2.7455  1.2189  1.2799
 7079SOL    HW232697   2.091   1.465   5.490 -1.4615  0.9369  1.0759
 7080SOL     OW32698   2.729   2.130   3.243 -0.8113  0.1195  0.4316
 7080SOL    HW132699   2.678   2.200   3.283  1.5954  1.2560  1.4964
 7080SOL    HW232700   2.720   2.154   3.151  0.5741 -2.7067 -0.4254
 7081SOL     OW32701   4.506   1.969  12.095  0.5720  0.3038 -0.3680
 7081SOL    HW132702   4.539   2.045  12.048 -0.4336  0.0600 -1.4734
 7081SOL    HW232703   4.425   1.959  12.044  0.1641 -0.4508  0.4191
 7082SOL     OW32704   0.841   0.956   1.964  0.2077  0.0778 -0.0108
 7082SOL    HW132705   0.864   0.900   2.038  1.5826  1.3559  0.5303
 7082SOL    HW232706   0.783   1.025   1.995 -0.8965 -0.1831 -1.4785
 7083SOL     OW32707   3.441   1.185   4.742 -0.7484  0.0571  0.1517
 7083SOL    HW132708   3.495   1.137   4.804 -1.0876  1.3143  1.4187
 7083SOL    HW232709   3.484   1.269   4.731  1.8612 -1.3738 -0.4083
 7084SOL     OW32710   2.942   3.984   7.715 -1.1874 -0.3320 -0.7125
 7084SOL    HW132711   2.968   4.063   7.763 -0.6570 -2.0071  1.7477
 7084SOL    HW232712   2.915   3.912   7.772  0.3644  0.6257  1.2595
 7085SOL     OW32713   0.000   2.616  11.388 -0.2566  0.3343  0.1040
 7085SOL    HW132714   4.657   2.551  11.408  0.5054  0.4159  2.9339
 7085SOL    HW232715   4.698   2.677  11.457 -0.0932 -0.1949  0.6362
 7086SOL     OW32716   3.451   3.664  14.953 -0.1571  0.0935  0.2374
 7086SOL    HW132717   3.501   3.707  14.883  1.3091 -3.1259 -0.6943
 7086SOL    HW232718   3.501   3.698  15.027  0.6924  0.1452 -0.3652
 7087SOL     OW32719   1.366   4.287   2.649 -0.7675 -0.3518  0.1120
 7087SOL    HW132720   1.334   4.310   2.562  0.3415  0.7997  0.0066
 7087SOL    HW232721   1.416   4.366   2.668 -0.3563 -0.0850 -2.0927
 7088SOL     OW32722   4.713   4.365   8.225 -0.6048  0.1645  0.3399
 7088SOL    HW132723   0.078   4.335   8.248 -1.3834 -0.4352  2.5293
 7088SOL    HW232724   0.002   4.453   8.258  0.6660  0.0606  0.1493
 7089SOL     OW32725   2.565   4.628  13.317  0.0518 -0.5797  0.2985
 7089SOL    HW132726   2.501   4.561  13.293 -0.7311 -0.9485  3.3026
 7089SOL    HW232727   2.628   4.608  13.249  1.1655 -0.8560  1.4122
 7090SOL     OW32728   0.386   3.364   5.754 -0.0014  0.0556 -0.8299
 7090SOL    HW132729   0.431   3.445   5.730  0.0229  0.6942  1.3999
 7090SOL    HW232730   0.376   3.326   5.666 -2.3262 -0.1064 -0.4865
 7091SOL     OW32731   2.039   0.266  17.373  0.0495 -0.0782 -0.1191
 7091SOL    HW132732   2.073   0.179  17.393 -1.8969 -0.6293  0.8459
 7091SOL    HW232733   2.092   0.328  17.423 -0.3321 -0.1428  0.3658
 7092SOL     OW32734   2.544   4.126   8.289 -0.3874 -0.0053  0.3344
 7092SOL    HW132735   2.539   4.187   8.215  0.1794 -0.6209 -0.2069
 7092SOL    HW232736   2.635   4.100   8.301 -0.7524 -1.6360 -0.3853
 7093SOL     OW32737   3.858   3.515   7.389 -0.0027  0.2065 -0.0038
 7093SOL    HW132738   3.823   3.427   7.406 -0.0610  0.5885  1.7723
 7093SOL    HW232739   3.869   3.549   7.477  2.8706 -1.7701  0.4104
 7094SOL     OW32740   0.715   2.541  11.402 -0.0191  0.0249  0.4960
 7094SOL    HW132741   0.670   2.533  11.318  1.3446 -1.2874 -0.1192
 7094SOL    HW232742   0.729   2.447  11.414 -3.9719 -0.2521  2.6951
 7095SOL     OW32743   0.359   4.310   4.126  0.0605 -0.3805 -0.2216
 7095SOL    HW132744   0.455   4.308   4.133 -0.1044  1.2232  2.6827
 7095SOL    HW232745   0.353   4.376   4.056  1.2261 -0.5196 -0.4532
 7096SOL     OW32746   1.891   4.454   0.049  0.1600 -0.0633 -0.7032
 7096SOL    HW132747   1.845   4.478   0.130 -0.6397 -2.1529 -0.5215
 7096SOL    HW232748   1.823   4.419  17.687 -2.1723  0.5235  1.6236
 7097SOL     OW32749   2.397   4.423   4.189  0.1114  0.3480  0.1206
 7097SOL    HW132750   2.362   4.371   4.116  0.4981 -0.2661  0.3738
 7097SOL    HW232751   2.340   4.393   4.260  2.3947 -2.2296  0.8731
 7098SOL     OW32752   0.173   2.164  12.927 -0.2050  0.2114  0.1611
 7098SOL    HW132753   0.202   2.075  12.906  0.8467  0.3288  1.1474
 7098SOL    HW232754   0.223   2.217  12.865 -0.5781  0.5937  0.1855
 7099SOL     OW32755   1.060   2.768  13.341  0.1047  0.0240  0.5251
 7099SOL    HW132756   1.024   2.729  13.421  2.1570 -0.8217  1.0358
 7099SOL    HW232757   0.991   2.833  13.325 -0.2103 -0.4879 -0.1667
 7100SOL     OW32758   1.111   2.575  14.888 -0.3741  0.2544  0.4489
 7100SOL    HW132759   1.047   2.600  14.821  0.8557 -2.6946 -1.8092
 7100SOL    HW232760   1.187   2.544  14.838 -1.3012 -0.2066 -0.6456
 7101SOL     OW32761   1.454   2.963   7.162  0.3208 -0.5224 -0.2084
 7101SOL    HW132762   1.501   3.046   7.161  2.0973 -1.5111  1.9347
 7101SOL    HW232763   1.517   2.890   7.160 -0.1616 -0.9890  1.5125
 7102SOL     OW32764   0.056   0.304   6.387  0.3152 -0.4873  0.5964
 7102SOL    HW132765   0.037   0.397   6.371 -1.2692 -0.7801  0.7672
 7102SOL    HW232766   4.714   0.256   6.336 -0.8700  2.2266 -0.4852
 7103SOL     OW32767   3.399   3.957   6.331 -0.4725 -0.3153 -0.0836
 7103SOL    HW132768   3.403   4.045   6.294  0.5004  0.0555  0.9020
 7103SOL    HW232769   3.452   3.968   6.411 -1.8788  2.1521  0.4844
 7104SOL     OW32770   3.529   3.651   4.245  0.1981  0.0708  0.0976
 7104SOL    HW132771   3.499   3.713   4.311 -4.4536 -0.3129 -1.6498
 7104SOL    HW232772   3.458   3.660   4.181  0.3212  3.9319  0.5183
 7105SOL     OW32773   2.155   2.859   7.197  0.4402  0.2669  0.0275
 7105SOL    HW132774   2.118   2.854   7.285  2.0931  0.3329  0.7217
 7105SOL    HW232775   2.220   2.928   7.208  3.5917 -2.5313 -0.7552
 7106SOL     OW32776   3.526   2.543  16.509 -0.6675 -0.4408  0.3719
 7106SOL    HW132777   3.457   2.547  16.575 -2.7332 -0.5165 -1.7924
 7106SOL    HW232778   3.496   2.474  16.450  0.6682 -0.5200 -0.2283
 7107SOL     OW32779   4.356   3.472  11.477  0.4054  0.3256  0.1765
 7107SOL    HW132780   4.262   3.489  11.472  0.3479  0.2453  0.9170
 7107SOL    HW232781   4.386   3.526  11.405  1.8814  0.9305  1.2496
 7108SOL     OW32782   2.542   1.310   7.279 -0.3664 -0.2267 -0.1908
 7108SOL    HW132783   2.464   1.321   7.333 -1.9854 -0.3520 -2.5226
 7108SOL    HW232784   2.607   1.360   7.330  1.1584 -1.6859 -0.7015
 7109SOL     OW32785   3.552   0.947   6.239  0.8542 -0.5667 -0.0834
 7109SOL    HW132786   3.529   0.969   6.329  0.3634  0.8408 -0.5670
 7109SOL    HW232787   3.470   0.929   6.193  1.0601  2.4838 -1.6303
 7110SOL     OW32788   3.528   2.918  11.649 -0.5310 -0.0999 -0.2764
 7110SOL    HW132789   3.536   2.897  11.742 -1.3051  0.7104 -0.0340
 7110SOL    HW232790   3.517   2.827  11.621  2.0782 -0.3233 -0.6265
 7111SOL     OW32791   1.414   2.934  12.993  0.0085 -0.0787  0.3405
 7111SOL    HW132792   1.399   2.895  12.907  0.0449 -0.0657  0.3280
 7111SOL    HW232793   1.456   3.013  12.960 -0.0563  0.3717  1.3217
 7112SOL     OW32794   2.767   2.437   7.254 -0.0486 -0.5488  0.0002
 7112SOL    HW132795   2.846   2.391   7.282  0.0026  0.1584  1.0416
 7112SOL    HW232796   2.705   2.365   7.246  2.4365 -2.7967  0.8773
 7113SOL     OW32797   1.495   2.934   4.294  0.2048 -0.1098 -0.0616
 7113SOL    HW132798   1.490   2.957   4.386  0.7390 -2.0663  0.4662
 7113SOL    HW232799   1.587   2.929   4.269  1.0573  0.5705  2.9629
 7114SOL     OW32800   2.123   2.442  17.092 -0.3071 -0.3102  0.5811
 7114SOL    HW132801   2.109   2.537  17.090  3.6070  0.2787  2.4987
 7114SOL    HW232802   2.187   2.436  17.162  2.7414 -0.2492 -2.2343
 7115SOL     OW32803   3.617   2.481   9.367 -0.1436  0.2472 -0.0832
 7115SOL    HW132804   3.596   2.391   9.393 -1.7411  1.4238  2.6606
 7115SOL    HW232805   3.535   2.528   9.380  0.7311  2.2386 -1.7287
 7116SOL     OW32806   0.693   4.080   9.395 -0.3640  0.9086  0.2840
 7116SOL    HW132807   0.635   4.156   9.405 -0.4846  0.8937 -0.2657
 7116SOL    HW232808   0.707   4.057   9.486 -1.1030  2.8559  0.9003
 7117SOL     OW32809   4.408   0.131   6.520 -0.2101  0.1349  0.2456
 7117SOL    HW132810   4.472   0.066   6.549 -0.6341 -0.0489  0.7675
 7117SOL    HW232811   4.402   0.187   6.597  0.1745 -0.4662  0.7171
 7118SOL     OW32812   4.681   1.647   0.084  0.2419  0.2261 -0.2412
 7118SOL    HW132813   4.590   1.658   0.112  0.8667 -0.4595  2.0461
 7118SOL    HW232814   4.684   1.684  17.693  0.3920  2.0185  0.5201
 7119SOL     OW32815   0.439   2.577   4.170 -0.2429 -0.5382 -0.0126
 7119SOL    HW132816   0.507   2.519   4.135 -0.3546 -0.8196  0.2407
 7119SOL    HW232817   0.491   2.657   4.185 -0.6254 -0.1330 -0.8271
 7120SOL     OW32818   3.183   3.803   7.260 -0.4993  0.1318 -0.2782
 7120SOL    HW132819   3.248   3.858   7.305  0.5099 -0.5819 -0.8555
 7120SOL    HW232820   3.114   3.844   7.313  0.2708  1.2889 -0.1724
 7121SOL     OW32821   2.907   3.887  17.040  0.0987 -0.1947 -0.2230
 7121SOL    HW132822   2.890   3.794  17.056  0.2733  0.2744  2.8411
 7121SOL    HW232823   2.918   3.915  17.131  0.3406  0.3679 -0.4265
 7122SOL     OW32824   1.217   4.378   2.424  0.8722 -0.3505  0.7598
 7122SOL    HW132825   1.254   4.365   2.336  2.5104  1.4193  1.2010
 7122SOL    HW232826   1.129   4.342   2.414 -0.1382  2.3799  0.0225
 7123SOL     OW32827   2.539   1.853   7.746  0.7580 -0.1304  0.0946
 7123SOL    HW132828   2.557   1.864   7.839 -0.8226 -2.2603  0.6592
 7123SOL    HW232829   2.445   1.833   7.742  0.9107 -0.6713 -1.0506
 7124SOL     OW32830   0.447   1.558  14.848  0.5690  0.2361 -0.0851
 7124SOL    HW132831   0.529   1.582  14.805  0.9906 -2.2795 -0.6796
 7124SOL    HW232832   0.468   1.580  14.939 -0.4669 -1.5004  0.5798
 7125SOL     OW32833   1.858   3.521   8.501 -0.7120 -0.3480 -0.5352
 7125SOL    HW132834   1.788   3.584   8.483 -0.6514 -0.1218  0.0231
 7125SOL    HW232835   1.925   3.587   8.483 -0.7116 -0.2676 -0.2474
 7126SOL     OW32836   3.448   3.427   7.750 -0.1381  0.6582  0.4581
 7126SOL    HW132837   3.502   3.483   7.808  2.6768 -1.0367 -0.5288
 7126SOL    HW232838   3.494   3.343   7.754 -1.0155  0.1444 -0.4127
 7127SOL     OW32839   2.370   1.492   9.892 -0.1653  0.5340 -0.3442
 7127SOL    HW132840   2.399   1.541   9.968  0.0272 -0.3932  0.1845
 7127SOL    HW232841   2.375   1.400   9.920 -0.1098  1.0851  1.4548
 7128SOL     OW32842   0.773   0.177   3.669  0.1281  0.0946  0.2887
 7128SOL    HW132843   0.812   0.193   3.755 -0.4756  1.0867  0.3863
 7128SOL    HW232844   0.741   0.264   3.645  2.9295  1.9354  3.0800
 7129SOL     OW32845   3.923   3.127   9.239 -0.3176  0.5388  0.3908
 7129SOL    HW132846   3.915   3.078   9.157  0.6533 -0.2443  0.7647
 7129SOL    HW232847   3.845   3.102   9.289  1.2784 -1.8180  1.6992
 7130SOL     OW32848   0.084   4.392   4.590 -0.1363  0.1980  0.0210
 7130SOL    HW132849   0.163   4.422   4.634 -0.1575  0.1811  0.0705
 7130SOL    HW232850   0.105   4.299   4.580 -1.7343  0.0614 -2.0873
 7131SOL     OW32851   0.047   2.863  16.779  0.1196 -0.1876  0.5076
 7131SOL    HW132852   0.030   2.894  16.690 -1.4295 -1.0794  0.5025
 7131SOL    HW232853   4.686   2.820  16.790  0.1759 -0.8722 -1.6439
 7132SOL     OW32854   2.036   2.719  12.434 -0.3483  0.4788 -0.5518
 7132SOL    HW132855   2.063   2.761  12.352  0.3289  1.2849  0.0801
 7132SOL    HW232856   2.119   2.680  12.462 -0.2505  0.6003 -0.6695
 7133SOL     OW32857   0.186   2.926   6.016  0.3191  0.3693 -0.3000
 7133SOL    HW132858   0.094   2.929   6.044  0.4581  0.2612  0.1659
 7133SOL    HW232859   0.233   2.936   6.099  0.2721 -0.7253 -0.1460
 7134SOL     OW32860   3.270   3.262   7.273  0.2106  0.3334  0.1309
 7134SOL    HW132861   3.214   3.324   7.226  0.0055  0.3258  0.3625
 7134SOL    HW232862   3.326   3.325   7.318 -0.4558  0.1105  1.2538
 7135SOL     OW32863   1.359   3.559   9.803 -0.2174 -0.2571 -0.0871
 7135SOL    HW132864   1.289   3.556   9.738  0.9459  1.4826 -1.3974
 7135SOL    HW232865   1.326   3.616   9.872 -0.2669 -1.5745  0.9866
 7136SOL     OW32866   1.378   1.515   9.089  0.1316 -0.4842 -0.3920
 7136SOL    HW132867   1.395   1.582   9.155 -0.3783  1.2437 -2.0124
 7136SOL    HW232868   1.288   1.493   9.116 -0.0115  0.5495 -0.0464
 7137SOL     OW32869   0.439   1.299   0.398 -0.1475 -0.6510  0.7123
 7137SOL    HW132870   0.506   1.276   0.334 -1.6558  2.1935 -1.8910
 7137SOL    HW232871   0.490   1.350   0.460  0.7589  1.2383 -1.5955
 7138SOL     OW32872   0.066   0.000   9.423  0.0966 -0.1436  0.3788
 7138SOL    HW132873   0.084   0.091   9.399 -0.5722  0.3688  1.8111
 7138SOL    HW232874   0.008   0.010   9.499 -0.8047 -0.9911 -0.2052
 7139SOL     OW32875   4.597   1.320  15.248  0.2864  0.6250 -0.2809
 7139SOL    HW132876   4.579   1.348  15.158  3.8212  1.6689 -0.6824
 7139SOL    HW232877   4.533   1.364  15.304  0.1538 -0.6299  0.5435
 7140SOL     OW32878   0.844   2.067   7.881 -0.2893 -0.5341 -0.6142
 7140SOL    HW132879   0.845   2.129   7.808  1.2828  0.8750  0.6057
 7140SOL    HW232880   0.903   1.997   7.854 -0.4553 -0.6851 -0.5811
 7141SOL     OW32881   0.229   4.501   9.485 -0.0353  0.8738 -0.3137
 7141SOL    HW132882   0.179   4.581   9.472 -0.7538  0.7699  1.8034
 7141SOL    HW232883   0.206   4.485   9.576 -3.6121 -0.5700 -1.4717
 7142SOL     OW32884   1.553   0.400   9.332 -0.3888 -0.0031  0.5464
 7142SOL    HW132885   1.557   0.326   9.393  0.8642  0.4640  1.0263
 7142SOL    HW232886   1.511   0.350   9.262  0.1642 -2.7774  2.1862
 7143SOL     OW32887   4.271   2.552  10.804 -0.4062  0.3758 -0.5359
 7143SOL    HW132888   4.179   2.556  10.778 -0.3053  0.9195 -0.8122
 7143SOL    HW232889   4.265   2.594  10.890  0.5589 -2.2314  0.8062
 7144SOL     OW32890   1.426   0.803   6.179  0.2360  0.6180  0.6563
 7144SOL    HW132891   1.446   0.843   6.264  1.7251 -0.9938  1.0512
 7144SOL    HW232892   1.510   0.761   6.161 -0.7753 -1.5681  1.0967
 7145SOL     OW32893   2.487   0.508  14.965 -0.5477  0.1495 -0.1657
 7145SOL    HW132894   2.536   0.497  14.884  0.9643 -2.6281  1.1070
 7145SOL    HW232895   2.396   0.500  14.938 -0.4585 -0.0187 -0.4147
 7146SOL     OW32896   4.432   0.231   2.532  0.0387  0.3393 -0.5164
 7146SOL    HW132897   4.507   0.193   2.577  0.6725 -1.0705 -2.7500
 7146SOL    HW232898   4.396   0.151   2.491 -0.8710 -0.3282  1.6171
 7147SOL     OW32899   4.676   2.101   5.899 -0.0616  0.1364  0.1208
 7147SOL    HW132900   4.673   2.110   5.804  1.2939  0.4637  0.1027
 7147SOL    HW232901   4.601   2.043   5.910 -0.8364  1.2530  0.7406
 7148SOL     OW32902   1.777   3.903   4.309 -1.0335  0.3446  0.2849
 7148SOL    HW132903   1.850   3.848   4.281 -1.6633 -1.1661  1.6101
 7148SOL    HW232904   1.814   3.958   4.378 -0.2529 -0.2335  0.3267
 7149SOL     OW32905   2.562   3.231  10.184  0.2708  0.1946 -0.0673
 7149SOL    HW132906   2.541   3.210  10.275 -0.0009 -0.2031 -0.2204
 7149SOL    HW232907   2.475   3.225  10.146  1.9415 -0.8816 -3.7818
 7150SOL     OW32908   1.172   3.001   6.267  0.4041 -0.0694 -0.7968
 7150SOL    HW132909   1.188   2.934   6.202 -1.8112  2.0315 -3.5013
 7150SOL    HW232910   1.165   2.938   6.338 -0.8498  0.0453 -0.8097
 7151SOL     OW32911   0.038   2.866   1.289 -0.3828 -0.2734 -0.3143
 7151SOL    HW132912   0.040   2.962   1.291 -0.7261 -0.2593 -0.4963
 7151SOL    HW232913   4.676   2.868   1.331 -0.3573  1.0733 -0.3057
 7152SOL     OW32914   3.137   0.999   7.775 -0.2522  0.5488  0.5350
 7152SOL    HW132915   3.146   1.000   7.680  1.9788  0.5465  0.7498
 7152SOL    HW232916   3.053   0.955   7.793 -0.5522  0.4643 -1.1339
 7153SOL     OW32917   1.186   0.692  15.601  0.0393 -0.0010 -0.0967
 7153SOL    HW132918   1.200   0.772  15.550 -1.0047  1.7667  2.4095
 7153SOL    HW232919   1.110   0.713  15.654 -0.4678 -0.7040 -0.5547
 7154SOL     OW32920   1.168   0.332   6.744 -0.2735 -0.8128  0.2824
 7154SOL    HW132921   1.151   0.250   6.789 -0.0054 -1.0674 -0.0802
 7154SOL    HW232922   1.145   0.308   6.654  0.7244  1.7101 -0.6583
 7155SOL     OW32923   0.892   0.214   9.090  0.6158 -0.1841 -0.3540
 7155SOL    HW132924   0.972   0.255   9.057  1.0871 -3.0637 -2.7567
 7155SOL    HW232925   0.871   0.282   9.154  1.3449 -0.3786  0.0882
 7156SOL     OW32926   0.886   3.465   5.180 -0.0895  0.6011  0.4068
 7156SOL    HW132927   0.941   3.543   5.170 -0.4935  0.6889 -1.0727
 7156SOL    HW232928   0.941   3.409   5.126  2.1619  0.6060  2.6565
 7157SOL     OW32929   4.233   0.589  10.975 -0.1919 -0.5194 -0.2774
 7157SOL    HW132930   4.286   0.551  10.905 -0.5185  0.5986 -1.1341
 7157SOL    HW232931   4.151   0.609  10.930 -0.0200  0.1625 -0.2895
 7158SOL     OW32932   1.533   1.976   2.223  0.8111  0.1293 -0.3245
 7158SOL    HW132933   1.582   1.973   2.306 -0.2853  1.6844  0.3854
 7158SOL    HW232934   1.540   1.886   2.193  2.3464  0.3735 -0.7094
 7159SOL     OW32935   4.265   3.556   4.999 -1.0022  0.3884 -0.4840
 7159SOL    HW132936   4.269   3.607   5.080  1.3270 -2.2675  1.0508
 7159SOL    HW232937   4.348   3.508   5.005 -1.5749 -0.6707 -0.9707
 7160SOL     OW32938   0.032   3.572  14.719 -0.5593  0.1703 -0.3306
 7160SOL    HW132939   0.088   3.634  14.766 -2.2301  2.1335 -0.9495
 7160SOL    HW232940   0.082   3.559  14.638  1.8074  1.4406  0.9326
 7161SOL     OW32941   2.030   2.943   5.003 -0.1513 -0.1767  0.1295
 7161SOL    HW132942   1.980   2.942   4.921 -1.2666  1.3110  0.8072
 7161SOL    HW232943   1.974   2.891   5.061 -0.9197 -0.4352 -0.8428
 7162SOL     OW32944   3.885   2.953   3.153  0.7805 -0.1063  0.2970
 7162SOL    HW132945   3.865   3.007   3.229 -1.1892 -1.3653  0.6523
 7162SOL    HW232946   3.802   2.916   3.123  0.3461  0.4988  0.7579
 7163SOL     OW32947   4.407   2.697   2.889  0.4804 -0.5233  0.3627
 7163SOL    HW132948   4.346   2.750   2.837  0.8067 -0.8636 -0.3644
 7163SOL    HW232949   4.457   2.668   2.813  1.5769 -1.9365  1.6440
 7164SOL     OW32950   4.291   4.025   1.896  0.0164  0.5928  0.6602
 7164SOL    HW132951   4.220   4.087   1.915  0.0941  1.2596 -1.1813
 7164SOL    HW232952   4.354   4.096   1.912  3.2617 -1.8088 -1.5384
 7165SOL     OW32953   0.130   2.907   6.859  0.8496 -0.1392 -0.4946
 7165SOL    HW132954   0.140   3.001   6.878 -1.1327  0.1613 -0.8692
 7165SOL    HW232955   0.038   2.915   6.833  0.2516  0.2003  1.7049
 7166SOL     OW32956   4.298   4.389   1.767 -0.3371  0.5402 -0.1001
 7166SOL    HW132957   4.359   4.397   1.694  0.4782 -0.0934  0.5077
 7166SOL    HW232958   4.333   4.315   1.817 -0.5578  1.4913  1.4595
 7167SOL     OW32959   1.186   3.497   4.213  0.1799 -0.2903  0.1551
 7167SOL    HW132960   1.171   3.565   4.279  1.1624  1.2524 -1.2300
 7167SOL    HW232961   1.096   3.488   4.181 -0.0603 -0.2970  0.8132
 7168SOL     OW32962   1.635   0.964   5.128  0.0329 -0.5484 -0.3421
 7168SOL    HW132963   1.663   0.891   5.073 -0.1539 -1.0007  0.1580
 7168SOL    HW232964   1.540   0.951   5.134  0.1354 -1.7159 -1.1320
 7169SOL     OW32965   4.581   4.355  11.539 -0.4302 -0.4687 -0.0291
 7169SOL    HW132966   4.542   4.268  11.537 -0.4799 -0.4066 -1.9970
 7169SOL    HW232967   4.560   4.383  11.450  3.0570  2.8833  0.1797
 7170SOL     OW32968   3.877   2.534  13.720 -0.0761 -0.0485  0.1511
 7170SOL    HW132969   3.788   2.500  13.731 -0.0566  0.5601  2.1191
 7170SOL    HW232970   3.921   2.537  13.805 -0.6846 -1.1444  0.5039
 7171SOL     OW32971   1.282   2.043  13.236  0.2270 -0.3150  0.2938
 7171SOL    HW132972   1.311   1.973  13.177 -0.3851 -1.2459  1.0838
 7171SOL    HW232973   1.186   2.035  13.238  0.3103 -1.4056  0.0440
 7172SOL     OW32974   1.316   1.950  11.016  0.0565  0.5761 -0.5100
 7172SOL    HW132975   1.300   1.905  10.932  1.8131  2.5110 -1.8777
 7172SOL    HW232976   1.321   1.873  11.073  0.2024  3.3238  3.1719
 7173SOL     OW32977   4.091   1.155   1.653  0.0237 -0.1476  0.1568
 7173SOL    HW132978   4.072   1.096   1.581 -0.8029  1.5318 -0.9824
 7173SOL    HW232979   4.186   1.140   1.658 -0.0723 -0.3766  1.2687
 7174SOL     OW32980   4.187   1.042   5.583 -0.7402 -0.4628  0.0018
 7174SOL    HW132981   4.179   1.114   5.521  1.1716 -1.2667 -1.1836
 7174SOL    HW232982   4.158   0.961   5.542 -1.1962  0.4854 -1.5229
 7175SOL     OW32983   3.863   0.839   3.830  1.0849 -1.0838 -0.0890
 7175SOL    HW132984   3.943   0.872   3.789  1.3659 -2.9039 -1.0411
 7175SOL    HW232985   3.892   0.829   3.920  3.4863 -1.0689 -0.8441
 7176SOL     OW32986   4.642   1.379   8.112  0.1772 -0.1222 -0.3469
 7176SOL    HW132987   4.684   1.462   8.135 -0.3534  0.0544 -0.0221
 7176SOL    HW232988   4.715   1.318   8.106  1.5077  1.3209  1.0484
 7177SOL     OW32989   4.485   3.686   8.841  0.1381  0.0596  0.5979
 7177SOL    HW132990   4.424   3.653   8.907  0.1334  0.6159  0.8793
 7177SOL    HW232991   4.538   3.747   8.893 -1.6147  1.1843  1.0355
 7178SOL     OW32992   0.166   3.882   8.193 -0.5391 -0.2004  0.1260
 7178SOL    HW132993   0.194   3.934   8.269  3.0679  0.1765 -1.4839
 7178SOL    HW232994   0.245   3.855   8.146 -0.4122 -0.2874  0.3895
 7179SOL     OW32995   1.065   3.660   5.130 -0.1966 -0.0851  0.0171
 7179SOL    HW132996   1.026   3.742   5.101 -0.5202 -0.3356 -0.2619
 7179SOL    HW232997   1.149   3.649   5.085  0.0682 -0.3246  0.5641
 7180SOL     OW32998   3.421   2.509  14.161 -0.1520 -0.4943 -0.3395
 7180SOL    HW132999   3.391   2.508  14.252 -0.5118  2.2677 -0.4434
 7180SOL    HW233000   3.357   2.460  14.110  1.0554 -0.7945 -1.5783
 7181SOL     OW33001   3.775   2.773   2.102 -0.1389 -0.7096 -0.6584
 7181SOL    HW133002   3.707   2.716   2.137 -2.0238  0.3097 -2.7461
 7181SOL    HW233003   3.835   2.804   2.170 -0.4980 -1.6900  0.1063
 7182SOL     OW33004   1.244   3.195   4.598 -0.3658 -0.2307  0.2263
 7182SOL    HW133005   1.333   3.160   4.609  0.3382  1.2248 -0.7594
 7182SOL    HW233006   1.215   3.196   4.689  0.7562 -0.9955  0.5914
 7183SOL     OW33007   0.393   3.569   2.446  0.2468  0.3220  0.5791
 7183SOL    HW133008   0.381   3.509   2.520  0.3933 -0.9564 -0.4191
 7183SOL    HW233009   0.371   3.512   2.371 -0.3431 -0.4100  1.3116
 7184SOL     OW33010   2.531   2.387  13.464 -0.0624  0.7515  0.5368
 7184SOL    HW133011   2.470   2.458  13.443 -1.9395 -0.6765  1.2078
 7184SOL    HW233012   2.615   2.433  13.452 -0.0183  0.2636 -1.0280
 7185SOL     OW33013   0.235   0.337  10.175 -0.2130 -0.0114 -0.2248
 7185SOL    HW133014   0.275   0.328  10.089  2.4987  2.9851  0.7207
 7185SOL    HW233015   0.223   0.432  10.186 -0.4709 -0.0268 -0.3702
 7186SOL     OW33016   3.421   3.184   2.566 -0.2915 -0.0346  0.5395
 7186SOL    HW133017   3.492   3.185   2.502 -1.4991 -0.4353 -0.8082
 7186SOL    HW233018   3.355   3.250   2.542 -0.7742 -1.1498 -1.2399
 7187SOL     OW33019   1.968   0.447   3.128 -0.3899  0.2461  0.2949
 7187SOL    HW133020   1.985   0.398   3.048  0.2638  0.6723  0.1711
 7187SOL    HW233021   2.047   0.500   3.132 -0.6117  0.5826  0.1389
 7188SOL     OW33022   0.879   4.257   9.260  0.2196  0.2351  0.4922
 7188SOL    HW133023   0.949   4.192   9.251 -0.1826 -0.2404  0.8504
 7188SOL    HW233024   0.811   4.206   9.304 -1.0117 -0.7399 -2.5446
 7189SOL     OW33025   0.046   2.338   4.366  0.1476  0.0987 -0.1646
 7189SOL    HW133026   4.698   2.294   4.412  0.2176 -0.2573 -0.4011
 7189SOL    HW233027   4.721   2.385   4.299 -0.2312  0.9801  0.7213
 7190SOL     OW33028   1.172   3.424   5.404 -0.4868 -0.8554 -0.8529
 7190SOL    HW133029   1.213   3.507   5.380 -1.3002 -0.3572 -0.5454
 7190SOL    HW233030   1.098   3.419   5.344  1.2976  1.7238 -3.2602
 7191SOL     OW33031   2.425   4.246   4.533 -0.6295  0.0690 -0.3117
 7191SOL    HW133032   2.450   4.155   4.518 -2.2356 -0.3719 -0.2534
 7191SOL    HW233033   2.368   4.259   4.457  0.2248 -1.5742 -1.2308
 7192SOL     OW33034   0.157   1.230   0.821  0.2766  0.0410 -0.2890
 7192SOL    HW133035   0.133   1.302   0.880 -0.2098 -0.7938  0.5342
 7192SOL    HW233036   0.205   1.174   0.880  1.0397  0.3940 -0.5772
 7193SOL     OW33037   1.027   2.647   5.300 -0.0605  0.2070 -0.7400
 7193SOL    HW133038   1.090   2.712   5.270  0.6564  0.0179  0.3548
 7193SOL    HW233039   1.056   2.643   5.391  1.1762  0.6283 -1.1134
 7194SOL     OW33040   1.236   4.664  16.741  0.4097 -0.5076  0.3224
 7194SOL    HW133041   1.254   4.579  16.702  0.4460 -0.5880  0.5120
 7194SOL    HW233042   1.325   4.690  16.764  0.2258  0.7633 -0.3743
 7195SOL     OW33043   1.061   1.154   8.751 -0.1761  0.5787 -0.0296
 7195SOL    HW133044   1.012   1.072   8.743 -0.7801  1.1519 -2.3174
 7195SOL    HW233045   1.142   1.126   8.710  0.2633 -1.4373  2.2247
 7196SOL     OW33046   2.280   1.411   6.511 -0.4124  0.5200  0.0403
 7196SOL    HW133047   2.309   1.496   6.477  0.1520  0.5862  0.6833
 7196SOL    HW233048   2.366   1.372   6.525 -1.6395 -2.4479 -0.7219
 7197SOL     OW33049   1.916   2.552   2.414  0.4144  0.1508 -0.0611
 7197SOL    HW133050   1.892   2.497   2.489  0.6184 -2.2641 -1.7539
 7197SOL    HW233051   1.837   2.557   2.360  0.7317  0.8023 -0.4670
 7198SOL     OW33052   1.880   2.845  11.165 -0.1715 -0.7410  0.1838
 7198SOL    HW133053   1.879   2.869  11.072  0.3263  1.4432  0.7525
 7198SOL    HW233054   1.917   2.756  11.159  2.3823  0.5194 -3.0527
 7199SOL     OW33055   4.486   3.285   2.115 -0.4621  0.0594  0.4283
 7199SOL    HW133056   4.466   3.327   2.031 -1.5134 -1.4912 -0.0912
 7199SOL    HW233057   4.581   3.289   2.126  0.1238 -3.3889 -3.3937
 7200SOL     OW33058   2.028   2.727   3.763 -0.6161  0.6492 -0.2181
 7200SOL    HW133059   2.119   2.726   3.792 -0.1476  1.0717 -1.7023
 7200SOL    HW233060   2.038   2.816   3.730  0.4580  1.1567  1.4803
 7201SOL     OW33061   0.635   3.472   2.935 -0.0018 -0.7901 -0.4394
 7201SOL    HW133062   0.561   3.427   2.895 -0.3111 -0.8716  0.2326
 7201SOL    HW233063   0.596   3.471   3.022  0.4290 -1.3849 -0.2477
 7202SOL     OW33064   1.351   0.422   6.928 -1.1946  0.3747 -0.3245
 7202SOL    HW133065   1.288   0.398   6.860  0.4591 -0.4392 -1.5889
 7202SOL    HW233066   1.370   0.337   6.967  0.5337  1.2584  0.7438
 7203SOL     OW33067   2.568   0.980  16.741  0.6824 -0.3757 -0.0798
 7203SOL    HW133068   2.596   1.059  16.787  0.5652 -1.3568  1.6971
 7203SOL    HW233069   2.473   0.989  16.739  0.6202 -0.7606  1.1189
 7204SOL     OW33070   2.096   0.562  15.488  0.1085 -0.3334  0.2113
 7204SOL    HW133071   2.079   0.561  15.582 -1.3708 -0.2515 -0.0426
 7204SOL    HW233072   2.045   0.484  15.465  0.1994 -1.9077  5.4644
 7205SOL     OW33073   4.068   0.078  16.650 -0.5890 -0.1512  0.1381
 7205SOL    HW133074   4.022   0.082  16.734  0.5508  1.7992  0.6604
 7205SOL    HW233075   4.109   4.715  16.651 -1.2142 -0.4634 -0.4836
 7206SOL     OW33076   1.588   1.014   8.705  0.8065  0.1133  0.3392
 7206SOL    HW133077   1.649   1.064   8.760  0.8747  1.1969 -0.7437
 7206SOL    HW233078   1.655   0.960   8.663  2.5557  0.6830  2.3874
 7207SOL     OW33079   1.911   0.417   2.692 -0.3117  0.4955  0.1421
 7207SOL    HW133080   1.975   0.372   2.638 -0.7341  0.7763 -0.5970
 7207SOL    HW233081   1.836   0.412   2.632  2.5150 -2.1803 -3.1612
 7208SOL     OW33082   0.150   2.278  16.624 -0.0533  0.4122 -0.1980
 7208SOL    HW133083   0.212   2.350  16.640 -0.0960  1.0070 -2.7166
 7208SOL    HW233084   0.087   2.330  16.574 -0.1469  0.9578  0.4893
 7209SOL     OW33085   1.116   3.807   3.124 -0.1921  0.0364 -0.2806
 7209SOL    HW133086   1.141   3.889   3.081 -0.2459 -0.8711 -2.0344
 7209SOL    HW233087   1.200   3.787   3.165  0.3449  1.4143 -0.6823
 7210SOL     OW33088   4.012   3.423   8.259  0.1002  0.2261  1.0187
 7210SOL    HW133089   3.984   3.512   8.278 -0.1276  0.9209 -2.6616
 7210SOL    HW233090   4.064   3.395   8.335  3.6839  2.7397 -0.5690
 7211SOL     OW33091   2.502   4.110   8.546 -0.1519 -0.1895 -0.2271
 7211SOL    HW133092   2.519   4.201   8.571  0.7539 -0.7118  1.0430
 7211SOL    HW233093   2.500   4.125   8.451 -2.4240 -0.8392 -0.2895
 7212SOL     OW33094   1.089   2.702   6.768  0.1381 -0.5026  0.3559
 7212SOL    HW133095   1.143   2.635   6.809  1.6176 -0.4763 -1.5203
 7212SOL    HW233096   0.998   2.687   6.792 -1.4957  1.7887 -4.4074
 7213SOL     OW33097   0.001   1.369   4.685  0.0761 -0.1471  0.6244
 7213SOL    HW133098   4.714   1.312   4.609 -1.8226 -1.9724  2.2703
 7213SOL    HW233099   4.635   1.370   4.717 -0.9595  1.0581 -2.3129
 7214SOL     OW33100   1.486   4.488  15.130  0.4425 -0.1077 -0.5346
 7214SOL    HW133101   1.535   4.477  15.049  1.3069 -0.8055  0.0821
 7214SOL    HW233102   1.546   4.545  15.177  2.2240 -3.2856  1.0471
 7215SOL     OW33103   4.603   0.633  13.578  0.4891  0.5430 -0.5940
 7215SOL    HW133104   4.689   0.626  13.619 -0.0983 -2.0383  0.1723
 7215SOL    HW233105   4.620   0.560  13.518  0.9311 -0.8639  1.2715
 7216SOL     OW33106   2.126   1.968  15.172 -0.3342  0.0044 -0.1433
 7216SOL    HW133107   2.183   1.974  15.095 -0.7422  2.7963 -0.2071
 7216SOL    HW233108   2.044   1.955  15.125 -1.0545 -1.1289  1.4190
 7217SOL     OW33109   3.929   3.092   6.053  0.0951 -0.0172 -0.4836
 7217SOL    HW133110   3.872   3.147   5.999  1.7424  1.3042 -0.8716
 7217SOL    HW233111   3.900   3.008   6.018 -0.2810  0.6931 -1.8724
 7218SOL     OW33112   1.847   0.943   9.474  0.1738  0.2490 -0.3279
 7218SOL    HW133113   1.938   0.972   9.466  0.8240 -1.8005 -0.4374
 7218SOL    HW233114   1.846   0.893   9.556  0.8336 -0.3406 -0.6777
 7219SOL     OW33115   3.377   2.562   4.862  0.0657 -0.1688 -0.1796
 7219SOL    HW133116   3.302   2.504   4.849  0.0511 -0.1077 -0.3664
 7219SOL    HW233117   3.338   2.616   4.930 -1.5555 -0.1299 -1.1266
 7220SOL     OW33118   4.575   3.933   3.999  0.2581 -0.2067 -0.1896
 7220SOL    HW133119   4.571   4.023   4.030 -0.0262 -0.3518  0.1926
 7220SOL    HW233120   4.580   3.877   4.077 -0.0099  1.2267  0.8398
 7221SOL     OW33121   4.615   0.994   3.294 -0.4668 -0.3400  0.0893
 7221SOL    HW133122   4.615   1.059   3.223 -0.4424 -0.5940 -0.1413
 7221SOL    HW233123   4.572   1.036   3.369 -1.1431 -0.8472 -0.0124
 7222SOL     OW33124   4.259   3.187   2.223 -0.5076 -0.0738 -0.4137
 7222SOL    HW133125   4.180   3.236   2.202 -0.1049  1.2098  1.0531
 7222SOL    HW233126   4.325   3.221   2.163 -1.5837  0.6262 -1.1874
 7223SOL     OW33127   1.763   2.819   1.860  0.6736 -0.7635  0.4677
 7223SOL    HW133128   1.693   2.772   1.813 -0.3578  0.5672  0.6683
 7223SOL    HW233129   1.840   2.763   1.850  1.2621  0.1602 -0.1052
 7224SOL     OW33130   3.476   2.952   1.008  0.4850  0.5169  0.5060
 7224SOL    HW133131   3.534   2.907   1.069  0.1646  0.8772  1.0692
 7224SOL    HW233132   3.404   2.982   1.064 -1.8250 -2.8112 -0.6921
 7225SOL     OW33133   0.673   1.257   7.472  0.2469  0.0501 -0.5762
 7225SOL    HW133134   0.717   1.196   7.531  0.9516  1.1763  0.0565
 7225SOL    HW233135   0.655   1.335   7.524  1.1146 -0.3266  0.2792
 7226SOL     OW33136   0.453   0.691   4.162  0.5352 -0.1699 -0.2826
 7226SOL    HW133137   0.537   0.726   4.131  1.7152  0.7285  4.0248
 7226SOL    HW233138   0.395   0.725   4.094 -0.2584  3.6529  2.2994
 7227SOL     OW33139   0.446   1.832  15.321 -0.1867 -0.8110 -0.5247
 7227SOL    HW133140   0.374   1.866  15.267  0.1482 -1.1415 -1.1754
 7227SOL    HW233141   0.435   1.879  15.404  0.6263 -1.1475 -0.2347
 7228SOL     OW33142   1.794   2.257   2.346 -0.8618  0.0555 -0.7975
 7228SOL    HW133143   1.727   2.234   2.411 -0.6041 -0.0200 -0.5604
 7228SOL    HW233144   1.842   2.324   2.394 -0.1284 -1.5001  0.6729
 7229SOL     OW33145   2.818   3.293   3.892  0.6767 -0.1592 -0.1036
 7229SOL    HW133146   2.723   3.285   3.877  0.3055  1.2291  1.4731
 7229SOL    HW233147   2.816   3.340   3.975  1.1740 -2.1516  1.0360
 7230SOL     OW33148   2.523   0.926   2.960 -0.6401  0.0657  0.2512
 7230SOL    HW133149   2.548   0.905   2.870  2.5319 -0.9160  1.3610
 7230SOL    HW233150   2.433   0.957   2.955  0.3146  2.4507 -1.7426
 7231SOL     OW33151   3.649   3.798   2.675 -0.1316 -1.0136  0.1687
 7231SOL    HW133152   3.626   3.748   2.753 -1.3337 -1.6420 -0.5871
 7231SOL    HW233153   3.739   3.829   2.683  0.4220 -2.8248  0.9637
 7232SOL     OW33154   0.816   2.740  14.216 -0.6130  0.0032 -0.0019
 7232SOL    HW133155   0.766   2.814  14.249 -0.2166 -0.8855  2.5682
 7232SOL    HW233156   0.899   2.783  14.196 -0.0944 -1.4421 -0.9218
 7233SOL     OW33157   2.242   2.671   8.295  0.0160  0.2568  0.1073
 7233SOL    HW133158   2.232   2.753   8.343  0.6123  0.4003 -0.0193
 7233SOL    HW233159   2.219   2.708   8.210 -0.7637 -0.9035 -0.1898
 7234SOL     OW33160   2.258   1.924   2.641  0.2218  0.2139  0.2239
 7234SOL    HW133161   2.327   1.961   2.586  0.2717 -0.2271 -0.0133
 7234SOL    HW233162   2.291   1.952   2.726  0.5773  0.0457  0.1407
 7235SOL     OW33163   2.632   2.750   2.535 -0.4604 -0.0611  0.4771
 7235SOL    HW133164   2.597   2.792   2.457 -1.0232 -1.3874  0.0209
 7235SOL    HW233165   2.715   2.721   2.496 -0.4548  1.9783 -1.0139
 7236SOL     OW33166   2.464   2.240   4.496 -0.1739  0.1468 -0.0151
 7236SOL    HW133167   2.418   2.193   4.427  1.1870  0.5888 -1.2354
 7236SOL    HW233168   2.557   2.243   4.471 -0.5372  2.0294 -1.0725
 7237SOL     OW33169   3.145   1.110   5.468  0.3836  0.7677  0.1797
 7237SOL    HW133170   3.065   1.058   5.460  1.1994 -0.4365 -0.0446
 7237SOL    HW233171   3.114   1.192   5.507 -1.1563 -0.4201  1.4234
 7238SOL     OW33172   3.659   0.146   8.633 -0.0402 -0.1358  0.0755
 7238SOL    HW133173   3.744   0.110   8.608 -0.7644  0.2958 -2.9299
 7238SOL    HW233174   3.653   0.125   8.727  0.1924 -0.1866  0.0779
 7239SOL     OW33175   3.940   1.116   1.388 -0.1442  0.1136 -0.5982
 7239SOL    HW133176   3.983   1.048   1.440 -0.0403  2.1133  1.9643
 7239SOL    HW233177   3.856   1.136   1.428 -0.4358  0.8032 -1.5618
 7240SOL     OW33178   4.531   1.980  15.771  0.2931  0.1483  0.1429
 7240SOL    HW133179   4.450   2.026  15.793  0.4541 -0.0009  1.0421
 7240SOL    HW233180   4.563   2.040  15.703 -0.2904  2.6299  2.0696
 7241SOL     OW33181   1.479   0.031  14.924  0.4790  0.7682 -0.3049
 7241SOL    HW133182   1.527   0.002  14.846  1.5045 -1.8061  1.2687
 7241SOL    HW233183   1.483   4.668  14.964 -1.9056  0.1014 -1.5588
 7242SOL     OW33184   1.851   1.115   2.041  0.5855 -0.3788  0.1511
 7242SOL    HW133185   1.786   1.176   2.077  0.4753 -1.5308  1.9295
 7242SOL    HW233186   1.893   1.167   1.972  0.4879  0.3053  0.6000
 7243SOL     OW33187   0.678   0.156   6.499  0.1648  0.0717  0.5743
 7243SOL    HW133188   0.671   0.249   6.522 -1.1046 -0.5069  2.5594
 7243SOL    HW233189   0.599   0.124   6.542 -0.1706  0.3309  0.1596
 7244SOL     OW33190   4.489   1.793   0.508 -0.4314  0.2672 -0.1350
 7244SOL    HW133191   4.489   1.876   0.459  0.4549 -0.0855 -0.7259
 7244SOL    HW233192   4.563   1.745   0.472  0.9379  3.2914 -1.3715
 7245SOL     OW33193   1.864   3.907   8.745 -0.0685 -0.0010 -0.3826
 7245SOL    HW133194   1.955   3.879   8.756 -0.6416 -2.9374 -3.1572
 7245SOL    HW233195   1.830   3.872   8.828 -0.3026  1.6384  0.2176
 7246SOL     OW33196   0.755   2.128  12.636 -0.4507  0.0376  0.2562
 7246SOL    HW133197   0.720   2.039  12.635  0.0944 -0.1610 -1.3990
 7246SOL    HW233198   0.692   2.179  12.687 -0.5504  1.7786 -1.6137
 7247SOL     OW33199   1.146   3.445  10.284 -0.4114  1.1997  0.1843
 7247SOL    HW133200   1.071   3.439  10.343  1.3764 -0.8679  2.2567
 7247SOL    HW233201   1.214   3.438  10.351  1.4512 -1.1937 -1.9689
 7248SOL     OW33202   0.732   3.474   4.951 -0.2298  0.0843 -0.4651
 7248SOL    HW133203   0.711   3.382   4.970  0.7452  0.3924  2.0233
 7248SOL    HW233204   0.817   3.477   4.994 -0.3191  1.3591 -0.3790
 7249SOL     OW33205   3.771   2.192   0.754  0.7234 -0.0892 -0.1084
 7249SOL    HW133206   3.786   2.133   0.828  0.2780 -2.1140 -1.6455
 7249SOL    HW233207   3.710   2.141   0.700  0.3715 -1.7400  1.8518
 7250SOL     OW33208   2.737   0.363  10.970  0.0899  0.4289 -0.0815
 7250SOL    HW133209   2.746   0.290  11.031 -0.6249  0.4644  0.0702
 7250SOL    HW233210   2.760   0.423  11.040  1.1165 -0.6557  0.5020
 7251SOL     OW33211   3.360   4.045  16.360  0.2917  0.6276  0.3950
 7251SOL    HW133212   3.447   4.077  16.334 -0.0920  0.9797 -0.4586
 7251SOL    HW233213   3.335   4.126  16.403  1.8591 -0.0496  2.5797
 7252SOL     OW33214   1.706   3.039   0.383  0.1813  0.1911 -0.4656
 7252SOL    HW133215   1.738   3.036   0.293 -0.5079 -2.5827 -0.6283
 7252SOL    HW233216   1.639   3.107   0.376  0.1532  0.3125  0.9990
 7253SOL     OW33217   4.700   1.921   1.927 -0.0853  0.3014 -0.1759
 7253SOL    HW133218   4.653   1.845   1.892 -0.3707 -0.3896  1.6708
 7253SOL    HW233219   0.032   1.946   1.853 -1.0455  2.1887 -0.2560
 7254SOL     OW33220   1.251   3.942  12.570  0.7129 -0.3308 -0.0372
 7254SOL    HW133221   1.277   4.024  12.612 -0.1663  1.0097 -2.1261
 7254SOL    HW233222   1.167   3.933  12.615  0.4916 -0.1899 -0.4251
 7255SOL     OW33223   1.533   3.345   2.794  0.0065  0.3022  0.2931
 7255SOL    HW133224   1.589   3.294   2.852 -0.8761  0.7010  1.4720
 7255SOL    HW233225   1.566   3.430   2.822 -1.2127  1.7274 -2.5637
 7256SOL     OW33226   3.918   3.978   3.252 -0.4564  0.0717  0.7646
 7256SOL    HW133227   4.006   3.954   3.284  0.4646  1.3694 -0.8169
 7256SOL    HW233228   3.874   3.897   3.278 -0.0284 -0.7562 -1.0771
 7257SOL     OW33229   4.572   3.772   1.182  0.3012 -0.0240  0.3343
 7257SOL    HW133230   4.595   3.803   1.270 -1.3925  1.4258  0.2605
 7257SOL    HW233231   4.649   3.795   1.129 -0.0238  0.5010  0.0906
 7258SOL     OW33232   2.863   2.826   7.084 -0.4018  0.4292  0.4455
 7258SOL    HW133233   2.772   2.854   7.079 -0.0355  1.4472 -0.5255
 7258SOL    HW233234   2.846   2.734   7.066 -1.1337  1.5862 -4.7755
 7259SOL     OW33235   2.394   1.523   7.143  0.2066 -0.7188 -0.1004
 7259SOL    HW133236   2.465   1.459   7.155  1.2965  0.8439  1.8919
 7259SOL    HW233237   2.348   1.486   7.068  0.4617 -0.4891 -0.3719
 7260SOL     OW33238   3.838   2.327   2.683  0.5249  0.6087  0.8027
 7260SOL    HW133239   3.856   2.234   2.699  0.4056  0.3508 -0.5327
 7260SOL    HW233240   3.925   2.367   2.678  0.9460 -0.4176 -0.0833
 7261SOL     OW33241   4.208   0.097   1.539 -0.3685 -0.4741  0.2370
 7261SOL    HW133242   4.158   0.084   1.619  1.6564  1.5699  1.8276
 7261SOL    HW233243   4.216   0.192   1.537 -0.6993 -0.4578 -0.2825
 7262SOL     OW33244   0.734   2.246   5.601  0.1209  0.2825 -0.1450
 7262SOL    HW133245   0.701   2.182   5.539  0.8671 -0.1673 -0.0759
 7262SOL    HW233246   0.671   2.317   5.587  0.0539  0.0930 -0.7756
 7263SOL     OW33247   3.196   1.929   5.330 -0.0233  0.0804 -0.6751
 7263SOL    HW133248   3.200   1.973   5.245  0.0816  1.3634 -0.0110
 7263SOL    HW233249   3.149   1.850   5.306  1.6533 -0.6652 -1.4671
 7264SOL     OW33250   1.006   3.245   2.037  0.1680 -0.2195 -0.0998
 7264SOL    HW133251   0.971   3.165   1.996 -2.3944  0.9309 -0.1796
 7264SOL    HW233252   0.951   3.310   1.994 -1.1484  0.1646  2.1957
 7265SOL     OW33253   0.514   1.734   1.892  0.1592 -0.5233  0.3197
 7265SOL    HW133254   0.535   1.664   1.830  0.6265 -0.9344  0.9525
 7265SOL    HW233255   0.433   1.696   1.924  0.5710 -0.6962  1.1434
 7266SOL     OW33256   0.095   2.106  10.628 -0.1498  0.1038 -0.3432
 7266SOL    HW133257   0.147   2.028  10.608 -1.8239 -1.0606 -0.1095
 7266SOL    HW233258   0.020   2.080  10.682  0.4591  0.4389  0.6703
 7267SOL     OW33259   4.493   1.098  11.500  0.9778 -0.5219  0.0691
 7267SOL    HW133260   4.582   1.094  11.464  0.6590 -0.7890 -0.6802
 7267SOL    HW233261   4.465   1.188  11.488  1.6155 -0.4572 -0.9756
 7268SOL     OW33262   1.743   3.217   7.383 -0.0797  0.1650 -0.3250
 7268SOL    HW133263   1.818   3.267   7.350  0.5382  0.1540  1.0628
 7268SOL    HW233264   1.787   3.177   7.458  1.2039 -0.1792 -1.2448
 7269SOL     OW33265   2.117   4.267  10.051 -0.1928  0.1163 -0.2076
 7269SOL    HW133266   2.182   4.236   9.988  1.1007  1.5275  0.4169
 7269SOL    HW233267   2.166   4.285  10.131 -1.1815  0.6567  0.2767
 7270SOL     OW33268   0.988   0.196   0.417  0.5216 -0.2769  0.2739
 7270SOL    HW133269   0.906   0.240   0.439  1.6153  2.6583 -1.5664
 7270SOL    HW233270   0.978   0.125   0.482  2.1846 -2.4276 -1.8519
 7271SOL     OW33271   2.135   4.665   8.594 -0.0509  0.6807 -0.0472
 7271SOL    HW133272   2.201   4.597   8.603 -1.0732 -0.2078  0.7087
 7271SOL    HW233273   2.185   0.020   8.614 -1.3794  0.9713  2.2076
 7272SOL     OW33274   4.314   3.465  14.814 -0.1055 -0.1129  0.2596
 7272SOL    HW133275   4.307   3.416  14.896  0.9983 -1.3179 -0.3630
 7272SOL    HW233276   4.271   3.410  14.749  3.4049 -0.5593 -1.7021
 7273SOL     OW33277   1.324   0.850  12.758  0.6280 -0.0805 -0.2740
 7273SOL    HW133278   1.419   0.852  12.751  0.6128 -0.8749 -0.7907
 7273SOL    HW233279   1.315   0.836  12.852 -0.3970  2.5883  0.0079
 7274SOL     OW33280   3.642   0.881  13.894 -0.5410 -0.6300 -0.6568
 7274SOL    HW133281   3.676   0.957  13.941 -1.3564 -0.1655 -0.8315
 7274SOL    HW233282   3.623   0.920  13.809 -0.2211  0.3494 -0.2811
 7275SOL     OW33283   3.276   0.996   6.790  0.5916 -0.1582 -0.0258
 7275SOL    HW133284   3.335   1.070   6.782  1.4814 -1.1677 -2.7551
 7275SOL    HW233285   3.309   0.965   6.875 -1.0353 -1.3163  0.2155
 7276SOL     OW33286   1.878   2.056   7.586  0.0861 -0.3744 -0.0895
 7276SOL    HW133287   1.939   2.016   7.647 -0.0403  1.2468  1.1141
 7276SOL    HW233288   1.852   1.981   7.533  0.5894 -1.2340  0.8717
 7277SOL     OW33289   0.111   1.724   2.771 -0.0935 -0.1110 -0.4537
 7277SOL    HW133290   0.147   1.812   2.761  0.0213 -0.2155 -0.9992
 7277SOL    HW233291   0.183   1.681   2.724  1.9394  0.4177  2.1766
 7278SOL     OW33292   2.382   1.939  15.402  0.0972  0.4720  0.0063
 7278SOL    HW133293   2.355   1.888  15.479 -1.3411 -0.1060 -0.8800
 7278SOL    HW233294   2.346   1.886  15.330 -0.6232  0.9796 -0.0116
 7279SOL     OW33295   2.371   1.004  15.581  0.0606 -0.4522  0.3165
 7279SOL    HW133296   2.346   0.950  15.506 -0.5482 -1.8273  1.5219
 7279SOL    HW233297   2.342   0.959  15.660  1.4056 -1.8810 -0.0060
 7280SOL     OW33298   0.668   3.332  11.133  0.0701  0.0516  0.2180
 7280SOL    HW133299   0.709   3.316  11.218 -0.7563  1.4469  0.8763
 7280SOL    HW233300   0.641   3.243  11.112  1.6856 -0.6577  1.1542
 7281SOL     OW33301   3.490   2.214   2.810 -0.5438 -0.0212 -0.2463
 7281SOL    HW133302   3.523   2.295   2.848  1.4875 -0.3641 -1.2820
 7281SOL    HW233303   3.567   2.177   2.766  0.1110 -1.2169  1.9238
 7282SOL     OW33304   2.297   2.606   5.088 -0.7513  0.1678  0.4389
 7282SOL    HW133305   2.224   2.605   5.150 -0.6417  0.7407  0.5722
 7282SOL    HW233306   2.346   2.678   5.128 -3.5029  1.3164  1.7464
 7283SOL     OW33307   0.186   0.374  11.649 -0.2453  0.1383 -0.2896
 7283SOL    HW133308   0.233   0.344  11.571 -0.9197  2.4302 -1.5820
 7283SOL    HW233309   0.102   0.329  11.634  0.0635 -0.4641 -0.1826
 7284SOL     OW33310   2.304   4.387   8.247  0.5142  0.2631 -0.6400
 7284SOL    HW133311   2.366   4.369   8.176  2.8433  3.6920  0.5615
 7284SOL    HW233312   2.334   4.475   8.266  0.7418 -0.2544  1.3813
 7285SOL     OW33313   3.777   3.260   4.969 -0.1787  0.4557 -0.5003
 7285SOL    HW133314   3.827   3.272   4.888 -1.5287  0.3833 -1.3623
 7285SOL    HW233315   3.704   3.322   4.959  0.4041  0.8409 -2.3661
 7286SOL     OW33316   3.380   2.637   4.213 -0.3900 -0.3839  0.3888
 7286SOL    HW133317   3.309   2.653   4.150  0.1939 -0.1040 -0.2001
 7286SOL    HW233318   3.347   2.674   4.295 -0.4134 -0.0429  0.2292
 7287SOL     OW33319   4.568   4.492   6.197 -0.0501 -0.5613  0.4220
 7287SOL    HW133320   4.642   4.537   6.238 -0.7179  0.3047  0.6719
 7287SOL    HW233321   4.605   4.449   6.120 -3.6033 -1.6363 -0.6757
 7288SOL     OW33322   2.111   0.186  15.289  0.2354 -0.1213 -0.4546
 7288SOL    HW133323   2.138   0.259  15.233 -1.2054 -0.5965 -1.7638
 7288SOL    HW233324   2.037   0.228  15.333  0.1344 -0.6948 -0.0712
 7289SOL     OW33325   2.719   1.151  12.977 -0.5066  0.2545  0.5241
 7289SOL    HW133326   2.699   1.063  13.009  1.3089 -0.4572 -0.2768
 7289SOL    HW233327   2.791   1.136  12.915  1.1585  0.6320  2.3518
 7290SOL     OW33328   0.854   3.024  14.826 -0.1204 -0.0001  0.6950
 7290SOL    HW133329   0.908   3.053  14.899  1.9051  0.3557 -0.9125
 7290SOL    HW233330   0.766   3.009  14.860 -0.6165 -1.3559 -1.1537
 7291SOL     OW33331   2.009   3.625   7.140  0.0989  0.2202 -0.2265
 7291SOL    HW133332   2.060   3.673   7.076 -0.8004  3.9330  1.8347
 7291SOL    HW233333   2.067   3.550   7.153  1.0991  1.0967  0.4157
 7292SOL     OW33334   3.732   3.234   7.506 -0.3234  0.4780  0.0050
 7292SOL    HW133335   3.656   3.291   7.498 -0.1070  0.7936  0.2185
 7292SOL    HW233336   3.763   3.252   7.594 -0.5645 -1.9157  0.5922
 7293SOL     OW33337   4.090   3.378  11.927 -0.0082 -0.2368 -0.1053
 7293SOL    HW133338   4.010   3.431  11.922 -0.6855 -1.4001 -1.6215
 7293SOL    HW233339   4.126   3.379  11.838 -1.6830 -0.8704 -0.8129
 7294SOL     OW33340   3.314   0.685   6.114  0.2085  0.1735 -0.2291
 7294SOL    HW133341   3.336   0.776   6.093  0.0386  0.8553  2.5984
 7294SOL    HW233342   3.380   0.667   6.182 -1.3141 -0.5006  1.0735
 7295SOL     OW33343   3.897   0.788   3.023 -0.3033 -0.7267  0.1637
 7295SOL    HW133344   3.897   0.702   3.064  0.9260 -0.8319 -0.0601
 7295SOL    HW233345   3.808   0.819   3.038 -0.0173  0.0227  0.3439
 7296SOL     OW33346   2.268   2.314   7.754  0.5001 -0.5523  0.0869
 7296SOL    HW133347   2.221   2.264   7.686  1.0809  0.8855 -1.3739
 7296SOL    HW233348   2.287   2.244   7.816 -0.4275  0.1930  1.2017
 7297SOL     OW33349   0.347   0.857   3.220 -0.2981 -0.4490 -0.1416
 7297SOL    HW133350   0.357   0.791   3.288 -1.0449 -1.2158 -0.7713
 7297SOL    HW233351   0.376   0.804   3.145 -1.7173 -0.5882 -0.5936
 7298SOL     OW33352   3.853   0.967  14.287 -0.3943 -0.0017 -0.5506
 7298SOL    HW133353   3.884   0.877  14.302 -2.0055 -0.1632  1.7986
 7298SOL    HW233354   3.910   1.016  14.346 -1.2461  3.8460 -2.9668
 7299SOL     OW33355   0.842   2.831  17.362  0.1343 -0.2648 -0.5076
 7299SOL    HW133356   0.898   2.801  17.290  0.3808  0.1788 -0.5036
 7299SOL    HW233357   0.842   2.759  17.424 -0.4440 -0.3151 -0.5661
 7300SOL     OW33358   2.474   2.336   4.758  0.1820  0.1746 -0.1216
 7300SOL    HW133359   2.434   2.300   4.679 -1.0697 -0.4263  0.7926
 7300SOL    HW233360   2.550   2.278   4.751  1.3125  1.6968 -0.3990
 7301SOL     OW33361   3.588   1.099   4.954  0.0071  0.4951 -0.1330
 7301SOL    HW133362   3.656   1.040   4.985 -0.8414  1.9525  4.5776
 7301SOL    HW233363   3.623   1.185   4.978 -0.5418  1.3990 -2.5724
 7302SOL     OW33364   1.458   2.329   0.023 -0.3628  0.5803 -0.3876
 7302SOL    HW133365   1.426   2.304  17.633  0.5570  4.2267 -1.8107
 7302SOL    HW233366   1.446   2.424   0.024 -0.8616  0.5007  1.6716
 7303SOL     OW33367   1.913   1.519   2.821 -0.5136  0.0473 -0.8879
 7303SOL    HW133368   1.867   1.565   2.751 -1.2993  1.1675  0.3584
 7303SOL    HW233369   1.867   1.435   2.813 -0.0962 -0.2163 -0.5189
 7304SOL     OW33370   3.546   3.142   9.779  0.1473 -0.2773 -0.4524
 7304SOL    HW133371   3.595   3.222   9.798 -1.3912  0.5988 -0.1564
 7304SOL    HW233372   3.536   3.147   9.684 -0.2496  0.9388 -0.3411
 7305SOL     OW33373   2.707   2.310   3.860 -0.7144 -0.7640  0.0515
 7305SOL    HW133374   2.662   2.226   3.860  0.3928 -1.3600 -0.3732
 7305SOL    HW233375   2.715   2.318   3.765  1.8617  1.8525  0.5020
 7306SOL     OW33376   3.991   1.173  12.490  0.0123 -0.2673  0.0714
 7306SOL    HW133377   4.015   1.250  12.541  0.9406 -0.1959 -0.4620
 7306SOL    HW233378   3.910   1.202  12.447 -0.6191 -0.7801  0.9229
 7307SOL     OW33379   3.326   4.101   0.427  0.3175 -0.2085 -0.0076
 7307SOL    HW133380   3.349   4.092   0.334 -0.6866  2.0721 -0.4772
 7307SOL    HW233381   3.331   4.009   0.452  2.6038  0.0350  0.4110
 7308SOL     OW33382   3.421   2.686   3.266  0.4177 -0.3739  0.0859
 7308SOL    HW133383   3.446   2.777   3.282 -0.9122  0.0029  0.0201
 7308SOL    HW233384   3.500   2.659   3.220  0.3441  0.0901 -0.3038
 7309SOL     OW33385   3.724   3.158   2.847  0.2062 -0.4111  0.7043
 7309SOL    HW133386   3.643   3.117   2.816 -1.9747  3.9230  0.5290
 7309SOL    HW233387   3.709   3.157   2.942 -0.7791  1.6626  0.5812
 7310SOL     OW33388   3.728   3.189   5.843  0.0804  0.5454  0.6554
 7310SOL    HW133389   3.691   3.270   5.878  0.3093  0.9517 -0.0496
 7310SOL    HW233390   3.726   3.199   5.748 -1.9188  0.6196  0.7027
 7311SOL     OW33391   0.128   0.132   8.078 -0.5210  0.1298  0.6594
 7311SOL    HW133392   0.179   0.169   8.007 -2.0266 -0.6092 -0.8093
 7311SOL    HW233393   0.091   0.056   8.032 -2.7081  1.1894  0.6792
 7312SOL     OW33394   3.809   2.366   1.522  0.0643 -0.0989  0.8272
 7312SOL    HW133395   3.899   2.338   1.536  0.4823  0.8841  0.1359
 7312SOL    HW233396   3.811   2.445   1.469 -0.9589 -2.3817 -2.5814
 7313SOL     OW33397   0.455   0.024   0.475  0.1641 -0.5935  0.0955
 7313SOL    HW133398   0.545   0.048   0.457 -0.4159  0.2553 -1.6768
 7313SOL    HW233399   0.464   4.664   0.522 -1.1387 -0.6198  0.3204
 7314SOL     OW33400   1.028   0.068   6.461  0.1364  0.5339  1.1324
 7314SOL    HW133401   0.941   0.057   6.422  0.7088 -0.3496  0.1192
 7314SOL    HW233402   1.049   0.161   6.455  1.5181  0.1355 -0.1217
 7315SOL     OW33403   0.705   3.145   2.040  0.0348  0.1152  0.5547
 7315SOL    HW133404   0.616   3.177   2.030 -0.1401  0.0775  1.9623
 7315SOL    HW233405   0.691   3.053   2.020  0.6048  0.7454 -2.7454
 7316SOL     OW33406   1.907   4.011   5.054  0.3461 -0.6602  0.5199
 7316SOL    HW133407   1.868   4.036   5.138  0.4466 -2.0639  0.9951
 7316SOL    HW233408   1.828   4.023   5.002  0.3574  2.8508  1.3101
 7317SOL     OW33409   4.364   2.713  13.773 -0.3173  0.2107  0.0826
 7317SOL    HW133410   4.343   2.732  13.865 -3.0786  1.3221 -0.7690
 7317SOL    HW233411   4.304   2.774  13.731 -1.9696 -0.0875  1.9668
 7318SOL     OW33412   4.037   1.805   3.226 -0.2176  0.9000  0.9345
 7318SOL    HW133413   3.997   1.804   3.139 -0.3294  0.7635  0.9871
 7318SOL    HW233414   4.129   1.829   3.222  0.4342 -1.7605  0.0134
 7319SOL     OW33415   4.600   3.304   6.969  0.0885 -0.1742  0.1633
 7319SOL    HW133416   4.653   3.299   7.048 -0.6454 -1.2050  0.6008
 7319SOL    HW233417   4.601   3.398   6.955  1.6990 -0.3632 -0.9918
 7320SOL     OW33418   4.473   4.689   3.500  0.5761  0.0155 -0.4105
 7320SOL    HW133419   4.460   4.596   3.485  0.8964 -0.1228  0.1958
 7320SOL    HW233420   4.423   4.709   3.579  0.3841  1.1855 -0.8227
 7321SOL     OW33421   4.549   3.811   3.756 -0.2323  0.1346 -0.4619
 7321SOL    HW133422   4.555   3.724   3.794 -0.9899  0.6848  0.9039
 7321SOL    HW233423   4.557   3.865   3.834 -0.3411 -1.3866  0.5861
 7322SOL     OW33424   0.507   1.913   2.485 -0.3754  0.0165  0.0913
 7322SOL    HW133425   0.510   1.897   2.391 -0.4523  0.0134  0.0896
 7322SOL    HW233426   0.445   1.986   2.482  1.6713  1.6529 -2.2395
 7323SOL     OW33427   0.611   1.243   3.477 -0.1625 -0.6342 -0.2754
 7323SOL    HW133428   0.645   1.174   3.535 -0.1422 -0.2755  0.1377
 7323SOL    HW233429   0.576   1.300   3.545  0.2746  0.8588 -1.2912
 7324SOL     OW33430   3.565   3.700   4.868 -0.4398  0.3935  0.1130
 7324SOL    HW133431   3.523   3.772   4.914  0.1565 -1.3377  3.3555
 7324SOL    HW233432   3.649   3.743   4.849 -1.3717  2.1928  0.0754
 7325SOL     OW33433   1.741   0.058   8.729  0.0493  0.2298 -0.4539
 7325SOL    HW133434   1.795   0.001   8.676 -1.5034  0.9584 -2.8081
 7325SOL    HW233435   1.817   0.104   8.765  0.1802 -0.5815  0.3126
 7326SOL     OW33436   3.100   0.959   8.961 -0.3404 -0.5757 -0.3480
 7326SOL    HW133437   3.111   0.950   9.056 -0.7280 -1.5382 -0.3887
 7326SOL    HW233438   3.016   0.913   8.952 -0.1628 -1.2449  1.4444
 7327SOL     OW33439   2.782   4.019   5.730 -0.3687  0.4086 -0.3305
 7327SOL    HW133440   2.851   3.961   5.763 -0.4945 -0.9300 -2.4238
 7327SOL    HW233441   2.831   4.089   5.687  0.0964  0.6714  0.6248
 7328SOL     OW33442   2.050   2.358  15.110  0.0033  0.7337 -0.1342
 7328SOL    HW133443   2.130   2.312  15.084 -0.1383  0.4459 -0.0641
 7328SOL    HW233444   2.081   2.420  15.177  1.5106 -1.3009  1.0640
 7329SOL     OW33445   4.397   0.751   5.964  0.0217 -0.4349 -0.0662
 7329SOL    HW133446   4.381   0.829   5.911 -1.0041 -0.4636  0.2064
 7329SOL    HW233447   4.315   0.712   5.935 -0.1660 -0.6538  0.7507
 7330SOL     OW33448   0.708   0.112   9.597 -0.1610 -0.0317  0.0389
 7330SOL    HW133449   0.766   0.038   9.615  0.4200  0.0145 -1.6449
 7330SOL    HW233450   0.730   0.173   9.667 -0.3784 -0.5882  0.5969
 7331SOL     OW33451   2.086   0.897  15.138  0.3200  0.3009  0.2059
 7331SOL    HW133452   2.081   0.820  15.194  1.0865  1.3052  1.6766
 7331SOL    HW233453   2.102   0.856  15.053  2.0289 -0.7088  1.0064
 7332SOL     OW33454   2.094   1.346   5.915 -0.2065  0.0869 -0.0916
 7332SOL    HW133455   2.148   1.268   5.915  1.1322  1.0115  1.1737
 7332SOL    HW233456   2.140   1.384   5.841  0.0193 -0.6787 -0.3396
 7333SOL     OW33457   4.120   3.744  11.136 -0.0133 -0.2276 -0.4392
 7333SOL    HW133458   4.142   3.802  11.209 -1.7701  2.6809 -2.2296
 7333SOL    HW233459   4.099   3.661  11.180  1.4932 -0.0645  0.6001
 7334SOL     OW33460   3.996   1.218  10.233  0.1427 -0.4281 -0.2444
 7334SOL    HW133461   4.029   1.306  10.216 -0.4701 -0.6119 -2.2927
 7334SOL    HW233462   3.963   1.193  10.147  0.3974 -0.5481 -0.3072
 7335SOL     OW33463   4.126   0.858  11.093  0.0918 -0.2217  0.2238
 7335SOL    HW133464   4.113   0.806  11.014 -0.4273 -0.5046  0.4992
 7335SOL    HW233465   4.180   0.790  11.134 -1.7507 -2.1296 -0.5155
 7336SOL     OW33466   2.327   2.910   5.838  0.0652 -0.0523  0.1325
 7336SOL    HW133467   2.381   2.834   5.863 -3.1811 -2.5852 -0.5683
 7336SOL    HW233468   2.315   2.967   5.914  1.3940 -1.2640  1.2569
 7337SOL     OW33469   0.767   2.661   4.950  0.2054 -0.1051  0.3240
 7337SOL    HW133470   0.673   2.655   4.930 -0.2717  0.9382  2.2599
 7337SOL    HW233471   0.807   2.687   4.867  0.4905  1.2951  0.9114
 7338SOL     OW33472   0.642   2.634  11.696 -0.4860  0.0162 -0.4171
 7338SOL    HW133473   0.594   2.597  11.622  0.8304 -0.8765 -0.8272
 7338SOL    HW233474   0.731   2.607  11.673 -0.6428 -0.4221 -0.5116
 7339SOL     OW33475   3.691   2.210   5.039  0.0115 -0.3359 -0.3793
 7339SOL    HW133476   3.649   2.282   4.993  0.0072  1.0041  1.6948
 7339SOL    HW233477   3.698   2.243   5.129  1.7406 -0.3551 -0.4946
 7340SOL     OW33478   1.651   3.598   2.294 -0.2919  0.0438 -0.5452
 7340SOL    HW133479   1.660   3.555   2.209 -1.5391  0.4010 -0.8689
 7340SOL    HW233480   1.590   3.535   2.333  0.1369 -0.4347 -0.6672
 7341SOL     OW33481   3.246   2.186  17.025  0.0647  0.1583  0.2939
 7341SOL    HW133482   3.301   2.179  17.103 -0.5579 -0.7319  0.6459
 7341SOL    HW233483   3.289   2.110  16.988 -0.3232  0.4372 -0.7474
 7342SOL     OW33484   0.159   1.490   4.148  0.2467  0.4963  0.5833
 7342SOL    HW133485   0.205   1.488   4.232  1.8589  2.1431 -0.2545
 7342SOL    HW233486   0.197   1.567   4.106  0.5973 -1.0310 -1.9239
 7343SOL     OW33487   1.241   0.851  15.073 -0.3411 -0.0051 -0.1399
 7343SOL    HW133488   1.228   0.757  15.066 -0.7806 -0.1159  2.3114
 7343SOL    HW233489   1.336   0.864  15.072 -0.4487  0.6633 -2.4733
 7344SOL     OW33490   1.415   1.809  10.619 -0.1401 -0.2210 -0.0925
 7344SOL    HW133491   1.335   1.829  10.668  1.0721  2.2394  0.8708
 7344SOL    HW233492   1.458   1.739  10.669 -0.3670 -0.9950 -0.9689
 7345SOL     OW33493   0.787   1.468   2.391  0.0526 -0.3677 -0.2517
 7345SOL    HW133494   0.863   1.432   2.438 -1.2601  1.0453  2.8998
 7345SOL    HW233495   0.722   1.459   2.461 -1.0917  0.6978 -1.1805
 7346SOL     OW33496   2.526   2.388   6.951  0.2597  0.1696  0.3150
 7346SOL    HW133497   2.454   2.399   6.889  1.4518 -0.9917 -1.2784
 7346SOL    HW233498   2.602   2.398   6.893 -0.3836  0.2540 -0.5053
 7347SOL     OW33499   0.507   2.001  10.661 -0.1994 -0.4450 -0.6789
 7347SOL    HW133500   0.500   1.939  10.733  0.0047  1.7906  1.2508
 7347SOL    HW233501   0.441   1.958  10.606  0.5961 -1.8418 -0.5227
 7348SOL     OW33502   2.793   3.784   9.007 -0.1853 -0.0599 -0.2038
 7348SOL    HW133503   2.736   3.777   9.083  1.6172  1.5861  1.2743
 7348SOL    HW233504   2.779   3.706   8.953  0.7331 -0.1919 -0.2442
 7349SOL     OW33505   2.060   1.386  10.736 -0.4754  0.2575 -0.0479
 7349SOL    HW133506   1.979   1.431  10.762 -0.0158  0.0051  1.8071
 7349SOL    HW233507   2.108   1.368  10.816  0.5303 -0.5353 -0.8361
 7350SOL     OW33508   1.003   1.133  15.840 -0.3465  1.0477 -0.0966
 7350SOL    HW133509   1.080   1.089  15.875  0.3808  1.3549 -1.3084
 7350SOL    HW233510   0.990   1.099  15.752 -4.1994  1.8032  0.1752
 7351SOL     OW33511   0.094   3.771   7.643  0.2850 -0.5568  0.5570
 7351SOL    HW133512   0.027   3.835   7.664 -0.2758 -0.9961  0.1320
 7351SOL    HW233513   0.077   3.689   7.689 -1.1842 -1.7611 -2.1523
 7352SOL     OW33514   2.932   1.391  16.134 -0.4613 -0.0525  0.0247
 7352SOL    HW133515   2.981   1.473  16.137 -1.3970  0.4069  2.4177
 7352SOL    HW233516   2.849   1.423  16.099  0.0385  2.6667  1.3992
 7353SOL     OW33517   1.223   1.588   5.401 -0.4692  0.1587 -0.7541
 7353SOL    HW133518   1.246   1.606   5.309 -0.6700  0.3758 -0.7619
 7353SOL    HW233519   1.157   1.655   5.421 -0.9725 -0.6947  0.3876
 7354SOL     OW33520   1.202   2.845   5.227  0.0030 -0.6499 -0.3679
 7354SOL    HW133521   1.231   2.888   5.146  1.3718  0.0343  0.4874
 7354SOL    HW233522   1.159   2.924   5.260  0.2566 -0.2883 -0.8948
 7355SOL     OW33523   2.317   0.237   8.435  0.1322 -0.1393 -0.2356
 7355SOL    HW133524   2.265   0.317   8.433 -1.5347 -1.1747  2.5997
 7355SOL    HW233525   2.329   0.234   8.340  3.0347  2.0416  0.0595
 7356SOL     OW33526   3.842   2.915   8.614  0.4234 -0.3467  0.5132
 7356SOL    HW133527   3.864   3.006   8.593  0.9008 -0.9043 -1.4157
 7356SOL    HW233528   3.785   2.886   8.543  0.0975 -2.3778  1.6047
 7357SOL     OW33529   3.410   1.756   6.269 -1.0148  0.6443  0.0867
 7357SOL    HW133530   3.420   1.799   6.354  1.4298 -0.5349  0.3718
 7357SOL    HW233531   3.487   1.785   6.220  0.5420 -1.1824  1.4539
 7358SOL     OW33532   1.201   3.161   6.023  0.2860 -0.2470 -0.2847
 7358SOL    HW133533   1.145   3.131   6.094 -0.4073  1.1815 -0.2373
 7358SOL    HW233534   1.285   3.131   6.059  0.0822  1.0866  1.3421
 7359SOL     OW33535   2.614   3.440   7.389  0.2028  0.3815  0.1018
 7359SOL    HW133536   2.636   3.369   7.328  0.3651  0.1180  0.4700
 7359SOL    HW233537   2.666   3.422   7.467  3.3109  0.4788 -1.9637
 7360SOL     OW33538   1.375   1.956   6.409 -0.2427  0.2300  0.3212
 7360SOL    HW133539   1.379   1.879   6.352  1.2430  0.2642  0.3780
 7360SOL    HW233540   1.424   1.917   6.482 -0.4300  0.8312  0.7736
 7361SOL     OW33541   1.522   3.775   6.365  0.5662  0.0034  0.2389
 7361SOL    HW133542   1.583   3.803   6.296 -2.3003  1.3083 -1.7528
 7361SOL    HW233543   1.447   3.833   6.352  0.4194 -0.5417 -1.3138
 7362SOL     OW33544   2.896   0.477   9.513 -0.2556  0.2056  0.2525
 7362SOL    HW133545   2.960   0.529   9.464  1.5587 -0.2899  2.1024
 7362SOL    HW233546   2.889   0.544   9.581  0.2897  0.6648 -0.1413
 7363SOL     OW33547   3.864   0.384   7.064 -0.3000  0.1488 -0.2705
 7363SOL    HW133548   3.810   0.348   6.994 -1.9091 -0.5788  1.3285
 7363SOL    HW233549   3.791   0.391   7.126 -0.7611  0.5337 -0.8626
 7364SOL     OW33550   0.677   0.462   3.936  0.0872 -0.9834  0.5910
 7364SOL    HW133551   0.624   0.383   3.938  0.3218 -1.1315  1.0985
 7364SOL    HW233552   0.763   0.421   3.929  0.1092 -0.6408 -1.2052
 7365SOL     OW33553   3.642   1.922  16.203 -0.1849 -0.3462 -0.0763
 7365SOL    HW133554   3.617   1.882  16.120  1.2400 -2.7217  0.6214
 7365SOL    HW233555   3.735   1.913  16.181  0.3466  1.8722  1.2659
 7366SOL     OW33556   2.456   0.001   8.966 -0.9158 -0.2157  0.2730
 7366SOL    HW133557   2.427   4.694   9.052 -1.6634 -1.6825 -0.4956
 7366SOL    HW233558   2.400   0.077   8.948 -1.1980 -0.3351  0.6308
 7367SOL     OW33559   2.496   0.789   7.346 -0.2719  0.0857  0.0223
 7367SOL    HW133560   2.402   0.773   7.346 -0.0878 -1.0123 -1.6093
 7367SOL    HW233561   2.523   0.783   7.438  1.9319  0.1464 -0.6331
 7368SOL     OW33562   4.257   1.032   2.510  0.3786  0.1021 -0.4916
 7368SOL    HW133563   4.178   0.984   2.534  0.9198  0.5006  2.0811
 7368SOL    HW233564   4.202   1.098   2.468 -1.9252 -0.7078  1.2929
 7369SOL     OW33565   4.466   3.153  12.732 -0.0188  0.6505 -0.0337
 7369SOL    HW133566   4.501   3.179  12.818  2.2496  0.6008 -0.9478
 7369SOL    HW233567   4.548   3.160  12.683 -0.4399 -0.4960 -0.9069
 7370SOL     OW33568   3.888   3.396  17.232 -0.8924 -0.0077  0.1829
 7370SOL    HW133569   3.853   3.471  17.184 -2.4044  0.7588  2.4901
 7370SOL    HW233570   3.885   3.322  17.172  0.7128  0.9912 -1.1482
 7371SOL     OW33571   0.091   0.555   4.180 -0.3474 -0.5599  0.3370
 7371SOL    HW133572   0.025   0.504   4.133 -0.5912  0.3796 -0.3306
 7371SOL    HW233573   0.175   0.511   4.167 -1.5027 -2.6383 -0.0906
 7372SOL     OW33574   2.155   3.977   9.356 -0.1972 -0.2437  0.0356
 7372SOL    HW133575   2.116   3.891   9.368 -0.6574 -0.1420 -0.7210
 7372SOL    HW233576   2.194   3.974   9.268  1.5586  1.1855  0.7559
 7373SOL     OW33577   0.500   4.370   2.897 -0.2774 -0.1933 -0.5261
 7373SOL    HW133578   0.595   4.383   2.894  0.0930 -2.0210  2.3694
 7373SOL    HW233579   0.479   4.296   2.840  2.9396 -2.2276  0.9233
 7374SOL     OW33580   0.154   0.703   2.196  0.4049 -0.2642 -0.5059
 7374SOL    HW133581   0.227   0.641   2.192 -0.1786 -0.8552 -2.2753
 7374SOL    HW233582   0.201   0.785   2.208  0.9860 -0.6685 -0.0665
 7375SOL     OW33583   2.092   3.423  10.455  0.0348  0.3181  0.2473
 7375SOL    HW133584   2.150   3.497  10.437 -0.7068  0.7701 -0.2708
 7375SOL    HW233585   2.041   3.420  10.374 -0.5872  2.1459  0.5875
 7376SOL     OW33586   0.678   4.629   3.331 -0.2236 -0.0196  0.3892
 7376SOL    HW133587   0.647   4.716   3.356 -0.5619 -0.3757  1.2178
 7376SOL    HW233588   0.660   4.622   3.237  0.1225 -1.5075  0.4357
 7377SOL     OW33589   2.955   3.055  15.247  0.2446 -0.1897 -0.1946
 7377SOL    HW133590   2.881   3.100  15.205 -0.6642 -0.9700  0.5594
 7377SOL    HW233591   2.966   3.106  15.328 -0.6961  2.4318 -1.7114
 7378SOL     OW33592   3.099   1.022  10.294 -0.1046  0.4251 -0.0987
 7378SOL    HW133593   3.090   0.937  10.252 -0.9819 -0.3835  1.7060
 7378SOL    HW233594   3.187   1.017  10.330 -0.2680  2.2282  0.5808
 7379SOL     OW33595   3.885   0.082   7.921  0.0687 -0.0790  0.3870
 7379SOL    HW133596   3.894   0.014   7.988  1.5808 -1.2767 -1.0380
 7379SOL    HW233597   3.883   0.159   7.979  0.5754  0.6141 -0.5335
 7380SOL     OW33598   2.223   0.776   3.976  0.1671  0.2060  0.6230
 7380SOL    HW133599   2.288   0.771   3.906 -1.3895 -0.2976 -0.8119
 7380SOL    HW233600   2.209   0.683   3.993  2.6972 -0.0789  1.0905
 7381SOL     OW33601   2.815   4.154   5.343 -0.5084  0.5741  0.5765
 7381SOL    HW133602   2.826   4.190   5.255  2.7661 -2.0373 -0.0929
 7381SOL    HW233603   2.720   4.160   5.355 -0.4016  0.7312  1.3503
 7382SOL     OW33604   4.101   0.975   3.364  0.1660 -0.1181 -0.1139
 7382SOL    HW133605   4.099   0.947   3.272  0.2401 -1.2683  0.2366
 7382SOL    HW233606   4.071   0.894   3.405  0.6331 -0.0729  0.3114
 7383SOL     OW33607   0.130   1.340   7.656  0.0765  0.2954  0.0782
 7383SOL    HW133608   0.051   1.355   7.604  0.4551 -0.7539 -0.8042
 7383SOL    HW233609   0.173   1.274   7.601  0.0428  2.9484 -3.1667
 7384SOL     OW33610   0.486   0.808   6.919 -0.3334 -0.7279 -0.1556
 7384SOL    HW133611   0.441   0.747   6.976 -1.9349 -0.3868 -1.0408
 7384SOL    HW233612   0.438   0.791   6.838 -0.1033 -1.1119 -0.2127
 7385SOL     OW33613   1.517   1.548   4.405  0.5332 -0.0198 -0.0088
 7385SOL    HW133614   1.486   1.633   4.373 -1.1259 -1.3761 -2.0586
 7385SOL    HW233615   1.567   1.533   4.325 -0.9004 -1.5335 -0.6143
 7386SOL     OW33616   0.581   0.314  13.429  0.0814 -0.2062  0.2512
 7386SOL    HW133617   0.549   0.392  13.382  0.9516  0.7847  1.2948
 7386SOL    HW233618   0.672   0.317  13.399 -0.4580  0.1949 -1.3862
 7387SOL     OW33619   1.541   3.972   2.717  0.1104 -0.0197  0.0263
 7387SOL    HW133620   1.608   3.935   2.659 -0.3561 -0.5858 -0.1583
 7387SOL    HW233621   1.595   4.027   2.773  0.3589 -1.1545  0.9121
 7388SOL     OW33622   2.496   1.707   2.451 -0.8268  0.9345 -0.5566
 7388SOL    HW133623   2.434   1.641   2.485 -0.0270 -0.4379 -1.7769
 7388SOL    HW233624   2.560   1.717   2.521 -0.8318 -0.3628 -0.3698
 7389SOL     OW33625   0.590   4.124  12.844 -0.2816  0.1351 -0.2412
 7389SOL    HW133626   0.624   4.208  12.874  0.5308  0.6540 -2.6031
 7389SOL    HW233627   0.664   4.064  12.837  0.5422  1.0065  0.9811
 7390SOL     OW33628   1.663   2.551  13.139 -0.4280 -0.1120 -0.2678
 7390SOL    HW133629   1.615   2.494  13.199 -0.6718  1.3791  0.9501
 7390SOL    HW233630   1.753   2.528  13.165 -1.5444 -2.0758  1.8281
 7391SOL     OW33631   3.857   1.630   9.378  0.1449 -0.4835 -0.3897
 7391SOL    HW133632   3.857   1.635   9.283 -1.1750 -1.5668 -0.4388
 7391SOL    HW233633   3.781   1.574   9.391 -0.6400  1.0187  1.5532
 7392SOL     OW33634   3.075   3.551   2.968  0.4542  0.4961  0.3415
 7392SOL    HW133635   2.987   3.514   2.975  1.3738 -2.1888 -2.4105
 7392SOL    HW233636   3.096   3.548   3.062 -2.8275  0.2263  1.0719
 7393SOL     OW33637   3.237   1.243  12.318 -0.0154  0.9836 -0.3248
 7393SOL    HW133638   3.224   1.276  12.229  0.2035  0.6484 -0.4805
 7393SOL    HW233639   3.283   1.162  12.295 -1.5702 -0.4335  1.5058
 7394SOL     OW33640   2.737   0.786   4.541  0.5616 -0.1211 -0.3754
 7394SOL    HW133641   2.682   0.802   4.617  1.0574 -2.9161  0.5895
 7394SOL    HW233642   2.745   0.867   4.492 -0.2162 -1.2160 -2.3025
 7395SOL     OW33643   1.909   0.709   1.242  0.0172 -0.2161  0.1141
 7395SOL    HW133644   1.937   0.640   1.302  1.9503 -0.1141 -0.6627
 7395SOL    HW233645   1.815   0.690   1.239  0.1719 -0.8715 -0.3118
 7396SOL     OW33646   4.517   4.118   8.251  0.2664 -0.2547 -0.3570
 7396SOL    HW133647   4.578   4.191   8.257  0.9618 -0.9962  1.8378
 7396SOL    HW233648   4.564   4.050   8.203 -0.1682 -1.2405  0.6069
 7397SOL     OW33649   0.303   4.034  11.854 -0.4046  0.0944  0.2484
 7397SOL    HW133650   0.365   4.049  11.782 -2.9546  0.8899 -1.7850
 7397SOL    HW233651   0.340   3.963  11.905  1.0217  1.9485  1.8029
 7398SOL     OW33652   1.856   4.402   1.709  0.7821 -0.0370 -0.2053
 7398SOL    HW133653   1.789   4.334   1.711 -0.9126  1.7097  2.9469
 7398SOL    HW233654   1.923   4.355   1.659  0.5486 -1.1734  0.5333
 7399SOL     OW33655   1.120   0.991   5.419 -0.3207  0.3346  0.7418
 7399SOL    HW133656   1.064   0.916   5.400 -1.5551  1.1324  1.2863
 7399SOL    HW233657   1.051   1.044   5.459 -1.0069 -0.5102  0.6792
 7400SOL     OW33658   0.514   2.676  14.048 -0.2859  0.1179 -0.4619
 7400SOL    HW133659   0.447   2.717  14.102  0.9128  3.0819 -1.1852
 7400SOL    HW233660   0.585   2.740  14.056 -1.1629  1.1520 -0.9489
 7401SOL     OW33661   3.813   1.106   4.600  1.3783 -0.7939 -0.0321
 7401SOL    HW133662   3.909   1.101   4.594  1.4736  2.2120 -0.8594
 7401SOL    HW233663   3.788   1.013   4.593 -0.7789 -0.2779  0.8956
 7402SOL     OW33664   1.737   3.378   8.232 -0.0558 -0.2572  0.0752
 7402SOL    HW133665   1.705   3.360   8.144 -0.0385 -0.7423  0.1696
 7402SOL    HW233666   1.792   3.455   8.214  0.2647  0.0010  2.1298
 7403SOL     OW33667   1.956   1.339  16.910  0.0001 -0.3821 -0.5553
 7403SOL    HW133668   1.942   1.325  16.817 -0.7861  2.2248 -0.8444
 7403SOL    HW233669   1.961   1.253  16.951  1.9285 -0.5102 -1.0496
 7404SOL     OW33670   4.305   2.401   8.706  0.3232 -0.2136  0.6711
 7404SOL    HW133671   4.268   2.465   8.646 -0.3447 -0.3354  0.9513
 7404SOL    HW233672   4.256   2.325   8.674 -1.0341  0.9007  0.0888
 7405SOL     OW33673   2.110   2.078   6.333  0.1064 -0.6695 -0.0141
 7405SOL    HW133674   2.031   2.039   6.372  0.1305 -0.0364  0.6426
 7405SOL    HW233675   2.125   2.013   6.264  1.0212 -0.2122 -0.2379
 7406SOL     OW33676   1.355   4.278   3.235 -0.1384 -0.0179 -0.6364
 7406SOL    HW133677   1.368   4.183   3.230  1.1392 -0.0181  2.5658
 7406SOL    HW233678   1.318   4.280   3.323  1.8776 -0.1792  0.2217
 7407SOL     OW33679   0.142   0.307  17.636 -0.2429  0.1495 -0.3763
 7407SOL    HW133680   0.089   0.259  17.572  1.1557  0.2004 -1.5620
 7407SOL    HW233681   0.112   0.260   0.018 -0.4284 -0.5914 -0.8847
 7408SOL     OW33682   2.292   1.520   2.485  0.2480 -0.5012  0.0629
 7408SOL    HW133683   2.238   1.443   2.465  1.9704 -1.5417 -0.6060
 7408SOL    HW233684   2.260   1.531   2.575  0.0323 -2.3310  0.2078
 7409SOL     OW33685   4.066   1.521   7.306 -0.7491 -0.3438  0.4120
 7409SOL    HW133686   4.119   1.565   7.239 -1.5771 -1.0596 -0.7101
 7409SOL    HW233687   4.126   1.542   7.378  0.5164  0.0489 -0.7537
 7410SOL     OW33688   0.574   4.065  14.781 -0.0187  0.5025  0.1827
 7410SOL    HW133689   0.602   4.144  14.735 -1.0107  0.8402  0.1629
 7410SOL    HW233690   0.484   4.092  14.798 -0.9064 -2.8221  0.6525
 7411SOL     OW33691   2.791   2.035   8.850 -0.5488  0.2891  0.3220
 7411SOL    HW133692   2.865   1.975   8.853 -0.5789  0.1847 -0.8358
 7411SOL    HW233693   2.805   2.072   8.762  0.8912  0.9729  0.8370
 7412SOL     OW33694   4.677   0.709   2.817  0.1965  0.1900  0.3328
 7412SOL    HW133695   4.665   0.632   2.872  2.3596  0.4691  1.1988
 7412SOL    HW233696   0.003   0.770   2.871 -0.2896  0.0518  0.9323
 7413SOL     OW33697   4.349   4.283   4.945 -0.3047 -0.3813 -0.4063
 7413SOL    HW133698   4.438   4.308   4.919  1.0045 -2.2366  2.2434
 7413SOL    HW233699   4.375   4.204   4.993  2.1268  1.4558  1.3229
 7414SOL     OW33700   2.484   4.429   3.233 -0.6807  0.1048  0.1102
 7414SOL    HW133701   2.574   4.406   3.211 -0.5016 -0.4141  1.4088
 7414SOL    HW233702   2.449   4.343   3.258  0.2355 -0.2110  0.3186
 7415SOL     OW33703   0.444   1.671   2.633  0.4604  0.2897 -0.2823
 7415SOL    HW133704   0.359   1.671   2.588 -0.6714 -0.0683  1.8588
 7415SOL    HW233705   0.480   1.750   2.593  0.4887  2.1382  3.3770
 7416SOL     OW33706   4.255   2.860  11.409  0.2360  0.1054  0.2553
 7416SOL    HW133707   4.254   2.956  11.414 -1.8986  0.0052  2.0027
 7416SOL    HW233708   4.263   2.859  11.314 -1.2623 -1.2072  0.1344
 7417SOL     OW33709   2.969   3.035  16.265  0.1046  0.2076  0.0802
 7417SOL    HW133710   3.040   2.971  16.265 -0.0427  0.0355  1.0539
 7417SOL    HW233711   2.934   3.006  16.350  0.4367 -0.8418 -0.1451
 7418SOL     OW33712   2.923   2.208   0.044  0.5304  0.6631 -0.0796
 7418SOL    HW133713   2.961   2.262  17.671 -0.3562  0.4154 -0.7554
 7418SOL    HW233714   2.907   2.280   0.105  0.3957  2.3857 -2.1407
 7419SOL     OW33715   1.467   3.859   3.738 -0.4554  0.4160  0.0565
 7419SOL    HW133716   1.424   3.908   3.808 -0.4353 -0.3075  0.5781
 7419SOL    HW233717   1.513   3.927   3.689  0.9860 -0.8172 -0.2885
 7420SOL     OW33718   3.845   1.683   8.548  0.1034 -0.0374 -0.5008
 7420SOL    HW133719   3.919   1.693   8.489  0.4146 -0.9839 -0.2739
 7420SOL    HW233720   3.849   1.768   8.592 -1.6225 -0.5607  0.6721
 7421SOL     OW33721   2.031   1.080   6.482 -0.1906  0.4093 -0.1547
 7421SOL    HW133722   2.043   1.169   6.448 -1.1868  1.0819  1.1992
 7421SOL    HW233723   2.086   1.073   6.560  1.7179  0.6781 -1.4957
 7422SOL     OW33724   2.455   4.065   3.643  0.1296 -0.0014  0.6150
 7422SOL    HW133725   2.434   4.012   3.566  1.5825  0.6497 -0.2352
 7422SOL    HW233726   2.370   4.071   3.687 -0.0227  0.6850  0.2345
 7423SOL     OW33727   1.986   2.826   6.756  0.1524  0.1564 -0.5883
 7423SOL    HW133728   2.003   2.902   6.700  3.8101 -1.0039 -1.0175
 7423SOL    HW233729   1.914   2.850   6.815 -1.3977  0.6376 -2.6895
 7424SOL     OW33730   3.309   3.839  12.673 -0.0284 -0.0444 -0.4612
 7424SOL    HW133731   3.319   3.753  12.713 -1.2982 -0.5007 -1.1442
 7424SOL    HW233732   3.289   3.894  12.748 -0.5755  1.0608 -1.4137
 7425SOL     OW33733   3.564   4.649   2.637  0.6031  0.0107 -0.3974
 7425SOL    HW133734   3.517   4.610   2.564  1.4018 -2.8063  0.6052
 7425SOL    HW233735   3.580   4.570   2.689 -0.0134  0.1285 -0.0245
 7426SOL     OW33736   2.184   0.700  12.982 -0.6242  0.1943  0.0548
 7426SOL    HW133737   2.148   0.649  12.909 -0.1998 -0.8719  0.5913
 7426SOL    HW233738   2.275   0.708  12.954 -0.3308 -2.9643  0.1026
 7427SOL     OW33739   2.586   3.220   6.940  0.1655  0.0152 -0.5915
 7427SOL    HW133740   2.661   3.266   6.979  0.5307 -0.8706 -0.2410
 7427SOL    HW233741   2.602   3.250   6.851  1.1264  1.0480 -0.0835
 7428SOL     OW33742   4.705   2.098   2.567  0.1326 -0.4036  0.7637
 7428SOL    HW133743   4.611   2.094   2.585  0.0668 -0.8798  0.2936
 7428SOL    HW233744   4.721   2.036   2.496 -0.1402 -1.0128  1.2248
 7429SOL     OW33745   2.576   2.980   6.180  0.0672  0.4380 -0.2857
 7429SOL    HW133746   2.494   2.999   6.135 -0.5591 -1.0139  0.2394
 7429SOL    HW233747   2.568   2.885   6.193 -1.4581  0.6053 -0.0337
 7430SOL     OW33748   1.646   1.471   9.314  0.6411  0.4794 -0.0050
 7430SOL    HW133749   1.649   1.447   9.407 -0.7820  1.7203  0.3485
 7430SOL    HW233750   1.590   1.548   9.323 -2.5292 -1.9133  0.8450
 7431SOL     OW33751   0.184   3.687   2.724  0.9011  0.6084 -0.0143
 7431SOL    HW133752   0.097   3.705   2.760  1.1073  2.7870 -0.5965
 7431SOL    HW233753   0.177   3.711   2.632 -0.8636 -2.9025 -0.7765
 7432SOL     OW33754   2.272   2.787   3.520 -0.1017 -0.1058  0.0793
 7432SOL    HW133755   2.341   2.813   3.581  0.4432  1.2522 -1.1376
 7432SOL    HW233756   2.308   2.828   3.442 -0.8158 -0.3036 -0.3472
 7433SOL     OW33757   0.252   3.626   3.879  0.6211 -0.2288  0.2560
 7433SOL    HW133758   0.300   3.708   3.888 -2.2067  1.2527  2.1050
 7433SOL    HW233759   0.186   3.651   3.815 -0.5838 -1.0190  1.1714
 7434SOL     OW33760   3.632   1.748  15.954 -0.6826  0.4368  0.7060
 7434SOL    HW133761   3.543   1.715  15.939 -0.0449 -1.4910  1.2407
 7434SOL    HW233762   3.658   1.668  15.999 -2.7290  0.4015  1.8483
 7435SOL     OW33763   3.563   2.891  15.671 -0.2680  0.1092 -0.0149
 7435SOL    HW133764   3.521   2.927  15.749 -0.1240 -2.7682  1.4033
 7435SOL    HW233765   3.555   2.973  15.622 -0.2576  0.1630  0.0732
 7436SOL     OW33766   0.128   1.347   1.954  0.1732 -0.2012 -0.0625
 7436SOL    HW133767   0.035   1.347   1.977  0.4133  0.4319  0.8888
 7436SOL    HW233768   0.150   1.253   1.955 -1.2910 -0.5656 -2.1010
 7437SOL     OW33769   4.505   2.027   3.459 -0.2763  0.1150 -0.1068
 7437SOL    HW133770   4.590   2.061   3.487  0.4161 -1.8213  0.1942
 7437SOL    HW233771   4.451   2.097   3.495  0.6648  0.7257  0.1103
 7438SOL     OW33772   1.697   1.694   3.454 -0.1297 -0.2381 -0.3892
 7438SOL    HW133773   1.786   1.680   3.422  0.2064 -0.7108  0.7705
 7438SOL    HW233774   1.703   1.707   3.548  0.2060  1.3475 -0.6357
 7439SOL     OW33775   3.587   2.799   6.312  0.4316  0.3146  0.1800
 7439SOL    HW133776   3.646   2.734   6.350  1.6541  1.3555  0.0594
 7439SOL    HW233777   3.540   2.751   6.244  1.1004  0.8837 -0.6822
 7440SOL     OW33778   0.739   2.160   3.994  0.5165 -0.6522  0.7010
 7440SOL    HW133779   0.735   2.081   3.939 -0.0165 -0.6940  0.7982
 7440SOL    HW233780   0.762   2.115   4.075  0.4929 -0.7378  0.6610
 7441SOL     OW33781   1.705   2.409  12.897  0.3747 -0.0041 -0.0350
 7441SOL    HW133782   1.679   2.471  12.966 -0.3064  0.0298 -0.3129
 7441SOL    HW233783   1.771   2.455  12.846  1.2390 -1.0877  0.1234
 7442SOL     OW33784   3.192   4.194   9.380  0.0826 -0.0776  0.2421
 7442SOL    HW133785   3.164   4.173   9.469  1.0062 -1.8785  0.1006
 7442SOL    HW233786   3.119   4.249   9.351 -1.5955 -2.1249  0.5672
 7443SOL     OW33787   0.817   1.403   0.931 -0.1027 -0.2010  0.7209
 7443SOL    HW133788   0.877   1.451   0.874 -2.0666 -1.1394 -2.1284
 7443SOL    HW233789   0.878   1.341   0.971 -0.9474 -2.4079 -1.3658
 7444SOL     OW33790   2.264   3.213   2.637 -0.2231 -0.0195 -0.2268
 7444SOL    HW133791   2.214   3.293   2.650  1.4800  0.9734  0.1533
 7444SOL    HW233792   2.192   3.177   2.585  0.0167  1.1468 -1.3811
 7445SOL     OW33793   3.817   3.577  10.426 -0.2772 -1.0254 -0.3172
 7445SOL    HW133794   3.838   3.492  10.464  0.2919 -1.1155 -0.8343
 7445SOL    HW233795   3.899   3.624  10.435  0.2068 -2.1038  0.8427
 7446SOL     OW33796   1.029   2.319  14.922 -0.1421 -0.3325  0.2643
 7446SOL    HW133797   1.102   2.286  14.974  1.7665  0.7499 -1.7210
 7446SOL    HW233798   1.039   2.413  14.935  3.3487 -1.0219  2.6128
 7447SOL     OW33799   1.722   4.109   2.864 -0.3493  0.4517 -0.5266
 7447SOL    HW133800   1.725   4.187   2.919 -1.2638 -0.1827  0.4054
 7447SOL    HW233801   1.807   4.072   2.889 -0.7559  0.0766  0.2842
 7448SOL     OW33802   2.195   0.541   5.468 -0.2210 -0.1226  0.2040
 7448SOL    HW133803   2.205   0.482   5.543 -2.0589 -0.2429  0.3477
 7448SOL    HW233804   2.112   0.579   5.498 -0.5450  0.6196 -1.6423
 7449SOL     OW33805   0.763   0.225   5.292  0.2173  0.3743 -0.2831
 7449SOL    HW133806   0.764   0.141   5.246  0.3022  1.2907 -1.9659
 7449SOL    HW233807   0.727   0.203   5.378 -0.9207 -2.1066 -1.4208
 7450SOL     OW33808   0.168   2.747  13.277  0.6480  0.8388  0.3920
 7450SOL    HW133809   0.225   2.676  13.307 -1.5966 -1.0319  0.3070
 7450SOL    HW233810   0.174   2.724  13.185 -0.4969  1.4784  0.1618
 7451SOL     OW33811   4.620   1.032   7.945 -0.0752 -0.3375 -0.2801
 7451SOL    HW133812   4.658   0.958   7.993 -0.2916  0.1131  0.5847
 7451SOL    HW233813   4.683   1.105   7.945  1.5666 -1.7469 -0.0878
 7452SOL     OW33814   0.302   4.503   8.776 -0.2963 -0.2084 -0.1222
 7452SOL    HW133815   0.262   4.456   8.702  0.0384 -1.2249  0.3455
 7452SOL    HW233816   0.237   4.563   8.812  2.3181  2.7105 -0.3723
 7453SOL     OW33817   4.342   3.060   7.723  0.3222  0.3586 -0.3442
 7453SOL    HW133818   4.391   3.111   7.788  1.3447  0.7093 -1.4036
 7453SOL    HW233819   4.304   3.129   7.668  0.4396  1.1037  0.5036
 7454SOL     OW33820   1.764   2.273   0.882  0.1892 -0.0839  0.0021
 7454SOL    HW133821   1.684   2.231   0.912  0.1443  0.6104  0.8778
 7454SOL    HW233822   1.761   2.361   0.922 -0.6660  0.0284 -0.3306
 7455SOL     OW33823   1.905   2.863   7.557 -0.4241  0.2260 -0.6366
 7455SOL    HW133824   1.996   2.883   7.536 -0.5062 -1.0885 -2.2252
 7455SOL    HW233825   1.899   2.768   7.546  1.3972 -0.1191  1.4768
 7456SOL     OW33826   3.649   3.644   8.635  0.4113 -0.4234 -0.1458
 7456SOL    HW133827   3.740   3.674   8.628 -0.2091  1.2662 -1.1166
 7456SOL    HW233828   3.613   3.699   8.704 -0.0553 -0.3407 -0.4527
 7457SOL     OW33829   1.251   0.552   2.891 -0.2033  0.0559  0.2030
 7457SOL    HW133830   1.313   0.573   2.821 -2.0436 -0.1492 -1.4867
 7457SOL    HW233831   1.280   0.628   2.941  0.7149  1.0825 -1.9240
 7458SOL     OW33832   4.716   0.275   2.092  0.0227  0.0138 -0.6132
 7458SOL    HW133833   0.043   0.339   2.041  0.2790  0.7454  0.5589
 7458SOL    HW233834   4.698   0.319   2.175 -3.1067  0.0003 -1.2962
 7459SOL     OW33835   0.350   2.959   5.220  0.4459  0.7773  0.2161
 7459SOL    HW133836   0.433   2.941   5.265  1.2453  1.7289 -0.8805
 7459SOL    HW233837   0.282   2.936   5.284 -0.1143  1.3888 -0.1620
 7460SOL     OW33838   0.178   3.956   3.225  0.1016 -0.4739 -0.2305
 7460SOL    HW133839   0.108   4.018   3.204 -0.3203  0.0828  2.9281
 7460SOL    HW233840   0.247   4.016   3.197 -1.2131 -0.9410 -4.5831
 7461SOL     OW33841   2.857   1.994   0.779 -0.2099 -0.0397 -0.3803
 7461SOL    HW133842   2.848   2.080   0.738 -1.5225  0.6378  1.3215
 7461SOL    HW233843   2.818   1.934   0.715  0.1025 -1.1497  0.4590
 7462SOL     OW33844   3.033   3.460   1.477 -0.2000 -0.1837  0.0293
 7462SOL    HW133845   3.120   3.449   1.516 -0.7518 -1.4625  0.9121
 7462SOL    HW233846   3.029   3.374   1.436 -0.8290 -0.0809 -0.1211
 7463SOL     OW33847   4.196   0.866  11.546 -0.4987  0.3988  0.0084
 7463SOL    HW133848   4.125   0.802  11.548  0.4173 -0.5853  1.7513
 7463SOL    HW233849   4.207   0.862  11.641  2.0151  0.0679 -0.3032
 7464SOL     OW33850   0.831   4.681   4.535  0.0520 -0.1652  0.0471
 7464SOL    HW133851   0.862   4.635   4.613 -1.1890 -1.8329 -0.4202
 7464SOL    HW233852   0.789   4.612   4.483 -0.1067  1.1471 -1.5394
 7465SOL     OW33853   0.310   1.198   3.880 -0.1601 -0.0818  0.3985
 7465SOL    HW133854   0.368   1.126   3.903  0.8778  0.4860 -0.3886
 7465SOL    HW233855   0.366   1.268   3.914  1.2027 -1.7466  1.5339
 7466SOL     OW33856   3.548   2.459   4.073 -0.0817  0.0045  0.1588
 7466SOL    HW133857   3.531   2.484   3.982 -2.6567  0.8910  0.8779
 7466SOL    HW233858   3.482   2.507   4.123  2.2568  1.0373  2.2323
 7467SOL     OW33859   0.778   0.247   4.501 -0.2682  0.5400 -0.2004
 7467SOL    HW133860   0.792   0.155   4.525 -1.0195  0.4887  0.0366
 7467SOL    HW233861   0.746   0.234   4.411 -1.8308  0.3354  0.3951
 7468SOL     OW33862   0.955   4.366   1.848  0.1707 -0.3291  0.5884
 7468SOL    HW133863   0.908   4.297   1.895  0.7003 -0.7908  0.4466
 7468SOL    HW233864   0.941   4.331   1.760 -1.8601 -1.3804  1.3223
 7469SOL     OW33865   3.109   1.779  10.460  0.4189  0.1717  0.2712
 7469SOL    HW133866   3.067   1.841  10.400  1.9407 -0.8195 -1.8497
 7469SOL    HW233867   3.045   1.776  10.531 -0.2194  2.0949 -0.2137
 7470SOL     OW33868   2.231   0.009   1.851 -0.4430  0.7717 -0.1111
 7470SOL    HW133869   2.215   0.090   1.901 -0.8166  0.8332 -0.3353
 7470SOL    HW233870   2.186   4.663   1.899 -0.3362  0.9871  0.3087
 7471SOL     OW33871   1.283   3.224   6.961  0.4086 -0.7288  0.2497
 7471SOL    HW133872   1.375   3.224   6.938  0.7011 -0.6082  1.4142
 7471SOL    HW233873   1.292   3.227   7.057  2.1412 -0.3116  0.0725
 7472SOL     OW33874   0.867   4.081   4.477 -0.1882 -0.0514 -0.5787
 7472SOL    HW133875   0.830   4.098   4.390 -1.2791 -0.9107 -0.2909
 7472SOL    HW233876   0.917   4.162   4.481  0.0906 -0.1848 -1.3775
 7473SOL     OW33877   3.591   0.150   6.832 -0.1793 -0.0151  0.2381
 7473SOL    HW133878   3.544   0.082   6.880 -0.3914 -0.8200 -1.1096
 7473SOL    HW233879   3.517   0.204   6.803  1.4373  1.9684 -0.2522
 7474SOL     OW33880   4.293   3.680   6.385 -0.0198  0.3751 -0.4508
 7474SOL    HW133881   4.382   3.670   6.353  0.4898 -1.3412  1.4873
 7474SOL    HW233882   4.249   3.602   6.350 -0.7669 -0.2292  1.8618
 7475SOL     OW33883   4.072   2.846  15.299  0.1814  0.1920 -0.3512
 7475SOL    HW133884   4.089   2.905  15.226 -1.4171  0.2832 -0.6488
 7475SOL    HW233885   4.151   2.862  15.351 -0.3733 -0.9029  0.8254
 7476SOL     OW33886   1.030   0.657   8.436  0.2495  0.0766  0.1735
 7476SOL    HW133887   1.118   0.694   8.425  0.1116  0.6280  0.9603
 7476SOL    HW233888   1.047   0.573   8.479  2.0390  0.3072 -0.0816
 7477SOL     OW33889   3.473   0.286   5.197  0.9116 -0.2454  0.3102
 7477SOL    HW133890   3.428   0.202   5.187 -0.2469  0.4210 -0.1641
 7477SOL    HW233891   3.437   0.328   5.119  1.3294 -0.8243 -0.1941
 7478SOL     OW33892   1.055   0.007  12.851  0.2607  0.0668  0.4078
 7478SOL    HW133893   1.077   0.100  12.852  0.0584  0.0684  2.9135
 7478SOL    HW233894   1.091   4.712  12.764 -1.6876 -0.3013 -0.3085
 7479SOL     OW33895   2.285   0.289  16.905 -0.5855 -0.0250  0.0263
 7479SOL    HW133896   2.275   0.321  16.815 -0.0562  0.1529  0.0289
 7479SOL    HW233897   2.353   0.221  16.901  0.0571  0.3723  3.7655
 7480SOL     OW33898   1.692   1.834   9.796  0.2347 -0.1574  0.1692
 7480SOL    HW133899   1.705   1.787   9.713 -0.7894 -1.4370  0.7377
 7480SOL    HW233900   1.786   1.838   9.814  0.1139 -2.2386  1.2620
 7481SOL     OW33901   2.661   0.128   5.206  0.0428 -0.0449  0.5849
 7481SOL    HW133902   2.747   0.087   5.193  0.5051  0.5322  1.8211
 7481SOL    HW233903   2.604   0.117   5.130  0.3889  0.4638  0.2421
 7482SOL     OW33904   0.647   2.249  17.050 -0.8556 -0.1559 -0.1270
 7482SOL    HW133905   0.691   2.215  16.972 -0.8627 -0.7317  0.1243
 7482SOL    HW233906   0.623   2.333  17.009  1.6837  0.0709 -1.1596
 7483SOL     OW33907   0.931   4.550   9.369 -0.3346  0.2008  0.2694
 7483SOL    HW133908   0.890   4.604   9.301  0.9077  3.5931  2.2189
 7483SOL    HW233909   0.890   4.465   9.355  0.9347 -0.1670 -1.2292
 7484SOL     OW33910   0.917   1.504   7.059 -0.1384  0.0709  0.0811
 7484SOL    HW133911   0.916   1.582   7.114 -1.3524  2.0060 -2.7009
 7484SOL    HW233912   0.827   1.472   7.061  0.0741 -0.5399 -0.1481
 7485SOL     OW33913   2.433   4.415  15.283  0.1653  0.4376 -0.1486
 7485SOL    HW133914   2.386   4.478  15.228  0.1876  1.1468  0.6518
 7485SOL    HW233915   2.412   4.330  15.244 -1.8418  1.3483 -1.0397
 7486SOL     OW33916   2.336   4.660   4.570 -0.4974  0.2173  0.3085
 7486SOL    HW133917   2.266   4.612   4.525 -1.0387  0.6617  0.6778
 7486SOL    HW233918   2.405   4.638   4.507 -1.2799 -1.0744 -0.0972
 7487SOL     OW33919   1.229   3.007   2.602  0.2734  0.4919  0.0840
 7487SOL    HW133920   1.303   3.038   2.654 -0.3003  1.8582  0.0689
 7487SOL    HW233921   1.285   2.963   2.537  0.6970  2.4769 -0.8910
 7488SOL     OW33922   3.756   4.523   7.457  0.1173  0.0774 -0.3625
 7488SOL    HW133923   3.787   4.463   7.389  1.6597  1.6794 -1.0521
 7488SOL    HW233924   3.670   4.488   7.482 -1.0864  2.4321 -1.2530
 7489SOL     OW33925   3.080   1.103   5.039  0.3536  0.2626  0.0641
 7489SOL    HW133926   3.147   1.121   5.105  0.7663  2.4294 -0.9539
 7489SOL    HW233927   3.033   1.028   5.074  0.4741  0.1299 -0.0587
 7490SOL     OW33928   4.670   0.320   2.391 -0.2036 -0.5442 -0.8911
 7490SOL    HW133929   4.575   0.324   2.391 -0.1225  1.4534  1.2247
 7490SOL    HW233930   4.693   0.412   2.405  0.4470 -0.7478 -0.6232
 7491SOL     OW33931   0.451   0.374   7.027  0.6192 -1.0649 -0.0056
 7491SOL    HW133932   0.536   0.332   7.038  0.1847 -1.9714 -0.1277
 7491SOL    HW233933   0.441   0.374   6.932  0.3519  0.2675  0.0185
 7492SOL     OW33934   3.667   2.731   6.737 -0.1914 -0.8495  0.0517
 7492SOL    HW133935   3.624   2.750   6.821  2.6185  2.6722  0.6817
 7492SOL    HW233936   3.595   2.708   6.678  0.5906 -1.3570 -0.6929
 7493SOL     OW33937   3.848   1.520   3.178  0.4394  0.0101 -0.3103
 7493SOL    HW133938   3.935   1.503   3.143 -0.1857 -1.5373 -1.1108
 7493SOL    HW233939   3.877   1.526   3.269 -0.9545  1.1200  0.0494
 7494SOL     OW33940   2.168   3.151   8.798  0.1653  0.2504 -0.4966
 7494SOL    HW133941   2.189   3.206   8.874 -1.5086 -0.3974  0.4293
 7494SOL    HW233942   2.117   3.096   8.857 -0.0105  2.0422  1.0416
 7495SOL     OW33943   2.941   1.669  11.081 -0.0150 -0.0380 -0.4153
 7495SOL    HW133944   2.959   1.756  11.115 -1.4969  0.2422 -0.3619
 7495SOL    HW233945   3.025   1.638  11.116 -1.3071  0.1059  2.7908
 7496SOL     OW33946   2.447   1.805  11.763  0.3835 -0.7673  0.3837
 7496SOL    HW133947   2.402   1.845  11.688  1.8085  0.8589  0.3967
 7496SOL    HW233948   2.458   1.880  11.822 -1.6684 -0.0540 -0.1369
 7497SOL     OW33949   3.626   2.925  16.824 -0.0828 -0.5373 -0.3949
 7497SOL    HW133950   3.682   2.853  16.793 -1.9123 -1.6994 -0.9482
 7497SOL    HW233951   3.615   2.903  16.916  1.4124  2.1764  0.4629
 7498SOL     OW33952   0.638   1.950   1.347  0.1202 -0.2237  0.0173
 7498SOL    HW133953   0.642   1.871   1.402 -2.8465 -1.0090 -0.8838
 7498SOL    HW233954   0.730   1.948   1.319 -0.4975 -0.9243 -1.9488
 7499SOL     OW33955   2.497   4.359  13.531  0.1660 -0.2014 -0.2306
 7499SOL    HW133956   2.501   4.445  13.574 -0.4838  0.3037 -1.1910
 7499SOL    HW233957   2.583   4.362  13.489  0.3151  1.8054  0.2328
 7500SOL     OW33958   4.138   1.098   0.675 -0.3672  0.1838 -0.6022
 7500SOL    HW133959   4.061   1.123   0.727 -0.7137 -1.0614 -0.5132
 7500SOL    HW233960   4.200   1.126   0.742 -0.7916 -2.8837  1.0802
 7501SOL     OW33961   2.970   3.770   9.303 -0.4919  0.2299  0.7617
 7501SOL    HW133962   2.928   3.684   9.297  1.5450 -0.6930 -0.1636
 7501SOL    HW233963   3.030   3.749   9.374  0.6927  2.6283  0.4554
 7502SOL     OW33964   0.952   3.271   8.159 -0.3295  0.1073 -0.3766
 7502SOL    HW133965   1.005   3.332   8.210 -1.6496  1.8132 -1.0324
 7502SOL    HW233966   0.959   3.189   8.208  1.1511 -0.0545 -0.8718
 7503SOL     OW33967   0.648   0.541   7.418 -0.6220 -0.1412  0.6084
 7503SOL    HW133968   0.739   0.512   7.427 -1.0192 -1.1803  1.2635
 7503SOL    HW233969   0.662   0.587   7.335 -0.4487 -0.7504  0.3012
 7504SOL     OW33970   1.734   4.722   3.020 -0.5186  0.3264 -0.4009
 7504SOL    HW133971   1.745   4.690   2.931 -0.4796 -2.6780  0.7084
 7504SOL    HW233972   1.817   0.034   3.052 -0.1885 -0.5263 -0.3065
 7505SOL     OW33973   1.458   0.578   2.717  0.3516  0.2935 -0.9047
 7505SOL    HW133974   1.538   0.543   2.678  0.9291 -1.7803  2.1321
 7505SOL    HW233975   1.467   0.670   2.692 -1.6901  0.7116 -0.1227
 7506SOL     OW33976   1.460   2.443   8.957 -0.0798  0.2132 -0.3903
 7506SOL    HW133977   1.439   2.349   8.958 -0.3659  0.2974  1.3632
 7506SOL    HW233978   1.549   2.434   8.992  0.0161 -0.8448 -0.9163
 7507SOL     OW33979   1.840   0.880   7.075  0.1216  0.4248  0.1381
 7507SOL    HW133980   1.757   0.870   7.028 -0.3252  1.8187  0.6248
 7507SOL    HW233981   1.817   0.893   7.166 -0.2323 -1.9694  0.3940
 7508SOL     OW33982   1.120   1.629   6.132  0.4029 -0.4729 -0.2225
 7508SOL    HW133983   1.211   1.605   6.146  0.1741 -1.3362 -0.1973
 7508SOL    HW233984   1.108   1.720   6.103  1.8568 -0.5243 -0.9614
 7509SOL     OW33985   1.862   2.913   4.211  0.2536 -0.5800  0.0578
 7509SOL    HW133986   1.842   2.993   4.261 -0.2928 -0.3604 -0.5073
 7509SOL    HW233987   1.920   2.865   4.270 -2.0760 -0.3571  2.5790
 7510SOL     OW33988   1.647   2.295   3.962 -0.2693  0.3067 -0.2803
 7510SOL    HW133989   1.671   2.370   3.907 -1.1015  0.5873 -0.2678
 7510SOL    HW233990   1.555   2.290   3.936 -0.6382  1.5003  0.7761
 7511SOL     OW33991   3.963   4.368   0.901  0.0871 -0.7824 -0.5680
 7511SOL    HW133992   3.894   4.393   0.840  0.2806  0.1782 -0.3883
 7511SOL    HW233993   3.991   4.280   0.875 -1.8192 -1.5668  0.0585
 7512SOL     OW33994   1.980   0.361  11.265  0.3296  0.1122 -0.2423
 7512SOL    HW133995   2.041   0.403  11.206  0.6572 -4.1190 -2.9312
 7512SOL    HW233996   2.025   0.283  11.298 -1.0684 -0.9448 -0.8072
 7513SOL     OW33997   3.963   3.651   4.259 -0.2127  0.7319  0.5369
 7513SOL    HW133998   3.889   3.590   4.248 -0.6309  1.1350  1.1294
 7513SOL    HW233999   4.006   3.617   4.338  0.6489  1.1514  0.2425
 7514SOL     OW34000   4.628   1.779  10.789  0.4146 -0.5496 -0.0671
 7514SOL    HW134001   4.607   1.827  10.870  0.2083 -0.6131 -0.0845
 7514SOL    HW234002   4.545   1.750  10.752  0.1633  0.5868 -0.3902
 7515SOL     OW34003   1.420   1.091   2.110 -0.1390 -0.3316 -0.3247
 7515SOL    HW134004   1.450   1.119   2.196  1.2511 -0.8790 -0.6208
 7515SOL    HW234005   1.384   1.173   2.076  1.6970  0.8664  0.6068
 7516SOL     OW34006   2.930   0.870   7.901  0.4822 -0.3850  0.1980
 7516SOL    HW134007   2.891   0.878   7.988 -1.4722  0.0750 -0.7083
 7516SOL    HW234008   2.966   0.782   7.909  1.3463  0.0550  1.1107
 7517SOL     OW34009   3.537   1.857  10.022 -0.9746  0.5144 -0.6018
 7517SOL    HW134010   3.534   1.939   9.973 -0.1792 -0.4667 -2.3037
 7517SOL    HW234011   3.476   1.803   9.972  1.7967 -0.8054 -2.5557
 7518SOL     OW34012   4.007   1.719  16.344  0.4351 -0.1147 -0.3829
 7518SOL    HW134013   3.912   1.707  16.348  0.2923  1.0583 -0.2649
 7518SOL    HW234014   4.017   1.703  16.250  0.8452 -0.3469 -0.3033
 7519SOL     OW34015   3.703   1.812  10.222 -0.1955  0.2308  0.2982
 7519SOL    HW134016   3.747   1.888  10.184 -2.1675  0.0402 -2.3866
 7519SOL    HW234017   3.631   1.796  10.162  0.8098 -1.4720 -0.4626
 7520SOL     OW34018   3.844   4.411   1.133  0.2909  0.4073  0.0696
 7520SOL    HW134019   3.880   4.395   1.046 -1.4430 -3.2129 -0.0046
 7520SOL    HW234020   3.810   4.322   1.146 -1.5001  1.1956  0.8287
 7521SOL     OW34021   3.220   4.217   9.917  0.4633  0.6391  0.1444
 7521SOL    HW134022   3.290   4.175   9.867 -0.0180  0.3805 -0.3038
 7521SOL    HW234023   3.179   4.138   9.950  1.4048  0.5518  1.1020
 7522SOL     OW34024   3.997   3.055   2.835  0.1191 -0.1244  0.1439
 7522SOL    HW134025   4.024   2.986   2.774 -0.9049 -1.4916  1.2207
 7522SOL    HW234026   3.904   3.061   2.813  0.0502  0.7557  0.6910
 7523SOL     OW34027   0.565   3.409   1.705  0.4758  0.4152 -0.2429
 7523SOL    HW134028   0.518   3.488   1.679  1.1699  0.3436 -1.7533
 7523SOL    HW234029   0.493   3.349   1.686 -0.5165  1.1581  1.2451
 7524SOL     OW34030   0.834   1.662  10.169  0.2018  0.0040  0.1223
 7524SOL    HW134031   0.761   1.606  10.142  0.8073 -0.2547 -0.9820
 7524SOL    HW234032   0.875   1.624  10.247  0.5892 -0.4652 -0.3146
 7525SOL     OW34033   3.990   1.069   2.192 -0.2270 -0.2098 -0.1601
 7525SOL    HW134034   4.034   0.988   2.166 -0.0033 -0.1679  0.0873
 7525SOL    HW234035   3.913   1.036   2.238 -0.4222  0.3160 -0.1044
 7526SOL     OW34036   0.956   0.209  11.147  0.3448  0.1096  0.7409
 7526SOL    HW134037   0.991   0.216  11.236  0.0984  0.7223  0.7957
 7526SOL    HW234038   1.018   0.149  11.106 -0.4337  0.9522 -1.6568
 7527SOL     OW34039   3.423   4.000   4.185  0.4412 -0.0250 -0.1629
 7527SOL    HW134040   3.409   3.931   4.250 -2.2832  0.2945 -0.4188
 7527SOL    HW234041   3.379   3.973   4.104 -2.7544  0.9708  1.2416
 7528SOL     OW34042   3.840   2.737   7.182  0.5160 -0.0817  0.2697
 7528SOL    HW134043   3.815   2.645   7.189 -1.2240  0.2608 -1.3223
 7528SOL    HW234044   3.844   2.769   7.272  0.3017  0.1522  0.1984
 7529SOL     OW34045   4.332   0.015   3.043  0.0017 -0.2513  0.2707
 7529SOL    HW134046   4.301   0.045   3.129 -1.1939 -0.5385 -0.0514
 7529SOL    HW234047   4.367   0.094   3.003 -1.1216  0.4144  0.6142
 7530SOL     OW34048   1.882   1.539   0.370  0.4546  0.5958  0.4296
 7530SOL    HW134049   1.813   1.520   0.433 -0.5255 -0.8144 -1.0719
 7530SOL    HW234050   1.949   1.473   0.385  1.2052  0.6244 -2.6981
 7531SOL     OW34051   1.847   0.238   4.211  0.1716  0.6384  0.3041
 7531SOL    HW134052   1.847   0.264   4.118  1.4607 -2.5512 -0.5798
 7531SOL    HW234053   1.836   0.322   4.255  3.4254 -1.2658  4.6550
 7532SOL     OW34054   3.855   4.658   2.848  0.0626  0.2374  0.3151
 7532SOL    HW134055   3.948   4.643   2.866  0.6732  0.1731 -2.7500
 7532SOL    HW234056   3.844   0.027   2.868 -0.9356 -0.3279  2.3516
 7533SOL     OW34057   4.313   4.432  11.726 -0.4173 -0.1427 -0.1073
 7533SOL    HW134058   4.319   4.365  11.658 -2.1788  0.2675 -0.6527
 7533SOL    HW234059   4.233   4.396  11.763 -0.5581 -0.6258 -0.8840
 7534SOL     OW34060   0.177   2.687  14.160  0.4125  0.2639 -0.0841
 7534SOL    HW134061   0.226   2.767  14.180 -0.1061  0.4093  0.6015
 7534SOL    HW234062   0.219   2.656  14.080 -1.1849  0.5597 -1.0426
 7535SOL     OW34063   0.939   1.251  16.101 -0.8391 -0.3432 -0.5558
 7535SOL    HW134064   0.979   1.191  16.038 -0.2161  0.5254 -0.9913
 7535SOL    HW234065   0.850   1.216  16.102 -0.9607  0.0187  0.8059
 7536SOL     OW34066   1.327   1.895  14.276 -0.1526  0.0685  0.0407
 7536SOL    HW134067   1.422   1.897  14.284 -0.1529 -0.2689  0.1475
 7536SOL    HW234068   1.303   1.941  14.357  0.4307 -0.3914  0.4818
 7537SOL     OW34069   0.554   2.483  17.004  0.6704 -0.1467  0.3508
 7537SOL    HW134070   0.638   2.528  17.005  0.8369 -0.4090 -1.1665
 7537SOL    HW234071   0.500   2.559  17.028 -0.4852 -1.1162  0.8282
 7538SOL     OW34072   3.538   1.319  11.004  0.6166  0.0289 -0.4984
 7538SOL    HW134073   3.581   1.345  11.085 -0.1423 -0.3578  0.0396
 7538SOL    HW234074   3.448   1.346  11.024 -0.1515 -1.7366 -1.5282
 7539SOL     OW34075   1.888   3.388   1.717 -0.4632  0.2587 -0.0391
 7539SOL    HW134076   1.944   3.465   1.706 -0.9249  0.6603  0.4612
 7539SOL    HW234077   1.930   3.328   1.654 -0.4264  0.6226 -0.3635
 7540SOL     OW34078   1.727   1.732  14.298  0.1081 -0.9813  0.2283
 7540SOL    HW134079   1.659   1.691  14.245  0.3298 -1.4564  0.3049
 7540SOL    HW234080   1.707   1.824  14.285  1.1496 -0.5472  1.8178
 7541SOL     OW34081   0.205   1.241  16.170  0.3068 -0.2974  0.2263
 7541SOL    HW134082   0.179   1.262  16.081 -1.4822 -0.6730  0.6584
 7541SOL    HW234083   0.127   1.226  16.224  0.2171  0.0319  0.1869
 7542SOL     OW34084   3.597   0.572   4.383 -0.1978 -0.1856 -0.0549
 7542SOL    HW134085   3.664   0.533   4.327  1.5943  1.2175  1.1168
 7542SOL    HW234086   3.562   0.647   4.335  1.4196 -0.6026 -1.8810
 7543SOL     OW34087   0.169   0.176   2.399 -0.3001 -0.2051 -0.3809
 7543SOL    HW134088   0.106   0.247   2.415  1.3073  0.7916  1.5365
 7543SOL    HW234089   0.117   0.101   2.371  0.2376  0.0014 -1.9506
 7544SOL     OW34090   1.128   2.874   7.729 -0.5300 -0.1247  0.3395
 7544SOL    HW134091   1.170   2.960   7.741  0.3107 -0.0611 -3.0392
 7544SOL    HW234092   1.055   2.904   7.674  1.8338  1.1400 -2.1550
 7545SOL     OW34093   3.581   3.612   3.588 -0.1840 -0.4698 -0.3651
 7545SOL    HW134094   3.545   3.683   3.535  1.5529 -0.4844 -1.5883
 7545SOL    HW234095   3.627   3.565   3.517  1.4722 -0.2769  0.5888
 7546SOL     OW34096   1.153   2.590  17.359  0.1716  0.9566 -0.2183
 7546SOL    HW134097   1.106   2.534  17.420 -1.6520  1.7396 -0.8996
 7546SOL    HW234098   1.222   2.621  17.418  0.8626 -1.7076  0.3620
 7547SOL     OW34099   1.336   2.927   3.024  0.2141 -0.2994 -0.7348
 7547SOL    HW134100   1.247   2.892   3.022  0.6171 -1.4123  0.4698
 7547SOL    HW234101   1.338   2.978   2.943 -3.1546  2.4661  0.9521
 7548SOL     OW34102   3.091   1.070   8.431 -0.3723  0.0753 -0.5166
 7548SOL    HW134103   3.027   1.069   8.502  0.6487  0.0772  0.4077
 7548SOL    HW234104   3.088   0.976   8.413  0.3553 -0.0607  0.0375
 7549SOL     OW34105   2.333   0.525  11.391  0.4411 -0.0630  0.8215
 7549SOL    HW134106   2.393   0.485  11.327  0.0459  0.6924 -0.0303
 7549SOL    HW234107   2.384   0.589  11.441  0.5744  0.8439 -0.4709
 7550SOL     OW34108   2.921   4.252  16.779  0.5453  0.1452  0.5322
 7550SOL    HW134109   2.955   4.213  16.860  1.4354  0.4999  0.3281
 7550SOL    HW234110   2.826   4.246  16.771  0.5519  2.3102 -1.3432
 7551SOL     OW34111   1.320   4.453   6.634  0.0427  0.2812 -0.1452
 7551SOL    HW134112   1.232   4.484   6.612  0.1031  0.0260 -0.7487
 7551SOL    HW234113   1.360   4.420   6.553  1.5964 -0.1300  0.7930
 7552SOL     OW34114   2.807   1.037  10.248  0.4278  0.3789  0.0449
 7552SOL    HW134115   2.897   1.005  10.259 -0.0217 -0.5356  1.1379
 7552SOL    HW234116   2.813   1.110  10.310  1.1671  0.7573 -0.4833
 7553SOL     OW34117   1.028   4.196   5.139 -0.2358  0.0810 -0.1950
 7553SOL    HW134118   1.066   4.276   5.174 -1.1115  0.7090 -0.6960
 7553SOL    HW234119   1.070   4.186   5.053 -0.3816  4.7509 -0.8092
 7554SOL     OW34120   3.558   4.528   8.033  0.2886 -0.6891  0.0853
 7554SOL    HW134121   3.607   4.538   7.952 -0.3419 -0.2596 -0.2519
 7554SOL    HW234122   3.564   4.435   8.050 -0.8080 -0.7107  0.3720
 7555SOL     OW34123   4.164   0.112   8.108 -0.0308  0.4395 -0.2320
 7555SOL    HW134124   4.072   0.136   8.124  0.1560  0.1496  1.2920
 7555SOL    HW234125   4.172   0.115   8.013 -2.0571  0.3373 -0.4231
 7556SOL     OW34126   1.993   3.813  14.665 -0.6183 -0.5979 -0.2623
 7556SOL    HW134127   1.983   3.770  14.580 -0.6616 -2.3537  0.6380
 7556SOL    HW234128   1.928   3.774  14.722  0.4192 -1.2144  0.4992
 7557SOL     OW34129   4.454   1.095  15.639 -0.0212  0.2093 -0.0868
 7557SOL    HW134130   4.500   1.109  15.556  1.7186 -0.0522  0.8568
 7557SOL    HW234131   4.364   1.108  15.607 -0.8570 -2.7342  1.0748
 7558SOL     OW34132   1.532   1.566  14.611  0.1930  0.5328  0.3146
 7558SOL    HW134133   1.460   1.576  14.672 -0.4565  0.5305 -0.4492
 7558SOL    HW234134   1.548   1.660  14.603 -3.0581  0.9323 -1.6731
 7559SOL     OW34135   0.818   3.274  11.341 -0.6948 -0.3727 -0.0868
 7559SOL    HW134136   0.842   3.270  11.434 -0.6121  2.8188  0.0262
 7559SOL    HW234137   0.884   3.221  11.297 -0.9203 -2.5591  2.1846
 7560SOL     OW34138   0.335   1.409  16.338 -0.3497 -0.2255  0.6973
 7560SOL    HW134139   0.299   1.332  16.294  1.4174 -1.2242  0.9726
 7560SOL    HW234140   0.306   1.390  16.427 -0.4894 -0.2590  0.6447
 7561SOL     OW34141   3.721   4.250  15.380  0.0673  0.0980 -0.1257
 7561SOL    HW134142   3.796   4.243  15.321 -0.3773  0.8224 -0.7733
 7561SOL    HW234143   3.730   4.323  15.442  1.8792  1.2296 -1.7376
 7562SOL     OW34144   1.768   1.224   3.702  0.1605  0.4416 -0.0684
 7562SOL    HW134145   1.767   1.291   3.634  0.2301  0.7378  0.2267
 7562SOL    HW234146   1.806   1.149   3.655  1.2962 -0.0358  1.6215
 7563SOL     OW34147   3.882   1.964   6.970 -0.3862 -0.5006  0.3221
 7563SOL    HW134148   3.816   1.963   7.039 -2.4468  2.6559 -1.5368
 7563SOL    HW234149   3.963   1.951   7.018 -0.3717 -0.9098  0.1864
 7564SOL     OW34150   1.746   3.623   4.151  0.1150 -0.0327 -0.2813
 7564SOL    HW134151   1.758   3.534   4.119  0.2843 -0.0613 -0.1368
 7564SOL    HW234152   1.706   3.673   4.079 -0.6473 -0.7444 -0.3560
 7565SOL     OW34153   1.828   1.353   4.249 -0.2698  0.2977  0.4070
 7565SOL    HW134154   1.880   1.418   4.201 -0.4074 -0.3555 -0.6283
 7565SOL    HW234155   1.750   1.352   4.192 -0.4198 -0.5077  0.6356
 7566SOL     OW34156   0.264   1.314  13.740  0.2771  0.0521  0.3416
 7566SOL    HW134157   0.213   1.279  13.666  0.0940 -3.7050  2.2562
 7566SOL    HW234158   0.240   1.407  13.740  1.4937  0.3665  0.7168
 7567SOL     OW34159   0.827   3.173  14.584 -0.0366 -0.0699  0.4660
 7567SOL    HW134160   0.824   3.151  14.677  0.1618 -1.9491  0.0314
 7567SOL    HW234161   0.733   3.187  14.571 -0.4594 -3.1910  0.1409
 7568SOL     OW34162   2.631   0.743  17.102  0.1033 -0.4400 -0.2011
 7568SOL    HW134163   2.636   0.735  17.197 -1.7778 -3.6031 -0.3828
 7568SOL    HW234164   2.694   0.813  17.084  0.3417 -0.6915 -0.3581
 7569SOL     OW34165   2.085   1.866   7.724 -0.0464  0.6244 -0.5563
 7569SOL    HW134166   2.146   1.828   7.662  2.0168  1.7211  0.7930
 7569SOL    HW234167   2.061   1.799   7.788  0.1554  1.0845 -0.0005
 7570SOL     OW34168   1.083   2.697  12.348 -0.3925  0.3613  0.5017
 7570SOL    HW134169   1.085   2.605  12.375 -0.1112  0.6209  1.3978
 7570SOL    HW234170   0.993   2.708  12.320  0.3446 -0.3389 -2.1567
 7571SOL     OW34171   3.791   3.470  10.746  0.3227 -0.1223 -0.3823
 7571SOL    HW134172   3.803   3.412  10.821 -0.3808 -1.0162 -0.9583
 7571SOL    HW234173   3.864   3.531  10.753  1.6406 -2.0615  2.3912
 7572SOL     OW34174   4.096   4.586   1.717 -0.6191  0.1798  0.2522
 7572SOL    HW134175   4.163   4.531   1.758  3.3531  3.8201 -1.3040
 7572SOL    HW234176   4.117   4.572   1.625  1.7348 -0.5265  0.8841
 7573SOL     OW34177   3.886   2.639   7.798 -0.4260  0.4350  0.0755
 7573SOL    HW134178   3.912   2.729   7.779  1.3109  0.2351  1.5551
 7573SOL    HW234179   3.792   2.642   7.779 -0.2481  0.1066 -0.8669
 7574SOL     OW34180   0.809   3.273   7.228 -0.2216 -0.1233  0.1735
 7574SOL    HW134181   0.764   3.302   7.308 -1.7951  0.3180 -0.8553
 7574SOL    HW234182   0.900   3.281   7.255  0.1665  1.8829 -1.6628
 7575SOL     OW34183   1.342   4.221   5.315 -0.4400  0.0716 -0.0037
 7575SOL    HW134184   1.421   4.171   5.296  0.1290  0.8858  0.2486
 7575SOL    HW234185   1.363   4.305   5.275 -0.7834  0.4682  0.6506
 7576SOL     OW34186   3.132   3.313   4.496  0.7841  0.6072 -0.2733
 7576SOL    HW134187   3.142   3.220   4.478 -0.8212  0.5367 -0.8008
 7576SOL    HW234188   3.144   3.312   4.591  1.1380  0.6573 -0.3185
 7577SOL     OW34189   1.941   3.856   3.634  0.0471  0.5336  0.1374
 7577SOL    HW134190   1.980   3.885   3.552 -0.8466 -0.3258 -0.5900
 7577SOL    HW234191   2.014   3.864   3.696 -0.0896  1.3994  0.1935
 7578SOL     OW34192   0.119   1.062   1.944 -0.4089  0.4857  0.2193
 7578SOL    HW134193   0.175   1.063   1.866 -1.2490 -0.8294 -0.3938
 7578SOL    HW234194   0.123   0.968   1.959 -0.2105  0.3608 -0.6404
 7579SOL     OW34195   2.812   2.196  10.556  0.2280 -0.0010 -0.1154
 7579SOL    HW134196   2.722   2.213  10.528  0.7596  0.9390 -1.2379
 7579SOL    HW234197   2.801   2.167  10.646  2.0959 -1.4049 -0.3459
 7580SOL     OW34198   0.045   0.740   4.767  0.7208  0.5285  0.3745
 7580SOL    HW134199   0.050   0.645   4.771  0.3606  0.5308  0.8351
 7580SOL    HW234200   4.696   0.747   4.706  0.6361 -1.3990  0.2765
 7581SOL     OW34201   2.720   4.292   3.871  0.5481 -0.1126 -0.0808
 7581SOL    HW134202   2.645   4.252   3.916 -0.0211  1.3826  0.2869
 7581SOL    HW234203   2.667   4.365   3.839  0.4563 -0.4306 -0.6535
 7582SOL     OW34204   2.318   3.022   6.834 -0.3105 -0.1853 -0.0225
 7582SOL    HW134205   2.243   3.079   6.822 -0.4629 -0.9031 -2.4723
 7582SOL    HW234206   2.390   3.084   6.820 -0.1122 -0.3347  0.3094
 7583SOL     OW34207   0.049   4.162  14.748  0.1388 -0.5033  0.4956
 7583SOL    HW134208   0.074   4.146  14.658  0.7451 -1.8112  0.8934
 7583SOL    HW234209   4.679   4.180  14.744  0.5354  1.4675  0.0290
 7584SOL     OW34210   3.095   4.090  16.594 -0.3258  1.0575  0.1546
 7584SOL    HW134211   3.036   4.134  16.655 -0.3058  1.9337 -0.4617
 7584SOL    HW234212   3.044   4.017  16.560 -0.5161  1.1995  0.1398
 7585SOL     OW34213   2.991   3.591   5.019  0.0391 -0.0466 -0.5011
 7585SOL    HW134214   2.998   3.574   5.113 -1.0636  0.5518 -0.3142
 7585SOL    HW234215   3.081   3.571   4.992 -0.6104 -0.9445 -2.0246
 7586SOL     OW34216   1.542   0.246   1.108  0.0948  0.0416  0.0607
 7586SOL    HW134217   1.565   0.155   1.089 -1.2124  0.1134 -1.7846
 7586SOL    HW234218   1.456   0.245   1.068 -0.2113  1.9306  0.6781
 7587SOL     OW34219   3.347   3.671   4.030 -0.4091 -0.7918  0.9095
 7587SOL    HW134220   3.277   3.612   4.001 -0.4281 -0.9319  1.2381
 7587SOL    HW234221   3.328   3.753   3.984  0.6014 -0.9098  0.2790
 7588SOL     OW34222   0.092   4.218  17.258 -0.1294 -0.0453 -0.2120
 7588SOL    HW134223   0.083   4.312  17.241  1.2736  0.0748 -0.2987
 7588SOL    HW234224   0.159   4.188  17.197 -1.3355  0.8821 -2.0137
 7589SOL     OW34225   2.136   4.311  10.811  0.1138 -0.8391  0.5947
 7589SOL    HW134226   2.047   4.277  10.824 -0.6514  0.5788 -0.9570
 7589SOL    HW234227   2.185   4.240  10.852 -0.8316  0.4568  3.9599
 7590SOL     OW34228   0.473   3.668   4.112  0.4087 -0.3409 -0.2360
 7590SOL    HW134229   0.496   3.611   4.038  2.5451  1.8065 -1.2400
 7590SOL    HW234230   0.392   3.625   4.138 -0.3842  0.9849 -0.5359
 7591SOL     OW34231   0.165   2.828  17.031 -0.5185  0.5554  0.1207
 7591SOL    HW134232   0.117   2.903  17.066 -0.9173  0.6219 -0.5705
 7591SOL    HW234233   0.142   2.838  16.939 -2.3097 -2.2189  0.2773
 7592SOL     OW34234   1.147   0.331   7.608 -0.2645 -0.0503 -0.4516
 7592SOL    HW134235   1.207   0.345   7.682 -1.5917  0.2495  0.5657
 7592SOL    HW234236   1.174   0.243   7.584  1.5576 -0.2309  2.1666
 7593SOL     OW34237   3.633   1.550   8.173 -0.0304  1.0361  0.0365
 7593SOL    HW134238   3.589   1.599   8.243 -0.2372  2.0677 -0.8047
 7593SOL    HW234239   3.565   1.493   8.137  0.0652  0.2263  1.1671
 7594SOL     OW34240   1.301   0.978   1.182  0.0096  0.0746 -0.2528
 7594SOL    HW134241   1.228   0.928   1.219 -0.8525  1.5872  0.0515
 7594SOL    HW234242   1.373   0.945   1.237 -0.2659 -0.5803 -0.2904
 7595SOL     OW34243   1.916   2.249   3.034  0.2405 -0.0237 -0.5719
 7595SOL    HW134244   1.822   2.258   3.054  0.3569  1.8586 -0.8944
 7595SOL    HW234245   1.922   2.155   3.016  0.4636 -0.2366  0.6000
 7596SOL     OW34246   0.404   3.156   2.037 -0.3396 -0.3725 -0.1059
 7596SOL    HW134247   0.366   3.105   1.966  0.7804 -0.9402 -0.2947
 7596SOL    HW234248   0.429   3.105   2.113  1.1056  2.2872  1.2221
 7597SOL     OW34249   4.108   2.402  13.981 -0.3125 -0.9963  0.1736
 7597SOL    HW134250   4.035   2.465  13.978 -0.1652 -0.9195 -1.9974
 7597SOL    HW234251   4.185   2.459  13.980  0.4591 -2.0734 -1.4026
 7598SOL     OW34252   2.143   4.083   5.440  0.6838 -0.4598 -0.9105
 7598SOL    HW134253   2.183   4.152   5.387 -0.8316  0.9123 -0.2414
 7598SOL    HW234254   2.217   4.051   5.491 -0.3882  1.2512  1.7216
 7599SOL     OW34255   3.748   4.128   0.621  0.3792 -0.0114 -0.4946
 7599SOL    HW134256   3.824   4.128   0.563  1.1661  1.3631  0.5303
 7599SOL    HW234257   3.790   4.139   0.706 -0.9690  0.4298  0.1278
 7600SOL     OW34258   0.092   3.423   4.011 -0.0572  0.4894 -0.0063
 7600SOL    HW134259   0.123   3.503   3.969 -0.9011  0.6188 -0.3882
 7600SOL    HW234260   0.167   3.372   4.042 -1.1791 -0.2954  1.4164
 7601SOL     OW34261   4.437   0.318   1.928  0.1283  0.3820  0.4677
 7601SOL    HW134262   4.481   0.392   1.888  1.8237  0.0361  1.6748
 7601SOL    HW234263   4.511   0.271   1.968  0.7605  0.4434 -0.6470
 7602SOL     OW34264   1.138   0.909   5.108 -0.1255  0.0511  0.2682
 7602SOL    HW134265   1.073   0.885   5.041 -1.1870  1.2326  0.8869
 7602SOL    HW234266   1.081   0.936   5.180  0.7294 -1.8787  1.6713
 7603SOL     OW34267   0.719   3.967   8.136  1.0907  0.0536 -0.3704
 7603SOL    HW134268   0.674   3.890   8.171 -2.1388  1.5952 -1.1389
 7603SOL    HW234269   0.737   4.005   8.222 -0.8298 -1.6226  0.7707
 7604SOL     OW34270   3.929   0.833   8.064  0.4064  0.0740  0.2482
 7604SOL    HW134271   3.848   0.782   8.057 -0.6125  1.8679 -1.0012
 7604SOL    HW234272   3.902   0.909   8.115  0.2650 -0.5362  1.0797
 7605SOL     OW34273   0.861   3.676   2.248  0.5313  0.5155 -0.2851
 7605SOL    HW134274   0.772   3.670   2.284  0.4878 -2.0882 -0.8419
 7605SOL    HW234275   0.912   3.646   2.324 -1.4632  2.6499  1.9066
 7606SOL     OW34276   3.576   3.447   4.962 -0.7215  0.9031 -0.0844
 7606SOL    HW134277   3.575   3.535   4.923  0.7985  1.2528  0.6681
 7606SOL    HW234278   3.503   3.451   5.023 -1.1824 -1.2236 -0.4804
 7607SOL     OW34279   4.577   4.460   3.914 -0.2748  0.6987  0.2569
 7607SOL    HW134280   4.599   4.423   3.829 -0.4313  1.5473 -0.1585
 7607SOL    HW234281   4.639   4.414   3.970 -0.7519  0.8077  0.8786
 7608SOL     OW34282   4.113   3.057   7.336  0.0852  0.0692 -0.4447
 7608SOL    HW134283   4.203   3.031   7.317 -0.2301 -0.3414 -1.3505
 7608SOL    HW234284   4.132   3.146   7.365  0.0148 -0.0824  0.0848
 7609SOL     OW34285   3.917   2.969   8.222 -0.8189  0.1572 -0.3716
 7609SOL    HW134286   3.998   3.017   8.206 -0.2482 -0.4012  0.8672
 7609SOL    HW234287   3.922   2.903   8.153 -0.4405 -0.3402  0.1348
 7610SOL     OW34288   1.287   3.168   7.229  0.2562 -0.3472  0.5780
 7610SOL    HW134289   1.313   3.080   7.204  2.2555  1.0344 -2.2140
 7610SOL    HW234290   1.343   3.180   7.306  1.5400  1.5525 -0.6484
 7611SOL     OW34291   1.801   1.702  11.529  0.1390 -0.2757  0.1560
 7611SOL    HW134292   1.833   1.618  11.496 -2.0220 -1.0248 -0.0497
 7611SOL    HW234293   1.767   1.745  11.450  0.5700 -0.2608 -0.0209
 7612SOL     OW34294   0.420   0.857   1.160  0.4198 -0.6874 -0.3034
 7612SOL    HW134295   0.489   0.922   1.146 -2.3875  2.2186 -0.8336
 7612SOL    HW234296   0.381   0.884   1.244  3.3320 -0.1605  0.8705
 7613SOL     OW34297   3.305   3.155  17.507 -0.3909 -0.5804 -0.2222
 7613SOL    HW134298   3.281   3.071  17.468 -2.3296 -0.5144  0.8327
 7613SOL    HW234299   3.387   3.168  17.459 -0.2562  1.1874  0.5103
 7614SOL     OW34300   3.091   3.882   9.066 -0.1456 -0.4369 -0.2562
 7614SOL    HW134301   3.128   3.923   9.144  0.1323  0.5900 -0.9286
 7614SOL    HW234302   3.007   3.859   9.106 -0.4473  2.2988  0.7286
 7615SOL     OW34303   1.926   1.655   7.015  0.0430  0.1815  0.1285
 7615SOL    HW134304   1.899   1.742   7.044  1.2500  0.2212  1.1253
 7615SOL    HW234305   1.962   1.679   6.930 -0.7074 -0.2149 -0.3044
 7616SOL     OW34306   2.964   2.543   3.719 -0.5552 -0.3031  0.1024
 7616SOL    HW134307   2.933   2.626   3.756  0.1264  0.9973 -2.2553
 7616SOL    HW234308   3.054   2.537   3.750 -0.4307  0.2044 -0.1651
 7617SOL     OW34309   4.488   2.756  11.455 -0.0153 -0.7604 -0.2843
 7617SOL    HW134310   4.397   2.784  11.447  0.1549  1.1282  4.5040
 7617SOL    HW234311   4.482   2.663  11.432  4.1557 -0.6567 -1.8524
 7618SOL     OW34312   0.229   2.803   9.801  0.2945  0.1079  0.1721
 7618SOL    HW134313   0.296   2.748   9.841  0.0571 -0.6570 -0.4828
 7618SOL    HW234314   0.209   2.762   9.717  0.0368  0.5099  0.0330
 7619SOL     OW34315   0.576   0.858   5.668  0.1039  0.0852  0.1950
 7619SOL    HW134316   0.534   0.904   5.595  1.7203  1.2738  0.0251
 7619SOL    HW234317   0.631   0.926   5.706 -0.1851  1.7437 -2.3200
 7620SOL     OW34318   3.372   2.834   2.076 -0.0308  0.0381 -0.0256
 7620SOL    HW134319   3.400   2.925   2.088  1.1675 -0.0558 -2.1884
 7620SOL    HW234320   3.283   2.843   2.110 -0.6631 -1.3883 -1.2843
 7621SOL     OW34321   1.632   0.898   8.319  0.3519 -0.2961  0.6531
 7621SOL    HW134322   1.616   0.985   8.355  0.7193 -0.4028  1.0751
 7621SOL    HW234323   1.675   0.854   8.392  1.0755  0.0110  0.4066
 7622SOL     OW34324   4.668   3.892  12.114  0.1495  0.0465  0.0254
 7622SOL    HW134325   4.632   3.828  12.053  0.7169  0.1846 -0.4449
 7622SOL    HW234326   0.032   3.856  12.127  0.2715  0.4026  0.2109
 7623SOL     OW34327   1.197   0.052   6.815  0.4093  0.2984 -0.2437
 7623SOL    HW134328   1.203   4.712   6.886  0.0466 -0.1568 -0.6290
 7623SOL    HW234329   1.133   0.018   6.752  1.2521  2.2103 -2.1457
 7624SOL     OW34330   4.478   0.101   4.786  0.8812  0.0018 -0.2842
 7624SOL    HW134331   4.400   0.116   4.839  0.9981  0.0143 -0.1155
 7624SOL    HW234332   4.444   0.037   4.724 -0.2974 -0.4560  0.8306
 7625SOL     OW34333   0.864   3.996  11.709  0.2435 -0.0387 -0.4593
 7625SOL    HW134334   0.770   4.007  11.716  0.4187  0.5044  1.1680
 7625SOL    HW234335   0.884   4.043  11.628  1.6470 -0.1867 -0.2161
 7626SOL     OW34336   3.853   3.832   3.878  0.8556  0.1585 -0.3888
 7626SOL    HW134337   3.909   3.800   3.948 -0.4204 -0.0405  0.5467
 7626SOL    HW234338   3.778   3.773   3.889 -1.1218  2.8520  0.5729
 7627SOL     OW34339   1.009   3.114   8.375  0.4823  0.0571 -0.6366
 7627SOL    HW134340   1.003   3.026   8.412  1.7122  0.6314  0.9002
 7627SOL    HW234341   1.095   3.098   8.335  0.5250 -0.8472 -0.1930
 7628SOL     OW34342   2.196   3.756   2.016  0.8954 -0.5638  0.3537
 7628SOL    HW134343   2.251   3.789   2.087 -0.8982  1.0104  1.0019
 7628SOL    HW234344   2.121   3.812   2.032  0.6994 -0.9776  0.8807
 7629SOL     OW34345   2.224   2.400   1.008  0.5547  0.3252  0.1128
 7629SOL    HW134346   2.178   2.429   0.929  0.2637 -0.1119  0.1250
 7629SOL    HW234347   2.268   2.481   1.035 -0.4795  0.1264  2.3676
 7630SOL     OW34348   1.265   2.224   2.628 -0.3850 -0.3298 -0.3846
 7630SOL    HW134349   1.274   2.308   2.584  0.5187 -0.5183 -0.5762
 7630SOL    HW234350   1.230   2.263   2.708  1.3349  0.0916  0.1828
 7631SOL     OW34351   0.080   4.680   2.278  0.1175 -0.0402  0.0702
 7631SOL    HW134352   0.052   4.703   2.190  0.4176  2.0478  0.5164
 7631SOL    HW234353   0.107   4.590   2.260 -1.6248 -0.1621 -1.9064
 7632SOL     OW34354   4.260   1.951  10.145  0.4035 -0.1415  0.5241
 7632SOL    HW134355   4.240   1.952  10.238  0.6808  0.2178  0.5794
 7632SOL    HW234356   4.322   1.878  10.145 -0.2061 -0.6287  4.5732
 7633SOL     OW34357   4.402   3.607   4.657 -0.2866  0.5824  0.2889
 7633SOL    HW134358   4.424   3.514   4.653  0.3150  0.6149  3.1257
 7633SOL    HW234359   4.486   3.632   4.695 -0.5640  1.9465 -0.0054
 7634SOL     OW34360   2.867   2.909   6.704  0.6759  0.2807  0.0548
 7634SOL    HW134361   2.792   2.857   6.732 -0.0993  1.2713 -0.2034
 7634SOL    HW234362   2.864   2.895   6.609 -0.1900  0.2101  0.0929
 7635SOL     OW34363   1.877   4.229   6.688  0.1283  0.0300 -0.2985
 7635SOL    HW134364   1.816   4.268   6.751 -2.1928 -0.3058 -2.3404
 7635SOL    HW234365   1.815   4.168   6.650  0.5940 -1.8666  1.9819
 7636SOL     OW34366   0.625   1.152   5.653 -0.0205 -0.1452  0.0839
 7636SOL    HW134367   0.712   1.168   5.691  0.0086 -0.7222  0.2536
 7636SOL    HW234368   0.644   1.095   5.579 -3.1983 -2.4087  1.0026
 7637SOL     OW34369   0.609   2.494   5.572 -0.0356 -0.3375  0.2878
 7637SOL    HW134370   0.655   2.483   5.488 -0.0715  0.7426  0.1317
 7637SOL    HW234371   0.563   2.577   5.562  0.4999 -0.0497  0.2496
 7638SOL     OW34372   4.012   3.513   3.885  0.0093  0.3125 -0.4430
 7638SOL    HW134373   3.936   3.506   3.943  1.4808  2.7130  1.7610
 7638SOL    HW234374   4.055   3.590   3.922  0.8196  0.2668 -1.2892
 7639SOL     OW34375   1.368   3.298   2.569  0.0499  0.6664  0.4877
 7639SOL    HW134376   1.416   3.217   2.552  1.3113  0.9381  2.6934
 7639SOL    HW234377   1.420   3.329   2.643  1.7702  1.5507 -1.0922
 7640SOL     OW34378   0.619   4.675   2.626 -0.5480 -0.4959  0.3601
 7640SOL    HW134379   0.663   4.590   2.620 -0.6266 -0.5738  0.9203
 7640SOL    HW234380   0.540   4.650   2.578  0.4139  1.6362 -2.3013
 7641SOL     OW34381   1.399   2.556   8.421 -0.2816 -0.2785  0.6079
 7641SOL    HW134382   1.403   2.651   8.421  0.4171 -0.3135 -0.9406
 7641SOL    HW234383   1.324   2.542   8.480 -0.2291 -2.0436  0.2730
 7642SOL     OW34384   3.046   3.511   6.029  0.6388  0.3411 -0.2294
 7642SOL    HW134385   3.097   3.436   6.060 -1.5963 -1.3062 -0.5122
 7642SOL    HW234386   3.046   3.484   5.937  1.2853 -0.5438  0.0204
 7643SOL     OW34387   4.666   3.619   2.121 -0.8546  0.1657 -0.3045
 7643SOL    HW134388   4.629   3.671   2.050 -0.2544 -0.1718 -0.8678
 7643SOL    HW234389   4.592   3.613   2.181  0.5572  2.1933  1.6401
 7644SOL     OW34390   1.834   3.238  15.544 -0.4288  0.1521 -0.4140
 7644SOL    HW134391   1.825   3.245  15.639  0.6372 -2.9762 -0.1084
 7644SOL    HW234392   1.869   3.150  15.535 -0.2567  0.3444 -1.7544
 7645SOL     OW34393   0.404   1.095  11.658 -0.4293 -0.0741 -0.7661
 7645SOL    HW134394   0.477   1.033  11.644  1.0514  1.2019  1.3328
 7645SOL    HW234395   0.323   1.049  11.635 -0.8652  0.9277 -1.1951
 7646SOL     OW34396   2.837   2.242   4.387  0.2872 -0.2150 -0.4083
 7646SOL    HW134397   2.881   2.157   4.394  2.5547  1.0815  1.2690
 7646SOL    HW234398   2.779   2.220   4.314  0.6170 -0.5215 -0.5791
 7647SOL     OW34399   2.944   4.000   6.803  0.1376  0.3522 -0.5698
 7647SOL    HW134400   2.908   4.037   6.883  0.9220  1.3912 -0.6831
 7647SOL    HW234401   3.005   3.934   6.836  1.3152  1.8200  0.2004
 7648SOL     OW34402   1.237   0.686   6.435 -0.2074 -0.6259 -0.5403
 7648SOL    HW134403   1.320   0.644   6.457  0.3957  1.4094  1.0135
 7648SOL    HW234404   1.187   0.684   6.517 -2.7721 -0.4426 -2.0783
 7649SOL     OW34405   2.257   1.623   4.432 -0.1062  0.2944 -0.0372
 7649SOL    HW134406   2.211   1.558   4.484  0.1671 -0.3527 -0.6058
 7649SOL    HW234407   2.191   1.654   4.370  0.4816  0.5188 -0.5537
 7650SOL     OW34408   0.667   2.993   4.852 -0.0843  0.4007  0.0536
 7650SOL    HW134409   0.640   3.042   4.775 -0.5513 -1.1843 -0.8062
 7650SOL    HW234410   0.605   2.921   4.836 -0.1884  0.8488 -1.4858
 7651SOL     OW34411   4.408   4.586  10.046 -0.6138  0.3489 -0.1532
 7651SOL    HW134412   4.395   4.495  10.074 -0.0063 -1.3556 -5.4340
 7651SOL    HW234413   4.445   4.616  10.129  0.1246  1.3757 -0.8525
 7652SOL     OW34414   3.855   4.690   6.389 -0.2781 -0.4676 -0.3377
 7652SOL    HW134415   3.906   4.613   6.415  1.9369 -0.2214 -3.9193
 7652SOL    HW234416   3.785   4.679   6.453  0.3264 -1.3754  0.1589
 7653SOL     OW34417   3.080   2.478   3.234 -0.4678 -0.0533  0.3728
 7653SOL    HW134418   3.053   2.446   3.319  0.3142 -2.1570 -0.1650
 7653SOL    HW234419   3.163   2.432   3.218  0.9207  2.5948 -0.1383
 7654SOL     OW34420   1.391   1.680   1.598  0.0444  0.1392 -0.5595
 7654SOL    HW134421   1.484   1.699   1.584 -0.4685  0.7455 -3.0792
 7654SOL    HW234422   1.369   1.614   1.532 -0.9099 -0.4484  0.3362
 7655SOL     OW34423   3.503   4.490  17.032 -0.1097 -0.4611 -0.6392
 7655SOL    HW134424   3.592   4.469  17.005 -0.3244 -0.5451 -1.2691
 7655SOL    HW234425   3.467   4.540  16.959 -1.0932  0.9685  0.8394
 7656SOL     OW34426   1.831   1.117   8.493 -0.1656 -0.2817 -0.0752
 7656SOL    HW134427   1.873   1.203   8.489 -1.0023  0.0399 -1.9050
 7656SOL    HW234428   1.740   1.144   8.477 -0.6661 -1.4854  0.7426
 7657SOL     OW34429   0.500   1.857   8.766 -0.2106 -0.5669 -0.5084
 7657SOL    HW134430   0.540   1.808   8.694  0.8964  0.4654 -0.6058
 7657SOL    HW234431   0.523   1.798   8.838 -0.0966 -1.2017 -1.0731
 7658SOL     OW34432   1.337   0.657   5.116 -0.2941  0.4400 -0.4853
 7658SOL    HW134433   1.277   0.608   5.060 -1.7242  1.1208  0.4253
 7658SOL    HW234434   1.285   0.682   5.192  1.9784  0.4865  1.0552
 7659SOL     OW34435   3.554   4.437   2.065  0.0287 -0.3390  0.6063
 7659SOL    HW134436   3.582   4.507   2.124  0.6625  0.5243 -0.7131
 7659SOL    HW234437   3.461   4.457   2.066  0.5349  1.9725  0.4683
 7660SOL     OW34438   0.249   0.919   4.528 -0.1055  0.0946  0.0476
 7660SOL    HW134439   0.314   0.899   4.595 -1.6360  0.3672  1.6267
 7660SOL    HW234440   0.259   0.840   4.474  2.7423  2.1732 -2.3965
 7661SOL     OW34441   0.838   2.908  15.161 -0.4662  0.1173 -0.3002
 7661SOL    HW134442   0.817   2.885  15.252 -3.5614  1.5012 -0.6800
 7661SOL    HW234443   0.917   2.861  15.133 -1.2579 -1.7302  0.5575
 7662SOL     OW34444   1.724   4.328   8.834 -0.2298 -0.0132 -0.0757
 7662SOL    HW134445   1.696   4.408   8.878 -5.0029 -1.5901 -0.2382
 7662SOL    HW234446   1.675   4.265   8.887  2.2116  1.0041  3.3948
 7663SOL     OW34447   1.465   2.556  16.431 -0.0665  1.4775  0.4741
 7663SOL    HW134448   1.431   2.522  16.348 -0.7349  3.6401 -0.1546
 7663SOL    HW234449   1.401   2.534  16.498  0.5858 -0.6649  0.4005
 7664SOL     OW34450   3.437   0.943   9.570  0.3216 -0.7664 -0.5307
 7664SOL    HW134451   3.464   1.007   9.505 -3.2486  0.0479 -1.2309
 7664SOL    HW234452   3.503   0.961   9.637 -0.9964  0.5605  0.3947
 7665SOL     OW34453   2.117   3.586   8.097 -0.6009  0.1012 -0.3176
 7665SOL    HW134454   2.123   3.496   8.065  0.1263  0.1171 -0.2240
 7665SOL    HW234455   2.198   3.579   8.148 -0.4226  1.2575 -0.4405
 7666SOL     OW34456   1.313   1.898   5.006 -0.4119 -0.2742 -0.4143
 7666SOL    HW134457   1.338   1.824   5.062 -0.0935  0.2508  0.1416
 7666SOL    HW234458   1.345   1.971   5.059  1.0631 -0.1280 -1.5089
 7667SOL     OW34459   3.368   1.617   3.557 -0.4874 -0.2805  0.1295
 7667SOL    HW134460   3.372   1.690   3.496  2.5932  0.9833  1.8431
 7667SOL    HW234461   3.347   1.544   3.499  1.2950 -1.2032  0.6134
 7668SOL     OW34462   2.729   4.396   2.564 -0.2999 -0.3825  0.1068
 7668SOL    HW134463   2.753   4.303   2.568 -2.1610 -0.8984 -0.5960
 7668SOL    HW234464   2.804   4.449   2.538 -0.8356 -0.1928 -1.0609
 7669SOL     OW34465   0.966   2.165   0.925  0.2376  0.5131 -0.6328
 7669SOL    HW134466   1.031   2.211   0.871  2.0144 -1.0020  0.2070
 7669SOL    HW234467   0.944   2.229   0.992 -2.6127  1.0790 -2.0961
 7670SOL     OW34468   3.089   4.329  15.707  0.1451  0.0758  0.2927
 7670SOL    HW134469   3.039   4.375  15.639  2.3219  0.2002 -1.2730
 7670SOL    HW234470   3.146   4.287  15.642  3.1445  0.0553  2.9436
 7671SOL     OW34471   1.231   2.402   0.574 -0.5547  0.0046 -0.3121
 7671SOL    HW134472   1.303   2.465   0.575  0.6972 -1.4263 -0.2625
 7671SOL    HW234473   1.207   2.416   0.482  1.0332  0.6769 -0.6396
 7672SOL     OW34474   1.007   3.021   7.489  0.2189  0.3280 -0.0880
 7672SOL    HW134475   0.960   3.083   7.544  0.1422 -1.2156  1.5922
 7672SOL    HW234476   1.010   3.073   7.409 -2.0145  0.3662 -0.1347
 7673SOL     OW34477   2.054   3.416   5.725 -0.2221 -0.0922 -0.1567
 7673SOL    HW134478   1.988   3.457   5.669  0.2279  1.5081  0.4825
 7673SOL    HW234479   2.084   3.348   5.664  2.9644 -0.9108  2.3529
 7674SOL     OW34480   0.059   1.253  15.933  0.2737 -0.2028 -0.6737
 7674SOL    HW134481   0.064   1.196  15.856 -0.2858  0.0516 -0.9027
 7674SOL    HW234482   4.695   1.288  15.919  0.6737  0.2010 -2.1170
 7675SOL     OW34483   0.362   0.724   4.734  0.0426 -0.0859 -0.3679
 7675SOL    HW134484   0.271   0.755   4.736 -0.1338 -0.6657  1.0274
 7675SOL    HW234485   0.355   0.658   4.665  0.4766 -0.0295 -0.4643
 7676SOL     OW34486   1.669   1.933  10.562  0.1979  0.5741  0.2712
 7676SOL    HW134487   1.694   1.947  10.653  1.0137  1.4413 -0.0821
 7676SOL    HW234488   1.576   1.910  10.566  0.9307 -2.6227 -1.2290
 7677SOL     OW34489   0.093   1.042   8.492 -0.6899  0.1995  0.4414
 7677SOL    HW134490   0.003   1.054   8.523 -0.6901 -0.7275  0.8145
 7677SOL    HW234491   0.110   1.103   8.420 -1.5829  1.7494  1.5474
 7678SOL     OW34492   0.515   2.253  12.757  0.1924  0.3005 -0.2557
 7678SOL    HW134493   0.535   2.303  12.836 -1.7227  2.6089 -1.2412
 7678SOL    HW234494   0.441   2.304  12.725  0.4137  0.4504 -0.5262
 7679SOL     OW34495   1.379   2.497   0.981  0.1290 -0.4832 -0.6237
 7679SOL    HW134496   1.393   2.421   1.039  1.0872 -0.7690 -1.2266
 7679SOL    HW234497   1.291   2.488   0.946 -0.2859  0.6309  0.1645
 7680SOL     OW34498   3.502   1.590   3.799  0.1502  0.2407 -0.0499
 7680SOL    HW134499   3.531   1.670   3.844  0.6951 -0.3733  0.6956
 7680SOL    HW234500   3.475   1.628   3.716  1.8427  1.2240 -0.1698
 7681SOL     OW34501   0.479   1.863  13.839 -0.3489 -0.3283 -0.0084
 7681SOL    HW134502   0.475   1.829  13.749  1.0337  1.7774 -0.8638
 7681SOL    HW234503   0.521   1.948  13.825  2.6964 -2.0154 -1.2224
 7682SOL     OW34504   3.386   3.341   5.211  0.3578  0.9042  0.8296
 7682SOL    HW134505   3.468   3.292   5.218  0.4623  1.0924  0.9372
 7682SOL    HW234506   3.357   3.335   5.302  0.2062 -4.7529  0.3869
 7683SOL     OW34507   3.106   1.974   5.758  0.6226  0.0045  0.1551
 7683SOL    HW134508   3.073   2.049   5.807 -0.6084 -0.2979 -0.2329
 7683SOL    HW234509   3.030   1.936   5.715 -0.2121  0.8337  0.9022
 7684SOL     OW34510   2.077   2.603   3.046  0.4171 -0.2671  0.1800
 7684SOL    HW134511   2.115   2.516   3.032  3.4363  1.0126  0.4340
 7684SOL    HW234512   1.986   2.586   3.072  0.4689  3.2866  2.6350
 7685SOL     OW34513   2.104   2.734  10.321 -0.0014 -0.1703  0.0653
 7685SOL    HW134514   2.082   2.662  10.380 -1.9526  0.4764  0.1345
 7685SOL    HW234515   2.046   2.802  10.355  1.7052 -0.0139  2.7026
 7686SOL     OW34516   2.438   1.656   5.709  0.1227 -0.4102  0.3625
 7686SOL    HW134517   2.427   1.598   5.633  0.7291 -0.6603  0.4695
 7686SOL    HW234518   2.523   1.699   5.697  0.6079 -2.0914 -2.2153
 7687SOL     OW34519   1.457   1.814  10.318 -0.6339 -0.0306  0.3892
 7687SOL    HW134520   1.453   1.810  10.413 -1.3014  2.2001  0.4656
 7687SOL    HW234521   1.381   1.761  10.294 -1.1818  0.2490  1.4893
 7688SOL     OW34522   4.069   2.323   5.383  0.2544  0.2431 -0.4047
 7688SOL    HW134523   4.098   2.282   5.465  2.1097  1.5640 -0.4199
 7688SOL    HW234524   4.052   2.413   5.413  1.6215  0.7395 -1.1687
 7689SOL     OW34525   2.457   4.717  15.647 -0.2793 -0.3040  0.2563
 7689SOL    HW134526   2.380   0.018  15.596 -0.3061 -0.2591  0.3183
 7689SOL    HW234527   2.519   0.054  15.605 -3.0421 -0.0138 -3.3600
 7690SOL     OW34528   3.058   3.208  10.063 -0.0984 -0.2475  0.0654
 7690SOL    HW134529   3.058   3.117  10.093 -1.9113 -0.8597 -1.8204
 7690SOL    HW234530   2.964   3.226  10.069 -0.1547 -0.3043 -0.7000
 7691SOL     OW34531   4.634   2.005   7.716  0.4512  0.3181  0.2522
 7691SOL    HW134532   4.558   2.062   7.730  0.3940  0.3362 -0.1241
 7691SOL    HW234533   4.596   1.930   7.761  1.1551  0.4459  1.0761
 7692SOL     OW34534   3.333   3.872   2.927 -0.0173 -0.3381 -0.2520
 7692SOL    HW134535   3.335   3.886   3.022 -3.0299  0.1461 -0.2680
 7692SOL    HW234536   3.400   3.936   2.902 -2.3373  1.1990 -2.4543
 7693SOL     OW34537   1.488   2.003   3.913 -0.5823 -0.2461  0.3204
 7693SOL    HW134538   1.457   2.092   3.929 -2.4886 -0.7194 -0.7547
 7693SOL    HW234539   1.404   1.960   3.925  0.2668 -1.6293  1.3638
 7694SOL     OW34540   2.165   3.268   1.765  0.8276  0.2637  0.1046
 7694SOL    HW134541   2.114   3.268   1.846  1.2641  1.8343  0.3822
 7694SOL    HW234542   2.220   3.346   1.770 -0.4594  1.0425  2.0329
 7695SOL     OW34543   2.477   2.509   4.451 -0.2919 -0.1996  0.2546
 7695SOL    HW134544   2.558   2.506   4.400 -0.0813 -0.9098  0.6240
 7695SOL    HW234545   2.464   2.415   4.464  0.2629 -0.5743 -1.9387
 7696SOL     OW34546   3.076   3.502   6.831  0.2843 -0.3671 -0.1756
 7696SOL    HW134547   3.109   3.574   6.777  1.0566 -0.4688  0.1631
 7696SOL    HW234548   2.988   3.483   6.796 -0.0756  0.6952  0.1711
 7697SOL     OW34549   1.961   4.406   5.790  0.4522  0.1777 -0.5768
 7697SOL    HW134550   1.916   4.487   5.813 -2.3306 -0.6371 -3.2034
 7697SOL    HW234551   1.909   4.376   5.715 -0.6376  0.7982 -0.0580
 7698SOL     OW34552   2.970   2.019  10.409  0.1767  0.3716 -0.5500
 7698SOL    HW134553   2.906   2.082  10.442 -0.1722  0.4713 -1.4259
 7698SOL    HW234554   3.038   2.028  10.476  2.1196  2.4818 -2.8350
 7699SOL     OW34555   0.921   3.395   9.210 -0.4144  0.4116 -0.3049
 7699SOL    HW134556   0.839   3.384   9.161 -0.4618  0.7889 -0.3138
 7699SOL    HW234557   0.915   3.364   9.300 -0.4991  2.9744  0.5832
 7700SOL     OW34558   0.658   2.504  14.203  0.3706 -0.0309 -0.7036
 7700SOL    HW134559   0.594   2.528  14.135 -0.3958 -0.6469 -0.2080
 7700SOL    HW234560   0.694   2.588  14.229  1.5447 -0.7644 -0.0016
 7701SOL     OW34561   1.439   0.154   6.982 -0.0418 -0.3115  0.1081
 7701SOL    HW134562   1.404   0.103   7.055 -0.0158 -0.0457  0.3068
 7701SOL    HW234563   1.390   0.134   6.901 -3.1585  0.7548  1.7053
 7702SOL     OW34564   4.466   1.482   8.708  0.2956  0.1299  0.1988
 7702SOL    HW134565   4.473   1.544   8.636 -1.6964 -1.2011 -1.1678
 7702SOL    HW234566   4.467   1.547   8.778 -2.0988  0.2162  0.1518
 7703SOL     OW34567   0.184   4.619   3.512 -0.1692 -0.2606 -0.3089
 7703SOL    HW134568   0.253   4.654   3.455  2.2944 -3.6962  0.5397
 7703SOL    HW234569   0.176   4.527   3.489  1.1399 -0.1665 -1.1885
 7704SOL     OW34570   0.963   3.193   2.883 -0.0659 -0.5013  0.7109
 7704SOL    HW134571   0.974   3.273   2.934 -1.7104  1.1469 -1.5140
 7704SOL    HW234572   1.002   3.208   2.797 -1.8547 -1.2244 -0.2502
 7705SOL     OW34573   0.616   3.020   0.762  0.0940 -0.3674 -0.4782
 7705SOL    HW134574   0.702   3.043   0.725 -0.4184  1.8078 -0.2895
 7705SOL    HW234575   0.565   3.100   0.758 -0.1272 -0.4054  1.8490
 7706SOL     OW34576   4.542   3.021   3.994 -0.0004  0.3445  0.0623
 7706SOL    HW134577   4.581   3.034   4.080 -0.2353  0.0060  0.2190
 7706SOL    HW234578   4.548   3.111   3.960 -0.9138  0.4434  0.1641
 7707SOL     OW34579   2.498   2.806  10.402  0.3044 -0.0752 -0.1879
 7707SOL    HW134580   2.529   2.882  10.353  0.2476 -1.2639 -2.0761
 7707SOL    HW234581   2.573   2.801  10.462  0.0503  0.5289  0.1727
 7708SOL     OW34582   3.836   1.526   6.639 -0.1867  0.2599 -0.2800
 7708SOL    HW134583   3.742   1.516   6.656  0.3370 -1.6405  1.4483
 7708SOL    HW234584   3.854   1.452   6.582  1.3001  0.2772  0.1651
 7709SOL     OW34585   0.642   1.718  14.498  0.0414  0.0910  0.2988
 7709SOL    HW134586   0.665   1.713  14.406 -2.1507  0.1108 -0.2521
 7709SOL    HW234587   0.672   1.807  14.520  1.6164 -0.0776 -1.2089
 7710SOL     OW34588   0.766   2.089  15.205 -0.0425  0.2779  0.1982
 7710SOL    HW134589   0.846   2.064  15.251 -0.5553 -0.5742  0.6433
 7710SOL    HW234590   0.775   2.177  15.169 -0.7071 -0.3560 -1.5186
 7711SOL     OW34591   0.547   1.587  16.257  0.6023  0.4341 -0.2659
 7711SOL    HW134592   0.473   1.530  16.280 -1.9935  3.5088 -1.0131
 7711SOL    HW234593   0.622   1.529  16.260 -0.3356 -0.6091  3.8790
 7712SOL     OW34594   4.104   2.070   3.688 -0.1208 -0.6562 -0.5187
 7712SOL    HW134595   4.051   2.046   3.611  1.2411 -2.0962 -1.0187
 7712SOL    HW234596   4.027   2.095   3.739 -0.6601 -0.5994 -1.3539
 7713SOL     OW34597   4.277   2.741   2.645 -0.2831  0.6325  0.0576
 7713SOL    HW134598   4.350   2.781   2.598  1.6283 -1.9851  0.7948
 7713SOL    HW234599   4.271   2.662   2.592  1.4945  0.1892  0.5361
 7714SOL     OW34600   2.675   1.764   5.697 -0.3557  0.1123  0.1745
 7714SOL    HW134601   2.742   1.818   5.654 -2.1302  1.5578 -0.7624
 7714SOL    HW234602   2.691   1.802   5.783 -0.0075 -3.2505  1.5966
 7715SOL     OW34603   1.777   0.818   0.345 -0.5358  0.0312  0.0864
 7715SOL    HW134604   1.690   0.780   0.354  0.1662 -1.6091 -0.0684
 7715SOL    HW234605   1.776   0.820   0.250  0.9515  0.0827  0.0692
 7716SOL     OW34606   0.603   2.724   8.368  0.2060  0.2847 -1.1210
 7716SOL    HW134607   0.643   2.796   8.320 -0.2893  0.5659 -1.1041
 7716SOL    HW234608   0.682   2.675   8.391 -0.9758 -1.0335  0.2118
 7717SOL     OW34609   3.179   2.205   2.959  0.1705 -0.3017 -0.2984
 7717SOL    HW134610   3.234   2.276   2.991  1.6007 -2.0006  1.0214
 7717SOL    HW234611   3.245   2.139   2.939  0.5925  0.3325 -0.9915
 7718SOL     OW34612   4.113   1.465   3.735 -0.0370 -0.0043  0.1302
 7718SOL    HW134613   4.118   1.370   3.723 -0.2205 -0.0379  0.3030
 7718SOL    HW234614   4.179   1.495   3.674  0.1907 -0.5018  0.1302
 7719SOL     OW34615   0.623   4.576   2.003  0.4672  0.3937  0.0836
 7719SOL    HW134616   0.607   4.481   1.999 -2.3105  0.8259  0.8181
 7719SOL    HW234617   0.718   4.580   2.011  0.5233 -1.0342  0.1552
 7720SOL     OW34618   2.101   3.035   8.565  0.3002  0.0139 -0.2257
 7720SOL    HW134619   2.090   3.111   8.507 -1.6389  0.3853  0.6345
 7720SOL    HW234620   2.100   3.081   8.649 -1.3386  1.1172 -0.8587
 7721SOL     OW34621   3.502   2.074   1.640 -0.9169 -0.1562 -0.0581
 7721SOL    HW134622   3.416   2.037   1.619 -2.3477  2.1869  1.7362
 7721SOL    HW234623   3.541   1.996   1.679  2.1261  1.0928 -0.5925
 7722SOL     OW34624   3.682   0.562   9.166 -0.7442 -0.2875 -0.0945
 7722SOL    HW134625   3.724   0.606   9.240 -1.5699  1.3327 -0.6093
 7722SOL    HW234626   3.710   0.470   9.172  1.7502  0.4096 -0.9027
 7723SOL     OW34627   4.194   3.749   4.782 -0.0550  0.4857  0.5059
 7723SOL    HW134628   4.268   3.717   4.730 -0.8371 -1.2480  0.4839
 7723SOL    HW234629   4.185   3.678   4.846  1.1394  0.7465  0.9739
 7724SOL     OW34630   3.163   0.931   6.561  0.2752  0.1616 -0.1918
 7724SOL    HW134631   3.163   0.973   6.646 -0.0687 -1.4664  0.6195
 7724SOL    HW234632   3.218   0.855   6.582 -0.4055 -0.3913 -0.4185
 7725SOL     OW34633   2.056   1.473  14.464 -0.1142  0.6194 -0.2422
 7725SOL    HW134634   2.059   1.411  14.537 -2.2616  2.5471  1.4867
 7725SOL    HW234635   2.126   1.444  14.405 -2.2484 -0.1293 -2.3860
 7726SOL     OW34636   2.121   3.222   6.908  0.2229  0.0601 -0.4861
 7726SOL    HW134637   2.053   3.162   6.941  0.6035  0.1732  0.4968
 7726SOL    HW234638   2.170   3.243   6.988  0.6946 -1.9211 -0.2359
 7727SOL     OW34639   0.016   4.363   4.303  0.1022 -0.0663 -0.5310
 7727SOL    HW134640   0.047   4.360   4.394  0.3490  0.1713 -0.6053
 7727SOL    HW234641   4.662   4.417   4.316 -0.5584 -1.3055  0.6957
 7728SOL     OW34642   2.302   0.967   5.629  0.3615 -0.8722  0.4086
 7728SOL    HW134643   2.300   0.916   5.548 -1.1979  3.0866 -2.0332
 7728SOL    HW234644   2.395   0.985   5.624  0.0922  0.8808  1.6569
 7729SOL     OW34645   4.504   2.682  10.987  0.0160  0.7263 -0.0130
 7729SOL    HW134646   4.498   2.649  11.076  1.1230  0.2438 -0.1155
 7729SOL    HW234647   4.568   2.622  10.947  1.9975  2.8280 -0.0200
 7730SOL     OW34648   2.413   1.127   4.557 -0.3465  0.6204  0.2518
 7730SOL    HW134649   2.391   1.034   4.556  1.8949  0.1068 -1.0058
 7730SOL    HW234650   2.327   1.168   4.561 -0.9614 -0.9617  3.1747
 7731SOL     OW34651   2.440   4.689  11.989 -0.3757  0.4624  0.0869
 7731SOL    HW134652   2.493   0.042  12.010 -1.3618  1.2218 -0.2026
 7731SOL    HW234653   2.384   4.688  12.066 -2.0173  1.4951 -1.1099
 7732SOL     OW34654   0.314   3.830   6.699  0.3924 -0.4329 -0.7774
 7732SOL    HW134655   0.331   3.810   6.791  0.1878  1.8180 -0.2470
 7732SOL    HW234656   0.404   3.850   6.672  0.1925 -3.0964 -3.4739
 7733SOL     OW34657   3.695   0.018   5.681 -0.5076  0.1554 -0.3682
 7733SOL    HW134658   3.788   0.043   5.683  0.0191 -1.9128  0.4597
 7733SOL    HW234659   3.685   0.003   5.587  2.4270  0.3844 -0.7295
 7734SOL     OW34660   3.173   1.199  15.159 -0.3862 -0.1965 -0.0185
 7734SOL    HW134661   3.225   1.224  15.083 -1.7258 -1.3137 -1.2877
 7734SOL    HW234662   3.208   1.110  15.169 -1.6023 -0.4199  2.3536
 7735SOL     OW34663   0.518   2.412  12.185  0.0640 -0.3573  0.0894
 7735SOL    HW134664   0.424   2.424  12.170  0.1784  1.6684  1.0137
 7735SOL    HW234665   0.549   2.439  12.098  0.4097  2.3490  1.0797
 7736SOL     OW34666   2.564   3.524   3.177 -0.6753 -0.5802  0.6383
 7736SOL    HW134667   2.592   3.485   3.260  1.7896 -0.0473  0.0725
 7736SOL    HW234668   2.539   3.443   3.133  0.7188  0.8898 -2.8465
 7737SOL     OW34669   0.564   4.019   3.058  0.1318 -0.7266  0.2807
 7737SOL    HW134670   0.613   4.000   3.139  1.0274  3.1512  0.6524
 7737SOL    HW234671   0.571   4.115   3.057 -6.8256 -0.2114  1.1281
 7738SOL     OW34672   3.506   4.385   7.218 -0.0236  0.1427 -0.2924
 7738SOL    HW134673   3.492   4.368   7.311  0.2018  0.5365 -0.1865
 7738SOL    HW234674   3.417   4.354   7.198  0.9244 -2.0875 -1.0118
 7739SOL     OW34675   0.372   1.065   6.712  0.4691 -0.1436  0.0825
 7739SOL    HW134676   0.303   1.131   6.718 -0.5009 -1.1053 -0.5722
 7739SOL    HW234677   0.395   1.046   6.803 -0.4210 -0.3170  0.2711
 7740SOL     OW34678   1.737   4.026   3.679  0.0073  0.3695 -0.1938
 7740SOL    HW134679   1.784   3.952   3.640 -1.8470 -0.7336 -0.3321
 7740SOL    HW234680   1.708   4.084   3.608 -0.7094 -3.5392 -3.0622
 7741SOL     OW34681   4.475   0.866   7.313  0.7252 -0.4405 -0.2087
 7741SOL    HW134682   4.471   0.843   7.406 -2.2141  1.2371  0.0707
 7741SOL    HW234683   4.553   0.922   7.309 -0.4955  1.4560  2.2739
 7742SOL     OW34684   2.601   2.447   0.510  0.3078 -0.3921  0.0560
 7742SOL    HW134685   2.686   2.430   0.551  0.6965  0.1395 -0.5287
 7742SOL    HW234686   2.557   2.517   0.558 -0.5641  0.2677 -1.6910
 7743SOL     OW34687   2.209   0.673   4.307 -0.2514  0.3499 -0.3206
 7743SOL    HW134688   2.254   0.589   4.316 -0.2977  0.4582  0.8288
 7743SOL    HW234689   2.181   0.682   4.215  0.0251  1.7928 -0.2639
 7744SOL     OW34690   1.425   0.921  12.345  0.1409 -0.1291 -0.4854
 7744SOL    HW134691   1.333   0.904  12.322  0.1043  1.1337 -1.3361
 7744SOL    HW234692   1.440   0.843  12.398 -0.1140 -0.7223 -1.2906
 7745SOL     OW34693   4.597   2.210   7.407  0.1525 -0.4230  0.1380
 7745SOL    HW134694   4.672   2.164   7.369  2.7617  2.4506  1.8487
 7745SOL    HW234695   4.542   2.133   7.425 -0.5945 -0.2851 -1.5198
 7746SOL     OW34696   0.992   3.834  10.193  0.0053  0.0810 -0.2535
 7746SOL    HW134697   1.006   3.753  10.243  1.2186 -0.7835 -1.9639
 7746SOL    HW234698   0.903   3.812  10.165  0.2050 -0.3099 -0.5864
 7747SOL     OW34699   0.928   4.317   3.083  0.0883 -0.5940  0.0121
 7747SOL    HW134700   0.945   4.410   3.065 -0.6283 -0.3004  0.8318
 7747SOL    HW234701   0.998   4.295   3.145  0.6190  0.3630 -0.2547
 7748SOL     OW34702   2.734   1.937   4.643  0.5975 -0.6270  0.1559
 7748SOL    HW134703   2.805   1.885   4.604  1.0230 -0.5002  0.7510
 7748SOL    HW234704   2.655   1.909   4.599  0.5481  0.1927 -0.2834
 7749SOL     OW34705   3.910   0.836   7.105 -0.8081  0.1638 -0.2932
 7749SOL    HW134706   3.825   0.819   7.146  0.2387 -0.7959  1.4862
 7749SOL    HW234707   3.970   0.822   7.178 -1.8495 -0.4453  0.4359
 7750SOL     OW34708   2.037   2.491  16.835 -0.1150 -0.1201  0.9290
 7750SOL    HW134709   2.076   2.458  16.917  1.9666  0.2460  0.0954
 7750SOL    HW234710   2.067   2.582  16.832 -0.9142  0.0248 -2.7927
 7751SOL     OW34711   2.171   2.984   7.468  0.0795  0.2480  0.1565
 7751SOL    HW134712   2.177   3.027   7.553 -0.2977  0.2950  0.1569
 7751SOL    HW234713   2.201   2.894   7.485  2.2365  1.0792  0.7409
 7752SOL     OW34714   3.964   1.501   0.728 -0.1858  0.5789  1.1992
 7752SOL    HW134715   4.012   1.487   0.810 -0.6129 -1.5517  1.0769
 7752SOL    HW234716   3.896   1.563   0.755 -0.6458 -0.2085  1.8313
 7753SOL     OW34717   0.138   1.839   3.410 -0.6447 -0.0153  0.4579
 7753SOL    HW134718   0.163   1.897   3.338 -2.1470  0.9434  0.7095
 7753SOL    HW234719   0.137   1.902   3.481 -1.5050  0.5306 -0.0392
 7754SOL     OW34720   0.172   0.947  11.633 -0.1742 -0.1587 -0.8060
 7754SOL    HW134721   0.092   0.986  11.599 -0.3970 -0.3256 -0.4729
 7754SOL    HW234722   0.135   0.861  11.650  0.0367  0.5541  3.2714
 7755SOL     OW34723   0.310   0.189  11.477 -0.3151 -0.6059  0.4040
 7755SOL    HW134724   0.271   0.161  11.394  2.1747 -1.6031 -0.4286
 7755SOL    HW234725   0.384   0.128  11.484  0.8450  0.9420  1.5415
 7756SOL     OW34726   1.250   2.521   4.038 -0.2735 -0.3692 -0.1472
 7756SOL    HW134727   1.212   2.605   4.064  1.3172  0.8028 -1.6103
 7756SOL    HW234728   1.195   2.467   4.095 -0.2369  0.7129  0.9148
 7757SOL     OW34729   2.288   0.129  10.202  0.3346 -0.2484  0.1976
 7757SOL    HW134730   2.239   0.153  10.123  1.8076  1.9898 -0.0350
 7757SOL    HW234731   2.254   0.172  10.281  0.8984 -0.8500  0.7630
 7758SOL     OW34732   3.855   1.805   4.695  0.0779 -0.3298 -0.0004
 7758SOL    HW134733   3.865   1.711   4.678 -1.0469 -0.1901 -1.4592
 7758SOL    HW234734   3.913   1.807   4.771 -0.5097 -0.9028  0.4694
 7759SOL     OW34735   2.796   3.574  13.550 -0.2888 -0.1076 -0.0516
 7759SOL    HW134736   2.750   3.569  13.634 -0.3970 -2.0550 -0.2319
 7759SOL    HW234737   2.888   3.556  13.565  0.0656  0.9310 -0.9489
 7760SOL     OW34738   1.690   2.949   9.639  1.3183 -0.2831 -0.6954
 7760SOL    HW134739   1.676   3.039   9.670 -0.1841 -0.7997  0.1002
 7760SOL    HW234740   1.767   2.927   9.692 -0.4838 -0.4914  1.8353
 7761SOL     OW34741   2.835   2.505   4.037 -0.4255  0.3011  0.1613
 7761SOL    HW134742   2.904   2.442   4.017  0.3349  0.3945  2.5128
 7761SOL    HW234743   2.762   2.458   3.996  0.1203  0.4687 -0.9971
 7762SOL     OW34744   3.530   2.867  11.905 -0.5040  0.3509 -0.2037
 7762SOL    HW134745   3.585   2.842  11.979 -0.6577  2.0689  0.4846
 7762SOL    HW234746   3.448   2.885  11.949 -0.6136 -0.0969 -0.2179
 7763SOL     OW34747   2.388   4.276   7.796 -0.0269 -0.2123 -0.5400
 7763SOL    HW134748   2.411   4.357   7.751  1.8333 -0.6849 -0.4592
 7763SOL    HW234749   2.306   4.247   7.757 -0.1553  1.2554 -1.3550
 7764SOL     OW34750   3.850   1.005   5.630 -0.5455 -0.0749  0.3683
 7764SOL    HW134751   3.830   0.991   5.537 -0.4705 -3.8331  0.9040
 7764SOL    HW234752   3.887   0.920   5.656 -0.6333 -0.6485 -1.3359
 7765SOL     OW34753   4.579   4.514   2.686 -0.1953  0.2640 -0.2320
 7765SOL    HW134754   4.600   4.430   2.646 -1.8936  0.5429 -1.7311
 7765SOL    HW234755   4.593   4.573   2.612  0.6709  0.4194  0.0631
 7766SOL     OW34756   0.090   2.088   7.252 -0.2855 -0.4226  0.2057
 7766SOL    HW134757   0.100   2.126   7.165  0.4495 -3.1960 -0.8968
 7766SOL    HW234758   0.175   2.120   7.283 -1.2315 -0.7580  3.1300
 7767SOL     OW34759   2.338   4.711   5.959  0.1371  0.4460  0.4261
 7767SOL    HW134760   2.325   4.625   5.919  0.8657  0.6815 -0.3184
 7767SOL    HW234761   2.281   0.044   5.907 -0.7015  0.0867  0.9532
 7768SOL     OW34762   0.459   0.676  14.843  0.2754 -0.2233 -0.4920
 7768SOL    HW134763   0.461   0.596  14.791 -1.7869  0.3945 -1.5515
 7768SOL    HW234764   0.444   0.739  14.772 -0.2189  2.2226  1.7791
 7769SOL     OW34765   2.813   1.554   6.904 -0.4148  0.2009  0.0691
 7769SOL    HW134766   2.815   1.480   6.964 -0.5386 -0.8187 -1.1832
 7769SOL    HW234767   2.724   1.541   6.871 -1.9182  2.0964  3.3195
 7770SOL     OW34768   0.079   0.797   9.422  0.7427 -0.5490 -0.3759
 7770SOL    HW134769   0.082   0.891   9.405 -0.6715 -0.6844 -1.3614
 7770SOL    HW234770   4.722   0.780   9.373 -0.2110  4.8601 -0.6965
 7771SOL     OW34771   1.144   1.200   3.860 -0.3518  0.6450  0.1456
 7771SOL    HW134772   1.112   1.112   3.838  0.4344 -0.3867  3.2069
 7771SOL    HW234773   1.149   1.193   3.955  0.6828  2.9335  0.2602
 7772SOL     OW34774   4.120   1.244   6.587  0.4084  0.2490  0.3213
 7772SOL    HW134775   4.113   1.304   6.513  1.9811 -0.1451 -0.1576
 7772SOL    HW234776   4.157   1.165   6.549  0.8296  0.0632  1.1095
 7773SOL     OW34777   3.442   0.518   6.894 -0.5537 -0.0803 -0.1685
 7773SOL    HW134778   3.460   0.611   6.908 -2.1031  0.1955 -0.0322
 7773SOL    HW234779   3.534   0.500   6.875 -0.6631 -0.6979 -0.1076
 7774SOL     OW34780   3.717   4.159   8.941  0.0212 -0.1085  0.1148
 7774SOL    HW134781   3.690   4.123   9.026 -0.1967  0.8122  0.4351
 7774SOL    HW234782   3.812   4.158   8.953  0.2953 -2.0907 -2.1723
 7775SOL     OW34783   0.378   2.186  17.599 -0.4170 -0.0163  0.4480
 7775SOL    HW134784   0.319   2.228  17.536  0.0681  1.3136  0.8828
 7775SOL    HW234785   0.311   2.152  17.659 -1.4194 -2.8427 -2.2582
 7776SOL     OW34786   1.826   2.516   5.121 -0.2809  0.1680 -0.1023
 7776SOL    HW134787   1.821   2.477   5.208  1.5872  2.0463  0.8509
 7776SOL    HW234788   1.819   2.609   5.142  1.2569  0.0938  0.8004
 7777SOL     OW34789   2.025   0.117   7.783 -0.2468 -0.1404 -0.1141
 7777SOL    HW134790   2.075   0.167   7.848  0.0265 -1.1228  0.4439
 7777SOL    HW234791   2.081   0.039   7.784 -0.2713 -0.1679 -2.1636
 7778SOL     OW34792   2.121   0.140   2.073 -0.1391  0.0217  0.0846
 7778SOL    HW134793   2.121   0.232   2.099 -2.4450 -0.2606  1.1429
 7778SOL    HW234794   2.155   0.106   2.156  0.1687  0.2466  0.0477
 7779SOL     OW34795   4.200   4.340   7.786 -0.1065  0.6182  0.1019
 7779SOL    HW134796   4.139   4.369   7.717 -0.2381  1.9601  0.7913
 7779SOL    HW234797   4.279   4.378   7.748  0.5229 -0.2295  0.5880
 7780SOL     OW34798   3.139   0.560  10.259  0.3035  0.6954  0.4459
 7780SOL    HW134799   3.101   0.571  10.346  1.0698  0.3414  0.8229
 7780SOL    HW234800   3.082   0.491  10.223  1.9110 -0.6870  0.5505
 7781SOL     OW34801   0.001   2.724   4.387  0.2921  0.5485 -0.4187
 7781SOL    HW134802   0.006   2.733   4.291 -0.3507 -0.7355 -0.5667
 7781SOL    HW234803   0.096   2.715   4.398 -0.0090 -0.1587  1.4285
 7782SOL     OW34804   0.113   4.623  16.405 -0.4830  0.2027  0.7523
 7782SOL    HW134805   0.169   4.556  16.445 -0.7115 -0.6060 -0.2860
 7782SOL    HW234806   0.086   4.682  16.475  1.1507  0.7665  0.9110
 7783SOL     OW34807   2.048   3.558  11.734 -0.2905 -0.0744 -0.0606
 7783SOL    HW134808   2.110   3.560  11.806  0.4833  1.0898 -0.7626
 7783SOL    HW234809   2.013   3.647  11.729  0.1222  0.1551  1.2852
 7784SOL     OW34810   1.173   0.717   4.056 -0.3425  0.2681 -0.5247
 7784SOL    HW134811   1.150   0.762   3.974 -2.1730  3.1330  1.5695
 7784SOL    HW234812   1.087   0.684   4.081 -0.2437  0.5472  0.1708
 7785SOL     OW34813   0.274   1.470  11.300  0.5649  0.3135 -0.0902
 7785SOL    HW134814   0.311   1.382  11.299  2.0721  0.9476  0.3271
 7785SOL    HW234815   0.232   1.475  11.386  1.1483 -0.5122  0.2344
 7786SOL     OW34816   4.481   1.078   3.772  0.7634  0.4298 -0.2580
 7786SOL    HW134817   4.457   1.057   3.862 -0.2824  1.3324 -0.3361
 7786SOL    HW234818   4.572   1.108   3.778  0.9648 -0.0537 -0.8799
 7787SOL     OW34819   4.159   3.760   5.385  0.2506 -0.3001  0.5072
 7787SOL    HW134820   4.115   3.797   5.462 -0.1262 -0.1720  0.2334
 7787SOL    HW234821   4.237   3.815   5.380  1.2143 -1.8722 -1.6749
 7788SOL     OW34822   3.875   1.867  10.685  0.4173 -0.1079  0.8188
 7788SOL    HW134823   3.914   1.953  10.667 -1.2570  0.0737 -1.8746
 7788SOL    HW234824   3.872   1.828  10.598 -0.8627  0.4866  0.6100
 7789SOL     OW34825   1.066   1.637   8.949  0.5823 -0.8284 -0.0138
 7789SOL    HW134826   1.067   1.565   8.886 -2.1125 -0.5344 -0.3781
 7789SOL    HW234827   1.091   1.583   9.023  0.8731 -1.0657 -0.2862
 7790SOL     OW34828   0.014   1.294   2.704  0.3473 -0.5506  0.1058
 7790SOL    HW134829   0.005   1.303   2.609  1.9400 -0.5968 -0.0462
 7790SOL    HW234830   0.108   1.286   2.713  0.3903  0.9029  0.9381
 7791SOL     OW34831   0.403   2.332   6.636 -0.4023  0.2391  0.3391
 7791SOL    HW134832   0.415   2.237   6.643  1.2134  0.2444 -2.3049
 7791SOL    HW234833   0.379   2.347   6.544  1.5480  1.8580  0.1187
 7792SOL     OW34834   3.130   0.726   8.750 -0.8639  0.0056 -0.2483
 7792SOL    HW134835   3.192   0.657   8.726  0.3659  0.8470  0.5315
 7792SOL    HW234836   3.153   0.720   8.843 -2.7791 -3.1656  0.0583
 7793SOL     OW34837   4.241   3.716   8.340  0.7072 -1.0211 -0.3048
 7793SOL    HW134838   4.154   3.690   8.371  1.0501 -4.1925 -2.0839
 7793SOL    HW234839   4.233   3.760   8.255 -1.4354  0.6538  0.7554
 7794SOL     OW34840   3.307   1.733  13.780  0.1555  0.2595  0.1657
 7794SOL    HW134841   3.336   1.820  13.805  0.9424  0.1511 -0.3547
 7794SOL    HW234842   3.342   1.714  13.693  0.6326 -0.6416  0.5482
 7795SOL     OW34843   3.197   1.093   9.452 -0.3906  0.3046 -0.0434
 7795SOL    HW134844   3.155   1.030   9.510 -0.8826  1.7429  1.1783
 7795SOL    HW234845   3.260   1.136   9.509  1.0176 -1.5180 -0.2179
 7796SOL     OW34846   3.184   2.891   5.830  0.1658 -0.8685  0.1835
 7796SOL    HW134847   3.251   2.895   5.762  0.5427 -1.8274  0.4955
 7796SOL    HW234848   3.175   2.796   5.838  0.1262 -0.8671  0.1562
 7797SOL     OW34849   0.910   2.007   4.510 -0.1508 -0.3030 -0.3581
 7797SOL    HW134850   0.999   2.009   4.475 -1.2700  3.0958 -2.9756
 7797SOL    HW234851   0.926   1.937   4.573  3.3586  1.8464  1.1802
 7798SOL     OW34852   4.243   2.980  16.664 -0.7167 -0.3523 -0.2974
 7798SOL    HW134853   4.292   3.027  16.732 -0.6323  0.4007 -0.8690
 7798SOL    HW234854   4.214   3.051  16.606 -0.6987  0.3496  0.5456
 7799SOL     OW34855   4.307   3.436   7.357  0.0190  0.4774  0.0982
 7799SOL    HW134856   4.226   3.478   7.327 -0.3194 -0.5846 -0.4925
 7799SOL    HW234857   4.375   3.499   7.336 -0.2621  0.6256 -0.3665
 7800SOL     OW34858   3.098   0.299   6.984  0.2917 -0.1891  0.4212
 7800SOL    HW134859   3.120   0.275   6.894 -2.3856 -2.3462  0.3219
 7800SOL    HW234860   3.186   0.313   7.019 -0.6238  1.3022  2.1028
 7801SOL     OW34861   3.385   1.665  15.978 -0.3377 -0.2732 -0.3504
 7801SOL    HW134862   3.298   1.705  15.979  0.3812  1.3489 -1.6287
 7801SOL    HW234863   3.365   1.575  15.953  1.6287  0.1759 -3.5753
 7802SOL     OW34864   0.821   2.435   3.590  0.1018  0.1847 -0.2870
 7802SOL    HW134865   0.867   2.519   3.597 -1.6372  1.0892  0.3238
 7802SOL    HW234866   0.765   2.449   3.666 -0.6544  0.9124 -0.9787
 7803SOL     OW34867   0.189   2.022   0.795 -0.7659  0.0001 -0.0919
 7803SOL    HW134868   0.135   2.019   0.874  0.0482  2.1511  0.5320
 7803SOL    HW234869   0.128   2.060   0.732 -1.2179 -0.7895 -0.1326
 7804SOL     OW34870   0.685   4.374  12.032  0.0347  0.3176 -0.2654
 7804SOL    HW134871   0.751   4.336  11.974  0.4724  0.1487  0.3393
 7804SOL    HW234872   0.661   4.297  12.084 -0.1995  0.5039 -0.0928
 7805SOL     OW34873   0.510   0.408   9.319  0.2842 -0.0400  0.4258
 7805SOL    HW134874   0.550   0.321   9.318  0.3408 -0.0075 -0.1632
 7805SOL    HW234875   0.541   0.459   9.244  0.1498  1.9939  1.7497
 7806SOL     OW34876   0.799   3.958   7.386 -0.3569  0.1565 -0.2195
 7806SOL    HW134877   0.841   3.887   7.436 -1.2111  0.0665  0.3683
 7806SOL    HW234878   0.726   3.911   7.345  0.6036 -2.1599  0.6870
 7807SOL     OW34879   2.018   1.956  12.781 -0.8128  0.4971  0.3580
 7807SOL    HW134880   2.073   2.005  12.721  0.5773 -1.1832  0.2757
 7807SOL    HW234881   1.984   2.022  12.842 -0.1990  0.9416  0.2180
 7808SOL     OW34882   0.843   4.159   6.764  0.7421 -0.3436 -0.1679
 7808SOL    HW134883   0.799   4.244   6.756 -0.2642 -0.7937  0.5845
 7808SOL    HW234884   0.890   4.163   6.680  2.8711 -2.2608  0.9527
 7809SOL     OW34885   2.837   2.052  12.252  0.3025  0.2735 -0.3452
 7809SOL    HW134886   2.854   2.066  12.345  4.7002 -0.7440 -0.9692
 7809SOL    HW234887   2.866   2.138  12.222 -2.2839  0.3378 -2.5846
 7810SOL     OW34888   4.500   0.781   5.253 -0.5994 -0.3460 -0.5777
 7810SOL    HW134889   4.466   0.828   5.329  1.9915  1.9077 -0.8282
 7810SOL    HW234890   4.582   0.829   5.240 -0.6755  0.5873  2.5494
 7811SOL     OW34891   0.519   0.875  12.182  0.1056  0.1341 -0.3608
 7811SOL    HW134892   0.556   0.914  12.262 -1.3316  1.4564 -0.3341
 7811SOL    HW234893   0.567   0.794  12.168  1.1387  1.1016 -2.3059
 7812SOL     OW34894   1.670   0.613  17.219 -0.1659 -0.2632  0.5012
 7812SOL    HW134895   1.583   0.591  17.253 -0.0956  0.8859  1.4419
 7812SOL    HW234896   1.724   0.544  17.257 -1.7268 -1.6733  0.1592
 7813SOL     OW34897   4.302   2.562   3.416  0.7909  0.5038 -0.7105
 7813SOL    HW134898   4.236   2.627   3.439 -1.4555 -1.8567 -0.4895
 7813SOL    HW234899   4.306   2.564   3.320 -1.6416  1.9713 -0.7903
 7814SOL     OW34900   0.376   0.388   9.660 -0.6467  0.0916 -0.0545
 7814SOL    HW134901   0.384   0.306   9.612 -2.1645 -0.2645  0.3052
 7814SOL    HW234902   0.296   0.431   9.630 -1.9428 -1.8609  0.6061
 7815SOL     OW34903   2.717   0.499   7.643 -0.1082 -0.6665  0.2191
 7815SOL    HW134904   2.697   0.590   7.664 -0.7596 -1.1021  1.4912
 7815SOL    HW234905   2.635   0.463   7.609  0.1343 -1.0044 -0.0100
 7816SOL     OW34906   0.134   0.038   4.369  0.2785  0.0878 -0.2982
 7816SOL    HW134907   0.135   4.685   4.426  0.0664 -0.6062 -1.2164
 7816SOL    HW234908   0.098   4.719   4.291  0.6681 -1.2723  0.2638
 7817SOL     OW34909   3.178   4.336   0.078  0.1217  0.3478  0.2781
 7817SOL    HW134910   3.201   4.424   0.051 -2.0266  0.3291 -1.6874
 7817SOL    HW234911   3.251   4.312   0.134 -0.9793  0.2247  1.6711
 7818SOL     OW34912   2.720   4.117   3.628  0.2863  0.1534  0.2125
 7818SOL    HW134913   2.741   4.117   3.722 -2.2123 -2.8741  0.7807
 7818SOL    HW234914   2.625   4.126   3.626  0.4559  2.0049  0.6352
 7819SOL     OW34915   2.875   1.603  14.052 -0.0076  0.5468  0.1886
 7819SOL    HW134916   2.937   1.533  14.072  0.0884  0.0746 -1.8254
 7819SOL    HW234917   2.924   1.651  13.985  0.2847  2.0946  1.4907
 7820SOL     OW34918   4.029   2.704   3.225 -0.0188  0.0617 -0.3311
 7820SOL    HW134919   4.082   2.747   3.292 -1.9984 -1.1580  2.0212
 7820SOL    HW234920   4.001   2.777   3.169 -1.2442 -2.4922 -3.0676
 7821SOL     OW34921   1.845   1.610   4.854  0.3856  0.1188 -0.3653
 7821SOL    HW134922   1.791   1.678   4.894 -1.1129 -1.3512  0.1183
 7821SOL    HW234923   1.896   1.665   4.795 -1.9797 -0.5809 -3.0681
 7822SOL     OW34924   4.455   3.756   0.157  0.4041 -0.2084 -0.1015
 7822SOL    HW134925   4.494   3.839   0.127 -2.2190  0.4214 -1.7634
 7822SOL    HW234926   4.370   3.770   0.115  1.6091  1.3494 -2.0452
 7823SOL     OW34927   3.924   3.352  16.584 -0.4202 -0.2337  0.4058
 7823SOL    HW134928   3.842   3.375  16.541 -0.5995 -0.8779  0.3982
 7823SOL    HW234929   3.891   3.348  16.674  1.0177 -1.7884  0.8669
 7824SOL     OW34930   1.489   3.816  12.682  0.7536  0.2563 -0.4959
 7824SOL    HW134931   1.405   3.846  12.649  0.3783  1.0265  1.1887
 7824SOL    HW234932   1.535   3.813  12.598  3.0647 -1.3556  0.8327
 7825SOL     OW34933   3.732   0.314   5.230  0.1139 -0.8124  0.2086
 7825SOL    HW134934   3.762   0.234   5.186  1.6234  0.5849 -1.2865
 7825SOL    HW234935   3.638   0.299   5.235 -0.2995  1.0732 -1.9329
 7826SOL     OW34936   0.758   2.797   3.746  0.4925 -0.1091  0.0101
 7826SOL    HW134937   0.689   2.823   3.685  0.3740  3.0369  1.5086
 7826SOL    HW234938   0.723   2.713   3.775  2.2105 -0.2982  1.5689
 7827SOL     OW34939   3.943   3.365   5.209 -0.7971 -0.1096  0.3964
 7827SOL    HW134940   4.024   3.408   5.182  1.1706 -3.0000  1.7208
 7827SOL    HW234941   3.891   3.348   5.130 -0.1193  0.5171 -0.1902
 7828SOL     OW34942   3.123   3.098   4.059 -0.1644  0.1448  0.4789
 7828SOL    HW134943   3.141   3.033   4.128  0.2457 -0.4871 -0.2207
 7828SOL    HW234944   3.213   3.130   4.064  0.6217 -1.6709 -1.8543
 7829SOL     OW34945   1.699   4.353   3.041  0.3497  0.6477 -0.0594
 7829SOL    HW134946   1.627   4.416   3.036 -0.3576 -0.1794 -0.4188
 7829SOL    HW234947   1.754   4.382   3.114  0.0512  0.5879  0.1944
 7830SOL     OW34948   1.251   4.248   4.126 -0.3336 -0.4412  0.5992
 7830SOL    HW134949   1.210   4.164   4.148 -1.3439 -0.3627 -1.0353
 7830SOL    HW234950   1.182   4.309   4.152 -0.8682 -0.2184 -1.3959
 7831SOL     OW34951   0.450   4.183   6.894 -0.5937  0.3134  0.1637
 7831SOL    HW134952   0.465   4.238   6.971 -1.3952  0.1260  0.4570
 7831SOL    HW234953   0.356   4.167   6.906 -0.7767  0.0034 -1.7537
 7832SOL     OW34954   3.992   0.679  10.898 -0.3376  0.4762 -0.0707
 7832SOL    HW134955   3.918   0.673  10.959  0.2902  0.4703  0.6935
 7832SOL    HW234956   3.969   0.626  10.822 -2.3393  1.8574 -0.4209
 7833SOL     OW34957   4.384   1.688   7.430  0.1846 -0.0427 -0.2353
 7833SOL    HW134958   4.292   1.670   7.449  0.1776 -0.8635 -0.9849
 7833SOL    HW234959   4.428   1.632   7.494 -0.4922  0.2887  0.5148
 7834SOL     OW34960   1.944   3.995   4.525 -0.2233 -0.1203  0.1410
 7834SOL    HW134961   2.010   3.927   4.539  2.2353  2.7746  2.5044
 7834SOL    HW234962   1.998   4.074   4.529 -0.4328  0.1288 -1.9763
 7835SOL     OW34963   1.184   2.936  15.684  0.3011 -0.2975  0.4386
 7835SOL    HW134964   1.162   2.888  15.605 -0.9609  1.1564 -0.1010
 7835SOL    HW234965   1.224   2.864  15.733 -1.2775  0.1984  2.4798
 7836SOL     OW34966   2.937   3.049   3.855  0.3920 -0.3606 -0.8174
 7836SOL    HW134967   2.988   3.092   3.923  0.0339 -1.8925  0.4166
 7836SOL    HW234968   2.867   3.114   3.850  0.7763  0.0087 -1.3841
 7837SOL     OW34969   1.908   3.413  10.283  0.1191  0.2979  0.5296
 7837SOL    HW134970   1.846   3.352  10.243  1.5430 -1.1705  0.5750
 7837SOL    HW234971   1.903   3.489  10.224  2.1901  0.9064  1.1523
 7838SOL     OW34972   0.890   4.646   9.611 -0.5802 -0.5861 -0.1368
 7838SOL    HW134973   0.897   4.612   9.522  0.0433  0.9566 -0.6719
 7838SOL    HW234974   0.935   4.573   9.654 -2.3675 -2.5166 -1.5365
 7839SOL     OW34975   3.608   2.811   8.490 -0.5217 -0.2288  0.2676
 7839SOL    HW134976   3.578   2.762   8.413 -2.8191 -0.4319  1.2912
 7839SOL    HW234977   3.657   2.742   8.536 -0.0889 -0.6059 -0.7673
 7840SOL     OW34978   2.014   3.699   7.852  0.2889 -0.0833  0.1039
 7840SOL    HW134979   2.096   3.717   7.806  0.9561 -1.6116  0.6823
 7840SOL    HW234980   2.047   3.675   7.938 -1.0317  1.0500  0.9227
 7841SOL     OW34981   3.554   1.683  14.688 -0.0410 -0.4643 -0.8090
 7841SOL    HW134982   3.594   1.762  14.725  1.9082 -1.6204 -0.4325
 7841SOL    HW234983   3.510   1.735  14.620  2.0791  1.0647 -1.0456
 7842SOL     OW34984   3.472   1.752   4.123  0.1120  0.6170 -0.6819
 7842SOL    HW134985   3.443   1.661   4.133  1.0194  0.5412  1.3296
 7842SOL    HW234986   3.475   1.752   4.027 -3.1734 -0.2065 -0.7637
 7843SOL     OW34987   1.611   0.290   8.839  0.0104 -0.3488  0.5920
 7843SOL    HW134988   1.620   0.364   8.779  1.5227 -0.6589  0.4354
 7843SOL    HW234989   1.650   0.217   8.790  0.0959  0.2153 -0.1855
 7844SOL     OW34990   3.443   4.566   2.357  0.4495 -0.4800  0.7191
 7844SOL    HW134991   3.493   4.623   2.299 -0.3633  0.4748  0.9535
 7844SOL    HW234992   3.383   4.532   2.291 -0.5065  1.0487  0.7946
 7845SOL     OW34993   1.561   1.903   6.618 -0.1739 -0.4434 -0.2234
 7845SOL    HW134994   1.591   1.986   6.581 -0.6651  0.4779  1.4340
 7845SOL    HW234995   1.647   1.861   6.611  0.1587  0.2973 -0.5707
 7846SOL     OW34996   2.902   2.833  14.356  0.6606  0.3952  0.3268
 7846SOL    HW134997   2.988   2.831  14.314 -0.1285  0.1276 -1.2748
 7846SOL    HW234998   2.849   2.892  14.302  0.3843 -0.5955 -0.4804
 7847SOL     OW34999   0.060   1.275   3.065 -0.3631  0.0468 -0.5378
 7847SOL    HW135000   4.703   1.312   3.102 -0.7663  0.8535 -2.2193
 7847SOL    HW235001   0.090   1.348   3.011 -0.4015  0.5192  0.0716
 7848SOL     OW35002   2.562   2.206  10.419  0.2088  0.1130 -0.0222
 7848SOL    HW135003   2.603   2.161  10.345  1.2311  1.7514 -0.4646
 7848SOL    HW235004   2.520   2.275  10.367 -0.1403 -1.4771 -1.8851
 7849SOL     OW35005   1.036   1.408   4.627  0.3710 -0.1826 -0.4519
 7849SOL    HW135006   1.042   1.362   4.543  2.0194  4.0711 -2.6303
 7849SOL    HW235007   1.124   1.446   4.634  0.4125  0.2698 -3.4350
 7850SOL     OW35008   0.798   2.839  15.434  0.3568 -0.2566 -0.3112
 7850SOL    HW135009   0.757   2.778  15.494  0.5724 -2.9311 -2.8559
 7850SOL    HW235010   0.736   2.910  15.420  0.4545  0.0170  0.6914
 7851SOL     OW35011   2.692   1.872   3.056 -0.4422  0.3518  0.1995
 7851SOL    HW135012   2.784   1.878   3.084 -0.1850 -1.2430 -0.3134
 7851SOL    HW235013   2.670   1.965   3.049 -0.0416  0.4436  0.1614
 7852SOL     OW35014   1.198   1.961   8.193  0.1006  0.2360 -0.0812
 7852SOL    HW135015   1.205   2.054   8.214  2.2989  0.1467 -0.4156
 7852SOL    HW235016   1.285   1.945   8.157  1.2930  1.1773  2.3503
 7853SOL     OW35017   2.122   4.361   9.631 -0.0105 -0.0521 -0.2930
 7853SOL    HW135018   2.120   4.317   9.546 -1.3263 -1.2397  0.3399
 7853SOL    HW235019   2.039   4.408   9.625 -0.0632  0.0126  0.9813
 7854SOL     OW35020   3.967   1.965   3.436  0.2521  0.5827  0.0647
 7854SOL    HW135021   3.968   1.901   3.365  0.2575  1.2563 -0.5505
 7854SOL    HW235022   3.880   2.005   3.424 -0.1971 -0.6737 -0.8370
 7855SOL     OW35023   2.412   0.853   7.918 -0.7325  0.4492 -0.3208
 7855SOL    HW135024   2.454   0.906   7.986 -3.2216  1.1374  0.7076
 7855SOL    HW235025   2.359   0.918   7.872 -0.8348  0.8967  0.4310
 7856SOL     OW35026   2.587   3.966  11.672  0.0790 -1.0232  0.0993
 7856SOL    HW135027   2.493   3.971  11.655  0.3789  2.5351 -0.6301
 7856SOL    HW235028   2.602   4.056  11.643  0.7500 -1.0169  0.4664
 7857SOL     OW35029   3.930   1.511   7.662  0.6496  0.0201  0.1430
 7857SOL    HW135030   3.970   1.425   7.676 -1.6279 -0.5369  3.3206
 7857SOL    HW235031   3.893   1.521   7.750  0.3442 -1.6018  0.2083
 7858SOL     OW35032   1.774   0.336   9.945 -0.7783  0.1994 -0.3833
 7858SOL    HW135033   1.830   0.319   9.869 -1.2488  1.5343 -1.0244
 7858SOL    HW235034   1.699   0.372   9.898 -0.8569 -2.9229 -2.6611
 7859SOL     OW35035   3.749   1.083  17.129  0.2705 -0.2099  0.4299
 7859SOL    HW135036   3.758   1.178  17.127  0.0038 -0.1868  0.3633
 7859SOL    HW235037   3.694   1.065  17.205  1.2229 -0.2141  1.1164
 7860SOL     OW35038   4.263   2.088   5.338 -0.2991  0.3859  0.2900
 7860SOL    HW135039   4.180   2.136   5.335 -0.5217 -0.0235 -0.0745
 7860SOL    HW235040   4.285   2.132   5.420  0.3504  2.2249 -0.8857
 7861SOL     OW35041   2.944   3.836   5.883  0.0393  0.1711 -0.1212
 7861SOL    HW135042   2.933   3.777   5.809 -0.3161 -0.0629  0.1226
 7861SOL    HW235043   2.888   3.800   5.952 -1.9995 -0.1612 -1.9398
 7862SOL     OW35044   3.530   0.330   5.482  0.6656 -0.1772  0.4112
 7862SOL    HW135045   3.468   0.270   5.521  2.1377 -1.8235  0.2353
 7862SOL    HW235046   3.491   0.338   5.395  2.2795 -1.9290 -0.4854
 7863SOL     OW35047   0.757   0.172   2.201 -0.5634  0.3536 -0.1269
 7863SOL    HW135048   0.833   0.224   2.174 -1.0647  0.6844 -0.9084
 7863SOL    HW235049   0.805   0.094   2.228  0.8389  1.6014  1.0265
 7864SOL     OW35050   3.242   0.477   5.340 -0.4106 -0.0575  0.1686
 7864SOL    HW135051   3.157   0.471   5.297 -0.0244 -0.1616 -0.5913
 7864SOL    HW235052   3.249   0.383   5.356  0.5597  0.4408  2.6239
 7865SOL     OW35053   3.227   4.055   2.703  0.8142  0.6469  0.0243
 7865SOL    HW135054   3.231   4.031   2.796 -0.4407  1.8669  0.3862
 7865SOL    HW235055   3.317   4.039   2.676  0.4246 -0.2919 -0.7092
 7866SOL     OW35056   1.620   2.742   4.091 -0.1143 -0.3577  0.1676
 7866SOL    HW135057   1.588   2.788   4.013  1.8638 -1.3176 -1.2045
 7866SOL    HW235058   1.715   2.753   4.098 -0.4311  0.8906  2.4403
 7867SOL     OW35059   2.203   4.202   7.470 -0.1553 -0.2231 -0.3378
 7867SOL    HW135060   2.225   4.268   7.405 -0.1272  0.4350  0.3490
 7867SOL    HW235061   2.274   4.147   7.436 -1.5229 -1.7700 -0.7482
 7868SOL     OW35062   0.965   3.891  14.506 -0.3041 -0.3404 -0.1344
 7868SOL    HW135063   0.904   3.852  14.443 -3.3288  1.8239  1.4702
 7868SOL    HW235064   0.979   3.978  14.468 -0.6411 -0.3480 -0.2826
 7869SOL     OW35065   1.528   2.179   0.900 -0.2060 -0.3051 -0.2310
 7869SOL    HW135066   1.486   2.175   0.814  3.2428  2.2199 -2.0496
 7869SOL    HW235067   1.453   2.168   0.959 -0.3720 -3.5618 -1.0501
 7870SOL     OW35068   1.901   3.105   2.283 -0.0007  0.1282 -0.1461
 7870SOL    HW135069   1.821   3.157   2.271  0.6078  0.7496 -1.5404
 7870SOL    HW235070   1.919   3.094   2.190  0.6486  1.0704 -0.1339
 7871SOL     OW35071   3.166   0.271   6.726  0.2030  0.9518  1.0941
 7871SOL    HW135072   3.135   0.259   6.636 -1.2952 -1.3555  1.9239
 7871SOL    HW235073   3.231   0.337   6.702  2.0108 -0.7956  1.2336
 7872SOL     OW35074   4.424   1.547   8.972  0.0102  0.4491 -0.1771
 7872SOL    HW135075   4.386   1.459   8.981 -0.3608  0.5599 -0.6277
 7872SOL    HW235076   4.492   1.549   9.040 -0.0271 -1.8858 -0.0793
 7873SOL     OW35077   2.474   1.442   8.240 -0.1412  0.5327 -0.1870
 7873SOL    HW135078   2.406   1.508   8.250 -1.2312 -0.5985 -0.2216
 7873SOL    HW235079   2.533   1.483   8.303 -0.1143  1.0088 -0.5190
 7874SOL     OW35080   4.231   1.718   5.089  0.0966 -0.1046  0.0209
 7874SOL    HW135081   4.176   1.738   5.165 -3.1939  0.8299 -2.6039
 7874SOL    HW235082   4.229   1.799   5.037 -0.5568 -1.1032 -1.5157
 7875SOL     OW35083   4.129   4.162   6.637 -0.1171 -0.3381  0.3838
 7875SOL    HW135084   4.035   4.179   6.633  0.7607  3.9428 -1.9055
 7875SOL    HW235085   4.128   4.073   6.600  0.9034 -1.0762  2.0926
 7876SOL     OW35086   2.326   4.412  17.646  0.3117 -0.6846 -0.2869
 7876SOL    HW135087   2.348   4.329  17.603 -1.2160 -0.6293 -1.1554
 7876SOL    HW235088   2.407   4.436  17.693  0.2661 -2.2044  0.5979
 7877SOL     OW35089   4.548   0.874   9.942 -0.1448 -0.2175 -0.4329
 7877SOL    HW135090   4.500   0.876  10.025  1.1831 -0.5009  0.3339
 7877SOL    HW235091   4.632   0.914   9.962 -1.0734  1.7503 -0.4512
 7878SOL     OW35092   0.021   3.881   5.192  0.3820  0.4352 -0.8779
 7878SOL    HW135093   0.001   3.939   5.265  1.1427  0.1521 -0.4423
 7878SOL    HW235094   4.671   3.898   5.134  0.8592  1.5918 -1.1516
 7879SOL     OW35095   4.456   1.209   9.880  0.0150 -0.3139 -0.0122
 7879SOL    HW135096   4.429   1.300   9.869  1.2019  0.2691  1.8903
 7879SOL    HW235097   4.399   1.181   9.951 -2.4429  1.7110 -1.1797
 7880SOL     OW35098   3.795   1.071   1.887 -0.1458 -0.2730  0.7496
 7880SOL    HW135099   3.849   1.108   1.956  0.4988 -0.0597  0.1261
 7880SOL    HW235100   3.715   1.111   1.922 -1.4740 -0.6190 -1.9095
 7881SOL     OW35101   2.206   1.279  16.199  0.1110  0.3306 -0.5429
 7881SOL    HW135102   2.153   1.345  16.154 -0.5070  0.5587  0.5273
 7881SOL    HW235103   2.232   1.325  16.279  0.7374  1.6464 -1.4982
 7882SOL     OW35104   0.752   2.000   0.818 -0.1112  0.3094  0.1914
 7882SOL    HW135105   0.698   2.040   0.750  0.7192  0.2206 -0.5146
 7882SOL    HW235106   0.819   2.064   0.842 -1.6868  1.0630  2.6728
 7883SOL     OW35107   1.235   4.598   5.020 -0.1231 -0.5645 -0.2400
 7883SOL    HW135108   1.300   4.661   5.051 -2.0557  1.1913  0.2023
 7883SOL    HW235109   1.213   4.640   4.937 -0.6767 -1.4705 -0.5477
 7884SOL     OW35110   4.537   3.941   3.001  0.5801 -0.2946  0.2534
 7884SOL    HW135111   4.467   3.981   2.950  0.4201 -0.4773  0.3326
 7884SOL    HW235112   4.586   4.022   3.015 -1.8155  1.7417 -3.3381
 7885SOL     OW35113   4.280   2.462   6.125  0.4555 -0.2481  0.4535
 7885SOL    HW135114   4.229   2.531   6.082  1.5804  1.4650  1.8808
 7885SOL    HW235115   4.344   2.521   6.166  0.1605 -0.3238  1.0213
 7886SOL     OW35116   3.906   0.390   5.406  0.9661 -0.3065 -0.4785
 7886SOL    HW135117   3.934   0.478   5.380 -0.7167  0.2951 -0.2608
 7886SOL    HW235118   3.854   0.355   5.334  0.4380  4.5560 -2.4953
 7887SOL     OW35119   0.406   1.957   6.369 -0.5631  0.1015  0.1525
 7887SOL    HW135120   0.343   1.901   6.414 -2.2331 -0.8796 -3.4195
 7887SOL    HW235121   0.408   1.936   6.275  0.3836  0.3618  0.1089
 7888SOL     OW35122   1.173   3.139  16.519  0.1179 -0.0383 -0.0351
 7888SOL    HW135123   1.136   3.227  16.525  0.0006 -0.0493 -0.5964
 7888SOL    HW235124   1.197   3.131  16.612  1.8978  0.3123 -0.4592
 7889SOL     OW35125   3.918   2.775  10.955  0.4527 -0.6552 -1.0319
 7889SOL    HW135126   3.985   2.795  10.889  1.7893 -0.4695  0.3529
 7889SOL    HW235127   3.839   2.763  10.903  0.5843  1.6737 -1.7897
 7890SOL     OW35128   2.723   2.282   8.973  0.9009  0.4934 -0.0519
 7890SOL    HW135129   2.731   2.206   8.915  0.0602 -1.1840  2.0632
 7890SOL    HW235130   2.651   2.268   9.035  0.8954  2.1215  0.3010
 7891SOL     OW35131   4.019   3.524   4.521 -0.2063  0.5159 -0.2513
 7891SOL    HW135132   3.939   3.499   4.567  0.2669 -0.6420 -0.0594
 7891SOL    HW235133   4.082   3.458   4.550 -0.6066  0.2179 -0.0663
 7892SOL     OW35134   1.519   2.760   3.600 -0.0432 -0.6408 -0.5033
 7892SOL    HW135135   1.597   2.716   3.568  0.5433 -1.1151  1.5655
 7892SOL    HW235136   1.474   2.774   3.517  0.8644 -0.8762 -1.0278
 7893SOL     OW35137   3.362   0.361   2.516  0.0754 -0.0885  0.2332
 7893SOL    HW135138   3.419   0.306   2.569  0.9940 -0.7303 -1.4024
 7893SOL    HW235139   3.419   0.433   2.492 -1.0124  0.4316 -0.8085
 7894SOL     OW35140   1.930   0.601   5.045  0.5480 -0.1544 -0.1079
 7894SOL    HW135141   1.892   0.514   5.054  2.8905 -0.9301  2.1888
 7894SOL    HW235142   1.987   0.582   4.970  1.8102  1.2746  0.4782
 7895SOL     OW35143   3.632   2.287   7.422  1.0139  0.0151  0.1272
 7895SOL    HW135144   3.647   2.219   7.487  2.8694 -1.0081 -1.3597
 7895SOL    HW235145   3.689   2.361   7.446 -1.1136  1.4472  0.7346
 7896SOL     OW35146   0.490   3.607   9.298  0.1700  0.0876 -0.5982
 7896SOL    HW135147   0.523   3.696   9.283 -1.1528  1.0205  2.0735
 7896SOL    HW235148   0.405   3.604   9.255  0.0529 -2.0024 -0.2302
 7897SOL     OW35149   3.127   0.348   6.283  0.3080  0.0778 -0.3216
 7897SOL    HW135150   3.222   0.339   6.285  0.3645  1.0780  2.1800
 7897SOL    HW235151   3.103   0.429   6.239  0.7815  0.0162 -0.6866
 7898SOL     OW35152   4.583   1.691   8.559 -0.1578 -0.2845  0.2568
 7898SOL    HW135153   4.675   1.664   8.568  0.2568  0.2100 -2.4475
 7898SOL    HW235154   4.574   1.757   8.628 -1.3782 -1.5400  1.2895
 7899SOL     OW35155   4.711   3.397  11.989  0.4138  0.9355 -0.3132
 7899SOL    HW135156   4.706   3.424  12.081 -0.9410 -1.4625  0.3203
 7899SOL    HW235157   0.019   3.307  12.002  1.2332  1.4600  1.3233
 7900SOL     OW35158   3.165   1.817  10.782 -0.6931 -0.6753  0.2080
 7900SOL    HW135159   3.082   1.809  10.735  0.1907  1.8378 -1.7650
 7900SOL    HW235160   3.183   1.725  10.804 -1.3295 -1.3004 -1.8243
 7901SOL     OW35161   3.038   2.564  14.366 -0.2355 -0.3121 -0.3232
 7901SOL    HW135162   2.966   2.627  14.377  0.0153  0.1729 -1.4535
 7901SOL    HW235163   3.045   2.537  14.457 -0.0124  0.5160 -0.0945
 7902SOL     OW35164   0.330   3.226   7.983  0.2443  0.3040  0.2978
 7902SOL    HW135165   0.237   3.224   8.003  0.2835  0.7338  0.5360
 7902SOL    HW235166   0.330   3.158   7.916  1.3193  0.4714  0.1193
 7903SOL     OW35167   3.014   1.853  11.856  0.0643  0.4614 -0.0767
 7903SOL    HW135168   2.957   1.799  11.910 -1.1997  0.0008 -1.8914
 7903SOL    HW235169   2.955   1.916  11.814  0.1659  0.0711 -0.8038
 7904SOL     OW35170   0.084   3.140   5.247  0.2976  0.2884  0.4433
 7904SOL    HW135171   0.013   3.079   5.266 -0.2908  0.3412 -1.5829
 7904SOL    HW235172   0.046   3.227   5.237 -0.4419 -0.1630 -0.7129
 7905SOL     OW35173   4.462   0.235   2.878  0.0921 -0.3885 -0.4188
 7905SOL    HW135174   4.460   0.298   2.806  1.4538  1.2295  0.9309
 7905SOL    HW235175   4.532   0.266   2.936 -0.9327  1.7895 -0.3297
 7906SOL     OW35176   3.487   1.315   9.658 -0.2159 -0.5963  0.1087
 7906SOL    HW135177   3.579   1.309   9.680 -0.4637  0.9151  1.5924
 7906SOL    HW235178   3.445   1.248   9.712  0.8039 -0.5627  0.9319
 7907SOL     OW35179   2.803   3.660   6.077  0.6243  0.4230 -0.1988
 7907SOL    HW135180   2.809   3.712   6.157 -0.6739 -0.8648  0.7425
 7907SOL    HW235181   2.884   3.609   6.087  1.9582  2.6024  0.1417
 7908SOL     OW35182   0.383   3.328   5.458  0.5868 -0.1226  0.4443
 7908SOL    HW135183   0.409   3.313   5.367  0.9004  0.9442  0.3560
 7908SOL    HW235184   0.372   3.423   5.451  1.1257  0.0406  1.8901
 7909SOL     OW35185   1.558   2.242  16.311 -0.2109  0.1476  0.1313
 7909SOL    HW135186   1.517   2.274  16.230  0.1828  1.7089  0.5478
 7909SOL    HW235187   1.637   2.197  16.278  0.0323  2.4645 -2.4456
 7910SOL     OW35188   3.565   2.511   7.747  0.3463 -0.0532 -0.6794
 7910SOL    HW135189   3.510   2.436   7.766  1.2196 -0.1964  1.3120
 7910SOL    HW235190   3.506   2.587   7.745  1.6437  0.9044 -2.2883
 7911SOL     OW35191   3.196   2.717   6.642  0.4526  0.9164 -0.0687
 7911SOL    HW135192   3.142   2.680   6.573  0.6577  2.0438 -0.8258
 7911SOL    HW235193   3.150   2.705   6.726 -1.7903 -1.0247 -1.5696
 7912SOL     OW35194   1.634   2.227   6.240  0.3622 -0.1841 -0.1403
 7912SOL    HW135195   1.659   2.135   6.243  0.6288 -0.0675  1.4099
 7912SOL    HW235196   1.584   2.218   6.159 -0.6131  0.2668  0.4108
 7913SOL     OW35197   3.248   3.065   1.524 -0.3555  0.2987 -0.4819
 7913SOL    HW135198   3.299   3.047   1.603  0.8918  0.4755 -1.2424
 7913SOL    HW235199   3.287   2.996   1.470  0.6576 -0.8703  1.7522
 7914SOL     OW35200   3.809   1.471   6.273  0.4844 -0.4647  0.8849
 7914SOL    HW135201   3.737   1.409   6.280  0.7011 -0.9685 -1.5650
 7914SOL    HW235202   3.884   1.412   6.263  1.2190  0.6686 -0.3218
 7915SOL     OW35203   2.784   4.465   0.584  0.5950  0.2757  0.4632
 7915SOL    HW135204   2.729   4.530   0.540  0.4926 -0.3079 -0.2649
 7915SOL    HW235205   2.766   4.392   0.526 -0.5976  1.6278 -0.8692
 7916SOL     OW35206   1.199   0.880   5.917  0.3402  0.3560 -0.1100
 7916SOL    HW135207   1.229   0.803   5.868  1.3033  0.4412  0.3458
 7916SOL    HW235208   1.110   0.848   5.930 -0.3226  1.4867 -1.7874
 7917SOL     OW35209   2.187   2.081  12.596 -0.1588  0.1187 -0.0710
 7917SOL    HW135210   2.241   2.003  12.584 -1.0464 -0.8344  2.0914
 7917SOL    HW235211   2.187   2.107  12.504  0.1535 -1.1049 -0.4138
 7918SOL     OW35212   4.713   2.817   0.600  0.2981 -0.0488 -0.3050
 7918SOL    HW135213   0.010   2.749   0.665 -1.1421 -1.5712 -1.4363
 7918SOL    HW235214   4.638   2.777   0.555 -1.4886  2.4475  0.4770
 7919SOL     OW35215   2.286   4.592   6.860  0.0842  0.3561  0.0243
 7919SOL    HW135216   2.330   4.677   6.857  0.9086 -0.1048 -1.0157
 7919SOL    HW235217   2.201   4.615   6.897 -1.1932 -1.1870 -2.0004
 7920SOL     OW35218   0.969   2.803   3.526  0.1833 -0.3219 -0.7110
 7920SOL    HW135219   0.928   2.825   3.442 -1.5699 -2.7504 -0.4708
 7920SOL    HW235220   0.889   2.791   3.577 -0.3336  0.7506 -1.2541
 7921SOL     OW35221   3.644   1.895  16.490 -0.0419  0.2785 -0.0755
 7921SOL    HW135222   3.635   1.894  16.394 -0.8599  2.2287 -0.0337
 7921SOL    HW235223   3.738   1.910  16.494 -0.0644  0.9272 -1.8721
 7922SOL     OW35224   0.586   3.456   1.968 -0.5840 -0.1600 -0.0281
 7922SOL    HW135225   0.499   3.434   2.000 -0.9804  1.5935  0.0460
 7922SOL    HW235226   0.583   3.437   1.874 -0.7832 -2.4169  0.4228
 7923SOL     OW35227   4.648   0.865   6.052 -0.4183  0.5830 -0.3093
 7923SOL    HW135228   4.621   0.848   6.142  1.2773  0.9723  0.2869
 7923SOL    HW235229   4.571   0.838   6.003 -1.1643 -0.5209  1.4751
 7924SOL     OW35230   4.300   2.391  12.019 -1.1265  0.7964  0.1712
 7924SOL    HW135231   4.377   2.398  12.075  0.4305 -0.0540 -1.8648
 7924SOL    HW235232   4.328   2.339  11.944 -0.9050 -0.3341  1.0381
 7925SOL     OW35233   3.191   4.571   9.369  0.0737  0.4315  0.4815
 7925SOL    HW135234   3.164   4.562   9.278  1.0206 -1.4627  0.3769
 7925SOL    HW235235   3.109   4.565   9.418 -0.2914 -0.1240 -0.1981
 7926SOL     OW35236   0.968   1.029  10.685  0.2237  0.0511  0.9360
 7926SOL    HW135237   0.900   1.046  10.620 -0.0105 -1.4324  0.7922
 7926SOL    HW235238   0.911   1.003  10.757 -0.2299  1.5820  1.1218
 7927SOL     OW35239   4.273   3.271  13.506  0.0133  0.3190  0.0060
 7927SOL    HW135240   4.212   3.296  13.575 -1.2704  0.3476 -1.1410
 7927SOL    HW235241   4.347   3.322  13.539  0.2544 -1.5229  2.3312
 7928SOL     OW35242   2.598   3.372   1.237  0.1836  0.2332 -0.0712
 7928SOL    HW135243   2.628   3.285   1.265 -0.4324 -0.3117 -1.1186
 7928SOL    HW235244   2.623   3.413   1.320 -3.5556  0.4312  0.9538
 7929SOL     OW35245   0.699   2.072   8.975 -0.1480 -0.1072  0.2588
 7929SOL    HW135246   0.776   2.045   8.924  0.0930  2.0535 -0.5234
 7929SOL    HW235247   0.723   2.077   9.067  0.4046  1.2002  0.0367
 7930SOL     OW35248   1.206   0.628   5.717 -0.3135 -0.0693 -0.2725
 7930SOL    HW135249   1.152   0.551   5.731  1.6539 -1.4156 -0.0523
 7930SOL    HW235250   1.184   0.676   5.637  0.4509 -1.3241 -1.2335
 7931SOL     OW35251   4.683   3.199   6.019 -0.2600  0.5894 -0.1027
 7931SOL    HW135252   0.015   3.238   5.952  0.6915 -1.1242 -0.3210
 7931SOL    HW235253   4.683   3.265   6.088 -3.7760  0.2996  0.1907
 7932SOL     OW35254   4.292   1.305   9.508  0.3808  0.4391  0.1588
 7932SOL    HW135255   4.282   1.380   9.567  0.9950  1.8517 -1.5239
 7932SOL    HW235256   4.381   1.274   9.525  0.2480 -0.8593 -1.4736
 7933SOL     OW35257   0.456   2.725   5.509  0.1061  0.1860  0.0437
 7933SOL    HW135258   0.469   2.704   5.417 -0.0968 -0.5587  0.1771
 7933SOL    HW235259   0.362   2.709   5.522  0.1931 -1.6320 -1.5429
 7934SOL     OW35260   1.852   0.912   9.182  0.1071  0.0562  0.6263
 7934SOL    HW135261   1.907   0.833   9.189  0.4435  0.1314 -1.0306
 7934SOL    HW235262   1.810   0.902   9.267 -1.6550  0.5181 -0.2001
 7935SOL     OW35263   2.517   1.870   7.002 -0.6437 -0.0905 -0.6660
 7935SOL    HW135264   2.601   1.901   6.969 -0.9122 -1.3211 -2.4782
 7935SOL    HW235265   2.503   1.791   6.949  1.0081 -0.9985  0.2264
 7936SOL     OW35266   3.833   2.180   6.593 -0.5239 -0.0113  0.1000
 7936SOL    HW135267   3.811   2.261   6.640  3.0151 -0.0725  1.9168
 7936SOL    HW235268   3.914   2.165   6.642 -1.6279 -0.4774  1.7862
 7937SOL     OW35269   4.363   4.404   8.648 -0.2052 -0.1782  0.2281
 7937SOL    HW135270   4.417   4.327   8.627 -2.6064 -2.3041  1.9106
 7937SOL    HW235271   4.423   4.441   8.712  2.2249  1.0099 -2.7032
 7938SOL     OW35272   4.464   2.739   0.521  0.0140 -0.1925 -0.3336
 7938SOL    HW135273   4.406   2.669   0.552 -1.5136  1.0524 -0.4116
 7938SOL    HW235274   4.418   2.753   0.438  0.5666  3.1757 -0.0496
 7939SOL     OW35275   3.643   0.515  14.987 -0.3393 -0.4333 -0.7236
 7939SOL    HW135276   3.557   0.544  15.018 -0.1133  0.0343 -0.5403
 7939SOL    HW235277   3.692   0.574  15.044 -0.9350  0.6317 -1.3015
 7940SOL     OW35278   4.257   0.913   4.413  1.0048  0.2376  0.5499
 7940SOL    HW135279   4.239   0.864   4.493  0.9139 -1.1683 -0.3261
 7940SOL    HW235280   4.328   0.861   4.376  0.6220 -0.4577  0.7901
 7941SOL     OW35281   2.244   0.960   9.307 -0.1950 -0.1091  0.3182
 7941SOL    HW135282   2.213   0.870   9.317  0.0514 -0.3330 -0.9660
 7941SOL    HW235283   2.189   1.009   9.368  0.6899  1.1786  0.0671
 7942SOL     OW35284   2.825   1.929   4.039  0.8266 -0.4085  0.6341
 7942SOL    HW135285   2.908   1.892   4.009 -0.1531 -1.8920 -0.2598
 7942SOL    HW235286   2.769   1.858   4.007 -1.1750  1.1243  0.7375
 7943SOL     OW35287   2.452   1.265  10.398  0.4762  0.1118 -0.1132
 7943SOL    HW135288   2.431   1.341  10.453  2.6223  0.0637  0.7520
 7943SOL    HW235289   2.547   1.269  10.403  0.4534 -1.0761  1.3727
 7944SOL     OW35290   4.372   0.743   5.578 -0.6677  0.1633  0.0189
 7944SOL    HW135291   4.301   0.712   5.521 -1.0478  2.3456 -0.6779
 7944SOL    HW235292   4.357   0.674   5.643  0.4649  0.1640  0.2766
 7945SOL     OW35293   3.979   2.638   6.565  0.5133 -0.2609 -0.0583
 7945SOL    HW135294   4.064   2.599   6.584 -0.2375 -1.4038  1.0337
 7945SOL    HW235295   4.017   2.716   6.524  0.2481 -1.3795 -2.4677
 7946SOL     OW35296   0.570   1.359   4.865  0.4097  0.2821  0.1376
 7946SOL    HW135297   0.607   1.336   4.780  0.1043 -0.2702  0.1556
 7946SOL    HW235298   0.579   1.276   4.913  0.7408  1.1384  1.5688
 7947SOL     OW35299   4.390   3.675   5.698  0.2041  0.0841 -0.0576
 7947SOL    HW135300   4.400   3.744   5.765 -1.2629  0.6152 -0.3832
 7947SOL    HW235301   4.297   3.655   5.706  0.1621  0.1235 -0.4440
 7948SOL     OW35302   0.294   4.543  16.648  0.2740 -0.0821 -0.1020
 7948SOL    HW135303   0.348   4.617  16.675  0.2477  0.1694 -0.7478
 7948SOL    HW235304   0.352   4.490  16.594 -0.1524 -1.0998  0.4405
 7949SOL     OW35305   2.337   1.462  14.342 -0.4892 -0.2034  0.3103
 7949SOL    HW135306   2.427   1.455  14.374  0.0412  0.6057 -1.0132
 7949SOL    HW235307   2.352   1.514  14.263 -3.0302  1.3338  0.8312
 7950SOL     OW35308   2.557   0.315   3.552 -0.1873 -0.2216 -0.5457
 7950SOL    HW135309   2.651   0.331   3.553 -0.2891  0.5193 -3.3375
 7950SOL    HW235310   2.525   0.322   3.462 -2.4623  1.6151  0.4033
 7951SOL     OW35311   1.397   0.393  15.701 -0.0464  0.3937  0.0559
 7951SOL    HW135312   1.332   0.411  15.769  0.4453  1.0837  0.3381
 7951SOL    HW235313   1.428   0.310  15.738  0.9522  0.8249  0.1940
 7952SOL     OW35314   0.001   0.354   7.322  0.1516  0.1155 -0.4925
 7952SOL    HW135315   0.067   0.342   7.254  2.3015 -1.9425  1.9383
 7952SOL    HW235316   0.048   0.346   7.405 -0.6334  0.5966 -0.0011
 7953SOL     OW35317   3.985   1.141  12.782 -0.1785 -0.0537 -0.7810
 7953SOL    HW135318   3.947   1.056  12.762 -0.5756  0.0505 -0.4668
 7953SOL    HW235319   3.982   1.186  12.698 -0.7291  1.4286  0.0207
 7954SOL     OW35320   4.711   3.543   6.521 -0.3392 -0.0329 -0.4251
 7954SOL    HW135321   4.681   3.453   6.532 -0.5091  0.0240 -0.4195
 7954SOL    HW235322   0.049   3.542   6.594 -0.9056 -2.3625  0.0144
 7955SOL     OW35323   2.125   4.639   4.767  0.4515  0.4081  0.7821
 7955SOL    HW135324   2.203   4.681   4.731  0.4496 -0.2082  0.0530
 7955SOL    HW235325   2.144   4.546   4.754  1.0841  0.4800  1.2175
 7956SOL     OW35326   0.428   1.380  10.344 -0.5703 -0.4593  0.1309
 7956SOL    HW135327   0.381   1.308  10.385  2.9574 -3.2180 -0.6112
 7956SOL    HW235328   0.358   1.444  10.352 -1.2935 -1.4509  1.7081
 7957SOL     OW35329   4.208   0.869  14.611 -0.6221 -0.4610  0.7339
 7957SOL    HW135330   4.219   0.780  14.579 -0.3981 -0.5509  1.0684
 7957SOL    HW235331   4.301   0.890  14.618 -0.3952 -0.4745 -2.1661
 7958SOL     OW35332   1.951   4.245   7.048 -0.5381 -0.0720  0.0878
 7958SOL    HW135333   1.931   4.297   6.970 -2.3673 -1.4021 -0.3166
 7958SOL    HW235334   2.044   4.259   7.069 -0.9476  0.7208  1.3645
 7959SOL     OW35335   1.488   3.862  13.852 -0.3924  0.0512  0.0970
 7959SOL    HW135336   1.415   3.851  13.790 -0.5920  0.6406  0.2188
 7959SOL    HW235337   1.447   3.927  13.909 -0.5342 -0.4375  0.5527
 7960SOL     OW35338   3.547   3.697   6.070  0.1022  0.4100  0.6484
 7960SOL    HW135339   3.463   3.720   6.108  0.4701  2.8325 -0.0146
 7960SOL    HW235340   3.523   3.605   6.060 -0.7259  0.5586  1.2964
 7961SOL     OW35341   3.880   3.402   5.466  0.2419 -0.2855  0.1091
 7961SOL    HW135342   3.887   3.408   5.370 -1.2085 -1.5443 -0.0801
 7961SOL    HW235343   3.974   3.389   5.483 -0.1185 -3.5322 -0.4021
 7962SOL     OW35344   3.877   3.756   0.691  0.0893  0.7308 -0.7710
 7962SOL    HW135345   3.838   3.720   0.612  0.3424 -2.5543  0.6092
 7962SOL    HW235346   3.856   3.692   0.759 -0.6074  2.4511  0.6433
 7963SOL     OW35347   0.490   2.779   4.838 -0.3518 -0.0587  0.3128
 7963SOL    HW135348   0.505   2.688   4.813  0.3330  0.2665 -0.4534
 7963SOL    HW235349   0.415   2.782   4.897 -0.4962  0.8687  0.0808
 7964SOL     OW35350   3.075   2.132   5.997 -0.8788 -0.6853  0.1995
 7964SOL    HW135351   3.120   2.216   6.006  0.9030 -1.5575 -0.5454
 7964SOL    HW235352   3.141   2.072   6.032 -0.3806 -0.0032  0.4301
 7965SOL     OW35353   0.685   1.764  15.709 -0.3528 -0.6505  0.2877
 7965SOL    HW135354   0.727   1.708  15.774  0.9533  0.2273  0.2092
 7965SOL    HW235355   0.723   1.728  15.628 -0.8294 -1.9431  0.6357
 7966SOL     OW35356   3.578   1.576   3.279  0.2002  0.0088  0.3248
 7966SOL    HW135357   3.604   1.514   3.211  0.0303 -1.4031  1.5673
 7966SOL    HW235358   3.487   1.548   3.286  1.4598 -4.2764 -0.5390
 7967SOL     OW35359   3.891   1.052  11.095 -0.3805  0.3168 -0.7330
 7967SOL    HW135360   3.947   0.975  11.088 -0.5533  0.2096 -0.9362
 7967SOL    HW235361   3.919   1.112  11.026 -0.9310  2.6872  1.1200
 7968SOL     OW35362   0.277   3.024   5.720 -0.1401 -0.2562 -0.1138
 7968SOL    HW135363   0.221   3.094   5.688  0.2265  0.3886  0.6337
 7968SOL    HW235364   0.212   2.955   5.731 -1.1900  0.6038 -0.9985
 7969SOL     OW35365   0.989   3.478   1.511  1.0615  0.1494  0.1867
 7969SOL    HW135366   0.915   3.531   1.540  0.4339  0.5569 -2.1952
 7969SOL    HW235367   0.947   3.427   1.442  1.0002 -0.2568  0.5182
 7970SOL     OW35368   0.219   2.596   2.554  0.3983 -0.1251  0.4936
 7970SOL    HW135369   0.291   2.539   2.526 -1.7613 -1.0993 -3.1431
 7970SOL    HW235370   0.152   2.528   2.565 -1.4165  1.5189 -0.3146
 7971SOL     OW35371   2.814   2.183   0.454  0.2146  0.4194 -0.4175
 7971SOL    HW135372   2.801   2.090   0.438  1.7485  0.0094  0.8020
 7971SOL    HW235373   2.891   2.191   0.510 -1.9714  0.8517  2.5310
 7972SOL     OW35374   0.080   0.085   8.499  0.6692 -0.4395  0.2185
 7972SOL    HW135375   0.071   0.178   8.480 -3.1869 -0.7666  0.3991
 7972SOL    HW235376   0.101   0.086   8.592  0.6735 -0.1303  0.2132
 7973SOL     OW35377   0.977   4.298   5.647 -0.3264  0.4084  0.0354
 7973SOL    HW135378   0.981   4.246   5.566 -0.3793  2.7840 -1.4862
 7973SOL    HW235379   1.038   4.248   5.701 -0.1108  2.6037  1.8200
 7974SOL     OW35380   3.506   4.352   5.174  0.5350  0.1279  0.3015
 7974SOL    HW135381   3.571   4.328   5.107 -0.3793 -2.6037  0.3918
 7974SOL    HW235382   3.508   4.278   5.234 -2.1268 -0.2200 -0.0276
 7975SOL     OW35383   3.291   3.048   2.286  0.6091 -0.6560  0.3541
 7975SOL    HW135384   3.230   3.007   2.348 -0.6699 -0.1343 -0.5474
 7975SOL    HW235385   3.366   3.057   2.344 -0.9649  0.0751  2.2838
 7976SOL     OW35386   4.086   0.833   5.437 -0.0692 -0.1028 -0.7630
 7976SOL    HW135387   4.031   0.892   5.385 -1.9675 -1.0472  0.1839
 7976SOL    HW235388   4.066   0.745   5.406 -1.9989  0.9896 -2.6720
 7977SOL     OW35389   0.132   2.875  11.444 -0.3363 -0.4016  0.5034
 7977SOL    HW135390   0.142   2.884  11.538 -1.1332  1.5235  0.4112
 7977SOL    HW235391   0.108   2.782  11.437  0.2795 -0.6580  1.8560
 7978SOL     OW35392   3.194   0.610   8.421  0.1298 -0.3482  0.0323
 7978SOL    HW135393   3.274   0.624   8.472 -1.1330 -0.4600  2.0429
 7978SOL    HW235394   3.139   0.570   8.489  0.8351 -1.9828 -0.3626
 7979SOL     OW35395   3.643   2.510  15.935  0.2817  0.6214 -0.3273
 7979SOL    HW135396   3.676   2.439  15.990 -0.4419  0.5980  0.0758
 7979SOL    HW235397   3.579   2.461  15.883  0.8221 -1.1061  0.6314
 7980SOL     OW35398   2.700   4.492   4.169  0.5515 -0.6301 -0.1769
 7980SOL    HW135399   2.790   4.473   4.141  1.3598  1.8595  0.7626
 7980SOL    HW235400   2.658   4.417   4.127 -0.2694 -0.1253 -0.2390
 7981SOL     OW35401   0.382   1.586   8.992 -0.8061  0.5147 -0.4221
 7981SOL    HW135402   0.470   1.624   8.997 -0.5916 -0.2658  1.6485
 7981SOL    HW235403   0.398   1.526   8.918  4.2907  0.1973  0.9278
 7982SOL     OW35404   4.150   1.444   2.491  0.2360  0.3972  0.2170
 7982SOL    HW135405   4.082   1.467   2.554 -0.9688 -0.3846 -0.7976
 7982SOL    HW235406   4.220   1.420   2.551  0.6182 -1.5727 -0.9714
 7983SOL     OW35407   2.273   3.626   3.550 -0.0346  0.2541  0.1658
 7983SOL    HW135408   2.322   3.560   3.500 -1.2743 -0.6855  0.1867
 7983SOL    HW235409   2.192   3.643   3.502 -0.6739 -1.3411  0.6854
 7984SOL     OW35410   4.086   3.238   4.210 -0.2920 -0.1571  0.6803
 7984SOL    HW135411   4.051   3.151   4.232  0.9408 -0.1950  2.5278
 7984SOL    HW235412   4.073   3.240   4.115  0.4184  1.7110  0.6325
 7985SOL     OW35413   1.441   2.274   0.316  0.5814  0.1632  0.0003
 7985SOL    HW135414   1.507   2.297   0.251  1.3172  1.7067  1.2975
 7985SOL    HW235415   1.385   2.351   0.315  0.5089  0.1145  0.3225
 7986SOL     OW35416   2.029   0.818  16.790 -0.2633 -0.2074  0.2456
 7986SOL    HW135417   2.030   0.806  16.695  0.0519 -0.7759  0.3231
 7986SOL    HW235418   1.951   0.873  16.796 -0.2397 -0.4079  2.2139
 7987SOL     OW35419   4.075   3.340   9.015 -0.2629  0.2997 -0.1476
 7987SOL    HW135420   3.986   3.306   9.002 -0.7361 -0.3233  4.4544
 7987SOL    HW235421   4.125   3.265   8.983 -1.8047 -0.1701 -1.4278
 7988SOL     OW35422   1.503   1.950  12.837 -0.3239  0.0481  0.2043
 7988SOL    HW135423   1.417   1.928  12.872 -1.0247  1.1800 -0.7843
 7988SOL    HW235424   1.519   2.035  12.878 -1.2119 -0.0390  0.7139
 7989SOL     OW35425   0.180   3.634   8.001 -0.3100  0.4086  0.3375
 7989SOL    HW135426   0.173   3.569   8.071  0.7938  1.1809  1.1659
 7989SOL    HW235427   0.272   3.654   7.985  0.3580  0.2502  4.0001
 7990SOL     OW35428   4.544   3.612   1.722 -0.3919  0.1520 -0.1290
 7990SOL    HW135429   4.541   3.669   1.799 -1.0738 -0.3929  0.2449
 7990SOL    HW235430   4.499   3.535   1.754 -0.8503  1.2441  1.8291
 7991SOL     OW35431   3.173   1.256   8.202  0.4114  0.4113  0.0774
 7991SOL    HW135432   3.142   1.214   8.122  0.0189  0.5686  0.1488
 7991SOL    HW235433   3.178   1.186   8.267  0.6007  2.3385  2.1258
 7992SOL     OW35434   4.075   0.823   4.618  0.3620  0.1300 -0.4482
 7992SOL    HW135435   4.035   0.885   4.680 -0.4860 -0.4516 -0.4202
 7992SOL    HW235436   4.009   0.803   4.551 -0.1705  0.4656 -0.0303
 7993SOL     OW35437   3.353   3.765   2.216  0.6366  0.5225 -0.5625
 7993SOL    HW135438   3.257   3.765   2.219  0.5885 -1.3462 -2.3488
 7993SOL    HW235439   3.373   3.855   2.190  2.2707  1.8244  5.0484
 7994SOL     OW35440   2.696   2.225   1.842 -0.1339 -0.2620  0.3977
 7994SOL    HW135441   2.730   2.314   1.837 -2.8361  0.7006 -0.8657
 7994SOL    HW235442   2.621   2.246   1.788  0.5346  1.3981  0.1261
 7995SOL     OW35443   4.295   0.082   6.270 -0.5140 -0.3279  0.7587
 7995SOL    HW135444   4.297   0.095   6.364 -0.2726 -0.4825  0.7722
 7995SOL    HW235445   4.371   0.134   6.245 -0.6487 -0.3789  0.2229
 7996SOL     OW35446   1.475   3.723   2.986 -0.2751 -0.4014  0.0657
 7996SOL    HW135447   1.424   3.779   3.045 -1.4332  1.7575 -2.9715
 7996SOL    HW235448   1.567   3.742   3.008 -0.7613  0.5597  1.2787
 7997SOL     OW35449   3.314   2.965   7.964 -0.2432 -0.1153  0.2026
 7997SOL    HW135450   3.402   2.928   7.967 -0.3343 -0.3528 -0.1173
 7997SOL    HW235451   3.314   3.011   7.880  0.6200  1.4969  1.0776
 7998SOL     OW35452   0.221   2.572   0.571 -0.0253 -0.0954  0.7813
 7998SOL    HW135453   0.147   2.512   0.581 -2.7155  2.9239 -1.0938
 7998SOL    HW235454   0.284   2.520   0.520 -1.3223  0.1744 -1.1263
 7999SOL     OW35455   3.959   1.450   2.674 -0.5096  0.0062  0.5805
 7999SOL    HW135456   3.868   1.425   2.695 -0.4347  0.1084  1.0355
 7999SOL    HW235457   4.011   1.374   2.699 -1.6653 -0.4587  1.6319
 8000SOL     OW35458   1.216   2.031   7.045 -0.3077  0.2513  0.0074
 8000SOL    HW135459   1.259   2.038   7.130  2.5897 -2.1088 -1.2730
 8000SOL    HW235460   1.227   1.937   7.034 -1.8924  0.3145 -2.0475
 8001SOL     OW35461   1.987   0.259   2.911  0.6241 -0.3633  0.3657
 8001SOL    HW135462   2.077   0.249   2.881  0.6961 -0.7651  0.7072
 8001SOL    HW235463   1.949   0.304   2.836 -1.3272 -0.3230  1.3762
 8002SOL     OW35464   2.356   1.796  13.268 -0.1286 -0.0911  0.0778
 8002SOL    HW135465   2.422   1.864  13.282  1.2217 -1.2165 -0.8889
 8002SOL    HW235466   2.413   1.724  13.293 -1.5112 -1.3655 -0.4668
 8003SOL     OW35467   2.146   0.148  10.466  0.4709 -0.0155  0.1741
 8003SOL    HW135468   2.200   0.134  10.544  1.3562 -0.6605 -0.5528
 8003SOL    HW235469   2.134   0.061  10.428 -2.4410  1.1562 -1.6383
 8004SOL     OW35470   2.831   1.837  13.000 -0.1028 -0.3959  0.2360
 8004SOL    HW135471   2.918   1.800  12.986 -0.2017 -0.9743  1.2061
 8004SOL    HW235472   2.799   1.778  13.067 -3.1285  0.7650 -0.2041
 8005SOL     OW35473   4.047   4.388   9.310  0.3326 -0.0407  0.1892
 8005SOL    HW135474   4.139   4.363   9.301 -0.0141 -1.8545  1.7329
 8005SOL    HW235475   4.012   4.311   9.353  0.3528 -0.7122 -0.9975
 8006SOL     OW35476   1.424   2.053   9.927  0.0869  0.0898  0.0878
 8006SOL    HW135477   1.330   2.039   9.934  0.3900 -1.1166  1.9379
 8006SOL    HW235478   1.438   2.076  10.019 -1.2345 -2.5356  0.9589
 8007SOL     OW35479   2.262   4.695   0.461 -0.4334  0.3294 -0.3946
 8007SOL    HW135480   2.268   4.637   0.537  1.7057 -0.5963 -1.2571
 8007SOL    HW235481   2.278   0.059   0.496  1.1900  0.9078 -2.5913
 8008SOL     OW35482   1.859   4.385  15.970  0.0590 -0.0755 -0.4727
 8008SOL    HW135483   1.846   4.349  15.883  0.1201  0.9580 -0.9064
 8008SOL    HW235484   1.952   4.406  15.962 -0.3762  1.7630 -0.5668
 8009SOL     OW35485   2.574   0.456  15.229 -0.3981 -0.0121 -0.2196
 8009SOL    HW135486   2.576   0.481  15.137  0.0036  0.2853 -0.1322
 8009SOL    HW235487   2.507   0.389  15.220  0.2360 -0.6109 -0.4131
 8010SOL     OW35488   2.641   4.277  12.336 -0.5059 -0.6903  0.2009
 8010SOL    HW135489   2.709   4.210  12.346 -0.6960 -1.2056 -2.0793
 8010SOL    HW235490   2.604   4.273  12.424  0.6144  1.1277  0.7489
 8011SOL     OW35491   0.726   2.643  12.015 -0.1424 -0.6850  0.8924
 8011SOL    HW135492   0.674   2.578  11.968 -1.8284 -1.0643  3.2766
 8011SOL    HW235493   0.810   2.610  11.983 -0.2168  1.6457 -1.7702
 8012SOL     OW35494   0.456   3.309   8.945  0.0140  0.5166  0.3343
 8012SOL    HW135495   0.446   3.331   8.852  1.2928 -0.4854 -0.0286
 8012SOL    HW235496   0.483   3.218   8.934 -0.7567  0.3648 -0.3827
 8013SOL     OW35497   4.119   0.468   5.112  0.2216  0.5761 -0.3505
 8013SOL    HW135498   4.104   0.386   5.064 -0.3906 -0.1407  1.0537
 8013SOL    HW235499   4.122   0.531   5.040 -2.2847  0.3464 -0.6592
 8014SOL     OW35500   1.937   0.456   8.599  0.7867 -0.4372 -0.0319
 8014SOL    HW135501   2.011   0.484   8.544  0.7098 -0.1325  0.0172
 8014SOL    HW235502   1.875   0.461   8.527  1.7395 -2.6859 -1.0040
 8015SOL     OW35503   3.581   0.546   6.201  0.0083 -0.5597 -0.3725
 8015SOL    HW135504   3.631   0.465   6.199 -1.7279 -1.6521  0.9433
 8015SOL    HW235505   3.647   0.601   6.158 -0.4030  2.3204  2.7102
 8016SOL     OW35506   3.423   3.823   0.445 -0.6334 -0.2140 -0.0309
 8016SOL    HW135507   3.393   3.770   0.371 -0.9441 -1.0858  0.7273
 8016SOL    HW235508   3.409   3.759   0.515 -2.7471  2.0193  1.5971
 8017SOL     OW35509   4.645   2.551   8.471 -0.0292 -0.0907 -0.1354
 8017SOL    HW135510   4.594   2.491   8.417  1.2565 -0.9808 -0.3455
 8017SOL    HW235511   4.626   2.516   8.558 -0.2376  0.0904 -0.1086
 8018SOL     OW35512   3.064   4.478   8.133 -0.0630  0.0223  0.0246
 8018SOL    HW135513   3.105   4.409   8.185 -0.1421 -0.1587 -0.1558
 8018SOL    HW235514   3.130   4.547   8.129  1.0449 -1.0293  0.1510
 8019SOL     OW35515   3.926   1.549   4.612  0.2364 -0.0405 -0.1322
 8019SOL    HW135516   3.957   1.488   4.679 -2.5544 -2.8509 -1.4082
 8019SOL    HW235517   3.856   1.501   4.568 -1.1071  0.1074  1.8403
 8020SOL     OW35518   0.926   3.155   4.785 -0.5971  0.2093 -0.1107
 8020SOL    HW135519   0.959   3.076   4.744 -0.4088  0.7173 -0.9253
 8020SOL    HW235520   0.870   3.121   4.856  0.6334 -0.9119  0.3211
 8021SOL     OW35521   0.497   4.270   4.533  0.0149 -0.4613 -0.3840
 8021SOL    HW135522   0.439   4.314   4.471 -1.3934  0.5942  1.7028
 8021SOL    HW235523   0.458   4.184   4.548 -0.4760 -0.1808 -0.0539
 8022SOL     OW35524   1.699   2.967  15.664  0.4748 -0.4743 -0.4930
 8022SOL    HW135525   1.639   3.041  15.663  1.1957  0.1173  0.4163
 8022SOL    HW235526   1.656   2.895  15.710  0.0205 -0.4492 -0.8814
 8023SOL     OW35527   1.251   2.113  15.880  0.0146  0.3543  0.4554
 8023SOL    HW135528   1.162   2.091  15.854  0.3735  2.5192 -2.6141
 8023SOL    HW235529   1.293   2.027  15.876 -0.9812 -0.0801 -0.7171
 8024SOL     OW35530   4.160   1.128   6.985  0.3733  0.0069  0.2316
 8024SOL    HW135531   4.179   1.104   7.076  0.3998  0.9085  0.4652
 8024SOL    HW235532   4.246   1.162   6.960  0.8551 -1.3663  0.0234
 8025SOL     OW35533   2.751   0.827  12.666 -0.1581  0.0043  0.2387
 8025SOL    HW135534   2.680   0.762  12.669 -0.2460  0.2705  3.9013
 8025SOL    HW235535   2.778   0.808  12.756  0.8181 -0.1739 -0.0824
 8026SOL     OW35536   2.676   1.542   8.412  0.5419  0.2108 -0.3043
 8026SOL    HW135537   2.730   1.600   8.358  1.4212  1.0881  1.5027
 8026SOL    HW235538   2.723   1.460   8.399  0.2541 -0.1097  0.6779
 8027SOL     OW35539   3.213   1.880   3.630  0.4518 -0.1865  0.6573
 8027SOL    HW135540   3.177   1.951   3.684 -2.7170  0.0338 -1.7633
 8027SOL    HW235541   3.169   1.803   3.666 -0.6515  0.1092 -0.0735
 8028SOL     OW35542   2.668   1.243  11.134 -0.1522  0.2290 -0.5013
 8028SOL    HW135543   2.696   1.293  11.211  2.1140 -0.3385 -0.9662
 8028SOL    HW235544   2.739   1.180  11.123  0.8791  1.6430 -1.9205
 8029SOL     OW35545   3.363   3.962   7.388 -0.1064 -0.0326 -0.4098
 8029SOL    HW135546   3.423   3.958   7.314  2.6478 -0.0674  1.8433
 8029SOL    HW235547   3.379   4.046   7.432 -1.0258 -0.3601  0.5549
 8030SOL     OW35548   1.910   4.519   6.403 -0.5390 -0.2030 -0.0437
 8030SOL    HW135549   1.971   4.482   6.467  0.6724 -0.9534 -1.6243
 8030SOL    HW235550   1.836   4.459   6.396 -0.5033 -0.1413 -0.9469
 8031SOL     OW35551   3.170   3.111   2.784  0.5999 -0.4999  0.4618
 8031SOL    HW135552   3.084   3.130   2.822  0.2372 -0.2107 -0.5069
 8031SOL    HW235553   3.190   3.190   2.734 -3.2781  0.4725  0.4109
 8032SOL     OW35554   4.094   4.667   6.044  0.2227  0.6424  0.1390
 8032SOL    HW135555   4.142   4.706   6.117 -2.0526  2.4196  0.6764
 8032SOL    HW235556   4.145   4.588   6.025  0.0339  0.4219  0.5398
 8033SOL     OW35557   2.271   1.575   9.666 -0.1745  0.0816 -0.2652
 8033SOL    HW135558   2.361   1.578   9.634 -0.2990 -1.3599 -0.7469
 8033SOL    HW235559   2.291   1.525   9.745 -2.3295 -0.6138 -0.1490
 8034SOL     OW35560   4.647   3.276  13.911  0.4085 -0.1904 -0.2704
 8034SOL    HW135561   4.625   3.322  13.992  1.8236  0.0216 -0.0071
 8034SOL    HW235562   4.559   3.283  13.875  0.2415  0.2307  0.2175
 8035SOL     OW35563   0.191   3.470   4.994 -0.4835 -0.2949 -0.1086
 8035SOL    HW135564   0.170   3.563   4.988  0.0539 -0.1060  0.9356
 8035SOL    HW235565   0.256   3.469   5.064  1.3122  2.5292 -1.7395
 8036SOL     OW35566   1.854   3.547   6.195 -0.3510  0.7686 -0.3599
 8036SOL    HW135567   1.850   3.560   6.289  0.1480 -1.1776 -0.0528
 8036SOL    HW235568   1.941   3.510   6.180  0.0302  0.8083  1.7282
 8037SOL     OW35569   3.530   3.626   1.908  0.0835  0.4873  0.0392
 8037SOL    HW135570   3.483   3.594   1.831 -0.7002  0.2973  0.5989
 8037SOL    HW235571   3.486   3.711   1.916  2.1084  1.4398  1.1534
 8038SOL     OW35572   4.393   1.757   3.462  0.0440  0.0236 -0.5565
 8038SOL    HW135573   4.435   1.842   3.459  0.6837 -0.3167 -1.2943
 8038SOL    HW235574   4.348   1.773   3.544  0.1116  0.1280 -0.5398
 8039SOL     OW35575   0.208   0.057  16.202 -0.1923 -0.1471  0.1125
 8039SOL    HW135576   0.162   4.702  16.233 -2.3598  0.9000 -0.4815
 8039SOL    HW235577   0.271   0.062  16.274 -0.5608 -0.7212  0.4814
 8040SOL     OW35578   3.498   1.768   8.987  0.2097  0.2156  0.1368
 8040SOL    HW135579   3.544   1.773   9.070  0.6387 -0.3278 -0.0676
 8040SOL    HW235580   3.564   1.769   8.918 -0.0053  0.7036 -0.0657
 8041SOL     OW35581   0.335   1.100  15.718  0.4266 -0.2207  0.3143
 8041SOL    HW135582   0.253   1.054  15.736 -1.3184  1.9544 -2.0322
 8041SOL    HW235583   0.308   1.143  15.637 -0.5896  1.0001  1.3108
 8042SOL     OW35584   1.159   0.887   3.341 -0.2668 -0.2454 -0.0106
 8042SOL    HW135585   1.252   0.911   3.342 -0.1681 -0.6279 -0.1597
 8042SOL    HW235586   1.169   0.792   3.334 -2.6654 -0.5448  0.6100
 8043SOL     OW35587   1.387   2.320   7.097  0.1797  0.4583 -0.4026
 8043SOL    HW135588   1.361   2.234   7.130  1.7691  0.9327  2.0842
 8043SOL    HW235589   1.339   2.330   7.015  0.1591 -2.9060 -0.8066
 8044SOL     OW35590   3.621   2.218   4.197  0.0610  0.4909 -0.4840
 8044SOL    HW135591   3.604   2.301   4.152  0.7620  0.4539 -0.8027
 8044SOL    HW235592   3.607   2.249   4.287 -2.9385  1.0631 -1.1250
 8045SOL     OW35593   4.095   4.364   8.564  0.2907 -0.1745 -0.4428
 8045SOL    HW135594   4.181   4.364   8.606  0.2048  1.1113 -0.2465
 8045SOL    HW235595   4.053   4.436   8.611  1.9224  1.8082 -1.9783
 8046SOL     OW35596   0.961   0.428   4.252 -0.6311  0.4968 -0.1654
 8046SOL    HW135597   0.986   0.510   4.296 -0.6342  0.6318 -0.4190
 8046SOL    HW235598   0.934   0.462   4.167  2.9339 -2.0316 -2.2884
 8047SOL     OW35599   1.140   3.913   4.393  0.5140 -0.0161 -0.1158
 8047SOL    HW135600   1.075   3.968   4.436  1.5295  1.5366 -0.5948
 8047SOL    HW235601   1.227   3.933   4.427  1.1570  1.1249 -2.4499
 8048SOL     OW35602   2.052   2.415   7.000 -0.4304 -0.5760  0.0180
 8048SOL    HW135603   2.038   2.420   7.095  1.6491  1.3616  0.2103
 8048SOL    HW235604   2.144   2.438   7.007 -0.0123 -2.4461  0.6377
 8049SOL     OW35605   1.299   1.721   4.144  0.1293 -0.0269  0.4334
 8049SOL    HW135606   1.381   1.697   4.101  0.1132  0.9953 -0.1783
 8049SOL    HW235607   1.324   1.806   4.180 -0.2162  1.0794 -1.9796
 8050SOL     OW35608   3.023   0.135  13.499 -0.4518 -1.0260 -0.3018
 8050SOL    HW135609   3.033   0.132  13.594  1.4410  0.4870 -0.4511
 8050SOL    HW235610   2.944   0.084  13.485 -0.8099 -0.6863  0.4932
 8051SOL     OW35611   2.233   4.494  15.566 -0.3627 -0.4490  0.7900
 8051SOL    HW135612   2.144   4.471  15.538 -0.3104 -1.2457  1.2677
 8051SOL    HW235613   2.298   4.465  15.502 -1.8851 -0.6050 -0.7136
 8052SOL     OW35614   1.760   3.455   6.771 -0.5095  0.1014 -0.4686
 8052SOL    HW135615   1.747   3.537   6.722  1.1266  0.8081  0.2534
 8052SOL    HW235616   1.710   3.474   6.850 -1.4576  1.0468 -1.2922
 8053SOL     OW35617   0.035   3.179   1.372  0.0095 -0.0232 -0.4957
 8053SOL    HW135618   4.680   3.231   1.388 -0.0934  0.1700 -1.6075
 8053SOL    HW235619   0.040   3.125   1.451 -1.7697 -0.9732 -1.0282
 8054SOL     OW35620   4.386   3.107   5.008 -0.8613  0.1692 -0.6303
 8054SOL    HW135621   4.301   3.091   4.968 -1.3224  0.2888  0.3062
 8054SOL    HW235622   4.402   3.017   5.036  2.8145  0.3782 -2.0827
 8055SOL     OW35623   0.728   3.980   5.317 -0.4293 -0.1451 -0.3172
 8055SOL    HW135624   0.690   3.924   5.250  0.7092 -0.3067 -0.8280
 8055SOL    HW235625   0.661   3.961   5.383  0.2123 -0.6409  0.1999
 8056SOL     OW35626   0.481   2.374   2.144 -0.5454 -0.7697  0.2906
 8056SOL    HW135627   0.540   2.370   2.069  1.9943 -0.9921  2.3066
 8056SOL    HW235628   0.475   2.469   2.155  1.9728 -0.5631 -0.0996
 8057SOL     OW35629   2.215   1.990  10.748 -0.5552 -0.0662 -0.5060
 8057SOL    HW135630   2.184   1.911  10.794  1.0007  0.3158  1.2035
 8057SOL    HW235631   2.147   2.056  10.761  0.9029  1.9909 -3.5465
 8058SOL     OW35632   2.941   0.225   5.837 -0.1284  0.0396  0.0636
 8058SOL    HW135633   3.005   0.171   5.883  1.6807  0.7875 -1.5777
 8058SOL    HW235634   2.990   0.252   5.759 -0.2257 -1.7513 -0.5951
 8059SOL     OW35635   2.660   3.477   1.678 -0.5241 -0.0253  0.1188
 8059SOL    HW135636   2.693   3.516   1.759 -0.4297  1.3343 -0.5779
 8059SOL    HW235637   2.748   3.464   1.644 -0.0269  0.2016  1.2974
 8060SOL     OW35638   3.296   2.336   5.758 -0.2646  0.1321  0.1950
 8060SOL    HW135639   3.297   2.269   5.690  0.2551  0.8985 -0.5520
 8060SOL    HW235640   3.377   2.315   5.804 -2.1257 -6.7214  0.3733
 8061SOL     OW35641   3.164   4.061   2.018  0.1852 -0.2769 -0.5513
 8061SOL    HW135642   3.090   4.000   2.026 -1.4884  2.2239  3.0639
 8061SOL    HW235643   3.131   4.139   1.975  0.9740 -0.4447 -1.4715
 8062SOL     OW35644   4.154   0.864  12.076 -0.1928 -0.4022  0.0388
 8062SOL    HW135645   4.166   0.780  12.032  1.1363  0.8606 -2.0328
 8062SOL    HW235646   4.190   0.829  12.158 -0.7165 -1.9544 -0.3929
 8063SOL     OW35647   3.935   3.976   0.406  0.7860  0.0201 -1.0588
 8063SOL    HW135648   3.845   3.997   0.381  0.6208  1.2878  0.6352
 8063SOL    HW235649   3.975   3.956   0.322  1.9372  0.1242 -0.5376
 8064SOL     OW35650   1.445   1.124  11.600 -0.1208  0.4193 -0.2046
 8064SOL    HW135651   1.484   1.078  11.525 -0.9318  0.2609 -0.5307
 8064SOL    HW235652   1.467   1.211  11.566 -2.5667 -0.2762 -3.5686
 8065SOL     OW35653   3.362   1.010   3.751  0.2122 -0.0477  0.3185
 8065SOL    HW135654   3.395   1.092   3.785 -0.8702  0.6316 -0.2676
 8065SOL    HW235655   3.292   0.996   3.814  1.3973 -3.7518  0.8524
 8066SOL     OW35656   0.491   1.658   0.797  0.2838 -0.4145 -0.5398
 8066SOL    HW135657   0.580   1.691   0.783 -0.6437  1.1220 -2.6924
 8066SOL    HW235658   0.431   1.723   0.763  1.3813 -0.3406 -2.3051
 8067SOL     OW35659   2.457   2.927  14.462 -0.3147  0.4253 -0.6775
 8067SOL    HW135660   2.393   2.893  14.399 -2.2573  2.9170 -0.0527
 8067SOL    HW235661   2.533   2.873  14.443  0.2120  1.0307 -0.2755
 8068SOL     OW35662   2.124   3.999   8.806  0.1044 -0.2377 -0.8419
 8068SOL    HW135663   2.090   3.954   8.884  0.4393 -0.1671 -0.6559
 8068SOL    HW235664   2.183   4.058   8.851 -0.7006 -0.7698  0.9308
 8069SOL     OW35665   2.770   3.550   8.348 -0.2408  0.0831 -0.1715
 8069SOL    HW135666   2.783   3.644   8.339 -2.0917  0.5241  1.8207
 8069SOL    HW235667   2.717   3.542   8.427  0.2937  0.6300  0.2525
 8070SOL     OW35668   0.290   1.449   8.550 -0.1011 -0.6502  0.1287
 8070SOL    HW135669   0.353   1.454   8.622 -2.8469 -0.7584  2.4947
 8070SOL    HW235670   0.253   1.537   8.546 -1.8278 -1.4088 -0.3831
 8071SOL     OW35671   3.961   0.038   1.942 -0.1091 -0.1227 -0.2025
 8071SOL    HW135672   4.017   4.711   1.884 -1.1056 -1.2364 -0.2061
 8071SOL    HW235673   3.924   4.687   1.991 -1.5709 -0.0172 -1.1410
 8072SOL     OW35674   0.661   3.318  13.720  0.6127 -0.1315  0.1689
 8072SOL    HW135675   0.686   3.409  13.705 -0.6020  0.0241 -0.8966
 8072SOL    HW235676   0.569   3.320  13.693  0.4617  3.1019  0.9179
 8073SOL     OW35677   3.755   0.211  15.922  0.6774  0.2151 -0.2407
 8073SOL    HW135678   3.744   0.180  16.012 -0.8112 -2.3229 -1.2751
 8073SOL    HW235679   3.778   0.302  15.936 -0.4003  0.5608 -0.6581
 8074SOL     OW35680   2.503   2.864   5.052 -0.0048 -0.1981 -0.5940
 8074SOL    HW135681   2.518   2.787   5.108  0.6054  0.5704  0.3071
 8074SOL    HW235682   2.421   2.900   5.086  0.5378 -0.6595  1.2479
 8075SOL     OW35683   1.377   2.930   6.610 -0.4226  0.2337 -0.0223
 8075SOL    HW135684   1.353   2.904   6.699 -0.0473 -0.5783 -0.1518
 8075SOL    HW235685   1.445   2.994   6.630 -0.1995 -1.4028  4.4829
 8076SOL     OW35686   3.751   0.672   6.643 -0.1024  0.0779 -0.3516
 8076SOL    HW135687   3.724   0.590   6.683  1.9608 -0.3503  0.1876
 8076SOL    HW235688   3.736   0.731   6.717  0.7512 -0.0835 -0.0487
 8077SOL     OW35689   0.322   1.839   1.148 -0.6814 -0.1534  0.0757
 8077SOL    HW135690   0.320   1.744   1.137  0.1239 -0.1078 -0.4427
 8077SOL    HW235691   0.416   1.856   1.152 -0.9003  1.2342 -0.5923
 8078SOL     OW35692   4.474   1.442  17.014 -0.3220  0.2127 -0.0867
 8078SOL    HW135693   4.431   1.464  16.931 -2.7691 -0.5312  0.9939
 8078SOL    HW235694   4.422   1.378  17.062 -1.0233 -0.1510 -1.3340
 8079SOL     OW35695   4.225   1.444   1.606  0.0255  0.1106 -0.5364
 8079SOL    HW135696   4.274   1.372   1.567  0.8915  0.2955  0.2111
 8079SOL    HW235697   4.151   1.388   1.631  0.6063 -1.2501 -1.8547
 8080SOL     OW35698   2.742   0.243   7.995 -0.6027  0.1680 -0.5382
 8080SOL    HW135699   2.671   0.221   7.935 -2.3782  1.0783  1.2295
 8080SOL    HW235700   2.688   0.257   8.073  0.5915  0.1288  0.3088
 8081SOL     OW35701   0.859   1.147   2.947 -0.1555 -0.1278 -0.2197
 8081SOL    HW135702   0.826   1.237   2.945  1.0752  0.3071 -1.1465
 8081SOL    HW235703   0.790   1.099   2.993 -0.0477 -1.2140 -1.2137
 8082SOL     OW35704   4.290   3.375   4.339 -0.2597  0.0186  0.1401
 8082SOL    HW135705   4.218   3.348   4.396  1.3388  0.8652  2.5918
 8082SOL    HW235706   4.261   3.350   4.251  1.3156 -2.2204  0.2661
 8083SOL     OW35707   0.905   0.839  11.706 -0.2771  0.4714  0.0670
 8083SOL    HW135708   0.963   0.877  11.772  0.2743  0.7528 -0.5749
 8083SOL    HW235709   0.828   0.894  11.718  0.7387  1.2747  2.9174
 8084SOL     OW35710   0.610   3.146   4.650  0.1173 -0.2366 -0.7892
 8084SOL    HW135711   0.659   3.224   4.677  0.1434 -0.5866  0.1980
 8084SOL    HW235712   0.546   3.186   4.592 -1.6073 -1.0591  0.5423
 8085SOL     OW35713   4.678   1.786   8.965  0.1168  0.0265 -0.3257
 8085SOL    HW135714   4.593   1.754   8.995  0.9181 -0.8307  1.0123
 8085SOL    HW235715   0.008   1.708   8.978 -1.3325 -0.6058  1.9734
 8086SOL     OW35716   4.175   4.268   3.463  0.3700  0.0806  0.3876
 8086SOL    HW135717   4.089   4.262   3.421  0.8070  0.2078 -0.5234
 8086SOL    HW235718   4.153   4.233   3.549  0.9688 -0.7746  0.1970
 8087SOL     OW35719   0.668   0.931  14.738 -0.0291 -0.1613 -0.1560
 8087SOL    HW135720   0.716   0.906  14.817  0.3362  1.9138  0.2733
 8087SOL    HW235721   0.580   0.895  14.751  0.9756 -1.7115  2.2865
 8088SOL     OW35722   1.610   0.787   4.445 -0.1275 -0.3155 -0.0226
 8088SOL    HW135723   1.621   0.863   4.502 -0.2871 -0.0110 -0.4001
 8088SOL    HW235724   1.535   0.754   4.496  0.8432 -1.2856  0.7728
 8089SOL     OW35725   3.442   3.779   3.402  0.3321  0.1622 -0.4579
 8089SOL    HW135726   3.400   3.765   3.317 -3.4587 -2.3904  1.8395
 8089SOL    HW235727   3.403   3.863   3.429 -1.3972 -1.2019  1.2868
 8090SOL     OW35728   2.641   2.643   2.072  0.3292 -0.3282  0.1865
 8090SOL    HW135729   2.569   2.622   2.132 -0.3293 -1.2453 -0.9281
 8090SOL    HW235730   2.589   2.668   1.995  1.6565  0.2585 -0.5075
 8091SOL     OW35731   3.826   1.303  14.088 -0.1516 -0.0286  0.3846
 8091SOL    HW135732   3.820   1.340  14.176 -1.0527 -3.2350  1.6679
 8091SOL    HW235733   3.858   1.377  14.036 -2.5750 -0.1763 -1.3081
 8092SOL     OW35734   2.947   1.054   4.185 -0.2857  0.0784 -0.4072
 8092SOL    HW135735   3.015   1.058   4.252 -0.5194 -1.5171 -0.0929
 8092SOL    HW235736   2.925   1.147   4.174  1.7182  0.4653 -1.2057
 8093SOL     OW35737   3.892   2.900   6.660  0.2240 -0.4659  0.2227
 8093SOL    HW135738   3.859   2.957   6.729 -3.3350 -3.3732  0.9288
 8093SOL    HW235739   3.840   2.820   6.664  0.5802 -0.6050  2.1014
 8094SOL     OW35740   1.264   2.919   8.979  0.4057 -0.4426  0.3828
 8094SOL    HW135741   1.172   2.906   9.003  0.4931 -0.3540  0.7674
 8094SOL    HW235742   1.306   2.845   9.022  1.6403 -1.3688 -2.4265
 8095SOL     OW35743   0.776   4.145   8.885  0.0800  0.2270 -0.2504
 8095SOL    HW135744   0.780   4.233   8.922  1.1635  0.3603 -0.6865
 8095SOL    HW235745   0.709   4.107   8.942  0.4104  1.3031  0.8567
 8096SOL     OW35746   0.041   2.954   3.535  0.0868 -0.3691 -0.4336
 8096SOL    HW135747   0.046   3.009   3.614  0.3361  4.1855 -3.6072
 8096SOL    HW235748   4.674   2.960   3.506  0.2861  1.1044 -0.7670
 8097SOL     OW35749   1.041   2.359  16.080 -0.2448  0.4198 -0.0209
 8097SOL    HW135750   0.961   2.385  16.125 -1.0480 -2.7219  0.3349
 8097SOL    HW235751   1.028   2.265  16.077  0.8395  0.2201  1.7811
 8098SOL     OW35752   3.002   4.340   0.280 -0.0306 -0.5780  0.2655
 8098SOL    HW135753   3.064   4.323   0.208 -0.5946 -0.9509 -0.1317
 8098SOL    HW235754   3.061   4.335   0.356  0.7473 -0.3078 -0.3176
 8099SOL     OW35755   1.660   3.282   3.505 -0.0087 -0.9414 -0.0757
 8099SOL    HW135756   1.640   3.275   3.411 -2.8585  2.5558  0.2706
 8099SOL    HW235757   1.608   3.209   3.539 -1.3708 -0.3612 -0.8902
 8100SOL     OW35758   0.583   1.547   6.384 -0.0092  0.6019 -0.5924
 8100SOL    HW135759   0.601   1.551   6.290 -1.1497  0.3019 -0.8256
 8100SOL    HW235760   0.630   1.623   6.417 -1.3175  0.4306  1.6309
 8101SOL     OW35761   1.266   0.265  10.982  0.6102 -0.0430 -0.3409
 8101SOL    HW135762   1.205   0.193  11.002  2.1253 -1.3625 -0.5097
 8101SOL    HW235763   1.357   0.237  10.993  0.0721 -0.8526  2.0838
 8102SOL     OW35764   1.069   2.194   8.478  0.0453 -0.0481 -0.0076
 8102SOL    HW135765   1.000   2.166   8.538  0.3519  0.1154  0.4201
 8102SOL    HW235766   1.148   2.198   8.533 -1.0438 -0.8942  1.6194
 8103SOL     OW35767   3.894   1.854   4.116 -0.2380  0.4891  0.4793
 8103SOL    HW135768   3.809   1.862   4.160  0.2067 -1.6838  1.7463
 8103SOL    HW235769   3.867   1.833   4.027 -0.4655  1.1823  0.3886
 8104SOL     OW35770   3.674   0.232   3.967  0.1504  0.3877  0.2249
 8104SOL    HW135771   3.735   0.161   3.987  2.0674  1.5701 -1.4909
 8104SOL    HW235772   3.698   0.257   3.878 -1.4685 -2.0127 -0.8636
 8105SOL     OW35773   3.056   3.742   8.191  0.1300 -0.4646 -0.3215
 8105SOL    HW135774   3.006   3.805   8.243 -0.0179 -0.5191 -0.3964
 8105SOL    HW235775   3.132   3.722   8.245 -1.1227 -0.5983  1.3759
 8106SOL     OW35776   2.444   2.123   4.249 -0.1395  0.1760  0.1000
 8106SOL    HW135777   2.386   2.049   4.233 -2.3628  1.7033  1.0197
 8106SOL    HW235778   2.524   2.071   4.248 -0.8270 -0.8567 -0.8113
 8107SOL     OW35779   4.206   4.113   2.858 -0.4067 -0.7578  0.1051
 8107SOL    HW135780   4.136   4.061   2.899 -1.0523 -1.2442 -1.6160
 8107SOL    HW235781   4.258   4.146   2.931 -0.6381  1.5623 -0.7808
 8108SOL     OW35782   0.584   2.543   8.909 -0.8606  0.4930  1.0625
 8108SOL    HW135783   0.508   2.519   8.857 -0.1817  0.9120 -0.1269
 8108SOL    HW235784   0.592   2.631   8.872  1.1064  0.0391  0.3820
 8109SOL     OW35785   0.487   0.755  10.800 -0.1550 -0.0729 -0.0500
 8109SOL    HW135786   0.419   0.690  10.782  0.0529 -0.7400  1.6517
 8109SOL    HW235787   0.420   0.823  10.807 -0.4063 -0.2501 -0.7108
 8110SOL     OW35788   0.219   2.562   6.357  0.0270 -0.0232 -0.3430
 8110SOL    HW135789   0.146   2.563   6.294 -0.6259 -0.7552  0.4186
 8110SOL    HW235790   0.298   2.582   6.307  1.4442 -1.9872  1.1301
 8111SOL     OW35791   1.758   2.171   9.944  0.3674 -0.3431 -0.4234
 8111SOL    HW135792   1.784   2.115   9.871 -1.9323  1.0113 -2.2774
 8111SOL    HW235793   1.800   2.123  10.015  1.3749 -1.0431 -1.4927
 8112SOL     OW35794   1.837   1.137   6.203  0.4840 -0.3462 -0.0161
 8112SOL    HW135795   1.855   1.045   6.183 -0.2160 -0.2889 -0.9176
 8112SOL    HW235796   1.926   1.170   6.199  0.2099  0.5285  1.2031
 8113SOL     OW35797   3.232   2.118   4.283  0.4006  0.1124 -0.0545
 8113SOL    HW135798   3.142   2.086   4.295  0.2277  0.1758 -1.1309
 8113SOL    HW235799   3.270   2.082   4.363  1.8172  1.4489 -0.1407
 8114SOL     OW35800   2.212   2.385   4.944  0.1815  0.5279  0.0156
 8114SOL    HW135801   2.247   2.457   4.996 -0.7447  1.2629 -0.3858
 8114SOL    HW235802   2.164   2.433   4.877  2.3146 -0.8923 -2.5305
 8115SOL     OW35803   1.240   1.261  17.343  0.2871  0.0085  0.3570
 8115SOL    HW135804   1.270   1.254  17.252 -0.7557 -0.5352  0.0503
 8115SOL    HW235805   1.212   1.352  17.331 -0.4459 -0.4871 -1.5983
 8116SOL     OW35806   2.066   1.673   5.718 -0.0100 -0.1982  0.1757
 8116SOL    HW135807   2.110   1.625   5.648  1.0145  0.8910  0.0801
 8116SOL    HW235808   2.113   1.756   5.709 -1.2091  0.1775 -2.5202
 8117SOL     OW35809   3.923   0.221   8.162  0.3051  0.1910  0.2023
 8117SOL    HW135810   3.878   0.174   8.233  1.0805  1.4030  1.4684
 8117SOL    HW235811   3.898   0.310   8.184  0.3207  0.2998 -0.2151
 8118SOL     OW35812   1.773   1.724   6.631  0.5302  0.0666  0.4314
 8118SOL    HW135813   1.817   1.773   6.561  2.5062  0.7380  2.1312
 8118SOL    HW235814   1.849   1.721   6.689  0.9326  1.1146 -0.0415
 8119SOL     OW35815   1.758   0.539   8.359 -0.5460 -0.5630 -0.1848
 8119SOL    HW135816   1.818   0.552   8.286 -0.3493  1.9902  0.4528
 8119SOL    HW235817   1.743   0.625   8.398 -2.3086 -1.2900  0.7593
 8120SOL     OW35818   2.731   0.571   5.731  0.4102 -0.3093  0.0104
 8120SOL    HW135819   2.687   0.571   5.816 -0.0272  1.6184 -0.2235
 8120SOL    HW235820   2.730   0.482   5.695 -3.4825 -0.2713 -0.0541
 8121SOL     OW35821   1.955   4.010   9.590 -0.1875 -0.0416  0.2001
 8121SOL    HW135822   1.931   4.017   9.498 -1.9210  0.8971  0.7211
 8121SOL    HW235823   2.044   4.045   9.591 -1.1010  2.2863  0.1053
 8122SOL     OW35824   3.352   2.704   5.306  0.2661 -0.8130  0.5494
 8122SOL    HW135825   3.314   2.678   5.222  0.6714  0.3160  0.0231
 8122SOL    HW235826   3.332   2.798   5.312 -0.5016 -0.9920  0.8367
 8123SOL     OW35827   0.206   1.372  16.589 -0.6757  0.0917 -0.0558
 8123SOL    HW135828   0.143   1.444  16.582  1.2638  1.6923 -1.1500
 8123SOL    HW235829   0.214   1.370  16.684  1.3335 -0.2953 -0.2502
 8124SOL     OW35830   0.673   1.564   8.151  0.5133  0.1564 -0.6209
 8124SOL    HW135831   0.762   1.592   8.131  1.1873 -1.1610  0.5677
 8124SOL    HW235832   0.699   1.504   8.221  1.5706  0.3384 -0.8672
 8125SOL     OW35833   1.135   2.449   0.841  0.0421  0.1509 -0.1942
 8125SOL    HW135834   1.184   2.444   0.759  0.1413  1.6388 -0.2235
 8125SOL    HW235835   1.051   2.487   0.819  0.6039  0.5661 -1.6248
 8126SOL     OW35836   1.575   1.896   3.660 -0.1467 -0.0292 -0.2968
 8126SOL    HW135837   1.577   1.944   3.577 -3.5112  0.0204 -0.3473
 8126SOL    HW235838   1.511   1.943   3.714  1.3806 -1.8663  3.0807
 8127SOL     OW35839   2.319   3.136   6.112 -0.4431 -0.7737  0.3142
 8127SOL    HW135840   2.281   3.112   6.197  0.6539 -0.1685  0.9854
 8127SOL    HW235841   2.253   3.181   6.061 -0.4730 -0.7265  0.3946
 8128SOL     OW35842   3.228   3.889   6.897 -0.2556 -0.3571 -0.2171
 8128SOL    HW135843   3.295   3.822   6.907  1.1921  1.1918  0.4353
 8128SOL    HW235844   3.244   3.941   6.976  1.6715 -0.1257 -0.7851
 8129SOL     OW35845   1.955   4.610   2.146  0.1371 -0.6127 -0.4014
 8129SOL    HW135846   1.923   4.589   2.233  0.6328  0.4352  0.0258
 8129SOL    HW235847   2.017   4.679   2.167 -2.8575  1.0088  3.2145
 8130SOL     OW35848   3.118   3.137   0.004 -0.1801 -0.0923  0.3899
 8130SOL    HW135849   3.179   3.149  17.627  1.0598 -0.9263  1.2724
 8130SOL    HW235850   3.033   3.163  17.666 -0.2726  0.4708  1.0499
 8131SOL     OW35851   1.278   4.052   2.744  0.4314 -0.2575  0.3776
 8131SOL    HW135852   1.289   4.139   2.708 -1.4011 -0.8633 -1.6231
 8131SOL    HW235853   1.367   4.017   2.746  0.9872  1.2046  0.8301
 8132SOL     OW35854   4.014   3.097  13.901 -0.0016  0.0215 -0.0305
 8132SOL    HW135855   3.920   3.098  13.884 -0.0939  1.0715  0.5534
 8132SOL    HW235856   4.038   3.189  13.891  0.0772 -0.1240 -1.2851
 8133SOL     OW35857   1.952   1.806   9.839 -0.0805 -0.1645 -0.2316
 8133SOL    HW135858   2.039   1.834   9.812 -0.1626 -0.0004 -0.3307
 8133SOL    HW235859   1.966   1.713   9.859 -1.5947 -0.6024 -1.1001
 8134SOL     OW35860   0.893   1.319   0.126  0.0615 -0.5060  0.2837
 8134SOL    HW135861   0.900   1.312   0.031 -1.4040  2.5808 -0.0399
 8134SOL    HW235862   0.981   1.300   0.159 -0.2534 -2.4086  0.0379
 8135SOL     OW35863   0.726   4.532   7.340 -0.3267 -0.0189 -0.7564
 8135SOL    HW135864   0.736   4.485   7.258 -0.9279  0.5544 -1.1613
 8135SOL    HW235865   0.675   4.610   7.315  0.4714  1.1745  1.3190
 8136SOL     OW35866   4.169   0.625   3.999 -0.2071  0.0357  0.6188
 8136SOL    HW135867   4.247   0.588   4.040  0.9270  0.9389 -0.7251
 8136SOL    HW235868   4.100   0.591   4.056 -0.6964  1.4377  0.8750
 8137SOL     OW35869   3.099   2.549   6.871 -0.1624 -0.0752 -0.2309
 8137SOL    HW135870   3.100   2.465   6.917  2.2517 -1.4176 -2.7197
 8137SOL    HW235871   3.014   2.580   6.900  0.2386 -2.0710  3.0650
 8138SOL     OW35872   4.689   3.964   5.708  0.1760  0.1929 -0.5662
 8138SOL    HW135873   4.691   4.030   5.638 -0.8468  1.3002  0.4343
 8138SOL    HW235874   4.594   3.972   5.717  0.2476  1.8626 -1.2485
 8139SOL     OW35875   0.404   0.635   7.107  0.1514 -0.2316  0.3217
 8139SOL    HW135876   0.378   0.543   7.099 -1.3842  0.0618  2.0938
 8139SOL    HW235877   0.487   0.624   7.152 -0.4364 -1.1725  1.1620
 8140SOL     OW35878   0.217   3.215   9.412 -0.1455  0.1819  0.3129
 8140SOL    HW135879   0.186   3.124   9.414  1.3799 -0.4033 -2.3137
 8140SOL    HW235880   0.209   3.241   9.320  1.8084 -1.6582 -0.3799
 8141SOL     OW35881   3.074   2.800   8.095  0.5521 -0.1936  0.3349
 8141SOL    HW135882   3.126   2.742   8.150  0.4804 -1.4308 -0.8802
 8141SOL    HW235883   2.983   2.798   8.126  0.2378  0.1079 -0.5385
 8142SOL     OW35884   4.217   2.543   9.380  0.2811  0.0433 -0.1290
 8142SOL    HW135885   4.286   2.606   9.358 -0.4597  0.5751 -0.9149
 8142SOL    HW235886   4.258   2.501   9.456 -0.2524  1.9902  1.2264
 8143SOL     OW35887   1.229   2.896   3.572 -0.5483  0.0762  0.3061
 8143SOL    HW135888   1.139   2.863   3.570 -0.8020  0.8799 -1.2436
 8143SOL    HW235889   1.241   2.863   3.661 -0.5789 -0.6878  0.0269
 8144SOL     OW35890   3.125   0.406   1.546 -0.4335 -0.1330  0.5769
 8144SOL    HW135891   3.199   0.350   1.523  0.0009  0.7381 -0.0790
 8144SOL    HW235892   3.061   0.341   1.576 -0.4469  0.2670  1.4097
 8145SOL     OW35893   0.246   3.576   8.523 -0.0720 -1.0348  0.3850
 8145SOL    HW135894   0.248   3.480   8.522  1.0493 -1.0156 -0.2397
 8145SOL    HW235895   0.299   3.586   8.603 -0.9343  0.7973  0.7259
 8146SOL     OW35896   0.042   4.483   0.970 -0.5486 -0.3099  0.2315
 8146SOL    HW135897   0.127   4.521   0.945 -0.2201 -1.2293 -0.0202
 8146SOL    HW235898   0.022   4.542   1.043 -1.4484 -0.4444  0.0951
 8147SOL     OW35899   3.405   1.030   5.514  0.2775  0.3740 -0.5358
 8147SOL    HW135900   3.370   0.954   5.559 -0.2110 -0.3504 -2.1478
 8147SOL    HW235901   3.322   1.069   5.487 -0.3580 -0.0512  0.8134
 8148SOL     OW35902   3.415   4.381   4.499  0.3886 -0.6355 -0.0425
 8148SOL    HW135903   3.391   4.342   4.415  0.9563 -1.4485  0.1682
 8148SOL    HW235904   3.499   4.419   4.475  0.4917  0.4431  2.0491
 8149SOL     OW35905   2.284   2.047   5.934  0.0487 -0.2022 -0.3958
 8149SOL    HW135906   2.209   2.022   5.880  0.4040  1.1718 -1.5279
 8149SOL    HW235907   2.334   2.084   5.861  0.0490  0.8301  0.1350
 8150SOL     OW35908   0.858   3.273   8.515 -0.2224 -0.1356 -0.4140
 8150SOL    HW135909   0.809   3.206   8.563 -0.1641 -1.3793 -2.0893
 8150SOL    HW235910   0.922   3.228   8.459 -1.9707 -0.4293 -2.1748
 8151SOL     OW35911   1.206   0.396  16.508  0.2479  0.2563 -1.3903
 8151SOL    HW135912   1.241   0.480  16.478  1.7982  0.3845  0.7958
 8151SOL    HW235913   1.133   0.424  16.562  0.7666  1.5937 -1.3792
 8152SOL     OW35914   4.486   4.441   4.371 -0.2035 -0.1290 -0.3121
 8152SOL    HW135915   4.401   4.485   4.361 -0.2949 -0.6337 -1.8036
 8152SOL    HW235916   4.484   4.389   4.451 -1.4834  1.4698  0.6869
 8153SOL     OW35917   1.790   2.245   3.411  0.5195 -0.5189  0.0364
 8153SOL    HW135918   1.867   2.300   3.398  0.4173 -1.0187 -2.8101
 8153SOL    HW235919   1.806   2.166   3.358 -0.6089 -0.4428 -0.4116
 8154SOL     OW35920   3.469   1.013   5.835 -0.1302 -0.2642  0.4667
 8154SOL    HW135921   3.552   0.987   5.874 -0.0335 -0.0423  0.4090
 8154SOL    HW235922   3.498   1.031   5.746  0.6672  1.1639  1.0134
 8155SOL     OW35923   2.657   2.690   3.603  0.0994 -0.0132 -0.2237
 8155SOL    HW135924   2.696   2.618   3.653 -0.6210 -0.6428 -0.5583
 8155SOL    HW235925   2.568   2.654   3.597 -0.1885  0.8422 -1.0227
 8156SOL     OW35926   1.349   1.925   8.558 -0.4818  0.4532  0.2399
 8156SOL    HW135927   1.338   2.017   8.582  0.5535  1.1863 -2.0630
 8156SOL    HW235928   1.381   1.925   8.468 -2.6394 -2.3867 -0.5231
 8157SOL     OW35929   2.281   0.314   7.044 -0.3393  0.1407  0.3355
 8157SOL    HW135930   2.202   0.262   7.027 -1.4459  2.3058 -1.1420
 8157SOL    HW235931   2.247   0.382   7.102 -0.2207 -0.9542  1.7068
 8158SOL     OW35932   0.408   3.194   2.880  0.2232  0.1945  0.4724
 8158SOL    HW135933   0.353   3.255   2.929 -1.1478 -0.4190 -0.3051
 8158SOL    HW235934   0.369   3.109   2.904 -1.6333  1.2206  1.0593
 8159SOL     OW35935   4.551   4.096  11.831  0.6177  0.5490 -0.4011
 8159SOL    HW135936   4.502   4.159  11.885  1.4151  0.2510  0.6710
 8159SOL    HW235937   4.499   4.103  11.751  1.5245 -0.7440 -1.0926
 8160SOL     OW35938   0.995   1.137  13.647 -1.4801 -0.0237 -0.2921
 8160SOL    HW135939   1.061   1.198  13.679  0.6893 -2.0531 -0.8801
 8160SOL    HW235940   1.012   1.047  13.677 -0.7525  0.4180  0.6186
 8161SOL     OW35941   2.359   0.422  10.985 -0.3074  0.4159  0.0948
 8161SOL    HW135942   2.372   0.462  10.899 -0.0433 -0.5380 -0.3159
 8161SOL    HW235943   2.388   0.332  10.966 -1.4259  0.0776 -0.0023
 8162SOL     OW35944   4.342   1.490   3.557 -0.2773 -0.1240 -0.0936
 8162SOL    HW135945   4.432   1.497   3.590  0.0137  1.1421 -1.1617
 8162SOL    HW235946   4.338   1.571   3.506 -1.0632 -0.1715 -0.1039
 8163SOL     OW35947   2.665   2.367   6.500 -0.3946 -0.0951  0.0941
 8163SOL    HW135948   2.626   2.453   6.516  1.1620  0.7980 -0.8922
 8163SOL    HW235949   2.758   2.387   6.512 -0.4256 -0.2279  0.5317
 8164SOL     OW35950   1.819   1.373   5.943 -0.2688 -0.4795  0.1791
 8164SOL    HW135951   1.814   1.284   5.979 -1.1918 -0.7172 -0.5382
 8164SOL    HW235952   1.901   1.369   5.895 -0.0865 -2.6740  0.6911
 8165SOL     OW35953   1.946   0.106   6.625  0.2621 -0.6303  0.0239
 8165SOL    HW135954   1.916   0.097   6.716  0.7383  1.4809  0.3950
 8165SOL    HW235955   2.032   0.063   6.623 -0.2757 -1.7296  0.5634
 8166SOL     OW35956   4.251   1.728   4.278 -0.5559 -0.2929 -0.1044
 8166SOL    HW135957   4.299   1.695   4.353 -1.1195  2.5622  1.5322
 8166SOL    HW235958   4.165   1.707   4.315 -0.7254  0.2300 -0.2006
 8167SOL     OW35959   4.413   3.571   7.612 -0.0140 -0.0072 -0.9387
 8167SOL    HW135960   4.411   3.592   7.706  0.3059  0.0400 -0.9407
 8167SOL    HW235961   4.329   3.525   7.619 -1.6125  3.2136  1.4450
 8168SOL     OW35962   2.340   0.192   4.628  0.6093 -0.3371  0.6817
 8168SOL    HW135963   2.409   0.217   4.567  0.0006  2.5257  1.1636
 8168SOL    HW235964   2.342   0.098   4.614  1.9299 -0.0413 -1.1468
 8169SOL     OW35965   0.638   0.327   3.124 -0.0909 -0.1866 -0.4237
 8169SOL    HW135966   0.544   0.342   3.117 -0.2691 -0.4039  1.4214
 8169SOL    HW235967   0.652   0.238   3.093 -2.6506 -0.6387 -0.2199
 8170SOL     OW35968   3.357   2.007  13.685  0.3217  0.0921 -0.3047
 8170SOL    HW135969   3.331   2.096  13.660 -0.5276 -0.5321 -1.6030
 8170SOL    HW235970   3.339   1.955  13.607 -2.0962  0.9837 -0.3509
 8171SOL     OW35971   3.283   2.644   7.649  0.2593  0.3296  0.2039
 8171SOL    HW135972   3.188   2.648   7.657  0.2660 -0.0200  0.4339
 8171SOL    HW235973   3.307   2.657   7.741 -0.9972  1.8984  0.3115
 8172SOL     OW35974   2.956   4.152   1.155 -0.6894  0.1532  0.0715
 8172SOL    HW135975   2.920   4.091   1.091 -1.1754  1.0627 -0.5292
 8172SOL    HW235976   3.007   4.206   1.095  0.7421 -0.9157  0.3331
 8173SOL     OW35977   2.543   0.448  11.240  0.1350 -0.0728 -0.2019
 8173SOL    HW135978   2.579   0.537  11.236 -0.7083  0.3658  1.8874
 8173SOL    HW235979   2.523   0.441  11.146 -0.3807 -1.6508  0.0306
 8174SOL     OW35980   0.391   0.879  14.684  1.0399  0.1448 -0.2960
 8174SOL    HW135981   0.331   0.824  14.633  0.3980  0.6223 -0.0458
 8174SOL    HW235982   0.332   0.945  14.718  0.4427 -0.4180 -0.2342
 8175SOL     OW35983   1.714   4.308   6.337 -0.4997 -0.1539  0.6687
 8175SOL    HW135984   1.629   4.296   6.379 -1.4413  0.2442 -1.1750
 8175SOL    HW235985   1.722   4.231   6.282 -0.9988  0.4497 -0.2411
 8176SOL     OW35986   3.725   3.463   4.279 -0.2641 -0.6670  0.3045
 8176SOL    HW135987   3.727   3.452   4.184  1.9728 -2.8173  0.6244
 8176SOL    HW235988   3.655   3.529   4.284  0.4613  0.2267 -1.4068
 8177SOL     OW35989   2.898   1.469   4.719  0.0985 -0.1277  0.5315
 8177SOL    HW135990   2.900   1.416   4.799  0.3388 -0.6737  0.1643
 8177SOL    HW235991   2.847   1.542   4.756  0.8686  1.2718 -1.1744
 8178SOL     OW35992   4.223   3.951  12.303  0.3621 -0.4227  0.2315
 8178SOL    HW135993   4.310   3.991  12.296  1.1167 -2.1441 -0.2865
 8178SOL    HW235994   4.234   3.859  12.278  0.1616 -0.0437 -1.2493
 8179SOL     OW35995   2.255   4.031   9.627  0.2762  0.3829 -0.2110
 8179SOL    HW135996   2.349   4.042   9.621  0.5212 -0.6677  1.9255
 8179SOL    HW235997   2.239   4.012   9.534  1.1995  2.6041 -0.8173
 8180SOL     OW35998   0.878   4.251  11.837 -0.7648  0.6914 -0.5049
 8180SOL    HW135999   0.946   4.247  11.904 -0.5406  1.0338 -0.7138
 8180SOL    HW236000   0.866   4.157  11.821  4.5305  0.3073 -2.1215
 8181SOL     OW36001   2.842   1.037  12.487  0.4168  0.1198 -0.2900
 8181SOL    HW136002   2.816   0.964  12.543  0.6350  0.9695  0.9093
 8181SOL    HW236003   2.763   1.091  12.482 -0.1629 -0.6985  0.0904
 8182SOL     OW36004   2.882   0.601   5.024  0.0301 -0.1221  0.4604
 8182SOL    HW136005   2.825   0.559   5.089 -1.1412  0.9515  0.1221
 8182SOL    HW236006   2.864   0.545   4.949 -1.0289 -1.7319  1.9005
 8183SOL     OW36007   3.639   1.427   3.956 -0.1618 -0.1638 -0.2169
 8183SOL    HW136008   3.717   1.451   3.906  1.1764 -2.4584  0.7768
 8183SOL    HW236009   3.576   1.477   3.904 -1.0380 -1.0814 -0.0142
 8184SOL     OW36010   3.488   1.497   7.432  0.3388  0.0558 -0.6045
 8184SOL    HW136011   3.576   1.534   7.437  1.6288 -3.2177  0.6930
 8184SOL    HW236012   3.500   1.419   7.486  0.3603  0.6860  0.3121
 8185SOL     OW36013   3.642   2.228  17.640 -0.0846 -0.0447 -0.1309
 8185SOL    HW136014   3.551   2.251  17.659 -0.6856 -2.8084  0.3530
 8185SOL    HW236015   3.664   2.287  17.568 -1.0187  1.4140  0.7878
 8186SOL     OW36016   1.586   2.430   6.656  0.0429  0.0904  0.4496
 8186SOL    HW136017   1.631   2.372   6.594 -2.6855 -1.3319 -0.2186
 8186SOL    HW236018   1.651   2.431   6.726  1.8101  0.5629 -1.2086
 8187SOL     OW36019   3.414   2.778   2.725  0.0413 -0.0315 -0.3504
 8187SOL    HW136020   3.360   2.811   2.653 -1.1878  1.0102  1.0426
 8187SOL    HW236021   3.427   2.686   2.701 -2.5763 -0.6271  0.4538
 8188SOL     OW36022   1.909   4.643  10.432 -0.2848 -0.4232 -0.1675
 8188SOL    HW136023   1.893   4.552  10.457  1.8467  0.2250  3.4203
 8188SOL    HW236024   1.844   4.694  10.479 -1.1787 -2.1213  0.4436
 8189SOL     OW36025   4.181   0.204   7.039 -0.0473  0.3724 -0.0917
 8189SOL    HW136026   4.207   0.269   6.974  1.2770 -0.5238 -0.4476
 8189SOL    HW236027   4.096   0.192   6.997  0.0039  0.8049 -0.3090
 8190SOL     OW36028   3.038   3.766   8.473  0.1900  0.1498  0.0156
 8190SOL    HW136029   3.076   3.824   8.540  1.3466 -0.0955 -0.4247
 8190SOL    HW236030   2.943   3.764   8.486 -0.1117 -1.0687 -2.4798
 8191SOL     OW36031   1.788   0.826   4.963  0.3015 -0.0961  0.1595
 8191SOL    HW136032   1.829   0.739   4.958 -1.1084 -0.6606 -1.8711
 8191SOL    HW236033   1.866   0.873   4.991  1.1601 -2.4770  1.8011
 8192SOL     OW36034   2.390   2.079  15.002 -0.1905 -0.6336 -0.2437
 8192SOL    HW136035   2.377   2.127  14.920  0.8615  0.4717  0.2312
 8192SOL    HW236036   2.365   2.147  15.064  0.4560  0.9642 -1.7438
 8193SOL     OW36037   1.056   1.668   2.259 -0.8165  0.4876  0.1307
 8193SOL    HW136038   1.037   1.673   2.165  0.2536  2.2748  0.0188
 8193SOL    HW236039   0.971   1.699   2.289 -0.7391  0.3592  0.4778
 8194SOL     OW36040   1.613   1.229   6.649 -0.0282 -0.3430 -0.3564
 8194SOL    HW136041   1.638   1.145   6.609  0.5679 -0.7141  0.8188
 8194SOL    HW236042   1.647   1.295   6.589 -0.1168 -0.1100 -0.1511
 8195SOL     OW36043   3.583   4.189   3.923  0.3611 -0.2543  0.5980
 8195SOL    HW136044   3.631   4.149   3.851  0.8436  0.9150  0.2661
 8195SOL    HW236045   3.584   4.118   3.987  0.2699 -1.5953 -0.8848
 8196SOL     OW36046   0.325   0.622  11.649  0.0898  0.0515 -0.4932
 8196SOL    HW136047   0.316   0.665  11.564  1.0378 -0.8295 -1.0389
 8196SOL    HW236048   0.250   0.564  11.652 -0.2878  0.5613 -0.1030
 8197SOL     OW36049   4.488   2.825   2.453 -0.0447 -0.0457  0.4373
 8197SOL    HW136050   4.555   2.765   2.419 -1.4881 -0.8565 -1.0032
 8197SOL    HW236051   4.439   2.855   2.377 -2.5642  1.8611  2.8200
 8198SOL     OW36052   2.799   0.913   0.730 -0.1052  0.5044  0.7959
 8198SOL    HW136053   2.749   0.854   0.673  2.9215 -1.7749  0.5458
 8198SOL    HW236054   2.809   0.862   0.810 -0.4368 -0.3495  0.2895
 8199SOL     OW36055   0.859   0.949   5.751  0.8129  0.7728  0.0293
 8199SOL    HW136056   0.865   0.863   5.708 -1.6032  0.0132  1.2373
 8199SOL    HW236057   0.886   0.917   5.838  1.5771  0.1710 -0.4217
 8200SOL     OW36058   2.465   0.380   9.056  0.0797  0.8894  0.3771
 8200SOL    HW136059   2.399   0.310   9.065  1.1318 -0.1024  0.4385
 8200SOL    HW236060   2.540   0.326   9.081  1.2317  1.5705 -1.6526
 8201SOL     OW36061   4.542   4.089   2.160 -0.1523  0.5099 -0.0465
 8201SOL    HW136062   4.630   4.063   2.133 -0.5402 -1.9156  1.0122
 8201SOL    HW236063   4.526   4.030   2.233  1.1864 -0.2946 -0.3971
 8202SOL     OW36064   3.480   4.571   5.369  0.0255 -0.1721  0.8276
 8202SOL    HW136065   3.517   4.486   5.347 -0.9611  0.2979 -2.6695
 8202SOL    HW236066   3.558   4.613   5.406 -0.0825 -1.5594  2.5977
 8203SOL     OW36067   0.895   0.609   7.064 -0.0557 -0.3692 -0.3357
 8203SOL    HW136068   0.863   0.676   7.004 -1.9204 -0.8855  0.0783
 8203SOL    HW236069   0.987   0.632   7.055 -0.4855  1.6211  0.2080
 8204SOL     OW36070   3.292   4.602  11.334 -0.1812 -0.6415 -0.0513
 8204SOL    HW136071   3.381   4.637  11.326 -0.2573 -0.2912  0.5727
 8204SOL    HW236072   3.240   4.651  11.270  0.1695 -0.4416 -0.1814
 8205SOL     OW36073   0.417   0.736   9.388 -0.3289 -0.2519 -0.1482
 8205SOL    HW136074   0.413   0.642   9.409 -1.6341  0.0091  0.7867
 8205SOL    HW236075   0.333   0.768   9.422 -0.0783  0.3717 -0.1137
 8206SOL     OW36076   0.831   2.680  10.647  0.0109 -0.2416  0.6368
 8206SOL    HW136077   0.911   2.628  10.652 -0.0657 -0.4422 -0.1934
 8206SOL    HW236078   0.872   2.755  10.605  2.8191 -2.3545 -0.3830
 8207SOL     OW36079   4.718   3.527  16.108  0.0829  0.1872  0.2026
 8207SOL    HW136080   0.002   3.606  16.054  0.8563 -1.3740 -1.9632
 8207SOL    HW236081   4.669   3.473  16.046  0.4184  1.3832 -1.1206
 8208SOL     OW36082   3.506   4.027   6.888 -0.5962 -0.0676  0.1355
 8208SOL    HW136083   3.441   4.066   6.829 -2.1347  0.1568  1.9927
 8208SOL    HW236084   3.561   4.104   6.904 -0.9273  0.3284 -0.6207
 8209SOL     OW36085   2.466   4.388   6.868  0.6404  0.1223 -0.2269
 8209SOL    HW136086   2.440   4.331   6.795  0.6040  2.1623 -1.8269
 8209SOL    HW236087   2.391   4.447   6.880  0.6811 -0.1939  1.5649
 8210SOL     OW36088   0.684   3.062   2.910  0.0336  0.1794 -0.0731
 8210SOL    HW136089   0.756   3.115   2.877  2.9263 -2.1961  2.3807
 8210SOL    HW236090   0.628   3.070   2.833 -0.6157  1.7593  0.5726
 8211SOL     OW36091   4.540   1.266   3.190  0.3887  0.2568 -0.2303
 8211SOL    HW136092   4.508   1.260   3.280  0.5951  0.1188 -0.1662
 8211SOL    HW236093   4.476   1.325   3.150 -0.4648 -0.4315  0.1034
 8212SOL     OW36094   1.426   1.976   8.053 -0.3705 -0.6806  0.3097
 8212SOL    HW136095   1.515   1.978   8.087 -0.9515  1.2779  1.7100
 8212SOL    HW236096   1.454   1.965   7.962 -1.2912 -0.1152 -0.0433
 8213SOL     OW36097   3.273   3.764   8.796 -0.0719  0.1070 -0.3319
 8213SOL    HW136098   3.256   3.709   8.873  2.8673  0.1975  0.3837
 8213SOL    HW236099   3.193   3.816   8.789  0.2179  0.3950 -1.5533
 8214SOL     OW36100   1.952   1.139   9.078 -0.4266 -0.5174 -0.4832
 8214SOL    HW136101   1.941   1.210   9.140  1.5638 -1.7036  1.2333
 8214SOL    HW236102   1.941   1.065   9.138  0.7920 -0.8743 -0.6985
 8215SOL     OW36103   4.667   4.719   5.624  0.0431  0.0819 -0.0200
 8215SOL    HW136104   4.632   0.079   5.654 -0.6176 -1.1861  2.6775
 8215SOL    HW236105   4.663   0.015   5.530  0.7471 -2.3934 -0.5646
 8216SOL     OW36106   3.487   2.365   9.989 -0.1218 -0.4344  0.8435
 8216SOL    HW136107   3.519   2.278   9.967  2.5976  1.0133 -0.8205
 8216SOL    HW236108   3.530   2.422   9.926 -0.8944  0.4311  1.1002
 8217SOL     OW36109   1.168   2.580   9.221 -0.8111  0.1158 -0.3312
 8217SOL    HW136110   1.115   2.528   9.282 -1.7808 -0.1196 -1.3838
 8217SOL    HW236111   1.213   2.620   9.296 -0.6170 -1.2923  0.3069
 8218SOL     OW36112   2.150   3.308   8.476 -0.1378  0.0134 -0.8295
 8218SOL    HW136113   2.216   3.370   8.507  0.7094 -2.2860  1.9473
 8218SOL    HW236114   2.169   3.293   8.383  1.9614 -1.3698 -0.1686
 8219SOL     OW36115   4.376   2.394  15.747 -0.5804 -0.3413 -0.1081
 8219SOL    HW136116   4.400   2.410  15.656  1.9103 -0.1796  0.5544
 8219SOL    HW236117   4.461   2.419  15.784 -0.2854 -1.5102  0.0010
 8220SOL     OW36118   2.629   2.857   7.843 -0.3179  0.1516 -0.1965
 8220SOL    HW136119   2.586   2.827   7.763  0.8088 -1.6375 -0.1379
 8220SOL    HW236120   2.668   2.941   7.817 -0.0188  0.7451  2.1774
 8221SOL     OW36121   3.350   0.894   1.493  0.3107  0.2187  0.0422
 8221SOL    HW136122   3.315   0.920   1.579  2.6266  0.5244  0.8975
 8221SOL    HW236123   3.329   0.801   1.501  0.8406  0.2966  2.3723
 8222SOL     OW36124   0.689   1.881   6.950 -0.0447  0.5412 -0.0075
 8222SOL    HW136125   0.754   1.883   7.020 -0.9302  1.1518  0.8026
 8222SOL    HW236126   0.618   1.833   6.993  0.2048 -0.2759 -0.5009
 8223SOL     OW36127   1.684   3.859  10.370 -0.4807  0.0865 -0.0575
 8223SOL    HW136128   1.696   3.874  10.276 -0.8415  1.2518  0.0775
 8223SOL    HW236129   1.606   3.914  10.379 -0.7578 -0.3325  0.1070
 8224SOL     OW36130   0.598   2.024   4.873  0.0652  0.2404  0.0836
 8224SOL    HW136131   0.653   1.946   4.865  0.6292  0.6314  0.1240
 8224SOL    HW236132   0.667   2.081   4.905 -0.8176  1.2462  0.1758
 8225SOL     OW36133   4.378   1.160   4.621 -0.3093  0.1778  0.2131
 8225SOL    HW136134   4.400   1.197   4.536 -0.6742  1.2321  0.5721
 8225SOL    HW236135   4.429   1.080   4.612 -0.5324  0.2175 -1.4300
 8226SOL     OW36136   4.040   1.605   8.387  0.2244  0.5614  0.3220
 8226SOL    HW136137   4.115   1.619   8.328  0.6474  1.2329  1.0108
 8226SOL    HW236138   4.017   1.522   8.346  0.7623 -0.1700  1.5166
 8227SOL     OW36139   2.489   2.490   5.678 -0.0608 -0.0543  0.3004
 8227SOL    HW136140   2.475   2.461   5.588 -0.4126 -1.2754  0.7488
 8227SOL    HW236141   2.566   2.435   5.695 -0.8218 -1.1812  0.0716
 8228SOL     OW36142   1.873   2.249   6.092 -0.0030  0.5357 -0.4616
 8228SOL    HW136143   1.856   2.283   6.004 -0.7160  0.3576 -0.3896
 8228SOL    HW236144   1.797   2.282   6.140 -0.8577 -1.6289 -0.3330
 8229SOL     OW36145   3.169   2.607   0.276 -0.1520  0.1200  0.3509
 8229SOL    HW136146   3.089   2.608   0.224 -0.2539 -1.1426  0.5009
 8229SOL    HW236147   3.144   2.631   0.365  1.7611 -2.4089  1.5665
 8230SOL     OW36148   0.067   4.693  15.468 -0.2120  0.2114 -0.1784
 8230SOL    HW136149   4.708   4.671  15.426 -0.5140 -0.3780  0.7235
 8230SOL    HW236150   0.050   4.663  15.557 -0.7014  1.8811  0.2916
 8231SOL     OW36151   4.106   3.134   6.766 -0.8268  0.5004  0.4394
 8231SOL    HW136152   4.028   3.080   6.760 -1.2267  0.9760  1.4020
 8231SOL    HW236153   4.140   3.113   6.853  0.9255  0.7404 -0.1908
 8232SOL     OW36154   0.788   0.508   3.269 -0.3772  0.0205  0.0111
 8232SOL    HW136155   0.867   0.502   3.215 -1.2836  0.9804 -1.4367
 8232SOL    HW236156   0.731   0.458   3.210  0.2508  2.4869 -2.7347
 8233SOL     OW36157   0.024   3.310   7.193  0.6264 -0.6321  0.1069
 8233SOL    HW136158   0.076   3.236   7.226 -1.0554 -1.3623  1.1315
 8233SOL    HW236159   0.040   3.382   7.254  0.2447  0.7000 -1.3793
 8234SOL     OW36160   3.909   3.861   7.840  0.0103  0.0080 -0.3397
 8234SOL    HW136161   3.846   3.916   7.795  0.7140  1.3701  0.3231
 8234SOL    HW236162   3.998   3.897   7.837  1.2325 -2.9483 -0.0063
 8235SOL     OW36163   4.391   2.461  13.866  0.7997  0.5077 -1.1265
 8235SOL    HW136164   4.351   2.417  13.791 -0.9602  2.5248 -1.3663
 8235SOL    HW236165   4.385   2.551  13.832  1.4983  1.9899  2.5704
 8236SOL     OW36166   3.912   2.814   2.333 -0.1053  1.0862  0.5141
 8236SOL    HW136167   3.854   2.872   2.384 -1.6199  0.3711 -0.4213
 8236SOL    HW236168   3.994   2.864   2.332  1.3998 -1.4043  1.8900
 8237SOL     OW36169   4.410   1.436  15.416 -0.2151 -0.3760 -0.0782
 8237SOL    HW136170   4.468   1.475  15.482  1.0753 -1.0730 -0.8048
 8237SOL    HW236171   4.333   1.492  15.419  0.3238  0.4384 -1.6749
 8238SOL     OW36172   2.769   4.700  13.511 -0.3083  0.6027 -0.1040
 8238SOL    HW136173   2.730   0.059  13.539  0.4642  0.9822 -0.1452
 8238SOL    HW236174   2.702   4.674  13.448 -0.1962 -0.9587  0.4345
 8239SOL     OW36175   3.359   3.694   8.024  0.0094 -0.6810 -0.5250
 8239SOL    HW136176   3.444   3.666   8.058 -0.7997 -1.5378  0.7866
 8239SOL    HW236177   3.304   3.669   8.098 -1.3292 -0.7185 -1.5339
 8240SOL     OW36178   1.737   3.249   5.727 -0.3158  0.2084  0.1440
 8240SOL    HW136179   1.667   3.218   5.785  0.6697  1.7572  2.2005
 8240SOL    HW236180   1.789   3.298   5.791  1.3591 -1.3550 -0.0342
 8241SOL     OW36181   3.975   4.099   4.912 -0.1611  0.0031  0.1245
 8241SOL    HW136182   3.904   4.123   4.852 -1.0550 -0.6640  0.8976
 8241SOL    HW236183   4.050   4.118   4.856 -0.2222  1.0207  0.3917
 8242SOL     OW36184   2.532   4.267   0.331  0.8719 -0.2597  0.0284
 8242SOL    HW136185   2.509   4.327   0.402 -1.5981 -3.9670  2.3585
 8242SOL    HW236186   2.624   4.261   0.358  1.0043  2.2593  0.1549
 8243SOL     OW36187   3.782   2.280   3.216  0.3612  0.1932 -0.0779
 8243SOL    HW136188   3.834   2.265   3.137  1.4155 -0.3626  0.7187
 8243SOL    HW236189   3.695   2.245   3.200  0.7738 -0.9522  0.1863
 8244SOL     OW36190   2.433   2.354   3.084 -0.6350 -0.6737 -0.6358
 8244SOL    HW136191   2.345   2.317   3.088 -1.3454  1.0400 -0.3708
 8244SOL    HW236192   2.403   2.443   3.063  0.3638 -0.0451  0.5769
 8245SOL     OW36193   4.064   0.407   4.215  0.3788  0.1631  0.0553
 8245SOL    HW136194   4.111   0.353   4.151 -0.3422  1.0766 -1.2555
 8245SOL    HW236195   4.111   0.389   4.296  0.2163  0.3644  0.1940
 8246SOL     OW36196   4.482   3.666   0.409  0.2017  0.7131 -0.0284
 8246SOL    HW136197   4.429   3.724   0.464 -0.7294  0.1466 -0.3282
 8246SOL    HW236198   4.470   3.708   0.324 -0.3972  1.5935  0.4897
 8247SOL     OW36199   1.376   3.158   9.068  0.1039 -0.1691  0.0941
 8247SOL    HW136200   1.351   3.076   9.025  1.0373  0.1623 -1.0961
 8247SOL    HW236201   1.288   3.195   9.077 -0.6772 -1.4806 -1.9380
 8248SOL     OW36202   2.873   3.270   2.633 -0.2398 -0.1833  0.7773
 8248SOL    HW136203   2.892   3.330   2.705 -0.3092 -0.2281  0.8327
 8248SOL    HW236204   2.878   3.328   2.557 -0.9225  0.6767  1.4018
 8249SOL     OW36205   4.480   1.830   3.050  0.3117  0.1334  0.1041
 8249SOL    HW136206   4.448   1.874   2.972 -1.1624 -0.5079  0.3406
 8249SOL    HW236207   4.505   1.914   3.088 -2.2742  0.7844  0.3157
 8250SOL     OW36208   1.742   3.247   1.897  0.5721  0.2732 -0.3396
 8250SOL    HW136209   1.651   3.273   1.883 -0.2953 -2.8965 -0.5382
 8250SOL    HW236210   1.785   3.281   1.818  1.5695  3.3303  1.5218
 8251SOL     OW36211   2.401   1.892   6.390 -0.2812  0.1999 -0.4766
 8251SOL    HW136212   2.347   1.882   6.311 -1.1670  0.7636  0.0593
 8251SOL    HW236213   2.480   1.941   6.369 -0.0618  0.1965  0.3712
 8252SOL     OW36214   3.013   3.776   3.362 -0.2367  0.2255  0.6143
 8252SOL    HW136215   3.031   3.795   3.455 -3.1339 -2.2732  1.6812
 8252SOL    HW236216   2.926   3.736   3.366 -0.7630  1.3214 -0.1584
 8253SOL     OW36217   3.942   0.528   3.213  0.8421  0.5862 -0.1108
 8253SOL    HW136218   3.971   0.437   3.223  2.1984  1.0590  0.2771
 8253SOL    HW236219   3.854   0.515   3.177  0.7536 -1.4468  0.8261
 8254SOL     OW36220   0.449   4.557  11.724  0.4857 -0.4079  0.3044
 8254SOL    HW136221   0.361   4.591  11.710  1.5424  1.9956 -0.3872
 8254SOL    HW236222   0.496   4.588  11.647 -0.0800  0.6286  0.3840
 8255SOL     OW36223   3.212   3.536   7.268  0.2178  0.2068  0.1222
 8255SOL    HW136224   3.230   3.629   7.255  1.0984 -0.1419 -1.1907
 8255SOL    HW236225   3.117   3.527   7.275  0.2111 -1.1261 -1.5694
 8256SOL     OW36226   2.595   3.499   4.633  0.7567  0.0303  0.3455
 8256SOL    HW136227   2.662   3.515   4.567  0.5953  0.3405  0.2565
 8256SOL    HW236228   2.558   3.413   4.614  0.4414 -0.0644  1.3381
 8257SOL     OW36229   1.033   0.285  12.777  0.2487 -0.3710 -0.0830
 8257SOL    HW136230   1.026   0.375  12.811  0.7235 -0.5162  0.3973
 8257SOL    HW236231   0.969   0.278  12.706 -0.9806  1.4359  0.8738
 8258SOL     OW36232   3.051   3.498   5.387  0.4839 -0.5727 -0.1664
 8258SOL    HW136233   3.024   3.571   5.331 -1.4613 -1.9247 -1.0065
 8258SOL    HW236234   3.123   3.542   5.431 -1.0263 -0.0761  1.8193
 8259SOL     OW36235   4.714   2.647  13.856 -0.5830  0.7805  0.1119
 8259SOL    HW136236   4.700   2.562  13.899 -2.7939  0.5994 -0.9493
 8259SOL    HW236237   0.085   2.643  13.854 -0.5965  0.0310  1.0933
 8260SOL     OW36238   4.436   0.131   4.142 -0.0983  0.3557  0.2124
 8260SOL    HW136239   4.343   0.152   4.147  0.1053  0.8765  1.8542
 8260SOL    HW236240   4.472   0.159   4.226  0.6881 -1.0092  0.3218
 8261SOL     OW36241   0.070   2.374  17.661  0.1951  0.1552 -0.9847
 8261SOL    HW136242   0.029   2.461  17.663  1.8547  0.9173  0.0392
 8261SOL    HW236243   0.036   2.332  17.582  2.1942 -1.2346 -1.1014
 8262SOL     OW36244   1.328   0.805   3.726 -0.3154  0.3393 -0.4414
 8262SOL    HW136245   1.396   0.846   3.673 -2.0533  3.3518 -0.3406
 8262SOL    HW236246   1.390   0.758   3.781  0.5829 -0.0175 -1.7406
 8263SOL     OW36247   0.011   3.935  13.618 -0.0427  0.2738 -0.1314
 8263SOL    HW136248   0.004   4.016  13.568 -0.3354  0.4513  0.2003
 8263SOL    HW236249   4.668   3.939  13.687  1.6993 -0.1125  1.5611
 8264SOL     OW36250   3.151   1.134  14.543  0.1461  0.3957  0.1534
 8264SOL    HW136251   3.107   1.155  14.461 -1.7140 -1.2126  0.7381
 8264SOL    HW236252   3.212   1.207  14.537  2.1718 -1.4971 -2.4290
 8265SOL     OW36253   3.547   2.130   8.068  0.2940 -0.0250  0.0701
 8265SOL    HW136254   3.503   2.168   7.992  0.3086 -1.9989 -0.9181
 8265SOL    HW236255   3.637   2.146   8.041  0.0829 -0.3537 -0.8298
 8266SOL     OW36256   4.158   0.201   5.400 -0.0207  0.4640 -0.3825
 8266SOL    HW136257   4.206   0.282   5.382  1.6429 -0.4675 -0.1939
 8266SOL    HW236258   4.081   0.241   5.440  0.5190  0.6570  0.4659
 8267SOL     OW36259   2.834   2.809   2.830 -0.2282 -0.1863  0.2811
 8267SOL    HW136260   2.792   2.782   2.912 -0.4514  2.0425  0.8830
 8267SOL    HW236261   2.776   2.784   2.758 -0.2787 -0.9998  0.5975
 8268SOL     OW36262   2.224   2.511  12.822 -0.0294 -0.2888 -0.0519
 8268SOL    HW136263   2.207   2.553  12.906 -0.1072  0.5623 -0.4941
 8268SOL    HW236264   2.320   2.506  12.815 -0.0280 -0.3977  0.0517
 8269SOL     OW36265   4.714   2.426   0.609  0.3016 -0.3143  0.2496
 8269SOL    HW136266   0.008   2.377   0.690 -0.9954 -1.0257  0.0963
 8269SOL    HW236267   4.632   2.383   0.585  1.4162 -0.8014 -2.6173
 8270SOL     OW36268   3.113   4.394   3.181  0.0643 -0.4509 -0.2878
 8270SOL    HW136269   3.164   4.418   3.104  1.4955 -1.1827  0.4467
 8270SOL    HW236270   3.093   4.302   3.167 -0.9616 -0.8508  3.6187
 8271SOL     OW36271   0.958   4.136   5.423  0.8672 -0.7045 -0.1177
 8271SOL    HW136272   0.883   4.085   5.391  1.1671 -1.0919 -0.1917
 8271SOL    HW236273   0.992   4.175   5.343 -2.8794 -1.9418 -2.2945
 8272SOL     OW36274   1.962   3.882  16.383 -0.1337 -0.2469 -0.1145
 8272SOL    HW136275   1.943   3.849  16.295  0.2652 -0.0735 -0.2651
 8272SOL    HW236276   1.879   3.861  16.425 -0.8199 -2.3908 -2.5478
 8273SOL     OW36277   2.089   3.047   6.636  0.5922 -0.3242 -0.2328
 8273SOL    HW136278   2.024   3.117   6.634  0.2660 -0.6867 -2.5264
 8273SOL    HW236279   2.161   3.080   6.582  0.1087  0.0685 -0.6386
 8274SOL     OW36280   2.009   1.413   7.378 -0.1949 -0.2898 -0.0548
 8274SOL    HW136281   1.944   1.482   7.390 -0.5066 -0.9544  2.0747
 8274SOL    HW236282   1.992   1.384   7.288  1.4974  2.6344 -1.3244
 8275SOL     OW36283   4.322   0.742   9.784  0.1705  0.3105 -0.2866
 8275SOL    HW136284   4.358   0.659   9.816 -0.9710  0.9016  2.5037
 8275SOL    HW236285   4.315   0.792   9.865 -2.0978  3.3244 -2.3292
 8276SOL     OW36286   2.919   2.419   6.570 -0.4835 -0.8544  0.0359
 8276SOL    HW136287   2.945   2.501   6.527 -0.4016 -0.3305  1.0964
 8276SOL    HW236288   3.000   2.371   6.554  1.0282  0.0828  4.9271
 8277SOL     OW36289   4.473   3.313   6.293 -0.4855  0.4021 -0.7367
 8277SOL    HW136290   4.546   3.357   6.250 -0.1269  0.1495 -0.3902
 8277SOL    HW236291   4.518   3.286   6.374  0.9161  0.1428 -1.5979
 8278SOL     OW36292   0.955   1.130   7.406 -0.0320  0.3275 -0.0325
 8278SOL    HW136293   0.928   1.133   7.498 -1.4214 -2.7125 -0.3567
 8278SOL    HW236294   0.892   1.195   7.374 -0.3888 -0.6909 -1.3693
 8279SOL     OW36295   0.346   0.967   1.780  0.1844 -0.1242  0.4537
 8279SOL    HW136296   0.410   1.029   1.815 -0.2436 -0.5399  1.9530
 8279SOL    HW236297   0.391   0.884   1.795 -0.1000 -0.5569 -1.1420
 8280SOL     OW36298   4.517   4.638   5.323 -0.0192 -0.0054  0.4281
 8280SOL    HW136299   4.495   4.654   5.231  0.3543  1.5112  0.6124
 8280SOL    HW236300   4.606   4.671   5.333 -0.8255  1.1272  3.6732
 8281SOL     OW36301   4.286   2.899   8.245  0.0490 -0.1643  0.2878
 8281SOL    HW136302   4.339   2.879   8.322 -2.4842  0.7824  2.2751
 8281SOL    HW236303   4.276   2.815   8.199 -3.0341 -1.1051  2.6736
 8282SOL     OW36304   0.596   1.432   6.037 -0.0454 -0.2215 -0.8912
 8282SOL    HW136305   0.532   1.420   5.967 -1.3413 -0.5726  0.3415
 8282SOL    HW236306   0.621   1.345   6.067  0.7447  0.3326  0.0586
 8283SOL     OW36307   1.919   3.373   3.443 -0.0118  0.1916 -0.3667
 8283SOL    HW136308   1.963   3.290   3.462  0.0539  0.2795 -0.1394
 8283SOL    HW236309   1.829   3.355   3.470 -0.4382  3.0403  0.0679
 8284SOL     OW36310   3.631   2.613   8.914  0.1989  0.4142 -0.0253
 8284SOL    HW136311   3.697   2.681   8.901  0.3837  0.4684  1.2869
 8284SOL    HW236312   3.562   2.651   8.968 -1.3158 -0.2746 -1.4710
 8285SOL     OW36313   3.231   1.936   4.890  0.3945 -0.5458 -0.3837
 8285SOL    HW136314   3.247   1.936   4.796  0.1619  0.8425 -0.4243
 8285SOL    HW236315   3.289   1.864   4.917  1.5748 -0.0858 -1.6827
 8286SOL     OW36316   4.251   3.242  14.656 -0.3556 -0.1549 -0.5612
 8286SOL    HW136317   4.258   3.160  14.705  1.4392  0.8280  0.8062
 8286SOL    HW236318   4.206   3.216  14.575  2.2355 -2.1655 -1.3388
 8287SOL     OW36319   1.026   2.128   0.069 -0.2770 -0.4484 -0.0685
 8287SOL    HW136320   0.945   2.179   0.071 -1.1089 -1.7641 -0.4212
 8287SOL    HW236321   1.078   2.171   0.001  0.8857 -0.9576  0.5010
 8288SOL     OW36322   2.313   2.843   7.852 -0.1985 -0.0905  0.3502
 8288SOL    HW136323   2.295   2.755   7.818 -1.3756  1.0292 -1.9292
 8288SOL    HW236324   2.398   2.864   7.812 -0.4431  2.1388  0.9817
 8289SOL     OW36325   0.149   4.144   7.929 -0.0753  0.0660 -0.4233
 8289SOL    HW136326   0.095   4.102   7.862 -0.2854 -0.8180  0.3137
 8289SOL    HW236327   0.228   4.091   7.919 -0.6591 -0.8782 -0.0204
 8290SOL     OW36328   0.512   1.344   5.787  0.1299 -0.5553  0.1961
 8290SOL    HW136329   0.501   1.296   5.705 -0.8753  0.3276 -0.1871
 8290SOL    HW236330   0.450   1.289   5.833  2.0881 -1.7038  1.4835
 8291SOL     OW36331   2.134   1.649   6.003  0.0495 -0.3761  0.2397
 8291SOL    HW136332   2.084   1.652   5.922 -0.8882  0.9259  0.8569
 8291SOL    HW236333   2.221   1.617   5.981  0.0914 -1.1694  1.5214
 8292SOL     OW36334   0.654   2.590   7.935  0.2558  0.2303  0.0773
 8292SOL    HW136335   0.681   2.537   7.860 -0.6556  0.6752 -0.5536
 8292SOL    HW236336   0.561   2.608   7.920  0.2925  0.2080 -0.1740
 8293SOL     OW36337   2.128   2.347   8.084 -0.0455 -0.6824  0.2379
 8293SOL    HW136338   2.095   2.327   8.171  0.5158 -0.4879  0.4993
 8293SOL    HW236339   2.214   2.305   8.086  0.9444  1.3207  0.4916
 8294SOL     OW36340   1.452   2.729  10.069 -0.4864 -0.0934 -0.2153
 8294SOL    HW136341   1.398   2.690  10.001 -0.8852 -2.5651  1.5282
 8294SOL    HW236342   1.456   2.819  10.035  0.6655 -0.6392 -1.4931
 8295SOL     OW36343   3.475   4.459   2.974  0.0549  0.1926  0.3945
 8295SOL    HW136344   3.401   4.519   2.963 -1.2012 -1.2663  0.9597
 8295SOL    HW236345   3.429   4.379   2.950 -1.3035  0.2007  2.9025
 8296SOL     OW36346   2.770   3.313   6.313 -0.0218 -0.4239  0.3528
 8296SOL    HW136347   2.710   3.313   6.238  0.9529 -2.0283 -0.4063
 8296SOL    HW236348   2.725   3.246   6.365  0.6848 -1.8916 -0.9390
 8297SOL     OW36349   3.874   0.516   6.462 -0.0058 -0.5922 -0.0491
 8297SOL    HW136350   3.823   0.574   6.520  1.3850  0.5599  0.0082
 8297SOL    HW236351   3.958   0.562   6.461  0.1298 -0.8985 -2.1631
 8298SOL     OW36352   1.395   1.750   6.764  0.4348 -0.2990  0.7286
 8298SOL    HW136353   1.335   1.726   6.693  0.9769 -2.8591  1.1272
 8298SOL    HW236354   1.463   1.795   6.713 -0.2538 -0.5226 -0.3965
 8299SOL     OW36355   1.194   2.511  16.537  0.1006  0.0233  0.2798
 8299SOL    HW136356   1.128   2.443  16.550  0.9899 -1.2642 -2.1288
 8299SOL    HW236357   1.230   2.522  16.625  0.3788 -2.2108  0.4420
 8300SOL     OW36358   0.660   4.297   7.601  0.2148 -0.0326 -0.5551
 8300SOL    HW136359   0.584   4.259   7.557 -1.6761  0.6826  2.0319
 8300SOL    HW236360   0.678   4.221   7.658  1.1090 -0.0364 -0.8454
 8301SOL     OW36361   0.583   1.836   4.586  0.9622  0.1944  0.2550
 8301SOL    HW136362   0.644   1.817   4.657  1.9337  2.1839 -0.0248
 8301SOL    HW236363   0.633   1.911   4.552  1.0632 -0.4334 -0.9900
 8302SOL     OW36364   0.078   1.848   7.555  0.0152 -0.4001  0.1248
 8302SOL    HW136365   0.040   1.814   7.474 -0.2259  2.6356 -1.0141
 8302SOL    HW236366   4.724   1.876   7.602  0.9563  1.6422  0.4855
 8303SOL     OW36367   0.579   2.027   2.722 -0.2967 -0.0975 -0.0939
 8303SOL    HW136368   0.512   1.997   2.660 -2.2400  0.1755  1.9057
 8303SOL    HW236369   0.653   1.972   2.696  0.5502  0.9367  0.1402
 8304SOL     OW36370   2.392   2.741  15.998 -0.2315 -0.0647  0.2719
 8304SOL    HW136371   2.427   2.653  15.990  0.2642 -0.0263  2.0909
 8304SOL    HW236372   2.320   2.722  16.058  1.8326  1.5510  3.2484
 8305SOL     OW36373   2.790   2.501   1.853 -0.7599  0.4334 -0.4235
 8305SOL    HW136374   2.861   2.564   1.837  0.7804 -1.1223  0.2538
 8305SOL    HW236375   2.745   2.554   1.918 -0.9989  1.1022 -1.1380
 8306SOL     OW36376   1.544   0.348   8.410  0.1643  0.5377 -0.7316
 8306SOL    HW136377   1.601   0.289   8.361 -0.2876  0.0326 -0.6381
 8306SOL    HW236378   1.607   0.420   8.416  0.3631  0.3037 -0.0175
 8307SOL     OW36379   1.280   0.070  11.980 -0.3363  0.3944  0.1658
 8307SOL    HW136380   1.365   0.109  11.996  0.9416 -2.2198 -0.2456
 8307SOL    HW236381   1.296   4.701  11.960  0.3718  0.9942 -2.0447
 8308SOL     OW36382   1.187   1.947   5.694  0.3395 -0.1572 -0.1132
 8308SOL    HW136383   1.098   1.977   5.675 -0.2331 -0.6095  1.7961
 8308SOL    HW236384   1.176   1.899   5.777  0.6927 -0.2419 -0.1165
 8309SOL     OW36385   3.512   3.693   1.492 -0.0892  0.0998 -0.2654
 8309SOL    HW136386   3.569   3.649   1.556  0.9927  2.2653  0.2544
 8309SOL    HW236387   3.442   3.703   1.556  3.2785  1.8253  3.1570
 8310SOL     OW36388   3.373   3.125  10.513  0.1900 -0.0696 -0.3449
 8310SOL    HW136389   3.390   3.147  10.421  1.6247 -0.8365 -0.2544
 8310SOL    HW236390   3.338   3.037  10.503 -0.8784  0.3760 -0.6394
 8311SOL     OW36391   1.388   2.712  14.025 -0.3149 -0.2413 -0.2452
 8311SOL    HW136392   1.479   2.705  13.996 -1.2973 -1.5451 -3.0255
 8311SOL    HW236393   1.348   2.627  14.004 -2.8224  0.8319  0.1999
 8312SOL     OW36394   1.639   2.302   1.948 -0.2586 -0.6030  0.9772
 8312SOL    HW136395   1.563   2.246   1.963 -0.3158 -0.8160 -0.1183
 8312SOL    HW236396   1.605   2.365   1.885 -3.1089 -1.7152  1.4007
 8313SOL     OW36397   1.658   3.467   5.561 -0.1116 -0.6773 -0.5166
 8313SOL    HW136398   1.607   3.467   5.480  0.5110  0.1771 -0.9071
 8313SOL    HW236399   1.653   3.377   5.594  1.2892 -0.6962 -0.3257
 8314SOL     OW36400   0.392   2.469   7.583  0.2378  0.0113  0.2685
 8314SOL    HW136401   0.302   2.455   7.555 -0.5476  3.9492  0.7520
 8314SOL    HW236402   0.399   2.565   7.574  0.8839  0.1938  2.8515
 8315SOL     OW36403   0.249   2.380   0.896 -0.3492 -0.3595  0.0958
 8315SOL    HW136404   0.292   2.297   0.915 -1.0803  0.1005  3.7065
 8315SOL    HW236405   0.157   2.357   0.903 -0.6483  0.2032 -2.0421
 8316SOL     OW36406   1.039   0.398   8.527  0.1851  0.3138  0.3570
 8316SOL    HW136407   0.958   0.348   8.537 -0.4950  1.7167  1.8816
 8316SOL    HW236408   1.090   0.340   8.470  1.2449  1.9840 -0.4127
 8317SOL     OW36409   1.287   4.346   7.339  1.0299  0.0890  0.5190
 8317SOL    HW136410   1.336   4.411   7.388  2.0132 -0.9588  0.9263
 8317SOL    HW236411   1.221   4.322   7.404  1.4139  2.6034  1.8291
 8318SOL     OW36412   2.248   4.703   5.615 -0.1260 -0.2224 -0.3755
 8318SOL    HW136413   2.242   4.621   5.566 -2.2043  0.5965 -1.4794
 8318SOL    HW236414   2.341   4.720   5.597  0.2310 -1.1069  0.6151
 8319SOL     OW36415   1.233   1.754   6.988 -0.0850  0.1631 -0.3953
 8319SOL    HW136416   1.196   1.670   7.015 -0.7967  0.2295 -1.1611
 8319SOL    HW236417   1.289   1.728   6.916  0.8710 -0.6208  0.6220
 8320SOL     OW36418   0.832   3.079   7.911  0.1396 -0.1415 -0.2374
 8320SOL    HW136419   0.769   3.087   7.982  0.4348  1.5413 -0.1573
 8320SOL    HW236420   0.911   3.047   7.954 -1.2738 -1.7299  1.1465
 8321SOL     OW36421   0.155   1.917   3.145 -0.1718 -0.0531 -0.0484
 8321SOL    HW136422   0.167   1.963   3.062 -1.1341 -1.4707 -0.9824
 8321SOL    HW236423   0.102   1.841   3.121 -0.1223 -0.0306 -0.2302
 8322SOL     OW36424   0.287   3.403   1.937 -0.1428 -0.0294  0.1650
 8322SOL    HW136425   0.321   3.332   1.882  1.4885 -1.1352  2.5807
 8322SOL    HW236426   0.253   3.466   1.874  0.0166 -0.6454 -0.5301
 8323SOL     OW36427   1.470   4.345  16.027  0.1542  0.0448 -0.1752
 8323SOL    HW136428   1.504   4.299  15.950  2.3603 -1.4598  1.7229
 8323SOL    HW236429   1.533   4.417  16.030 -1.7557  1.6859  0.8143
 8324SOL     OW36430   1.683   0.641  11.762  0.1602 -0.4882  0.3834
 8324SOL    HW136431   1.665   0.728  11.797  2.0536 -0.0358  0.2030
 8324SOL    HW236432   1.764   0.663  11.715  0.6469 -1.2001  0.8816
 8325SOL     OW36433   3.097   2.529  13.724  0.5692  0.3418 -0.4883
 8325SOL    HW136434   3.110   2.442  13.687  2.2513  0.0076  0.8616
 8325SOL    HW236435   3.001   2.522  13.728  0.7996 -1.4478  2.2098
 8326SOL     OW36436   3.594   0.993   9.776  0.0907 -0.1392  0.2597
 8326SOL    HW136437   3.532   0.979   9.847 -1.1351  1.8970 -0.4262
 8326SOL    HW236438   3.648   0.914   9.774 -1.7230 -1.2912 -2.2781
 8327SOL     OW36439   2.716   1.511   2.351 -0.4758  0.2781 -0.3698
 8327SOL    HW136440   2.662   1.454   2.295 -1.6032  0.3920  0.5990
 8327SOL    HW236441   2.680   1.473   2.431  1.3220 -0.2952  0.1591
 8328SOL     OW36442   0.220   2.807   2.241  1.1358 -0.2677 -0.5888
 8328SOL    HW136443   0.156   2.871   2.273  0.2279  0.0419 -3.0235
 8328SOL    HW236444   0.187   2.776   2.157 -1.3624  0.1356  0.2266
 8329SOL     OW36445   2.296   0.924  16.796 -0.0786 -0.1858  0.3170
 8329SOL    HW136446   2.365   0.858  16.801 -0.2192 -0.4715 -1.2303
 8329SOL    HW236447   2.221   0.867  16.818  0.1374 -0.2297  0.9255
 8330SOL     OW36448   3.234   4.150   0.820  0.3176  0.5739  0.3761
 8330SOL    HW136449   3.235   4.099   0.901  3.7772  1.5641  0.9710
 8330SOL    HW236450   3.320   4.131   0.782  0.9326  1.0009  1.5224
 8331SOL     OW36451   0.519   4.261   3.586 -0.1664 -0.1267 -0.0789
 8331SOL    HW136452   0.453   4.243   3.653  0.8289 -1.1201  0.6290
 8331SOL    HW236453   0.515   4.357   3.590  1.4524 -0.0875  0.2632
 8332SOL     OW36454   4.508   2.767  10.222 -0.4966 -0.5206  0.1234
 8332SOL    HW136455   4.571   2.708  10.180  1.1181  2.8803 -2.2245
 8332SOL    HW236456   4.497   2.836  10.156  1.5127 -0.5962 -0.2932
 8333SOL     OW36457   1.100   3.536  10.046 -0.5555 -0.0043  0.6468
 8333SOL    HW136458   1.020   3.495  10.013 -0.0208  0.5227 -1.3294
 8333SOL    HW236459   1.104   3.507  10.137 -1.0332 -1.2202  0.2740
 8334SOL     OW36460   0.034   1.950   8.747  0.1858  0.3560 -0.4169
 8334SOL    HW136461   4.717   1.898   8.817 -0.7084  0.3892 -0.9180
 8334SOL    HW236462   4.674   1.978   8.709  0.7618  0.3700 -1.6440
 8335SOL     OW36463   2.513   3.767   3.697 -0.2213  0.2590 -0.0904
 8335SOL    HW136464   2.572   3.798   3.629  1.3901 -0.1094  1.1329
 8335SOL    HW236465   2.541   3.678   3.717 -1.9207 -0.0094  1.1342
 8336SOL     OW36466   1.390   2.611   3.183 -0.7762 -0.2089 -0.6503
 8336SOL    HW136467   1.351   2.669   3.249  1.3400 -2.3095  2.4713
 8336SOL    HW236468   1.420   2.544   3.244 -0.8153 -0.0275 -0.4278
 8337SOL     OW36469   1.045   0.144   5.565  0.2293 -0.1486 -0.4968
 8337SOL    HW136470   1.135   0.162   5.594  0.0511 -0.1494  0.0713
 8337SOL    HW236471   0.996   0.110   5.640  1.6148  4.5075  2.5810
 8338SOL     OW36472   0.292   1.884  11.291  0.5235  0.4999  0.2349
 8338SOL    HW136473   0.339   1.958  11.253 -0.6478  2.0173  1.7408
 8338SOL    HW236474   0.345   1.811  11.259  0.4921  0.3946  0.4193
 8339SOL     OW36475   0.431   0.221   3.425 -0.5423  0.5018 -0.5716
 8339SOL    HW136476   0.387   0.142   3.396  0.3214  0.0930 -0.7736
 8339SOL    HW236477   0.523   0.202   3.408 -0.4902 -0.1592  0.4337
 8340SOL     OW36478   1.016   0.548  16.641  0.5868  0.1309 -0.2348
 8340SOL    HW136479   1.021   0.643  16.636  1.7294 -0.0273 -2.1299
 8340SOL    HW236480   0.921   0.532  16.646  0.4658  1.2491  0.9506
 8341SOL     OW36481   3.552   3.676   7.185  0.0683 -0.0764  0.8147
 8341SOL    HW136482   3.553   3.717   7.272 -1.5819 -0.0749  0.8255
 8341SOL    HW236483   3.585   3.587   7.196  3.8504  1.2580  0.4375
 8342SOL     OW36484   0.918   2.483   5.078  0.0487 -0.1237  0.7790
 8342SOL    HW136485   0.968   2.535   5.141  0.6544  1.0074 -0.6170
 8342SOL    HW236486   0.866   2.549   5.032  1.2373  0.0903 -0.2615
 8343SOL     OW36487   0.202   3.206   8.701  0.0756  0.2634  0.6444
 8343SOL    HW136488   0.188   3.209   8.606  1.7378  1.4833  0.4244
 8343SOL    HW236489   0.283   3.155   8.709 -1.4634 -2.2044  0.4567
 8344SOL     OW36490   2.388   0.997  10.275 -0.1096 -0.6629  0.1107
 8344SOL    HW136491   2.470   0.947  10.276  0.4104  0.1297 -2.7594
 8344SOL    HW236492   2.423   1.076  10.316  0.1767 -0.0080 -1.3714
 8345SOL     OW36493   0.598   0.132  16.986 -0.0050  0.3621  0.0609
 8345SOL    HW136494   0.608   0.069  17.057  0.6602 -1.6162 -1.7979
 8345SOL    HW236495   0.665   0.197  17.007  0.8522 -0.1556 -1.0753
 8346SOL     OW36496   4.612   4.201   4.112  0.0351  0.1337 -0.2750
 8346SOL    HW136497   4.522   4.198   4.143  0.7073  1.0051  1.7453
 8346SOL    HW236498   4.644   4.262   4.178 -0.2324  0.1666 -0.1763
 8347SOL     OW36499   0.961   1.316   8.032  0.9027  0.0631 -0.0913
 8347SOL    HW136500   0.979   1.256   8.104  1.4728  2.3324  1.6690
 8347SOL    HW236501   1.044   1.361   8.015  0.3175  0.6826 -1.3087
 8348SOL     OW36502   1.004   0.282   4.690 -0.0057 -0.5336  0.3012
 8348SOL    HW136503   1.065   0.256   4.758 -1.2243 -1.9588  0.8332
 8348SOL    HW236504   0.928   0.226   4.707  1.1707 -1.9689  0.6972
 8349SOL     OW36505   1.800   3.200  14.738 -0.1666 -0.0706  0.0540
 8349SOL    HW136506   1.745   3.186  14.661  0.6746 -2.3139 -0.1099
 8349SOL    HW236507   1.878   3.247  14.708  0.5161 -3.2205 -3.0708
 8350SOL     OW36508   0.870   0.702   5.609 -0.0630 -0.0717 -0.1627
 8350SOL    HW136509   0.885   0.736   5.520 -1.6835 -1.7902 -1.0992
 8350SOL    HW236510   0.867   0.609   5.588  2.8541 -0.4669  1.1935
 8351SOL     OW36511   0.094   2.423   3.471  0.1373  0.2335  0.0637
 8351SOL    HW136512   0.054   2.500   3.513  1.0086  0.4665  0.4578
 8351SOL    HW236513   0.142   2.386   3.545 -1.8239 -1.4925  0.4733
 8352SOL     OW36514   0.398   1.842   7.259 -0.3660 -0.0163  0.0428
 8352SOL    HW136515   0.334   1.905   7.294 -0.9500  0.3008 -1.5910
 8352SOL    HW236516   0.466   1.909   7.252 -0.0460 -0.5638 -2.0610
 8353SOL     OW36517   2.904   4.168   7.062  0.4839 -0.0393  0.3729
 8353SOL    HW136518   2.841   4.139   7.129  0.6095 -1.8634 -0.2980
 8353SOL    HW236519   2.849   4.233   7.019 -0.2856 -0.8951  0.0637
 8354SOL     OW36520   2.785   0.889   4.030 -0.9369 -0.4236  0.3990
 8354SOL    HW136521   2.712   0.944   4.058  0.8543  3.1104 -1.9082
 8354SOL    HW236522   2.853   0.938   4.077 -2.0651  2.7977 -1.3343
 8355SOL     OW36523   3.626   1.479   9.403 -0.4768  0.2947 -0.4934
 8355SOL    HW136524   3.586   1.406   9.356  1.1765 -0.8270 -0.1745
 8355SOL    HW236525   3.570   1.492   9.479  1.2514 -0.5498  0.9287
 8356SOL     OW36526   1.623   3.273   8.968 -0.3570  0.2623  1.0531
 8356SOL    HW136527   1.696   3.215   8.991  1.9989  2.9959  0.3798
 8356SOL    HW236528   1.551   3.253   9.028 -0.1935  1.2121  1.5601
 8357SOL     OW36529   0.203   2.500   5.019 -0.5237 -0.1904  0.2880
 8357SOL    HW136530   0.239   2.589   5.013  1.2112 -0.9101 -0.0969
 8357SOL    HW236531   0.126   2.511   5.074  1.4230  2.3418  2.4700
 8358SOL     OW36532   2.109   1.483  16.680  0.0900  0.4801 -0.1683
 8358SOL    HW136533   2.070   1.396  16.684 -2.7583  1.7555  0.1969
 8358SOL    HW236534   2.043   1.546  16.710  0.3796  2.2224 -3.2243
 8359SOL     OW36535   4.645   2.145  13.879 -0.0395 -0.4548  0.4822
 8359SOL    HW136536   4.689   2.128  13.796  1.4077 -1.0898  1.3816
 8359SOL    HW236537   4.708   2.101  13.937  1.4393 -0.1330 -0.8704
 8360SOL     OW36538   0.271   3.281   1.330 -0.7140  0.5982 -0.3241
 8360SOL    HW136539   0.316   3.200   1.306 -1.1783  0.1277  0.3763
 8360SOL    HW236540   0.181   3.251   1.319 -0.3252 -0.6821 -0.0309
 8361SOL     OW36541   1.767   0.639   2.801 -0.3411  0.3520 -0.2714
 8361SOL    HW136542   1.827   0.566   2.790 -0.3406  0.3888 -0.5126
 8361SOL    HW236543   1.829   0.709   2.781  0.3894  0.1773  1.3691
 8362SOL     OW36544   1.586   3.515   8.448 -0.1466  0.6654 -0.3722
 8362SOL    HW136545   1.634   3.454   8.392  1.3376  0.6885  0.8776
 8362SOL    HW236546   1.590   3.463   8.529  1.6152 -1.1142 -1.5800
 8363SOL     OW36547   1.442   0.478  17.306 -0.6527 -0.1964 -0.2120
 8363SOL    HW136548   1.421   0.388  17.281  0.3001 -0.8069  1.1707
 8363SOL    HW236549   1.359   0.517  17.279 -0.7836 -0.4321 -0.1509
 8364SOL     OW36550   1.669   4.148   7.552 -0.4616 -0.1158  0.0426
 8364SOL    HW136551   1.633   4.151   7.463 -0.4523  0.2733  0.0524
 8364SOL    HW236552   1.596   4.185   7.600 -0.7592 -0.7191  0.0570
 8365SOL     OW36553   4.381   0.134  17.420 -0.2816  0.0048 -0.6458
 8365SOL    HW136554   4.392   0.090  17.504  1.3423  3.2715  0.8248
 8365SOL    HW236555   4.291   0.163  17.438 -0.0571  1.0504 -1.2472
 8366SOL     OW36556   1.397   3.251   5.504 -0.8268  0.0901  0.4679
 8366SOL    HW136557   1.391   3.276   5.596 -1.9405  0.6686  0.2376
 8366SOL    HW236558   1.346   3.320   5.462  0.0790 -1.0891 -2.5657
 8367SOL     OW36559   1.157   2.766  14.466  0.2064 -0.2430  0.2395
 8367SOL    HW136560   1.182   2.678  14.435 -2.0785 -1.3352  1.5262
 8367SOL    HW236561   1.197   2.812  14.392  0.4135 -0.8778 -0.0522
 8368SOL     OW36562   3.518   3.538   6.724 -0.0199  0.3019  0.3299
 8368SOL    HW136563   3.476   3.562   6.641 -3.8452 -0.2345  2.0883
 8368SOL    HW236564   3.471   3.459   6.749  0.2313  1.0063  3.1115
 8369SOL     OW36565   3.423   4.015   1.298  0.7667  0.6747  0.6294
 8369SOL    HW136566   3.516   3.993   1.297  0.6007  0.1405 -2.2356
 8369SOL    HW236567   3.401   3.971   1.380  0.4049 -0.2307  0.0548
 8370SOL     OW36568   1.156   1.201  12.187 -0.3010 -0.4777  0.1895
 8370SOL    HW136569   1.247   1.211  12.217  0.2858 -0.3026 -1.6241
 8370SOL    HW236570   1.146   1.259  12.112 -0.0710  0.1707  0.6570
 8371SOL     OW36571   3.028   2.677   5.974  0.0433  0.2477  0.0473
 8371SOL    HW136572   3.032   2.615   5.901 -1.2130  1.8394 -1.3673
 8371SOL    HW236573   2.948   2.724   5.952 -0.0469 -0.1360 -0.4471
 8372SOL     OW36574   0.208   4.394   5.421  0.1581  0.3254 -0.6676
 8372SOL    HW136575   0.237   4.410   5.331 -0.7561 -1.4317 -1.2863
 8372SOL    HW236576   0.215   4.483   5.456  3.4769 -0.3998  0.4722
 8373SOL     OW36577   3.187   3.349   2.481 -0.2834 -0.1894 -0.1034
 8373SOL    HW136578   3.191   3.444   2.467 -2.6966  0.1367  1.4793
 8373SOL    HW236579   3.159   3.328   2.570 -1.1904 -2.3044 -0.8890
 8374SOL     OW36580   4.544   3.179   3.194  0.6676  0.6735  0.0122
 8374SOL    HW136581   4.620   3.126   3.171 -1.0568 -1.1560 -1.4153
 8374SOL    HW236582   4.488   3.173   3.117  0.9555  1.0166 -0.2236
 8375SOL     OW36583   1.493   0.655   3.889 -0.1438 -0.0779 -0.0001
 8375SOL    HW136584   1.469   0.687   3.976  0.6049  0.9735 -0.1876
 8375SOL    HW236585   1.581   0.624   3.908  0.1729 -0.0641 -1.4336
 8376SOL     OW36586   1.314   1.456   7.423 -0.4713  0.5329 -0.5098
 8376SOL    HW136587   1.397   1.416   7.396 -1.9792 -0.6353 -3.4100
 8376SOL    HW236588   1.286   1.487   7.336 -0.2331 -1.4781 -1.3045
 8377SOL     OW36589   2.858   2.498   3.043  0.2730  0.1860 -0.3852
 8377SOL    HW136590   2.930   2.534   2.992  0.6410 -0.3815 -0.2615
 8377SOL    HW236591   2.902   2.490   3.127  0.1254  0.1842 -0.3073
 8378SOL     OW36592   3.735   1.264   9.763  0.6272  0.5266 -0.2411
 8378SOL    HW136593   3.814   1.264   9.817  1.1736 -1.5625 -1.0268
 8378SOL    HW236594   3.712   1.171   9.762 -1.5390  1.0839 -0.9539
 8379SOL     OW36595   0.216   1.103   3.578 -0.4442  0.2746 -0.3948
 8379SOL    HW136596   0.216   1.110   3.483 -0.6281  1.2744 -0.3164
 8379SOL    HW236597   0.306   1.126   3.601 -0.4386  1.8672 -2.1275
 8380SOL     OW36598   0.161   2.361   6.779 -0.3817 -0.2720 -0.0335
 8380SOL    HW136599   0.246   2.356   6.735  0.1093  0.3405  0.8253
 8380SOL    HW236600   0.165   2.455   6.799  2.0743 -0.0249 -1.6801
 8381SOL     OW36601   1.979   3.003   7.935  0.3499 -0.4517 -0.8667
 8381SOL    HW136602   1.892   2.964   7.932  1.3176 -2.6804 -0.0001
 8381SOL    HW236603   2.021   2.952   8.004 -1.4137 -0.6669  0.0485
 8382SOL     OW36604   2.939   3.773   7.070  0.0371  0.2638 -0.2585
 8382SOL    HW136605   2.996   3.743   7.140 -1.7120  0.2915  1.1905
 8382SOL    HW236606   2.965   3.714   6.999  0.0865  3.4457 -2.9120
 8383SOL     OW36607   3.071   4.201   1.383 -0.7140 -0.1088 -0.2707
 8383SOL    HW136608   3.044   4.202   1.291 -0.3367 -1.1777 -0.3985
 8383SOL    HW236609   3.162   4.230   1.371 -0.5409 -1.7403 -2.9841
 8384SOL     OW36610   3.865   0.713  14.695  0.7540  0.8182  0.1009
 8384SOL    HW136611   3.860   0.678  14.606 -0.8129  0.8000  0.2000
 8384SOL    HW236612   3.777   0.732  14.725  0.6628  0.3892  0.1117
 8385SOL     OW36613   0.105   3.412   8.158 -0.0660  0.3575  0.3037
 8385SOL    HW136614   0.077   3.384   8.070  0.7180 -0.7860  0.4235
 8385SOL    HW236615   0.029   3.384   8.208 -1.6896  2.6897 -0.8496
 8386SOL     OW36616   2.456   1.188  16.892 -0.1034 -0.4850  0.2768
 8386SOL    HW136617   2.462   1.283  16.908  0.9521 -0.3559 -0.9144
 8386SOL    HW236618   2.477   1.146  16.975  0.2183 -0.8758 -0.0023
 8387SOL     OW36619   2.361   4.039   5.020 -0.5878  0.8114 -0.4872
 8387SOL    HW136620   2.273   4.020   4.989 -1.0722 -0.2450  1.6070
 8387SOL    HW236621   2.411   4.045   4.938  0.5844  0.8576  0.2204
 8388SOL     OW36622   3.307   2.004   6.081  0.3232  0.2176 -0.0889
 8388SOL    HW136623   3.360   1.925   6.085 -1.1793 -0.8404 -1.1791
 8388SOL    HW236624   3.373   2.073   6.071  0.6124 -0.1188 -0.4876
 8389SOL     OW36625   4.257   2.384   8.218 -0.2764 -0.0594  0.2818
 8389SOL    HW136626   4.178   2.329   8.221 -0.5926  0.3107 -0.9922
 8389SOL    HW236627   4.330   2.335   8.179  1.6094  1.5071  1.8415
 8390SOL     OW36628   2.724   3.876   2.781  0.5002  0.6305  0.4803
 8390SOL    HW136629   2.667   3.799   2.773  1.1448  0.1402  0.5708
 8390SOL    HW236630   2.812   3.837   2.779  0.0220 -0.3998 -0.6474
 8391SOL     OW36631   3.248   3.344   3.296  0.4064  0.2271 -0.1307
 8391SOL    HW136632   3.327   3.398   3.302 -0.8003  2.0261 -0.6984
 8391SOL    HW236633   3.189   3.417   3.278  0.7392  1.4499  3.7458
 8392SOL     OW36634   4.134   2.561  15.612 -0.6391 -0.4105  0.2269
 8392SOL    HW136635   4.183   2.492  15.566 -1.6054 -0.2413 -1.0515
 8392SOL    HW236636   4.137   2.533  15.703  0.6482 -0.1066  0.2802
 8393SOL     OW36637   3.150   3.051  11.705 -0.2971  0.0218 -0.3765
 8393SOL    HW136638   3.149   3.104  11.785 -1.6075  1.9490 -1.6517
 8393SOL    HW236639   3.212   3.100  11.650  0.5821  0.4802  1.0179
 8394SOL     OW36640   0.309   0.241   8.285 -0.1483  0.7264  0.0852
 8394SOL    HW136641   0.248   0.191   8.231  0.4385  0.4734 -0.3403
 8394SOL    HW236642   0.355   0.162   8.314 -1.2906 -0.7097 -2.0639
 8395SOL     OW36643   2.688   4.479   7.927 -0.1076  0.9807 -0.2721
 8395SOL    HW136644   2.659   4.558   7.880 -0.6761  0.9812  0.0703
 8395SOL    HW236645   2.766   4.452   7.879  1.2159  3.1400  0.6823
 8396SOL     OW36646   3.554   0.486   9.653  0.0678  0.7317 -0.0089
 8396SOL    HW136647   3.620   0.426   9.616  1.4262  0.1345  3.4189
 8396SOL    HW236648   3.532   0.428   9.725 -3.4714  2.6762  0.4981
 8397SOL     OW36649   1.078   2.473   3.443 -0.1917  0.7014  0.2010
 8397SOL    HW136650   1.103   2.532   3.514 -5.0677  1.8417  0.9689
 8397SOL    HW236651   1.128   2.399   3.478 -1.9028 -0.9461 -0.7988
 8398SOL     OW36652   3.527   4.440  14.812  0.1498  0.5003 -0.3411
 8398SOL    HW136653   3.517   4.511  14.877  1.3063  0.4091 -0.0652
 8398SOL    HW236654   3.523   4.489  14.730 -0.5562  0.9973 -0.0136
 8399SOL     OW36655   1.684   0.637   8.789 -0.2441 -0.2012  0.3970
 8399SOL    HW136656   1.713   0.711   8.841 -1.3966 -0.2490  1.0959
 8399SOL    HW236657   1.621   0.599   8.850 -0.4442  0.8827  0.8506
 8400SOL     OW36658   1.044   1.974   0.278 -0.0588  0.4021 -0.4642
 8400SOL    HW136659   1.074   2.045   0.335 -0.2912  1.3828 -1.5461
 8400SOL    HW236660   1.052   2.014   0.191  0.7091 -0.5281 -0.8281
 8401SOL     OW36661   3.290   4.470   7.013  0.4649 -0.1175 -0.0700
 8401SOL    HW136662   3.210   4.495   6.966  0.2513 -0.7059 -0.0146
 8401SOL    HW236663   3.260   4.409   7.080 -0.2290  0.3645  0.0629
 8402SOL     OW36664   3.279   0.336   4.988 -0.0788 -0.2804  0.4948
 8402SOL    HW136665   3.311   0.298   4.906 -1.1719 -1.3524  0.5627
 8402SOL    HW236666   3.190   0.369   4.979  0.0628  0.0384  0.2855
 8403SOL     OW36667   1.355   3.194   8.636 -0.0036  0.0709  0.3118
 8403SOL    HW136668   1.436   3.244   8.626 -0.5608  1.2709  1.8735
 8403SOL    HW236669   1.299   3.245   8.577  1.2460 -0.9722 -1.7895
 8404SOL     OW36670   0.232   2.052  10.983  0.5552  0.3327 -0.0194
 8404SOL    HW136671   0.236   1.964  10.945 -0.4001 -0.2776  1.3053
 8404SOL    HW236672   0.322   2.081  10.970  0.3258  1.0123 -0.0792
 8405SOL     OW36673   3.615   4.190   5.651  0.4399  0.2125  0.2360
 8405SOL    HW136674   3.590   4.110   5.697 -0.9727  0.5572  0.0628
 8405SOL    HW236675   3.593   4.250   5.722  1.0673 -0.8516  1.3288
 8406SOL     OW36676   3.536   1.727  11.819  0.3547 -0.7041 -0.2560
 8406SOL    HW136677   3.519   1.769  11.735 -0.8057 -1.0431 -0.1943
 8406SOL    HW236678   3.452   1.755  11.856 -0.4177 -0.3705 -2.2673
 8407SOL     OW36679   0.824   1.670  16.569 -0.3555 -0.2395  0.0366
 8407SOL    HW136680   0.790   1.592  16.613 -2.0736  0.3809 -0.2095
 8407SOL    HW236681   0.784   1.674  16.483  1.3701 -0.8643 -0.8044
 8408SOL     OW36682   3.766   0.051   5.150  0.0078  0.1839  0.1999
 8408SOL    HW136683   3.843   4.719   5.144  0.9302  1.5845 -0.9390
 8408SOL    HW236684   3.701   4.719   5.107  1.2443 -1.9319  1.0860
 8409SOL     OW36685   4.695   1.034   4.233 -0.5790 -0.3113 -0.9488
 8409SOL    HW136686   0.007   0.959   4.185  1.3504  1.5429 -2.4682
 8409SOL    HW236687   0.004   1.100   4.171 -2.1903  0.2004 -1.2578
 8410SOL     OW36688   0.261   1.836  10.276 -0.5029  0.5339 -0.1587
 8410SOL    HW136689   0.194   1.833  10.208 -1.0125  3.0155  0.2164
 8410SOL    HW236690   0.273   1.741  10.280 -0.4258  0.5231 -0.6680
 8411SOL     OW36691   4.409   0.401  17.362 -0.4912 -0.1748  0.1836
 8411SOL    HW136692   4.483   0.441  17.408 -0.7612 -0.4824  0.8951
 8411SOL    HW236693   4.449   0.316  17.345 -0.4148 -0.1877  0.4265
 8412SOL     OW36694   0.199   3.251   3.069  0.1175  0.1311 -0.5466
 8412SOL    HW136695   0.165   3.174   3.115 -1.1842  1.1715  0.2235
 8412SOL    HW236696   0.121   3.292   3.034 -0.0429  0.5558  0.3250
 8413SOL     OW36697   3.176   3.606   3.637  0.2642 -0.0451 -0.3097
 8413SOL    HW136698   3.140   3.591   3.724 -0.5595 -0.5961 -0.7533
 8413SOL    HW236699   3.099   3.634   3.589  1.3263  1.3089 -1.2395
 8414SOL     OW36700   1.029   3.286  14.809  0.2724 -0.3879 -0.0021
 8414SOL    HW136701   1.070   3.233  14.740  0.7308 -0.5843  0.4213
 8414SOL    HW236702   1.038   3.219  14.877 -0.6813 -1.0872 -0.5736
 8415SOL     OW36703   1.272   0.779   8.505  0.2580  0.5093  0.0438
 8415SOL    HW136704   1.364   0.785   8.478  0.0152 -1.6287 -1.2550
 8415SOL    HW236705   1.291   0.763   8.598 -1.2709  0.2055  0.3056
 8416SOL     OW36706   3.251   2.528   9.806 -0.6237  0.0421 -0.1334
 8416SOL    HW136707   3.310   2.494   9.739 -2.7749 -2.7410 -0.6252
 8416SOL    HW236708   3.298   2.502   9.885 -2.6252 -1.7084  0.4854
 8417SOL     OW36709   1.428   4.552   1.928 -0.0191 -0.4817  0.2231
 8417SOL    HW136710   1.368   4.627   1.924  0.2318 -0.2681  0.4541
 8417SOL    HW236711   1.373   4.476   1.910  0.1282 -0.7970  1.0933
 8418SOL     OW36712   3.700   4.530   4.732  0.5320  0.3424  0.0297
 8418SOL    HW136713   3.783   4.560   4.770  1.1190  1.0471 -1.8102
 8418SOL    HW236714   3.731   4.467   4.666  0.8144 -0.7359  1.1787
 8419SOL     OW36715   1.030   1.612   3.832 -0.4768 -0.1311 -0.5402
 8419SOL    HW136716   0.968   1.621   3.760  0.6043 -0.1517 -1.4616
 8419SOL    HW236717   0.999   1.524   3.856 -1.1968 -0.3269 -2.2153
 8420SOL     OW36718   3.650   0.503   5.916 -0.0230  0.4717  0.3191
 8420SOL    HW136719   3.582   0.460   5.968  0.9123 -1.2301  0.1418
 8420SOL    HW236720   3.656   0.437   5.847  1.5120  0.2129  0.7033
 8421SOL     OW36721   3.564   4.388   0.088  0.1239  0.4517 -0.0035
 8421SOL    HW136722   3.636   4.335   0.124  0.7281  2.0995  1.1947
 8421SOL    HW236723   3.524   4.427   0.166  0.4467  0.9205 -0.0704
 8422SOL     OW36724   4.567   3.036   2.838  0.1644 -0.4109 -0.4611
 8422SOL    HW136725   4.500   3.057   2.903  0.3665 -3.1905  0.6325
 8422SOL    HW236726   4.617   2.973   2.890  0.4569  0.7758  0.7219
 8423SOL     OW36727   3.016   0.788   5.195  0.0775  0.0092 -0.7184
 8423SOL    HW136728   2.964   0.817   5.270 -0.0530 -3.0255  0.4004
 8423SOL    HW236729   2.966   0.716   5.156 -1.7867 -0.5015  2.6145
 8424SOL     OW36730   4.628   2.809   3.008 -0.0452 -0.3254  0.2448
 8424SOL    HW136731   4.621   2.775   3.097  3.9056 -1.6061  0.0871
 8424SOL    HW236732   4.563   2.761   2.957  0.1703 -1.6267  1.1966
 8425SOL     OW36733   2.677   3.761   9.513  0.1606 -0.3085 -0.5098
 8425SOL    HW136734   2.595   3.732   9.553  0.7480 -1.7094 -0.3176
 8425SOL    HW236735   2.736   3.694   9.547  0.1643  0.1623  0.3857
 8426SOL     OW36736   4.050   1.892   7.214 -0.3632  0.2564 -0.1712
 8426SOL    HW136737   4.114   1.958   7.241  0.4418 -0.8979  0.7896
 8426SOL    HW236738   4.114   1.828   7.184 -0.7277  0.5778 -1.6005
 8427SOL     OW36739   4.012   0.289   1.394 -0.4178  0.3863  0.2883
 8427SOL    HW136740   3.978   0.359   1.338  1.5036  0.5095 -0.7309
 8427SOL    HW236741   4.092   0.331   1.426 -1.0606 -0.1336  2.5783
 8428SOL     OW36742   1.857   0.497  10.167 -0.3451 -0.4856  0.4310
 8428SOL    HW136743   1.771   0.496  10.208 -0.8176  0.2443 -0.5544
 8428SOL    HW236744   1.834   0.452  10.086 -1.1869  1.4167 -0.3806
 8429SOL     OW36745   4.058   2.188   4.955  0.0751 -0.3140  0.5661
 8429SOL    HW136746   4.085   2.240   4.879 -0.8511 -2.4346 -1.1976
 8429SOL    HW236747   4.023   2.258   5.011 -1.9400 -0.6014 -0.3154
 8430SOL     OW36748   4.049   0.321   6.140  0.3144  0.0350  0.2506
 8430SOL    HW136749   4.001   0.239   6.124 -0.2511  0.5709 -0.8289
 8430SOL    HW236750   4.003   0.380   6.080  3.1687  1.9270 -0.1110
 8431SOL     OW36751   4.679   3.329   7.935 -0.0571  0.0309 -0.6866
 8431SOL    HW136752   4.594   3.315   7.978  0.3796 -1.2694 -0.2712
 8431SOL    HW236753   4.676   3.250   7.883 -1.0913 -0.2783 -0.1649
 8432SOL     OW36754   4.131   2.874   4.149  0.2753 -0.5939  0.1111
 8432SOL    HW136755   4.164   2.931   4.079  0.1085  1.3335  1.6083
 8432SOL    HW236756   4.181   2.902   4.226 -1.0566 -3.8028  2.1203
 8433SOL     OW36757   2.007   2.494   5.985  0.0003  0.6736 -0.6417
 8433SOL    HW136758   2.062   2.416   5.979  0.4571  0.9362  0.1579
 8433SOL    HW236759   1.973   2.486   6.074  1.2075  2.9569  0.0170
 8434SOL     OW36760   4.410   1.597   5.389 -0.6178  0.1700  0.0208
 8434SOL    HW136761   4.385   1.678   5.435 -2.6046 -0.1130 -0.5598
 8434SOL    HW236762   4.499   1.620   5.363 -0.0781  0.7741  2.3368
 8435SOL     OW36763   1.313   0.929   2.392 -0.3027  0.1348 -0.2014
 8435SOL    HW136764   1.243   0.968   2.339  0.6744  0.5519 -1.1866
 8435SOL    HW236765   1.326   0.852   2.336  0.7831 -1.0628  1.7011
 8436SOL     OW36766   4.512   0.780  13.022  0.1704 -0.0236  0.4397
 8436SOL    HW136767   4.503   0.780  12.926  3.6160 -1.5693  0.1445
 8436SOL    HW236768   4.493   0.873  13.034  0.2446 -0.1414  1.4213
 8437SOL     OW36769   0.604   0.903   5.209  0.2921  0.0571  0.3734
 8437SOL    HW136770   0.509   0.914   5.213  0.4432  1.5577 -0.6759
 8437SOL    HW236771   0.620   0.826   5.265  1.3268 -0.7582 -1.0561
 8438SOL     OW36772   0.538   0.913   7.181 -0.6102 -0.0159  0.5063
 8438SOL    HW136773   0.586   0.834   7.205  0.6722  1.0116  1.3004
 8438SOL    HW236774   0.542   0.910   7.085  0.1347  1.8350  0.4683
 8439SOL     OW36775   4.409   3.265  13.824 -0.1146 -0.1414 -0.3214
 8439SOL    HW136776   4.374   3.206  13.892 -0.7753 -1.5397 -1.8797
 8439SOL    HW236777   4.324   3.310  13.818 -1.2962 -1.8254  3.5044
 8440SOL     OW36778   1.193   0.936  13.786 -0.2809  0.4014  0.9188
 8440SOL    HW136779   1.203   0.913  13.878  1.9524 -3.1069 -0.2157
 8440SOL    HW236780   1.198   0.852  13.742  0.1020  0.4801  0.8063
 8441SOL     OW36781   2.287   2.837   8.966 -0.0237 -0.0947  0.1299
 8441SOL    HW136782   2.313   2.928   8.949  0.2122 -0.0415  0.7592
 8441SOL    HW236783   2.262   2.846   9.058  0.2638  1.4126  0.0752
 8442SOL     OW36784   0.451   0.780  11.832 -0.5526 -0.0141  0.2947
 8442SOL    HW136785   0.413   0.734  11.757  0.3406 -0.3941  0.0796
 8442SOL    HW236786   0.404   0.742  11.907 -1.1093  2.9791  1.4951
 8443SOL     OW36787   1.089   1.847   0.802  0.4289  0.1698 -0.1066
 8443SOL    HW136788   1.125   1.828   0.716 -0.0500 -0.1166 -0.2407
 8443SOL    HW236789   1.154   1.904   0.845 -0.8467  0.6246  1.2266
 8444SOL     OW36790   3.095   3.715   4.302 -0.3657  1.2413 -0.4277
 8444SOL    HW136791   3.104   3.621   4.286 -1.0002  1.2357 -0.7199
 8444SOL    HW236792   3.002   3.728   4.287 -0.9765 -1.9274  0.6109
 8445SOL     OW36793   3.946   2.422   3.857  0.4506  0.6403  0.6330
 8445SOL    HW136794   3.885   2.489   3.889 -0.5563  1.1361 -2.2352
 8445SOL    HW236795   3.969   2.374   3.936 -0.2702 -0.6540  0.0667
 8446SOL     OW36796   3.213   1.657  12.177  0.8000  0.3250  0.1353
 8446SOL    HW136797   3.162   1.738  12.169  2.7412  1.3405 -1.9217
 8446SOL    HW236798   3.164   1.594  12.123  2.0936 -1.1717  0.6999
 8447SOL     OW36799   3.815   4.619   1.659  0.0735 -0.3250 -0.4141
 8447SOL    HW136800   3.900   4.594   1.695  0.5346  2.4925  0.4188
 8447SOL    HW236801   3.761   4.595   1.734 -0.8919  1.7736 -0.4244
 8448SOL     OW36802   0.076   1.818   7.234  0.0068 -0.6751 -0.1074
 8448SOL    HW136803   0.079   1.909   7.261  0.0697 -0.6732 -0.1199
 8448SOL    HW236804   0.094   1.829   7.140  0.6444  0.7792  0.1817
 8449SOL     OW36805   0.316   4.435   4.376 -0.7883 -0.2820 -0.1954
 8449SOL    HW136806   0.324   4.522   4.336  1.3049 -0.2887  0.2159
 8449SOL    HW236807   0.317   4.378   4.300  0.3092 -0.1281 -0.2890
 8450SOL     OW36808   4.183   0.125   4.588 -0.1218 -0.3633  0.2953
 8450SOL    HW136809   4.198   0.031   4.594  2.2470 -0.1737 -2.7962
 8450SOL    HW236810   4.096   0.121   4.547 -0.7545  0.2422  1.5846
 8451SOL     OW36811   3.172   2.389   8.061  0.1509  0.6544  0.2127
 8451SOL    HW136812   3.097   2.347   8.104  1.2424 -0.6470  0.8481
 8451SOL    HW236813   3.161   2.480   8.089 -1.1116  0.4153  0.5043
 8452SOL     OW36814   2.289   1.643   8.448 -0.2592  0.1844  0.1426
 8452SOL    HW136815   2.360   1.633   8.512 -1.2603  1.8127  1.5046
 8452SOL    HW236816   2.219   1.594   8.491 -1.5776  0.5707 -1.5550
 8453SOL     OW36817   1.128   0.468   2.425  0.2513  0.4695 -0.4085
 8453SOL    HW136818   1.108   0.374   2.424 -1.0095  0.6836  3.9501
 8453SOL    HW236819   1.041   0.506   2.437 -1.3431 -2.6040 -2.1739
 8454SOL     OW36820   0.801   1.721  15.109 -0.3878 -0.3781 -0.7828
 8454SOL    HW136821   0.757   1.805  15.115 -0.1489 -0.3413  0.4343
 8454SOL    HW236822   0.739   1.656  15.143 -0.1321 -0.1071  0.2033
 8455SOL     OW36823   2.546   2.551   1.663 -0.1288 -0.0181  0.0441
 8455SOL    HW136824   2.527   2.566   1.570 -0.8074  2.1040  0.5206
 8455SOL    HW236825   2.528   2.457   1.661 -0.9239  0.1688 -1.1853
 8456SOL     OW36826   0.433   1.991   1.752 -0.0298  0.2577  0.1759
 8456SOL    HW136827   0.515   2.034   1.776  0.9155 -1.4945  0.0880
 8456SOL    HW236828   0.441   1.912   1.805  0.2558 -0.6419 -1.1776
 8457SOL     OW36829   3.081   2.911   0.993  0.1886 -0.1230  0.7087
 8457SOL    HW136830   3.130   2.936   0.915  1.0675 -0.1838  1.2405
 8457SOL    HW236831   3.095   2.816   0.990  1.1940 -0.0098  1.7478
 8458SOL     OW36832   2.290   2.890   8.433  0.1708  0.8802 -0.0066
 8458SOL    HW136833   2.239   2.955   8.482  0.4145 -0.6354  2.2111
 8458SOL    HW236834   2.362   2.857   8.486 -0.4017 -0.7300 -0.2348
 8459SOL     OW36835   3.733   2.396   0.578  0.4075 -0.2393  0.1120
 8459SOL    HW136836   3.642   2.380   0.554  0.6203  1.2465 -1.6046
 8459SOL    HW236837   3.735   2.334   0.651  0.4209 -0.8121 -0.3742
 8460SOL     OW36838   2.208   1.952  11.868  0.2720 -0.0770 -0.3026
 8460SOL    HW136839   2.298   1.954  11.901  0.3967 -1.9042 -0.5225
 8460SOL    HW236840   2.193   1.862  11.839 -0.7268  0.3459 -1.0892
 8461SOL     OW36841   2.972   2.317   8.218  0.3558  0.1777  0.3923
 8461SOL    HW136842   2.996   2.238   8.267  0.3593  1.2850  2.1745
 8461SOL    HW236843   2.898   2.357   8.264  1.0697 -0.0795  1.7798
 8462SOL     OW36844   3.688   2.220   0.314 -0.6085  0.5311  0.1022
 8462SOL    HW136845   3.725   2.154   0.256 -0.3575  0.4843  0.3140
 8462SOL    HW236846   3.739   2.297   0.288 -0.1837  0.0290 -0.5825
 8463SOL     OW36847   2.553   0.269   8.621 -0.3409 -0.4920  0.1157
 8463SOL    HW136848   2.641   0.301   8.603 -1.0539  1.8323  0.7347
 8463SOL    HW236849   2.516   0.254   8.534 -1.4034  0.5336  0.3959
 8464SOL     OW36850   0.364   3.790   5.726 -0.1618 -0.5891  0.3641
 8464SOL    HW136851   0.332   3.723   5.786  2.1990 -1.2347  0.8683
 8464SOL    HW236852   0.300   3.780   5.655  0.9761  0.5318 -0.8137
 8465SOL     OW36853   1.647   0.514  11.154 -0.3283  0.0333 -0.2248
 8465SOL    HW136854   1.634   0.527  11.248  0.5546  0.6143 -0.1758
 8465SOL    HW236855   1.700   0.594  11.150 -1.9431  1.1222  0.0349
 8466SOL     OW36856   4.129   4.374   4.164  0.6512 -0.5198  0.1521
 8466SOL    HW136857   4.077   4.425   4.227  1.0991  2.4161 -1.8489
 8466SOL    HW236858   4.163   4.447   4.111  0.9518 -2.5669 -2.4842
 8467SOL     OW36859   4.299   1.685   3.168 -0.4884  0.5541 -0.2442
 8467SOL    HW136860   4.322   1.715   3.256 -0.1055  0.1875 -0.2179
 8467SOL    HW236861   4.365   1.738   3.123  1.3036  0.9489  2.8391
 8468SOL     OW36862   3.749   0.348  10.923  0.6882  0.0891 -0.3653
 8468SOL    HW136863   3.749   0.308  10.836  2.6974  0.5417 -0.5778
 8468SOL    HW236864   3.812   0.421  10.917  1.8695 -0.8802  0.2113
 8469SOL     OW36865   4.108   3.101   4.883  0.1053  0.4103  0.4356
 8469SOL    HW136866   4.116   3.008   4.904 -1.4264 -0.0535 -1.0084
 8469SOL    HW236867   4.029   3.101   4.829  1.3312  1.0034 -1.3540
 8470SOL     OW36868   0.181   2.821   7.116  0.0555  0.6922 -0.8207
 8470SOL    HW136869   0.185   2.862   7.030  0.2786 -0.1921 -1.2336
 8470SOL    HW236870   0.249   2.753   7.113 -1.5871 -1.0290  1.2257
 8471SOL     OW36871   1.563   2.328   8.666 -0.4197  0.1786 -0.0438
 8471SOL    HW136872   1.600   2.344   8.579 -0.3967 -1.8829 -0.4142
 8471SOL    HW236873   1.646   2.325   8.713 -0.6466  1.5746  0.4684
 8472SOL     OW36874   4.404   0.791   7.828 -0.2595  0.0117 -0.5838
 8472SOL    HW136875   4.412   0.869   7.883  1.5201 -0.8294  0.3689
 8472SOL    HW236876   4.455   0.722   7.872  1.5529  0.8852 -1.3371
 8473SOL     OW36877   3.132   2.380  11.928 -0.3952  0.4666  0.0204
 8473SOL    HW136878   3.131   2.289  11.899  0.0702  0.1602  0.9644
 8473SOL    HW236879   3.118   2.430  11.847 -0.6075  0.3574 -0.0111
 8474SOL     OW36880   1.818   1.444  11.765  0.1941  0.2570  0.3649
 8474SOL    HW136881   1.887   1.495  11.723  1.2936 -2.2053 -0.7934
 8474SOL    HW236882   1.875   1.369  11.782  0.8543  0.7039  0.1246
 8475SOL     OW36883   2.325   1.428   6.914 -0.0460  0.1545 -0.2712
 8475SOL    HW136884   2.280   1.344   6.927 -0.0909  0.8667  4.0840
 8475SOL    HW236885   2.405   1.391   6.878 -0.1309  1.0221 -1.3584
 8476SOL     OW36886   1.179   4.024  12.929 -0.1374 -0.5264  0.0195
 8476SOL    HW136887   1.275   4.025  12.935 -0.1302  2.3935 -0.9472
 8476SOL    HW236888   1.160   4.115  12.950  1.8414 -0.4346  1.5098
 8477SOL     OW36889   2.994   3.805   2.820  0.1522 -0.3287 -0.6366
 8477SOL    HW136890   3.002   3.879   2.880 -0.8193 -0.5763 -0.2003
 8477SOL    HW236891   3.035   3.734   2.869  1.6175 -0.2696 -1.7839
 8478SOL     OW36892   3.773   4.174   4.744 -0.6581 -0.1865 -0.4294
 8478SOL    HW136893   3.782   4.242   4.678  0.6031 -2.0205 -2.1829
 8478SOL    HW236894   3.739   4.104   4.688 -0.2685  0.1382 -1.0669
 8479SOL     OW36895   1.301   3.644   3.684 -0.1755  0.5238 -0.0639
 8479SOL    HW136896   1.356   3.721   3.697 -0.4401  0.8427 -0.8139
 8479SOL    HW236897   1.369   3.580   3.659  1.1687  1.4051  1.3979
 8480SOL     OW36898   3.717   3.502   2.042  0.3050 -0.0366  0.0351
 8480SOL    HW136899   3.655   3.559   1.996  1.3616  1.5230  0.5893
 8480SOL    HW236900   3.677   3.415   2.038 -1.7222  1.0238 -2.8952
 8481SOL     OW36901   1.888   1.990   3.311  0.2362  0.1037 -0.8235
 8481SOL    HW136902   1.925   1.917   3.359  2.0224  1.2242 -0.5000
 8481SOL    HW236903   1.917   1.963   3.224  0.1961  1.5700 -1.2896
 8482SOL     OW36904   1.399   0.057   5.140  0.1845 -0.3823 -0.2668
 8482SOL    HW136905   1.405   4.719   5.213 -3.4969 -0.5017 -0.0965
 8482SOL    HW236906   1.491   0.085   5.137  0.3843 -1.0840 -0.7954
 8483SOL     OW36907   3.519   0.828   4.186 -0.5054 -0.3550 -0.1172
 8483SOL    HW136908   3.489   0.913   4.217  1.3928 -0.1970  1.3025
 8483SOL    HW236909   3.436   0.783   4.171 -2.1521  1.8490  2.4087
 8484SOL     OW36910   3.645   2.323   2.467 -0.5783  0.2859 -0.0998
 8484SOL    HW136911   3.694   2.319   2.549 -2.1838  1.6974  0.9228
 8484SOL    HW236912   3.720   2.338   2.410 -0.3287 -1.5253 -0.2269
 8485SOL     OW36913   4.647   0.198   6.813  0.1496 -0.5382  0.3408
 8485SOL    HW136914   4.572   0.244   6.774  0.1574 -2.6213 -2.1470
 8485SOL    HW236915   4.691   0.275   6.849  0.6089 -0.7684  0.2721
 8486SOL     OW36916   4.150   0.935   9.329  0.1780 -1.1521 -0.8335
 8486SOL    HW136917   4.102   0.874   9.385  1.7099 -0.7017  0.9987
 8486SOL    HW236918   4.166   1.012   9.384  0.0655 -2.9056  1.6771
 8487SOL     OW36919   2.266   1.936   4.160  0.3423  0.2080 -0.1358
 8487SOL    HW136920   2.245   1.969   4.072 -2.3259 -0.5311  0.2135
 8487SOL    HW236921   2.275   1.842   4.141 -1.8747 -0.0699  0.2341
 8488SOL     OW36922   2.407   1.241   5.455  0.3657 -0.6943  0.1861
 8488SOL    HW136923   2.388   1.173   5.519 -0.3356 -1.7567 -1.1388
 8488SOL    HW236924   2.482   1.210   5.403  0.2941 -2.3337  1.0760
 8489SOL     OW36925   2.836   3.427  15.432 -0.8451  0.4312  0.5297
 8489SOL    HW136926   2.879   3.403  15.349 -0.1133  2.5259  0.3147
 8489SOL    HW236927   2.907   3.399  15.490 -0.6857  2.0998  1.1372
 8490SOL     OW36928   0.741   1.488   5.358 -0.0428  0.7367  0.1245
 8490SOL    HW136929   0.786   1.448   5.433 -0.0802 -1.8168 -1.2310
 8490SOL    HW236930   0.793   1.568   5.357  1.1149 -0.0032  0.5009
 8491SOL     OW36931   4.283   3.271   2.764  0.4024 -0.2398 -0.8884
 8491SOL    HW136932   4.348   3.248   2.698  0.5080 -1.4668 -0.3496
 8491SOL    HW236933   4.211   3.311   2.714  1.5346 -0.5418 -2.7879
 8492SOL     OW36934   2.939   1.256   6.110 -0.3107  0.5549 -0.3988
 8492SOL    HW136935   3.020   1.295   6.142 -1.4304  1.2613  1.5978
 8492SOL    HW236936   2.865   1.309   6.140 -0.2714 -0.8494  2.1633
 8493SOL     OW36937   3.020   2.078   7.704  0.7362 -0.0029 -0.3210
 8493SOL    HW136938   3.084   2.138   7.742 -2.0184  2.9666 -0.3239
 8493SOL    HW236939   2.938   2.128   7.704  0.4300 -0.5086  2.1341
 8494SOL     OW36940   3.188   0.546   7.661 -0.6035 -0.3052 -0.6389
 8494SOL    HW136941   3.138   0.515   7.586 -0.3964 -0.2646 -0.7930
 8494SOL    HW236942   3.219   0.465   7.701  0.4525 -0.1123 -1.0824
 8495SOL     OW36943   3.321   1.882  15.741  0.4192  0.0767 -0.1244
 8495SOL    HW136944   3.267   1.875  15.820  0.0762 -0.5990 -0.4182
 8495SOL    HW236945   3.256   1.930  15.690  0.7874 -1.6268 -2.2024
 8496SOL     OW36946   4.018   0.588   8.526 -0.4576 -0.2967  0.5398
 8496SOL    HW136947   3.984   0.665   8.572 -0.3039 -0.8246  1.5354
 8496SOL    HW236948   3.998   0.529   8.599 -3.5186 -1.0416 -0.8871
 8497SOL     OW36949   1.374   1.126   7.603 -0.2891 -0.7266  0.0985
 8497SOL    HW136950   1.323   1.205   7.587 -0.5305 -0.7784  0.6077
 8497SOL    HW236951   1.326   1.059   7.555  0.5588 -0.6167 -0.9051
 8498SOL     OW36952   3.628   4.501   6.782  0.3260 -0.3481 -0.0840
 8498SOL    HW136953   3.654   4.472   6.869 -0.0962 -0.3516  0.0382
 8498SOL    HW236954   3.537   4.472   6.787  0.5895 -0.8529  1.7865
 8499SOL     OW36955   1.694   2.944   0.128  0.2540  0.1553 -0.1656
 8499SOL    HW136956   1.615   2.947   0.074  0.1930 -0.4613 -0.1122
 8499SOL    HW236957   1.708   2.850   0.114  0.6487 -0.1973  2.6800
 8500SOL     OW36958   1.232   3.952  10.191 -0.2634  0.0323 -0.3480
 8500SOL    HW136959   1.145   3.912  10.185  0.4541 -1.2406 -2.0081
 8500SOL    HW236960   1.193   4.039  10.180 -1.0256  0.1256  2.9514
 8501SOL     OW36961   0.039   2.005  14.638 -0.4702  0.1659 -0.8081
 8501SOL    HW136962   4.704   1.946  14.686 -0.7498  0.3292 -0.9517
 8501SOL    HW236963   0.002   1.992  14.551  0.2981 -2.3536 -0.7487
 8502SOL     OW36964   2.502   0.599   9.244  0.4670  0.0824  0.3717
 8502SOL    HW136965   2.416   0.639   9.227  0.0191 -1.2780 -0.6110
 8502SOL    HW236966   2.490   0.513   9.204 -2.0129  0.7292 -0.3143
 8503SOL     OW36967   4.145   1.780  12.127 -0.2718 -0.2848  0.2306
 8503SOL    HW136968   4.211   1.746  12.187 -0.1269 -0.1444  0.1522
 8503SOL    HW236969   4.187   1.842  12.068  0.1309  0.8621  1.7184
 8504SOL     OW36970   0.542   3.878   2.541 -0.4843  0.2778 -0.0596
 8504SOL    HW136971   0.637   3.883   2.546 -0.6748  3.6767  0.3569
 8504SOL    HW236972   0.530   3.954   2.485  1.4110  0.5682 -0.0842
 8505SOL     OW36973   0.270   0.520   6.844  0.4075  0.3557  0.3154
 8505SOL    HW136974   0.184   0.489   6.873  0.1553 -1.1549 -2.0330
 8505SOL    HW236975   0.246   0.602   6.801 -0.0058  2.2916  4.2451
 8506SOL     OW36976   1.467   3.228   7.425 -0.0130 -0.3140  0.2798
 8506SOL    HW136977   1.563   3.226   7.423 -0.0222  0.3924 -0.7941
 8506SOL    HW236978   1.445   3.307   7.476 -0.1577 -1.3903  1.8811
 8507SOL     OW36979   0.343   0.992  16.261 -0.3519  0.2645  0.6098
 8507SOL    HW136980   0.337   1.019  16.353 -2.0013 -0.0631  0.5821
 8507SOL    HW236981   0.308   1.072  16.221  0.7711  0.9059  0.8957
 8508SOL     OW36982   0.121   0.968   5.904 -0.3901 -0.1318  0.2744
 8508SOL    HW136983   0.067   1.036   5.863 -0.4271 -0.6866 -0.5954
 8508SOL    HW236984   0.058   0.941   5.970  1.6968  1.6021  2.9840
 8509SOL     OW36985   3.233   3.636   2.461  0.8863 -1.4680  0.1559
 8509SOL    HW136986   3.314   3.651   2.411  0.0825 -1.0791 -1.0367
 8509SOL    HW236987   3.189   3.709   2.417  2.2413 -1.3044 -0.9232
 8510SOL     OW36988   2.614   0.867   0.140 -0.1517 -0.5512  0.3551
 8510SOL    HW136989   2.534   0.817   0.126  0.5727 -2.4551  2.9599
 8510SOL    HW236990   2.636   0.846   0.231 -0.1144 -0.6815  0.3153
 8511SOL     OW36991   1.253   2.468   5.083  0.4872  0.2960 -0.5698
 8511SOL    HW136992   1.243   2.423   5.000 -0.1015 -1.2727  0.3475
 8511SOL    HW236993   1.238   2.556   5.049 -0.3091  0.9680  1.4781
 8512SOL     OW36994   0.142   2.882   5.407  0.1469  0.3040  0.4778
 8512SOL    HW136995   0.057   2.903   5.447 -1.0233 -2.4148 -0.6064
 8512SOL    HW236996   0.153   2.789   5.422 -0.2652 -0.3305 -3.0653
 8513SOL     OW36997   4.498   2.874   0.019 -0.0574 -0.2376 -0.4694
 8513SOL    HW136998   4.461   2.962   0.026 -0.3720 -0.4281  0.1980
 8513SOL    HW236999   4.435   2.825   0.071 -0.6757 -0.4316 -1.3975
 8514SOL     OW37000   4.680   1.038   0.695  0.0387 -0.2822  0.5544
 8514SOL    HW137001   4.595   1.008   0.662 -0.5146 -0.0136  1.7439
 8514SOL    HW237002   4.669   1.027   0.789 -0.0091  1.5726  0.7543
 8515SOL     OW37003   2.877   2.554   0.497 -0.6442 -1.0681 -0.3717
 8515SOL    HW137004   2.813   2.622   0.518 -1.3717 -2.0035  0.4898
 8515SOL    HW237005   2.960   2.589   0.528  0.1816 -2.0212 -1.5182
 8516SOL     OW37006   1.839   0.294   4.555  0.1785  0.1298  0.0068
 8516SOL    HW137007   1.882   0.212   4.580 -1.1169 -0.1408  1.3777
 8516SOL    HW237008   1.749   0.263   4.544  0.3092  0.2731 -1.3463
 8517SOL     OW37009   0.161   3.559   5.291  0.6213  0.2726  0.3665
 8517SOL    HW137010   0.134   3.600   5.373 -0.4905  0.7184 -0.2184
 8517SOL    HW237011   0.250   3.593   5.288  1.4565 -2.0113 -0.1754
 8518SOL     OW37012   2.037   1.866   1.920  0.4536 -0.0525  0.0527
 8518SOL    HW137013   2.092   1.941   1.898 -0.0255 -0.0092 -1.0150
 8518SOL    HW237014   2.081   1.833   1.998  0.1122 -1.7416 -0.4663
 8519SOL     OW37015   3.416   1.895   9.715 -0.2173 -0.0577  0.3434
 8519SOL    HW137016   3.459   1.960   9.660  2.0826  0.0188  2.2095
 8519SOL    HW237017   3.476   1.821   9.703 -0.7247 -0.0159 -2.3217
 8520SOL     OW37018   0.064   0.261   9.381  0.1883 -0.2989 -0.6683
 8520SOL    HW137019   4.718   0.320   9.410  0.7293 -1.4258  2.9481
 8520SOL    HW237020   0.126   0.329   9.357  1.8580 -1.5411  0.1257
 8521SOL     OW37021   0.981   4.199  10.700 -0.1495  0.1657 -0.6451
 8521SOL    HW137022   0.984   4.291  10.725 -1.3533  0.8191 -2.8357
 8521SOL    HW237023   0.897   4.171  10.736 -0.0671  1.8155  0.7738
 8522SOL     OW37024   2.159   3.103   4.489 -0.0819  0.1509 -0.5869
 8522SOL    HW137025   2.171   3.034   4.424  1.7509 -1.3682  1.3501
 8522SOL    HW237026   2.148   3.178   4.431 -2.2408 -1.2886 -2.0466
 8523SOL     OW37027   2.023   0.664  10.294  0.0621  0.1190  0.3106
 8523SOL    HW137028   2.040   0.607  10.369 -1.3161 -0.8226 -0.0857
 8523SOL    HW237029   1.950   0.612  10.260  0.7196 -1.9336  2.0514
 8524SOL     OW37030   4.140   3.089  13.340 -0.4196  0.5683 -0.1580
 8524SOL    HW137031   4.083   3.037  13.396 -0.1118  0.6318  0.2155
 8524SOL    HW237032   4.182   3.146  13.405 -1.2735 -1.4684  2.1812
 8525SOL     OW37033   0.826   4.472   5.506 -0.0565 -0.1145  0.3994
 8525SOL    HW137034   0.901   4.531   5.502 -1.8921  2.2720  0.8180
 8525SOL    HW237035   0.866   4.413   5.570 -0.1719  0.4622  1.0040
 8526SOL     OW37036   4.538   3.323   5.010 -0.8751 -0.6139  0.0114
 8526SOL    HW137037   4.584   3.310   5.093 -0.1053  2.3982  0.0672
 8526SOL    HW237038   4.490   3.241   5.012 -0.6153 -0.7700 -0.2659
 8527SOL     OW37039   1.672   4.540   5.941  0.0620 -0.0643 -0.2337
 8527SOL    HW137040   1.588   4.576   5.968 -0.0844  0.7737 -1.8037
 8527SOL    HW237041   1.731   4.609   5.971  0.8749 -0.8517 -0.0162
 8528SOL     OW37042   2.980   3.613   3.899 -0.3342 -0.6961 -0.2228
 8528SOL    HW137043   3.048   3.546   3.901 -0.3442 -0.7100 -0.3168
 8528SOL    HW237044   2.910   3.586   3.840 -1.2989  0.9538  0.1756
 8529SOL     OW37045   3.429   1.443   6.376 -0.5983 -0.3512  0.7161
 8529SOL    HW137046   3.459   1.533   6.362 -1.2295 -0.3739 -0.7922
 8529SOL    HW237047   3.475   1.398   6.305  0.8483  0.2492  1.2787
 8530SOL     OW37048   1.529   1.901   3.356  0.0335 -0.2301  0.8510
 8530SOL    HW137049   1.442   1.867   3.334 -0.7223  1.2446  1.6159
 8530SOL    HW237050   1.577   1.819   3.371 -0.2046 -0.0334  2.6724
 8531SOL     OW37051   3.619   2.330  16.895  1.2618 -1.1341  0.2530
 8531SOL    HW137052   3.591   2.421  16.903  2.9686 -0.5067 -0.8880
 8531SOL    HW237053   3.668   2.338  16.814  0.8818 -0.0525  0.1313
 8532SOL     OW37054   1.595   4.582   6.362  0.3849 -0.1630  0.5883
 8532SOL    HW137055   1.663   4.527   6.324 -0.7323 -1.1365 -0.0298
 8532SOL    HW237056   1.507   4.557   6.332  0.3530 -0.6163  1.0463
 8533SOL     OW37057   2.366   2.211   8.140 -0.0941  0.1549  0.2707
 8533SOL    HW137058   2.368   2.209   8.236 -2.0826  0.5042  0.3043
 8533SOL    HW237059   2.460   2.204   8.120 -0.0174  0.3798  0.5521
 8534SOL     OW37060   0.194   3.559   7.103 -0.4109 -0.4972 -0.6209
 8534SOL    HW137061   0.109   3.599   7.081  1.0862  1.3330 -3.0909
 8534SOL    HW237062   0.180   3.509   7.183  1.5440 -0.7144 -0.4210
 8535SOL     OW37063   1.469   1.178  10.410 -0.4048  0.5382  0.1206
 8535SOL    HW137064   1.528   1.190  10.335 -0.7896 -0.7365 -0.3933
 8535SOL    HW237065   1.472   1.083  10.421 -0.0306  0.6371  0.8686
 8536SOL     OW37066   2.128   1.577   5.217 -0.1823  0.1494 -0.3717
 8536SOL    HW137067   2.186   1.506   5.244  0.0600  0.5411  0.1370
 8536SOL    HW237068   2.128   1.557   5.123 -2.2822 -0.5891 -0.2048
 8537SOL     OW37069   0.972   1.421  15.803  0.3416  0.0372 -0.3534
 8537SOL    HW137070   0.877   1.418  15.814  0.0081 -2.6835 -3.7713
 8537SOL    HW237071   0.987   1.329  15.780  1.7375 -0.2119  1.6051
 8538SOL     OW37072   2.209   1.842  13.671  0.1016 -0.7356 -0.0770
 8538SOL    HW137073   2.154   1.848  13.748 -0.7752 -2.9222 -0.5163
 8538SOL    HW237074   2.153   1.780  13.624 -3.6700  1.4608  1.5353
 8539SOL     OW37075   2.299   4.556   2.421  0.6783  0.0547  0.2060
 8539SOL    HW137076   2.239   4.482   2.409 -3.1811  3.0973  0.8645
 8539SOL    HW237077   2.319   4.555   2.514  2.3333  2.1414 -0.1155
 8540SOL     OW37078   1.043   3.451   6.532 -0.1730  0.1819  0.3369
 8540SOL    HW137079   1.096   3.529   6.514  1.9855 -0.9448  1.9186
 8540SOL    HW237080   1.005   3.433   6.446  0.4572  0.9713 -0.1148
 8541SOL     OW37081   2.094   1.807   2.471 -0.0049  0.4700 -0.5104
 8541SOL    HW137082   2.155   1.865   2.516  0.2403  0.1532 -0.4330
 8541SOL    HW237083   2.123   1.721   2.502 -2.0800  0.9444  2.6401
 8542SOL     OW37084   2.194   2.659   7.021 -0.9670  0.2226  0.1630
 8542SOL    HW137085   2.175   2.721   7.091 -0.6487 -1.4485  1.7413
 8542SOL    HW237086   2.260   2.708   6.974 -3.1771  0.9678 -2.1595
 8543SOL     OW37087   0.449   1.599   3.310  0.7037 -0.2751  0.2781
 8543SOL    HW137088   0.354   1.612   3.319  0.7728  0.2141  0.2969
 8543SOL    HW237089   0.479   1.689   3.317  0.0972 -0.0098 -0.5813
 8544SOL     OW37090   4.586   0.836   8.396 -0.2227 -0.1476 -0.6672
 8544SOL    HW137091   4.641   0.795   8.462 -1.1385 -0.4336 -0.0803
 8544SOL    HW237092   4.636   0.841   8.315  1.7210  0.2434  0.5660
 8545SOL     OW37093   3.199   2.864   3.551 -0.1828 -0.1200  0.2470
 8545SOL    HW137094   3.194   2.797   3.483 -1.9279  3.0677 -2.7619
 8545SOL    HW237095   3.109   2.886   3.575 -0.7488  0.0029 -1.9922
 8546SOL     OW37096   2.726   2.204  15.013  0.7602  0.8524 -0.1702
 8546SOL    HW137097   2.682   2.191  15.097  1.9224  0.7433  0.4273
 8546SOL    HW237098   2.699   2.290  14.981  0.0789  0.0595 -1.6957
 8547SOL     OW37099   3.492   2.639   3.865 -0.1653  0.1779  0.0164
 8547SOL    HW137100   3.521   2.721   3.903  1.3153 -0.7069  0.7845
 8547SOL    HW237101   3.503   2.662   3.773 -0.0316  1.5288  0.3713
 8548SOL     OW37102   4.388   2.646   5.782 -0.0351 -0.8007  0.4042
 8548SOL    HW137103   4.435   2.696   5.849 -0.6953 -1.6113  1.4645
 8548SOL    HW237104   4.317   2.704   5.754  1.0197 -0.4929 -1.5938
 8549SOL     OW37105   4.668   0.336   4.047 -0.1108 -0.1526 -0.4382
 8549SOL    HW137106   4.688   0.385   3.967  2.2391 -1.7548 -0.8288
 8549SOL    HW237107   4.598   0.282   4.010 -2.2558  1.2343  1.5404
 8550SOL     OW37108   3.224   2.248  10.004  0.3547  0.6805 -0.1603
 8550SOL    HW137109   3.316   2.274  10.007  0.3559  0.6884 -0.2601
 8550SOL    HW237110   3.207   2.233  10.097 -0.7549 -1.6496 -0.7197
 8551SOL     OW37111   4.143   2.306  13.217  0.0546 -0.1803 -0.1752
 8551SOL    HW137112   4.209   2.277  13.154  1.8449  1.9481  0.6893
 8551SOL    HW237113   4.153   2.235  13.280  0.7398 -0.0128 -0.0987
 8552SOL     OW37114   4.269   1.819   8.942 -0.1797  0.1112 -0.9154
 8552SOL    HW137115   4.300   1.739   8.984  0.3033  1.0422  0.5350
 8552SOL    HW237116   4.218   1.854   9.015  0.2792 -0.6958 -0.2068
 8553SOL     OW37117   3.614   3.619   7.892  0.1165 -0.4752 -0.3193
 8553SOL    HW137118   3.620   3.628   7.987 -0.5225 -0.1739 -0.3051
 8553SOL    HW237119   3.559   3.693   7.865 -0.9852 -1.5738 -1.0749
 8554SOL     OW37120   0.862   3.212   7.673  0.3006  0.0692 -0.7699
 8554SOL    HW137121   0.850   3.162   7.753 -1.0776 -1.4847 -1.9660
 8554SOL    HW237122   0.926   3.278   7.701  1.4865 -0.6100 -1.8870
 8555SOL     OW37123   4.287   2.441   7.638  0.1693  0.0579  0.0273
 8555SOL    HW137124   4.224   2.389   7.590 -0.1430  0.7446 -0.3047
 8555SOL    HW237125   4.352   2.478   7.578 -1.3646  1.7898 -0.5628
 8556SOL     OW37126   3.799   1.827   5.608  0.7410 -0.4374  0.2213
 8556SOL    HW137127   3.766   1.876   5.683  1.4955  2.3764 -1.2714
 8556SOL    HW237128   3.876   1.791   5.652  1.3325 -1.2463 -1.4546
 8557SOL     OW37129   2.166   3.787   3.201  0.5415  0.2952  0.6274
 8557SOL    HW137130   2.188   3.834   3.121  1.3636  1.5923  1.6033
 8557SOL    HW237131   2.100   3.842   3.245 -0.1622  0.5340 -0.7240
 8558SOL     OW37132   3.385   0.744   4.656  0.2560  0.5458 -0.5042
 8558SOL    HW137133   3.480   0.735   4.648  0.1193 -2.7373  1.5626
 8558SOL    HW237134   3.378   0.777   4.746  2.1854 -1.1056  0.2611
 8559SOL     OW37135   2.180   1.590   0.609  0.2075  0.0735  0.0011
 8559SOL    HW137136   2.249   1.614   0.671  0.6438  0.3038 -0.5741
 8559SOL    HW237137   2.099   1.591   0.660 -0.6829  1.7962 -1.4517
 8560SOL     OW37138   1.182   0.582  15.054 -0.0362 -0.1777 -0.0746
 8560SOL    HW137139   1.241   0.537  15.114  0.8632  0.3256 -0.5751
 8560SOL    HW237140   1.204   0.529  14.977 -0.3524  0.9088 -0.9235
 8561SOL     OW37141   2.665   0.972   7.240 -0.1714  0.4005 -0.0024
 8561SOL    HW137142   2.600   0.921   7.289 -0.5466  0.2967 -0.6156
 8561SOL    HW237143   2.662   1.060   7.277  2.9411  1.0757 -1.3420
 8562SOL     OW37144   1.393   2.650   6.303 -0.4855 -0.1340  0.6184
 8562SOL    HW137145   1.364   2.616   6.388  1.4825  1.0281  1.7591
 8562SOL    HW237146   1.453   2.580   6.278 -0.9822 -1.3158  2.7301
 8563SOL     OW37147   1.200   2.009   9.568  0.1166  0.0392 -0.0544
 8563SOL    HW137148   1.117   1.981   9.609  0.3973  0.1371  0.5901
 8563SOL    HW237149   1.263   1.992   9.638 -0.5455  0.0674  0.5569
 8564SOL     OW37150   0.942   2.002   4.143  0.3326  1.0425 -0.6002
 8564SOL    HW137151   0.950   1.965   4.055  0.2161  1.0910 -0.6315
 8564SOL    HW237152   1.029   2.041   4.150  0.8419  0.1044 -1.8355
 8565SOL     OW37153   0.231   2.949   0.233 -0.1358  0.0370 -0.1502
 8565SOL    HW137154   0.206   3.025   0.287 -3.5393  0.5848 -2.5167
 8565SOL    HW237155   0.201   2.875   0.285  2.6374 -0.5676  0.5895
 8566SOL     OW37156   3.140   4.562   2.708 -0.6586  0.3255 -0.8707
 8566SOL    HW137157   3.175   4.499   2.646 -1.0623  1.3632 -2.1751
 8566SOL    HW237158   3.196   4.543   2.783 -1.5597 -2.4009 -0.8961
 8567SOL     OW37159   0.641   2.087   5.430 -0.1453 -0.3878 -0.1176
 8567SOL    HW137160   0.648   2.002   5.473  0.3674 -1.1149 -1.6090
 8567SOL    HW237161   0.619   2.061   5.340 -2.5394 -1.0705  0.6558
 8568SOL     OW37162   3.403   0.868   4.899  0.2870  0.1482 -0.2858
 8568SOL    HW137163   3.321   0.835   4.934 -0.1540  0.1475 -1.3098
 8568SOL    HW237164   3.424   0.937   4.963 -0.7919  0.5059 -0.3065
 8569SOL     OW37165   0.845   3.892  17.570  0.0193  0.2866  0.5200
 8569SOL    HW137166   0.896   3.811  17.571  0.2438  0.4166 -0.5386
 8569SOL    HW237167   0.865   3.933  17.654 -0.7803  2.0257 -0.1406
 8570SOL     OW37168   1.459   2.600  12.914 -0.0550 -0.1907 -0.1945
 8570SOL    HW137169   1.388   2.639  12.863  0.4001  1.7738  0.6580
 8570SOL    HW237170   1.456   2.504  12.917 -1.7936 -0.1997 -3.5311
 8571SOL     OW37171   0.694   1.450   4.450 -0.3572 -0.7145  0.6360
 8571SOL    HW137172   0.776   1.496   4.466 -1.2875  0.8922  0.7811
 8571SOL    HW237173   0.685   1.378   4.512 -1.9567 -1.2313 -0.1765
 8572SOL     OW37174   0.582   0.741   2.365  0.1644  0.1949  0.3689
 8572SOL    HW137175   0.558   0.796   2.291  1.6360  2.3774  1.5196
 8572SOL    HW237176   0.584   0.650   2.334  1.9753  0.0479  0.8870
 8573SOL     OW37177   2.702   3.028   8.341 -0.1263  0.3849 -0.7922
 8573SOL    HW137178   2.617   3.059   8.310 -0.0629  0.3616 -0.9870
 8573SOL    HW237179   2.677   3.010   8.432  2.7651  0.9207  0.1209
 8574SOL     OW37180   4.700   3.795   6.438 -0.3193 -0.5528  0.8737
 8574SOL    HW137181   0.002   3.703   6.451 -0.7976 -0.7421  0.4811
 8574SOL    HW237182   4.637   3.782   6.368  0.3297 -3.3740  0.8061
 8575SOL     OW37183   3.335   2.432  16.038  0.1036 -0.5738 -0.4669
 8575SOL    HW137184   3.376   2.519  16.038 -1.7995  0.3133  1.1444
 8575SOL    HW237185   3.369   2.394  15.957  0.0388 -0.5394 -0.5099
 8576SOL     OW37186   0.542   1.872   2.227 -0.0908  0.1766 -0.6294
 8576SOL    HW137187   0.630   1.868   2.189  0.3682  0.2686  0.4331
 8576SOL    HW237188   0.513   1.951   2.182  0.0036 -0.7520 -2.3098
 8577SOL     OW37189   3.961   0.641   5.260  0.3011 -0.1647 -0.5331
 8577SOL    HW137190   3.905   0.679   5.193  0.4358  0.8119 -0.0958
 8577SOL    HW237191   3.995   0.568   5.208 -1.4284 -0.2276 -1.5732
 8578SOL     OW37192   4.572   0.917   9.078 -0.0925  0.2165 -0.2136
 8578SOL    HW137193   4.596   0.862   9.153 -0.1915  0.5768  0.0853
 8578SOL    HW237194   4.505   0.864   9.036  0.4353 -0.5456 -0.0855
 8579SOL     OW37195   0.279   2.775  10.878  0.0152 -0.3439 -0.6693
 8579SOL    HW137196   0.296   2.685  10.904 -2.1028 -0.1283  1.4719
 8579SOL    HW237197   0.337   2.803  10.808 -1.7692  1.1405 -1.5459
 8580SOL     OW37198   1.669   3.391  15.206  0.2746  0.4384 -0.3006
 8580SOL    HW137199   1.665   3.296  15.200  0.6566  0.5836 -2.7360
 8580SOL    HW237200   1.695   3.401  15.298 -1.6538  0.1345  0.2893
 8581SOL     OW37201   0.260   1.772  14.301 -0.2867  0.3617  0.3824
 8581SOL    HW137202   0.272   1.806  14.212  0.1366 -0.7224  0.0260
 8581SOL    HW237203   0.253   1.854  14.349  1.1064  0.4870  0.3886
 8582SOL     OW37204   4.564   3.598  10.170  0.1878  0.3094 -0.3168
 8582SOL    HW137205   4.636   3.661  10.164  1.3881 -0.9031  1.4276
 8582SOL    HW237206   4.604   3.538  10.233  2.3290 -0.3339 -2.3066
 8583SOL     OW37207   0.767   3.406   6.903  0.3995  0.6948  0.2352
 8583SOL    HW137208   0.677   3.433   6.882  0.5052  0.5948 -0.3385
 8583SOL    HW237209   0.773   3.392   6.998 -1.5970  0.3446  0.3104
 8584SOL     OW37210   3.774   0.018  15.517 -0.1590  0.1513 -0.9841
 8584SOL    HW137211   3.812   0.026  15.604  0.9373 -0.4387 -1.4111
 8584SOL    HW237212   3.762   0.107  15.483 -1.0668  0.5318  0.3615
 8585SOL     OW37213   4.626   1.908  14.957 -0.1531 -0.5938  0.0924
 8585SOL    HW137214   4.622   1.995  14.998 -0.3394  0.5443 -2.3575
 8585SOL    HW237215   4.532   1.893  14.949 -0.0722 -1.2199  0.3092
 8586SOL     OW37216   4.091   2.682   8.879  0.0808 -0.5944  0.1372
 8586SOL    HW137217   4.070   2.672   8.972  1.1605  1.0031  0.5546
 8586SOL    HW237218   4.186   2.672   8.892  0.4345  1.9033 -0.5479
 8587SOL     OW37219   1.178   0.605   3.588  0.2671 -0.0128 -0.4431
 8587SOL    HW137220   1.186   0.621   3.494  2.8149 -2.5334 -0.6504
 8587SOL    HW237221   1.203   0.684   3.636 -1.5257  0.1609  0.2101
 8588SOL     OW37222   2.774   2.671   1.162  0.2104  0.7335  0.2224
 8588SOL    HW137223   2.746   2.580   1.171 -0.0582  0.8072  0.1303
 8588SOL    HW237224   2.769   2.694   1.070  1.1681 -0.4213 -0.1209
 8589SOL     OW37225   2.239   0.462  14.833 -0.0166 -0.0950  0.5551
 8589SOL    HW137226   2.212   0.505  14.752  1.8436  0.6130  0.3025
 8589SOL    HW237227   2.164   0.403  14.838 -0.5061  0.4774 -0.2318
 8590SOL     OW37228   0.062   1.349   8.715  0.0692  0.3926  0.1164
 8590SOL    HW137229   0.078   1.405   8.790 -1.5453  1.2959 -0.2160
 8590SOL    HW237230   0.144   1.337   8.666 -1.7523 -2.2982 -2.2895
 8591SOL     OW37231   3.965   3.069   5.623 -0.0117  0.1273 -0.5067
 8591SOL    HW137232   3.931   3.131   5.559  1.4570  0.6290 -0.8172
 8591SOL    HW237233   4.012   3.125   5.684 -0.5885 -1.6204  1.5575
 8592SOL     OW37234   2.719   4.152   4.194 -0.2086 -0.3063 -0.4588
 8592SOL    HW137235   2.656   4.182   4.129 -0.0535 -2.0156 -1.3878
 8592SOL    HW237236   2.720   4.057   4.181 -0.2080 -0.6220  1.7829
 8593SOL     OW37237   3.978   3.976  16.268 -0.2057 -0.2792 -0.9343
 8593SOL    HW137238   4.057   4.010  16.226 -0.1267  0.4748 -0.1776
 8593SOL    HW237239   3.969   4.026  16.349  0.6090  0.6407 -1.4176
 8594SOL     OW37240   2.008   0.194   8.738 -0.2500 -0.3582 -0.0569
 8594SOL    HW137241   1.973   0.252   8.671  1.1324 -2.1057 -2.2580
 8594SOL    HW237242   2.098   0.226   8.738 -0.1677 -0.5950 -2.2054
 8595SOL     OW37243   0.720   2.513   0.122  0.1729  0.5745  0.0495
 8595SOL    HW137244   0.693   2.506   0.030  1.3184 -1.2234 -0.1524
 8595SOL    HW237245   0.754   2.426   0.140  1.6947  1.3773  0.9886
 8596SOL     OW37246   3.284   3.424  15.038 -0.3031  0.1089 -0.4975
 8596SOL    HW137247   3.358   3.458  14.989  1.4878 -1.4020  1.1175
 8596SOL    HW237248   3.237   3.491  15.088  0.6830  1.3985 -1.3365
 8597SOL     OW37249   4.254   2.553  13.178 -0.1752 -0.0270  0.5616
 8597SOL    HW137250   4.267   2.459  13.191  0.5142  0.2499  1.8801
 8597SOL    HW237251   4.189   2.565  13.246  1.2767 -0.7282  2.0741
 8598SOL     OW37252   0.626   2.640  15.217 -0.1668  0.2722  0.6239
 8598SOL    HW137253   0.717   2.641  15.186 -0.2192 -2.1182  0.3858
 8598SOL    HW237254   0.610   2.546  15.218 -3.1199  0.7910  0.1789
 8599SOL     OW37255   2.894   3.465   9.219 -0.6318  0.1536  0.1055
 8599SOL    HW137256   2.917   3.399   9.154 -0.8156  0.5351 -0.3481
 8599SOL    HW237257   2.967   3.452   9.279 -0.0857  2.0212 -0.1303
 8600SOL     OW37258   1.626   0.601   1.511 -0.3959  0.0659  0.4918
 8600SOL    HW137259   1.601   0.659   1.583 -1.0815 -0.6445  0.8325
 8600SOL    HW237260   1.626   0.653   1.431  1.8927 -1.6936 -0.6653
 8601SOL     OW37261   2.450   0.001   7.154  0.7799  0.3699  0.3478
 8601SOL    HW137262   2.393   0.062   7.202 -0.5902 -0.1162 -0.6707
 8601SOL    HW237263   2.459   0.043   7.069  0.4767 -1.1225 -0.4139
 8602SOL     OW37264   4.485   3.480   8.258 -0.5321  0.3954 -0.6862
 8602SOL    HW137265   4.547   3.408   8.263 -2.0100 -0.7091  1.8230
 8602SOL    HW237266   4.544   3.553   8.274  0.8804 -0.9384  0.1225
 8603SOL     OW37267   3.082   3.453   4.249 -0.4232 -0.1084 -0.3857
 8603SOL    HW137268   3.125   3.390   4.306  0.7827  0.3022 -0.8359
 8603SOL    HW237269   3.101   3.413   4.165  0.2282  1.0592 -0.7893
 8604SOL     OW37270   1.681   4.510  16.163  0.3080 -0.1364  0.2450
 8604SOL    HW137271   1.715   4.591  16.201 -1.0054 -0.8373  2.9072
 8604SOL    HW237272   1.752   4.485  16.104  0.8526 -0.0583  0.8727
 8605SOL     OW37273   0.447   1.408   3.964  0.3930 -0.0953  0.2076
 8605SOL    HW137274   0.400   1.486   3.994 -0.7087  0.0707 -1.9856
 8605SOL    HW237275   0.516   1.403   4.030  1.6042  3.1168 -0.7970
 8606SOL     OW37276   4.511   0.667   4.707 -0.2281 -0.0259 -0.5148
 8606SOL    HW137277   4.481   0.702   4.791  2.7121 -2.6368  1.6083
 8606SOL    HW237278   4.504   0.746   4.653  0.1367 -2.1328 -3.6312
 8607SOL     OW37279   3.010   1.218  14.327  0.1913 -0.2036 -0.5021
 8607SOL    HW137280   3.040   1.293  14.276 -2.1928  1.0837  0.0254
 8607SOL    HW237281   3.006   1.156  14.254  2.4000  0.8679 -1.5520
 8608SOL     OW37282   0.846   4.223   3.899 -0.0533 -0.5021  0.1125
 8608SOL    HW137283   0.768   4.276   3.917 -0.8980 -1.4829 -0.7004
 8608SOL    HW237284   0.918   4.285   3.909 -0.5666 -0.4147  3.3286
 8609SOL     OW37285   3.666   1.179  11.532 -0.1129 -0.6574 -0.1767
 8609SOL    HW137286   3.697   1.257  11.578  0.1777 -0.9896  0.1840
 8609SOL    HW237287   3.725   1.181  11.457 -1.1226 -2.1820 -1.0121
 8610SOL     OW37288   0.288   0.816   3.640  0.0418  0.0525  0.3896
 8610SOL    HW137289   0.252   0.882   3.581 -0.3467  0.4793  1.1087
 8610SOL    HW237290   0.367   0.865   3.662  0.2783  0.3567 -1.1656
 8611SOL     OW37291   1.930   1.943  14.988  0.6154 -0.5308 -0.4559
 8611SOL    HW137292   1.869   1.890  14.938  0.7914  0.0926 -1.3353
 8611SOL    HW237293   1.970   1.992  14.916 -0.9118  2.2141  0.5536
 8612SOL     OW37294   2.426   2.529   3.646 -0.3148  0.0955 -0.3677
 8612SOL    HW137295   2.405   2.448   3.692  1.3763 -0.1843 -0.1172
 8612SOL    HW237296   2.404   2.500   3.557  2.1648 -0.8299 -0.6770
 8613SOL     OW37297   1.989   3.146   2.560  0.0570 -0.4655  0.2732
 8613SOL    HW137298   1.920   3.207   2.533  0.9708  0.4903  0.0998
 8613SOL    HW237299   1.975   3.081   2.491  2.3701  1.7312 -2.2794
 8614SOL     OW37300   2.251   1.535   4.020 -0.4582  0.4359  0.2987
 8614SOL    HW137301   2.297   1.561   3.940  1.0539 -2.7308  0.1444
 8614SOL    HW237302   2.271   1.442   4.032  1.9923  0.7869 -1.1081
 8615SOL     OW37303   2.961   3.060   5.778 -0.5914  0.3611 -0.0742
 8615SOL    HW137304   2.869   3.035   5.785 -0.1670 -1.1520  0.0886
 8615SOL    HW237305   3.007   2.981   5.807  0.8061  0.8428 -0.9803
 8616SOL     OW37306   3.405   2.276   7.800  0.3091  0.2757 -0.5560
 8616SOL    HW137307   3.385   2.186   7.773  1.0861  0.5079 -1.9430
 8616SOL    HW237308   3.319   2.318   7.789 -0.9551 -1.8548  1.1744
 8617SOL     OW37309   2.511   0.911   3.860  0.4193  0.0556  0.0855
 8617SOL    HW137310   2.472   0.963   3.790 -0.6130  1.0403  1.4024
 8617SOL    HW237311   2.550   0.977   3.918  2.0130 -1.0571  0.3026
 8618SOL     OW37312   3.637   2.830   9.430  0.0257  0.0106  0.0301
 8618SOL    HW137313   3.562   2.829   9.370 -1.2595 -1.0413  1.6599
 8618SOL    HW237314   3.710   2.799   9.377  0.5669 -0.5591  1.1150
 8619SOL     OW37315   3.675   0.893  11.194 -0.1762 -0.1266  0.3166
 8619SOL    HW137316   3.628   0.940  11.262 -0.2763 -0.0012  0.1606
 8619SOL    HW237317   3.726   0.969  11.165  0.0979 -0.0099  1.0870
 8620SOL     OW37318   2.644   3.073  17.354  0.2052  0.2494  0.7569
 8620SOL    HW137319   2.643   3.010  17.425 -1.6085 -1.5645 -0.8857
 8620SOL    HW237320   2.665   3.150  17.407 -1.5852  1.2514  0.0159
 8621SOL     OW37321   4.179   3.347  11.675 -0.3746  0.1100 -0.8429
 8621SOL    HW137322   4.154   3.408  11.606 -1.0330 -0.6473 -1.2723
 8621SOL    HW237323   4.096   3.301  11.687 -0.6976  0.5672 -1.3512
 8622SOL     OW37324   3.826   4.200   7.696  0.0721  0.0887 -0.3062
 8622SOL    HW137325   3.816   4.181   7.790  0.1696 -1.2091 -0.5546
 8622SOL    HW237326   3.884   4.276   7.694 -0.7043  0.6785 -0.4987
 8623SOL     OW37327   2.202   3.796   1.721  0.2181  0.5434  0.5554
 8623SOL    HW137328   2.202   3.772   1.814  0.8837 -2.5582 -0.2335
 8623SOL    HW237329   2.284   3.841   1.704  1.1010 -0.0670  3.2366
 8624SOL     OW37330   1.136   2.327  10.013 -0.1391  0.3377 -0.0998
 8624SOL    HW137331   1.095   2.297   9.932  1.0482 -0.9005 -0.2409
 8624SOL    HW237332   1.191   2.400   9.985 -0.2280  1.5968  3.0567
 8625SOL     OW37333   2.469   3.482   2.544  0.3994 -0.2808  0.0352
 8625SOL    HW137334   2.548   3.466   2.492 -0.2236 -2.5326 -0.2294
 8625SOL    HW237335   2.441   3.393   2.568  1.4365 -0.2054  1.5558
 8626SOL     OW37336   1.828   3.132   6.395 -0.0020 -0.1797 -0.7612
 8626SOL    HW137337   1.832   3.075   6.472 -0.1855  0.5867 -0.1823
 8626SOL    HW237338   1.745   3.179   6.398  0.0570  0.1148 -4.4008
 8627SOL     OW37339   0.563   4.006  16.515 -0.2182 -0.1877 -0.2836
 8627SOL    HW137340   0.487   3.948  16.514 -0.1661 -0.2770  0.5027
 8627SOL    HW237341   0.575   4.033  16.424  2.7108 -0.3969  0.0625
 8628SOL     OW37342   3.410   1.750   4.963  0.0007 -0.0676 -0.2207
 8628SOL    HW137343   3.373   1.679   4.910 -0.2906 -0.7374  0.8851
 8628SOL    HW237344   3.488   1.774   4.912  0.0366 -0.3068 -0.2811
 8629SOL     OW37345   2.746   2.822   0.618  0.2501  0.3811 -0.4504
 8629SOL    HW137346   2.757   2.874   0.539  0.2010 -0.4897 -1.0315
 8629SOL    HW237347   2.726   2.894   0.677 -1.5393 -1.1308  0.7938
 8630SOL     OW37348   2.280   3.621   5.980  0.0452  0.2693  0.2349
 8630SOL    HW137349   2.318   3.704   6.008  1.0000 -0.3112  0.6967
 8630SOL    HW237350   2.321   3.616   5.894  2.9186  0.6171  1.5991
 8631SOL     OW37351   2.984   3.215   7.001 -0.5479  0.5924  0.3732
 8631SOL    HW137352   2.955   3.285   6.942  0.6435 -1.0185 -2.1329
 8631SOL    HW237353   3.031   3.161   6.937 -3.0025 -0.6183 -0.3991
 8632SOL     OW37354   3.587   1.122   0.241 -0.6891  0.6448  0.4028
 8632SOL    HW137355   3.609   1.118   0.334  1.4687 -0.0117 -0.1404
 8632SOL    HW237356   3.500   1.161   0.241 -0.8544  0.2841  2.9544
 8633SOL     OW37357   1.809   4.668  17.427 -0.0193 -0.3120 -0.0620
 8633SOL    HW137358   1.865   0.010  17.467 -1.7785  1.4311 -0.4943
 8633SOL    HW237359   1.746   4.665  17.498 -0.0969 -0.0069 -0.1193
 8634SOL     OW37360   3.834   2.722   6.051  0.3926 -0.7377  0.4061
 8634SOL    HW137361   3.801   2.785   6.115  1.4221 -0.0181  0.2110
 8634SOL    HW237362   3.848   2.784   5.980 -1.1237  0.1159  0.8625
 8635SOL     OW37363   3.028   2.335   4.615  0.2980 -0.1915  0.1815
 8635SOL    HW137364   3.104   2.325   4.558 -1.9638 -0.9659 -2.6340
 8635SOL    HW237365   2.952   2.364   4.565  0.4097  0.4678  0.3888
 8636SOL     OW37366   1.454   3.716   7.068 -0.0951  0.5965  0.3316
 8636SOL    HW137367   1.382   3.724   7.131 -2.3419  0.5376 -2.2658
 8636SOL    HW237368   1.491   3.804   7.069  1.0912  0.0981  1.6269
 8637SOL     OW37369   2.559   1.419   7.861 -0.6006 -0.2543  0.3032
 8637SOL    HW137370   2.592   1.369   7.935  1.0935 -1.8885 -1.5444
 8637SOL    HW237371   2.627   1.404   7.795  0.6278  0.8079  1.3106
 8638SOL     OW37372   0.185   0.634  12.874  0.4933  0.1574 -0.1673
 8638SOL    HW137373   0.240   0.580  12.818  3.1734  2.0512  0.6421
 8638SOL    HW237374   0.099   0.615  12.836  0.4372  1.3628 -0.6652
 8639SOL     OW37375   1.386   4.142   2.398  0.2759  0.4486  0.3924
 8639SOL    HW137376   1.318   4.175   2.339  1.2910  1.4276 -0.2485
 8639SOL    HW237377   1.452   4.199   2.357 -2.3741  1.2104 -2.8552
 8640SOL     OW37378   3.675   1.827   2.488  0.1928 -0.3253 -0.2983
 8640SOL    HW137379   3.648   1.766   2.556 -0.9985  0.3847 -0.1340
 8640SOL    HW237380   3.605   1.817   2.424 -0.4394 -0.1677  0.3725
 8641SOL     OW37381   3.492   1.372  17.326 -0.2728 -0.3226  0.2530
 8641SOL    HW137382   3.548   1.377  17.404  1.5804 -1.8108 -0.9702
 8641SOL    HW237383   3.434   1.448  17.337 -0.4676 -0.2312 -1.3521
 8642SOL     OW37384   1.610   3.512  12.611 -0.0306  0.0932  0.3224
 8642SOL    HW137385   1.604   3.602  12.579  0.1950  0.3877  1.1045
 8642SOL    HW237386   1.572   3.478  12.529 -0.2528 -0.6660  0.7357
 8643SOL     OW37387   1.506   3.012  14.151  0.2248  0.4969  0.1099
 8643SOL    HW137388   1.512   3.073  14.225 -0.9654 -0.0219  0.6307
 8643SOL    HW237389   1.520   3.070  14.075  0.9010  1.1460  0.7320
 8644SOL     OW37390   3.041   2.806  17.196  0.0043 -0.0480  0.4463
 8644SOL    HW137391   2.958   2.779  17.236 -0.3133  1.7558  1.0001
 8644SOL    HW237392   3.018   2.813  17.104 -1.5227  0.4786  0.8696
 8645SOL     OW37393   3.482   0.255  17.152 -0.1050  0.3175  0.3066
 8645SOL    HW137394   3.569   0.291  17.169  0.1340 -0.0920 -0.0289
 8645SOL    HW237395   3.488   0.165  17.185  2.0043 -0.0061 -0.8810
 8646SOL     OW37396   4.514   1.049   7.660 -0.3133  0.2088 -0.5007
 8646SOL    HW137397   4.577   1.010   7.600 -0.6673 -0.9297 -0.1401
 8646SOL    HW237398   4.563   1.035   7.741  1.9530 -0.6437 -2.0191
 8647SOL     OW37399   0.949   1.677   1.989 -0.0353 -0.2211  0.3519
 8647SOL    HW137400   0.913   1.626   1.915 -2.2830 -1.8538  2.5611
 8647SOL    HW237401   0.881   1.744   1.991  2.0194  1.8394  0.8066
 8648SOL     OW37402   1.239   4.672   3.969  0.0504 -0.5348  0.1151
 8648SOL    HW137403   1.332   4.657   3.986  0.2316  0.9651  0.4676
 8648SOL    HW237404   1.226   0.019   4.033 -0.3523  1.7147 -2.4895
 8649SOL     OW37405   2.834   0.264   8.583  0.2084  0.3504 -0.2267
 8649SOL    HW137406   2.833   0.172   8.557  0.9407  0.6725 -1.4231
 8649SOL    HW237407   2.884   0.264   8.664 -1.0104  0.6118  0.5264
 8650SOL     OW37408   1.511   3.431   3.996  0.3256 -0.2436  0.1671
 8650SOL    HW137409   1.443   3.376   3.958  0.1556  0.5866 -0.7213
 8650SOL    HW237410   1.589   3.380   3.972  0.4680  0.2754 -0.4994
 8651SOL     OW37411   1.786   1.005   3.206 -0.4148 -0.9896 -0.2339
 8651SOL    HW137412   1.879   1.028   3.212 -1.2312  1.1598  4.0541
 8651SOL    HW237413   1.750   1.055   3.133 -0.8660 -1.3163 -0.2348
 8652SOL     OW37414   0.707   1.889  10.017 -0.1763 -0.1237 -0.1693
 8652SOL    HW137415   0.753   1.840   9.948 -1.6790 -1.4249 -0.2433
 8652SOL    HW237416   0.745   1.844  10.093  0.5953  1.5270  0.4178
 8653SOL     OW37417   0.230   2.124  15.499  0.3824  0.2280  0.2164
 8653SOL    HW137418   0.317   2.141  15.537  1.3865  3.8704 -3.7337
 8653SOL    HW237419   0.175   2.095  15.572  0.1037  0.7894  0.2351
 8654SOL     OW37420   3.140   4.491  10.013  0.1152  0.5828  0.2127
 8654SOL    HW137421   3.049   4.491  10.042  0.3758 -1.0916  0.9980
 8654SOL    HW237422   3.136   4.436   9.935  0.1242 -1.5713  1.7574
 8655SOL     OW37423   4.483   1.976   9.711 -0.4355  0.8129  0.0554
 8655SOL    HW137424   4.535   1.960   9.632  0.8608 -2.6765  1.6462
 8655SOL    HW237425   4.402   1.951   9.665  0.3755 -2.4132  0.3870
 8656SOL     OW37426   2.356   3.083   9.300 -0.4664  0.6775 -0.4252
 8656SOL    HW137427   2.288   3.106   9.363 -0.5003  1.9518 -0.9367
 8656SOL    HW237428   2.321   3.002   9.261  2.3350 -0.5180 -0.4852
 8657SOL     OW37429   3.760   1.215   5.756  0.7768  0.3481 -0.2724
 8657SOL    HW137430   3.830   1.224   5.821 -0.8985 -1.5654  1.8298
 8657SOL    HW237431   3.796   1.134   5.720 -1.5722 -1.8263  2.1853
 8658SOL     OW37432   4.018   2.705   9.455  0.1408  0.0768 -0.0679
 8658SOL    HW137433   4.060   2.623   9.428  0.2065 -0.2746  1.1172
 8658SOL    HW237434   4.092   2.765   9.453 -1.0281  1.5137  0.2176
 8659SOL     OW37435   1.493   4.689  17.542 -0.3893 -0.3844  0.4557
 8659SOL    HW137436   1.531   0.012  17.616  0.1429 -0.4224  0.2071
 8659SOL    HW237437   1.402   4.720  17.535  0.2831  1.2104 -1.3238
 8660SOL     OW37438   0.504   4.666   8.659 -0.7532  0.0649  0.3370
 8660SOL    HW137439   0.444   4.616   8.715 -3.3562  1.9301 -0.8101
 8660SOL    HW237440   0.588   4.624   8.679 -1.6200 -2.0147 -0.3951
 8661SOL     OW37441   3.253   1.848   4.604  0.3974  0.1516  0.3412
 8661SOL    HW137442   3.315   1.891   4.544 -1.0742  2.0668  0.1919
 8661SOL    HW237443   3.286   1.759   4.590 -0.3346 -0.1642  0.6791
 8662SOL     OW37444   2.614   4.553   0.946  0.4389  0.1996 -0.4884
 8662SOL    HW137445   2.526   4.531   0.918 -0.1293  1.3933  0.3492
 8662SOL    HW237446   2.649   4.610   0.878  0.7726  0.0472 -0.4446
 8663SOL     OW37447   2.916   4.629   7.423 -0.0532  0.2298  0.4505
 8663SOL    HW137448   2.933   4.723   7.426  1.1494  0.0374 -0.0879
 8663SOL    HW237449   2.821   4.625   7.416  0.0038  0.0849 -0.2809
 8664SOL     OW37450   2.235   4.294   4.352 -0.2715  0.3693 -0.2879
 8664SOL    HW137451   2.216   4.200   4.343  1.7154 -0.1839  1.1830
 8664SOL    HW237452   2.158   4.344   4.378  0.1787  0.9716 -0.1112
 8665SOL     OW37453   0.571   2.453   5.829 -0.1612 -0.1475 -0.6752
 8665SOL    HW137454   0.649   2.506   5.814  0.1737 -0.8917 -1.5969
 8665SOL    HW237455   0.536   2.466   5.741 -0.3352  1.0717 -0.4344
 8666SOL     OW37456   4.223   3.096   1.363  0.0858  0.3794 -0.1091
 8666SOL    HW137457   4.147   3.145   1.331  1.4183  2.0981 -0.6269
 8666SOL    HW237458   4.203   3.087   1.456  0.7889  2.0983  0.2096
 8667SOL     OW37459   3.925   4.517  12.992 -0.1557  0.3657  0.3163
 8667SOL    HW137460   3.949   4.494  12.902 -0.5308  1.3766 -0.0357
 8667SOL    HW237461   3.944   4.431  13.030  1.1490  1.3737  1.9895
 8668SOL     OW37462   0.692   1.081   1.129 -0.0786  0.1296 -0.0154
 8668SOL    HW137463   0.662   1.002   1.085  2.2074 -1.9093  2.0572
 8668SOL    HW237464   0.786   1.066   1.144 -0.8126 -4.8245 -0.2809
 8669SOL     OW37465   3.326   3.114   7.044 -0.1830 -0.9007  0.7453
 8669SOL    HW137466   3.297   3.179   7.108  1.5552  1.4842 -0.8812
 8669SOL    HW237467   3.250   3.058   7.049 -1.3623  0.7402  1.2974
 8670SOL     OW37468   1.757   1.998   5.617  0.0490 -0.5363 -1.2669
 8670SOL    HW137469   1.679   2.026   5.569  0.2800  0.6372 -0.9519
 8670SOL    HW237470   1.715   1.950   5.690  0.2175 -0.7688 -1.3224
 8671SOL     OW37471   1.673   3.532   3.180 -0.1122  0.0380  0.0908
 8671SOL    HW137472   1.666   3.438   3.191 -0.8004 -0.2575 -2.8290
 8671SOL    HW237473   1.587   3.557   3.213 -0.4030 -2.4937  1.2187
 8672SOL     OW37474   3.633   4.269   7.015 -0.1730 -0.1997  0.3902
 8672SOL    HW137475   3.574   4.292   7.086 -3.1489  1.2249 -2.5485
 8672SOL    HW237476   3.685   4.349   7.020 -1.0070  0.3646 -0.0365
 8673SOL     OW37477   1.137   0.548   8.112 -0.3437  0.3180  0.4725
 8673SOL    HW137478   1.206   0.541   8.178 -1.3520  0.3140  1.5123
 8673SOL    HW237479   1.090   0.465   8.105 -0.3316  0.3056  0.5395
 8674SOL     OW37480   4.351   4.235   3.861 -0.4155 -0.3256 -0.5702
 8674SOL    HW137481   4.427   4.196   3.819 -0.1116  0.9794 -1.2197
 8674SOL    HW237482   4.401   4.296   3.915 -2.7499  0.3511  0.8222
 8675SOL     OW37483   0.417   2.421   3.644  0.3041  0.0780 -0.0501
 8675SOL    HW137484   0.378   2.491   3.591 -4.0269 -2.0910  0.2660
 8675SOL    HW237485   0.354   2.412   3.715 -1.2652  0.2198 -1.4214
 8676SOL     OW37486   3.483   2.926   3.363  0.1656  0.4119  0.0865
 8676SOL    HW137487   3.493   2.948   3.271 -1.4075 -0.6124 -0.3226
 8676SOL    HW237488   3.427   2.996   3.397  0.1281  0.0885  0.6962
 8677SOL     OW37489   4.465   0.897   7.013 -0.4610  0.1187 -0.1021
 8677SOL    HW137490   4.485   0.990   7.012  0.6715 -0.1382 -1.9158
 8677SOL    HW237491   4.439   0.883   7.104  1.5201 -0.0106  0.4600
 8678SOL     OW37492   0.962   4.003  16.725 -0.3297  0.0479 -0.4563
 8678SOL    HW137493   0.945   3.922  16.677 -0.0280  0.0646 -0.5932
 8678SOL    HW237494   0.873   4.037  16.728 -0.2396  0.2456  0.0702
 8679SOL     OW37495   2.435   0.913   3.252  0.2281  0.2693  0.2958
 8679SOL    HW137496   2.347   0.938   3.281  0.2406  1.1278 -0.4002
 8679SOL    HW237497   2.446   0.974   3.179 -0.5037  0.5777  0.4398
 8680SOL     OW37498   0.299   2.011   0.241  0.0997 -0.7195  0.0055
 8680SOL    HW137499   0.232   2.080   0.243 -0.4270 -1.2256 -0.1007
 8680SOL    HW237500   0.241   1.941   0.272 -0.7797  0.7524  1.7114
 8681SOL     OW37501   2.634   2.209   8.161 -0.5231  0.5186 -0.2015
 8681SOL    HW137502   2.691   2.251   8.226  0.5581 -0.5548 -0.4608
 8681SOL    HW237503   2.670   2.122   8.147  0.5370  1.2220 -1.7319
 8682SOL     OW37504   2.610   4.669   9.489  0.1362  0.2027 -0.8469
 8682SOL    HW137505   2.644   4.697   9.575  0.7314  0.5280 -1.1812
 8682SOL    HW237506   2.517   4.687   9.495  0.1118 -0.3966  0.4802
 8683SOL     OW37507   0.232   0.699   9.136  0.2457  0.7362 -0.1728
 8683SOL    HW137508   0.201   0.742   9.057  0.1496 -1.2251 -1.2108
 8683SOL    HW237509   0.158   0.718   9.195 -1.1565 -1.1852 -1.2778
 8684SOL     OW37510   0.456   0.064   1.226  0.5097  0.4659  0.3443
 8684SOL    HW137511   0.365   0.070   1.253  0.2702 -2.4493  0.2475
 8684SOL    HW237512   0.471   0.152   1.192 -2.5626  0.8222 -0.0956
 8685SOL     OW37513   4.299   3.922  15.603  0.2528  0.0664  0.1941
 8685SOL    HW137514   4.316   4.011  15.572  1.5774 -0.4211 -0.5147
 8685SOL    HW237515   4.269   3.927  15.694 -1.3477  0.3582 -0.3542
 8686SOL     OW37516   3.195   3.230   5.398 -0.0051 -0.2946  0.2448
 8686SOL    HW137517   3.155   3.306   5.440 -0.7053 -1.2877  1.3752
 8686SOL    HW237518   3.160   3.245   5.311  1.2630 -0.4313 -0.2945
 8687SOL     OW37519   3.993   1.895  15.727  0.0708  0.0687  0.1498
 8687SOL    HW137520   4.026   1.966  15.672  1.4483 -0.9759 -0.3575
 8687SOL    HW237521   3.913   1.868  15.681 -0.4513 -1.2938  1.8319
 8688SOL     OW37522   3.804   1.048  14.039 -0.0255  0.2381 -0.5935
 8688SOL    HW137523   3.827   1.009  14.124  3.3869  2.3783 -0.5250
 8688SOL    HW237524   3.800   1.141  14.059  0.8843 -0.1362  1.3291
 8689SOL     OW37525   1.969   3.634   0.409  0.2128  0.6665  0.2619
 8689SOL    HW137526   1.899   3.699   0.414 -0.6892 -0.3852  1.3026
 8689SOL    HW237527   1.971   3.602   0.499  0.2698 -1.2146 -0.4008
 8690SOL     OW37528   2.277   1.368   0.434 -0.4608  0.1902  0.0194
 8690SOL    HW137529   2.270   1.438   0.499 -0.2290 -0.7891  1.0893
 8690SOL    HW237530   2.294   1.413   0.352  0.0535 -0.3446 -0.1703
 8691SOL     OW37531   1.332   0.495   8.307  0.1893  0.0267  0.4579
 8691SOL    HW137532   1.419   0.464   8.331  0.1313 -0.4203  0.0850
 8691SOL    HW237533   1.288   0.417   8.341  0.1410  0.8008  2.1849
 8692SOL     OW37534   3.254   4.547   7.433 -0.5602  0.7747  0.0207
 8692SOL    HW137535   3.224   4.544   7.342 -0.7000  0.8730  0.0641
 8692SOL    HW237536   3.185   4.503   7.482 -0.1458  0.2849  0.1606
 8693SOL     OW37537   1.962   3.449  15.433  0.1585  0.3758  0.0231
 8693SOL    HW137538   1.902   3.378  15.455 -0.1955  0.1136 -1.8257
 8693SOL    HW237539   2.035   3.394  15.406 -2.5187 -1.8951 -2.5418
 8694SOL     OW37540   1.679   3.852   2.398 -0.2788 -0.7536  0.3254
 8694SOL    HW137541   1.672   3.760   2.373  0.1073 -0.8163  0.4555
 8694SOL    HW237542   1.704   3.904   2.321 -1.8718  1.0971  1.0356
 8695SOL     OW37543   4.168   1.639  13.518  0.0457  0.0827 -0.2162
 8695SOL    HW137544   4.208   1.613  13.434  0.2919 -1.4709  0.3764
 8695SOL    HW237545   4.198   1.729  13.528  0.8212 -0.0908 -0.9686
 8696SOL     OW37546   3.278   0.547  16.229  0.0768 -0.0627  0.6526
 8696SOL    HW137547   3.235   0.503  16.302 -1.7490  0.2523 -0.2375
 8696SOL    HW237548   3.370   0.548  16.257  0.7069  3.1686 -1.4363
 8697SOL     OW37549   3.964   1.722   2.515  0.4418  0.2072  0.4395
 8697SOL    HW137550   3.935   1.721   2.606 -1.8494 -0.9005 -0.3088
 8697SOL    HW237551   3.889   1.683   2.470  1.2966 -0.4988 -0.3866
 8698SOL     OW37552   0.637   0.490   9.591  0.1739 -0.4672 -0.4059
 8698SOL    HW137553   0.549   0.483   9.627  0.6456 -0.5492  0.7439
 8698SOL    HW237554   0.618   0.441   9.511 -0.8855 -1.0381  0.2080
 8699SOL     OW37555   0.347   4.516   3.899  0.3475 -0.0189  0.7317
 8699SOL    HW137556   0.259   4.493   3.870  0.3534 -1.9486  2.2703
 8699SOL    HW237557   0.389   4.509   3.814  1.1119 -4.2092  1.4573
 8700SOL     OW37558   4.120   1.691   5.530 -0.1946 -0.5467 -0.4406
 8700SOL    HW137559   4.125   1.727   5.442 -0.1277 -0.4849 -0.4109
 8700SOL    HW237560   4.199   1.727   5.570 -1.4548  1.5751  0.1093
 8701SOL     OW37561   0.923   0.299   6.970 -0.2551  0.5389 -0.1824
 8701SOL    HW137562   0.941   0.384   6.931  0.2924  0.5310  0.0572
 8701SOL    HW237563   0.901   0.245   6.893  0.7808 -0.2518  0.0807
 8702SOL     OW37564   1.746   0.144  17.626 -0.5505 -0.1343  0.3073
 8702SOL    HW137565   1.790   0.220  17.664  1.5380 -1.2156  0.0454
 8702SOL    HW237566   1.678   0.179  17.568 -1.0546 -1.2269  0.2535
 8703SOL     OW37567   0.583   2.769   9.989  0.3291  0.2173 -0.5486
 8703SOL    HW137568   0.501   2.722   9.972  0.7542 -0.7076 -0.0956
 8703SOL    HW237569   0.646   2.697   9.990  1.0610  0.8662  0.0861
 8704SOL     OW37570   0.486   2.452   4.802  0.1896  0.6365  0.2470
 8704SOL    HW137571   0.466   2.366   4.764 -1.3317  0.4618  1.4588
 8704SOL    HW237572   0.415   2.467   4.864  0.1146 -0.3433  0.3859
 8705SOL     OW37573   1.037   3.209  15.512  0.1694  0.1256  0.2211
 8705SOL    HW137574   0.956   3.201  15.561 -0.2610 -0.8752 -0.6561
 8705SOL    HW237575   1.033   3.123  15.470  1.5301  0.0186  0.3070
 8706SOL     OW37576   2.527   1.309   6.598  0.1161  0.0828  0.4521
 8706SOL    HW137577   2.587   1.282   6.528 -1.2298  2.9541 -1.7765
 8706SOL    HW237578   2.537   1.232   6.654 -0.6594 -0.4757 -0.1827
 8707SOL     OW37579   3.406   1.746   2.801  0.3590  0.1199 -0.2259
 8707SOL    HW137580   3.417   1.681   2.870  0.8248  1.1217  0.6442
 8707SOL    HW237581   3.466   1.712   2.735 -1.0433 -3.1158  0.1750
 8708SOL     OW37582   2.149   3.657   7.506  0.0763  0.4815  0.1893
 8708SOL    HW137583   2.233   3.619   7.479 -0.2413 -0.0311 -0.0659
 8708SOL    HW237584   2.181   3.715   7.575  0.9713 -0.6611  0.7359
 8709SOL     OW37585   1.402   3.461   5.166 -0.2170  0.0938  0.5683
 8709SOL    HW137586   1.413   3.540   5.113  1.4004 -0.6911 -0.2619
 8709SOL    HW237587   1.399   3.390   5.101 -3.2525 -0.1155  0.9005
 8710SOL     OW37588   0.941   2.037   5.593 -0.4243  0.0365  0.5640
 8710SOL    HW137589   0.896   1.968   5.641 -0.2713  0.1676  0.8979
 8710SOL    HW237590   0.903   2.122   5.615 -0.6766 -0.0449  0.4340
 8711SOL     OW37591   1.917   4.208   5.577  0.0125 -0.1080 -0.1941
 8711SOL    HW137592   1.998   4.160   5.560  0.8654  0.4760  2.2017
 8711SOL    HW237593   1.910   4.260   5.498  0.4535  1.1246  0.5774
 8712SOL     OW37594   2.619   1.940   8.020 -0.2918  0.6877  0.0314
 8712SOL    HW137595   2.634   1.851   8.051  0.7063  0.6889 -0.4643
 8712SOL    HW237596   2.565   1.983   8.086  1.0795  0.0298  1.5552
 8713SOL     OW37597   3.670   2.325  16.154  0.7694  0.5327  0.3074
 8713SOL    HW137598   3.597   2.273  16.120  0.6298  0.2269  1.0946
 8713SOL    HW237599   3.677   2.304  16.247 -1.3760  1.3238  0.6306
 8714SOL     OW37600   2.854   1.780  17.457 -0.3314  0.2715 -0.0468
 8714SOL    HW137601   2.837   1.775  17.363 -0.7920 -1.5022  0.1258
 8714SOL    HW237602   2.874   1.688  17.475 -2.6287  0.0767  1.6468
 8715SOL     OW37603   1.483   0.342  11.533 -0.0553  0.4400 -0.3383
 8715SOL    HW137604   1.471   0.347  11.628  2.0723  1.2767 -0.1091
 8715SOL    HW237605   1.407   0.391  11.501 -0.8328  0.4259  1.4766
 8716SOL     OW37606   1.901   0.048   7.237  0.3565  0.3486 -0.2568
 8716SOL    HW137607   1.843   0.014   7.169 -0.8849 -0.8798  1.4325
 8716SOL    HW237608   1.841   0.056   7.311 -0.9143 -1.7033 -1.0665
 8717SOL     OW37609   0.368   0.370   5.322 -0.2301  0.2059  0.1473
 8717SOL    HW137610   0.318   0.392   5.401  1.2575 -2.1862  1.7446
 8717SOL    HW237611   0.454   0.383   5.361  0.9199 -0.3751 -2.2358
 8718SOL     OW37612   1.206   1.302   5.801 -0.1718  0.1571  0.1867
 8718SOL    HW137613   1.283   1.347   5.837 -0.9391  1.2724  0.4418
 8718SOL    HW237614   1.227   1.312   5.708 -0.0003  1.0714  0.3172
 8719SOL     OW37615   3.927   2.013   4.540 -0.5305 -0.4622  0.5707
 8719SOL    HW137616   4.007   2.031   4.590  0.0880 -1.3078 -0.0958
 8719SOL    HW237617   3.915   1.923   4.570  2.1844 -1.4177 -1.1097
 8720SOL     OW37618   3.959   4.003   1.850  0.1034 -0.0701  0.6154
 8720SOL    HW137619   3.965   4.014   1.755 -2.0559 -0.3499  0.4590
 8720SOL    HW237620   4.013   4.079   1.872 -0.5428 -0.2891  2.9981
 8721SOL     OW37621   2.446   4.652  16.215 -0.1852  0.2219 -0.1845
 8721SOL    HW137622   2.536   4.684  16.209 -0.0711  0.5058  2.9906
 8721SOL    HW237623   2.451   4.584  16.149  0.5157 -0.8523  0.9742
 8722SOL     OW37624   2.017   1.966   5.829 -0.1854 -0.1529  0.2774
 8722SOL    HW137625   2.020   1.957   5.924 -0.8576 -0.5651  0.2602
 8722SOL    HW237626   1.930   1.926   5.821  0.5528 -2.1548  2.1591
 8723SOL     OW37627   0.071   3.841   5.915 -0.5323  0.0316  0.6649
 8723SOL    HW137628   0.044   3.893   5.840 -0.5277 -0.1604  0.5296
 8723SOL    HW237629   0.062   3.898   5.991  2.8508  1.8477 -0.3147
 8724SOL     OW37630   1.628   3.750   5.754 -0.2482 -0.7920 -0.1248
 8724SOL    HW137631   1.683   3.702   5.816 -1.2016 -1.4787  0.1863
 8724SOL    HW237632   1.629   3.685   5.684  0.4351  0.5694 -1.3793
 8725SOL     OW37633   2.918   2.536   6.268  0.0110 -0.2777 -0.3359
 8725SOL    HW137634   2.922   2.560   6.176 -0.0576  3.0518  0.5103
 8725SOL    HW237635   2.896   2.444   6.267  1.2475 -0.5738 -0.5897
 8726SOL     OW37636   2.445   1.223  15.401 -0.0823 -0.4196  0.5783
 8726SOL    HW137637   2.354   1.243  15.377  0.5226  0.3774 -1.0504
 8726SOL    HW237638   2.430   1.163  15.474  0.8443 -1.3430  0.0118
 8727SOL     OW37639   0.217   2.420   8.495 -0.0997 -0.1084  0.1357
 8727SOL    HW137640   0.218   2.331   8.458  0.2052  0.4907 -1.3144
 8727SOL    HW237641   0.130   2.415   8.534  0.6557 -0.4846  1.7519
 8728SOL     OW37642   4.666   1.881  14.407 -0.0364 -0.0858 -0.0212
 8728SOL    HW137643   4.687   1.805  14.352 -0.4122 -0.0874 -0.1637
 8728SOL    HW237644   4.572   1.884  14.390  0.7767  0.6823 -4.4056
 8729SOL     OW37645   0.544   4.379   4.754  0.1765  0.5929 -0.0869
 8729SOL    HW137646   0.530   4.354   4.663  1.8341 -0.8665  0.0491
 8729SOL    HW237647   0.631   4.340   4.747  0.7588  1.7296  0.8876
 8730SOL     OW37648   0.809   0.126   4.825  0.2767  0.2727 -0.3858
 8730SOL    HW137649   0.774   0.070   4.894 -0.0741 -0.4251 -1.1289
 8730SOL    HW237650   0.738   0.155   4.767  0.7990  1.5004 -0.3911
 8731SOL     OW37651   1.680   1.704   7.872  0.5845 -0.0242 -0.0098
 8731SOL    HW137652   1.610   1.691   7.936  0.2091  1.2234 -0.1676
 8731SOL    HW237653   1.658   1.794   7.851  1.2705 -0.1215 -1.1603
 8732SOL     OW37654   3.574   3.140  17.476 -0.4508 -0.2359  0.5475
 8732SOL    HW137655   3.634   3.070  17.449 -1.2049 -1.4519  1.9767
 8732SOL    HW237656   3.624   3.199  17.532 -1.8288  0.3921  1.1064
 8733SOL     OW37657   3.139   2.098   2.477 -0.0604 -0.3020 -0.5433
 8733SOL    HW137658   3.049   2.068   2.466 -0.2439  0.5084 -1.2054
 8733SOL    HW237659   3.187   2.020   2.507  1.9697  0.7707 -0.9721
 8734SOL     OW37660   3.935   4.625   4.835  0.5384 -0.1962  0.3105
 8734SOL    HW137661   4.005   4.563   4.811  0.9218  0.3671 -0.0227
 8734SOL    HW237662   3.954   4.652   4.925  0.8399  2.0538 -0.4336
 8735SOL     OW37663   1.246   3.878   9.781  0.1888 -0.2090 -0.4557
 8735SOL    HW137664   1.298   3.837   9.850  1.8871  2.0297 -0.4085
 8735SOL    HW237665   1.168   3.905   9.829  1.1771  3.0276 -0.6611
 8736SOL     OW37666   3.550   2.091   0.518 -0.2916 -0.0898  0.1368
 8736SOL    HW137667   3.592   2.109   0.434 -0.7438  1.5445  0.2553
 8736SOL    HW237668   3.540   2.183   0.544 -1.3487 -0.4336  0.9737
 8737SOL     OW37669   3.759   2.775  13.388  0.1953 -0.3137  0.1002
 8737SOL    HW137670   3.781   2.683  13.403  0.0361 -0.4270 -0.3480
 8737SOL    HW237671   3.724   2.763  13.299  1.4663  1.7669 -0.6797
 8738SOL     OW37672   2.552   2.126   2.979 -0.2158  0.4504  0.2891
 8738SOL    HW137673   2.529   2.214   3.009 -2.7421 -0.3890  0.7925
 8738SOL    HW237674   2.553   2.144   2.885 -1.6324 -0.0983  0.1787
 8739SOL     OW37675   1.988   4.694  17.661 -0.2207  0.3912 -0.4788
 8739SOL    HW137676   2.069   4.674  17.614 -0.4211 -1.8220  0.1205
 8739SOL    HW237677   1.956   4.604  17.665  0.4254  0.0225 -3.4140
 8740SOL     OW37678   3.074   2.797   8.477 -0.2875  0.0472  0.1866
 8740SOL    HW137679   3.025   2.853   8.536  1.5977  0.7861  1.0423
 8740SOL    HW237680   3.022   2.717   8.476  0.5075 -0.4856  2.6073
 8741SOL     OW37681   1.736   4.471  13.318  0.0292  0.0045  0.2130
 8741SOL    HW137682   1.669   4.523  13.274  2.8765  0.9444 -3.0426
 8741SOL    HW237683   1.697   4.482  13.405  1.6436  0.9194  0.8182
 8742SOL     OW37684   2.149   1.478   3.640 -0.8790  0.0132 -0.2116
 8742SOL    HW137685   2.104   1.463   3.723  0.2363  2.1351  0.7616
 8742SOL    HW237686   2.225   1.427   3.667 -0.4276 -0.0077 -1.5387
 8743SOL     OW37687   2.919   3.554   0.756 -0.4881 -0.4031 -0.4516
 8743SOL    HW137688   2.959   3.564   0.670  0.6205 -0.0430  0.1075
 8743SOL    HW237689   2.920   3.645   0.785 -1.3200 -0.0457 -1.5094
 8744SOL     OW37690   2.400   0.608  13.355 -0.3621  0.5643  0.1416
 8744SOL    HW137691   2.315   0.566  13.351  0.0606  0.0851 -3.7801
 8744SOL    HW237692   2.386   0.689  13.404  0.3154 -0.8036  2.6185
 8745SOL     OW37693   0.898   4.337  17.208  0.5702 -0.2591 -0.0231
 8745SOL    HW137694   0.881   4.284  17.129 -1.3449 -0.5179  0.5756
 8745SOL    HW237695   0.992   4.316  17.216  0.6672  0.1093 -0.2110
 8746SOL     OW37696   3.773   0.036   4.365  0.3512  0.0017 -0.3392
 8746SOL    HW137697   3.797   0.053   4.456  0.4468 -1.3217 -0.1192
 8746SOL    HW237698   3.721   0.114   4.342  1.9400  1.0417 -0.4295
 8747SOL     OW37699   4.456   3.009  13.691  0.0660  0.3632 -0.0796
 8747SOL    HW137700   4.469   3.083  13.751 -0.6110 -0.7178  1.3780
 8747SOL    HW237701   4.361   3.012  13.691  0.0291 -1.0473  0.3784
 8748SOL     OW37702   4.154   0.629  11.899 -0.1770 -0.0455  0.3296
 8748SOL    HW137703   4.202   0.612  11.818  0.1819  1.5968  0.1948
 8748SOL    HW237704   4.069   0.638  11.857  0.1451  0.1887 -0.2780
 8749SOL     OW37705   2.862   0.369  13.182 -0.5271  1.1188 -0.1713
 8749SOL    HW137706   2.842   0.430  13.111 -2.4962  0.4118 -0.2280
 8749SOL    HW237707   2.893   0.292  13.135 -1.1405  0.5410  0.3583
 8750SOL     OW37708   2.242   4.197   9.838  0.0957 -0.1021  0.1963
 8750SOL    HW137709   2.202   4.269   9.790  1.1195  0.4899  0.2392
 8750SOL    HW237710   2.265   4.134   9.770  1.7724  1.2656 -0.5110
 8751SOL     OW37711   4.458   0.590   1.052  0.5581  0.0538  0.1443
 8751SOL    HW137712   4.485   0.670   1.006  1.8985  0.3069  1.3480
 8751SOL    HW237713   4.386   0.630   1.100 -0.8734 -0.8648 -1.2316
 8752SOL     OW37714   2.646   3.148   1.365 -0.0281  0.1603  0.1672
 8752SOL    HW137715   2.693   3.066   1.350  0.2529 -0.0065  2.0293
 8752SOL    HW237716   2.617   3.135   1.455 -2.7995  1.5336 -0.5332
 8753SOL     OW37717   0.014   1.548   7.230 -0.1125  0.3626  0.5617
 8753SOL    HW137718   0.030   1.522   7.320  1.3352  2.2298  0.8462
 8753SOL    HW237719   0.042   1.639   7.240  1.1938  0.1619 -1.1021
 8754SOL     OW37720   3.721   4.599   3.758  0.1692  0.2264  0.3207
 8754SOL    HW137721   3.629   4.614   3.740  0.0233 -0.5161  0.4690
 8754SOL    HW237722   3.744   4.508   3.742  0.7418  0.7439 -1.8124
 8755SOL     OW37723   2.548   3.194  17.115 -0.2541  0.2640  0.3561
 8755SOL    HW137724   2.465   3.222  17.153  0.8822  2.4183  1.2202
 8755SOL    HW237725   2.590   3.154  17.192  1.0970  1.9612  0.4834
 8756SOL     OW37726   0.537   0.161   9.045 -0.1703  0.4561 -0.5353
 8756SOL    HW137727   0.568   0.164   9.135 -0.1690  1.1132 -0.5561
 8756SOL    HW237728   0.512   0.249   9.017  1.0829  1.2111  0.6842
 8757SOL     OW37729   0.343   3.444   3.325  0.1942  0.3403 -0.2406
 8757SOL    HW137730   0.248   3.452   3.311 -0.0287  0.1252  1.1848
 8757SOL    HW237731   0.357   3.466   3.417 -3.1882  1.1044  0.1174
 8758SOL     OW37732   0.318   2.492  10.988 -0.3090 -0.3973 -0.0320
 8758SOL    HW137733   0.265   2.430  10.937 -1.4144  0.8163 -0.3800
 8758SOL    HW237734   0.273   2.488  11.073  1.8422  2.2105  1.2321
 8759SOL     OW37735   0.509   2.964   1.015  0.1640 -0.5576 -0.3024
 8759SOL    HW137736   0.545   2.984   0.928  1.8232 -0.9575  0.2856
 8759SOL    HW237737   0.446   2.895   0.995  1.0667 -1.6906  0.7453
 8760SOL     OW37738   0.290   2.169   9.686 -0.3532 -0.1402 -0.2597
 8760SOL    HW137739   0.278   2.099   9.623  0.6445 -1.3182  0.8522
 8760SOL    HW237740   0.280   2.121   9.768  0.4486  0.8367  0.4206
 8761SOL     OW37741   1.231   1.856   8.901  0.1403 -0.5524 -0.2371
 8761SOL    HW137742   1.176   1.779   8.902 -1.1538  0.3809 -0.0201
 8761SOL    HW237743   1.235   1.882   8.993 -1.0039 -2.3872  0.3266
 8762SOL     OW37744   1.766   0.118   5.554 -0.1104  0.4451 -0.1326
 8762SOL    HW137745   1.861   0.110   5.560 -0.4020 -1.8674  1.0235
 8762SOL    HW237746   1.764   0.213   5.542 -2.0184  0.4232  0.0317
 8763SOL     OW37747   1.000   4.251   0.030 -0.0993  0.0201  0.4754
 8763SOL    HW137748   1.006   4.343   0.056  0.0253 -0.0943  0.8587
 8763SOL    HW237749   0.966   4.262  17.638 -1.0757 -2.6565  0.5095
 8764SOL     OW37750   2.449   0.152   7.656 -0.4923 -0.1879 -0.0921
 8764SOL    HW137751   2.368   0.154   7.606 -0.3714 -0.9369 -0.3150
 8764SOL    HW237752   2.497   0.229   7.625 -0.8017  0.1386  0.2379
 8765SOL     OW37753   3.648   2.962   5.531 -0.3672  0.5951 -0.0117
 8765SOL    HW137754   3.709   2.981   5.460 -1.5665  2.1864 -0.6207
 8765SOL    HW237755   3.658   3.050   5.567  0.6765 -0.7480  2.9771
 8766SOL     OW37756   0.768   2.572   8.642  0.0979  0.6697  0.2565
 8766SOL    HW137757   0.790   2.516   8.717  0.5260  0.7937  0.2227
 8766SOL    HW237758   0.721   2.512   8.584  0.5989 -0.1900  0.7275
 8767SOL     OW37759   2.460   3.856   7.917  0.2424  0.4006 -0.2753
 8767SOL    HW137760   2.443   3.887   8.007  0.5351  0.4974 -0.2537
 8767SOL    HW237761   2.508   3.775   7.932  1.2166  0.9987 -0.2205
 8768SOL     OW37762   2.737   3.817   8.420 -0.3453 -0.3427  0.8252
 8768SOL    HW137763   2.758   3.899   8.375 -0.2504 -0.4786  0.6206
 8768SOL    HW237764   2.679   3.841   8.492  1.0893  1.9109  1.2339
 8769SOL     OW37765   3.914   1.916  16.100  0.2042  1.0228 -0.2564
 8769SOL    HW137766   4.008   1.933  16.092  1.0064 -1.6723  3.4276
 8769SOL    HW237767   3.886   1.883  16.014 -0.5650  2.9178 -0.7293
 8770SOL     OW37768   4.309   3.560  10.081 -0.1476  0.3964  0.1244
 8770SOL    HW137769   4.295   3.614  10.158 -1.0641 -0.0553  0.2742
 8770SOL    HW237770   4.405   3.565  10.086 -0.0843 -2.2095  1.8873
 8771SOL     OW37771   3.966   1.045  12.084  0.3046  0.5027 -0.2462
 8771SOL    HW137772   3.965   1.067  12.177 -0.5136 -2.2413  0.4145
 8771SOL    HW237773   4.031   0.975  12.087 -0.7489 -0.3952  1.4939
 8772SOL     OW37774   4.476   0.183   7.418 -0.4708 -0.1566  0.2040
 8772SOL    HW137775   4.552   0.203   7.364  0.2236  0.2562  1.3236
 8772SOL    HW237776   4.407   0.177   7.352  0.5679 -0.9435 -0.8086
 8773SOL     OW37777   2.863   3.447   4.488  0.5963 -0.3496 -0.0566
 8773SOL    HW137778   2.835   3.357   4.474 -1.6032  0.5192 -1.1736
 8773SOL    HW237779   2.947   3.442   4.442  0.1542  2.8779 -1.2530
 8774SOL     OW37780   2.997   1.366   4.494  0.1441  0.0512  0.3426
 8774SOL    HW137781   2.956   1.428   4.554  0.3243 -0.9759  1.5329
 8774SOL    HW237782   3.037   1.300   4.552 -0.7022 -0.8176 -0.0603
 8775SOL     OW37783   0.292   4.459  12.010 -0.3780  0.0573 -0.0280
 8775SOL    HW137784   0.382   4.494  12.012 -0.3933 -0.0106  1.9022
 8775SOL    HW237785   0.238   4.538  12.016  3.3762  2.6481  0.5240
 8776SOL     OW37786   0.974   3.513   4.753 -0.0254  0.3886 -0.0616
 8776SOL    HW137787   0.987   3.444   4.818  0.7196  0.8143  0.2420
 8776SOL    HW237788   1.036   3.489   4.684  1.2201 -1.1978  1.6150
 8777SOL     OW37789   1.944   3.584   6.460 -0.6754 -0.0828  0.0537
 8777SOL    HW137790   1.992   3.667   6.451 -0.4686 -0.4547 -2.4888
 8777SOL    HW237791   1.879   3.616   6.522 -0.3853 -3.0059  1.8421
 8778SOL     OW37792   1.472   4.525   0.889  1.2220 -0.2122 -0.3418
 8778SOL    HW137793   1.400   4.581   0.921  1.2788 -0.9110  0.9934
 8778SOL    HW237794   1.544   4.576   0.927  0.4605 -0.0260  0.8576
 8779SOL     OW37795   0.689   2.985   8.281  0.4726  0.8205 -0.7041
 8779SOL    HW137796   0.636   3.038   8.222 -0.2608  0.5941 -0.2346
 8779SOL    HW237797   0.770   2.977   8.230  0.0121 -1.4881 -1.1017
 8780SOL     OW37798   4.609   0.653   2.145 -0.1011 -0.6420  0.0144
 8780SOL    HW137799   4.684   0.643   2.204  2.2599  2.1319 -2.5301
 8780SOL    HW237800   4.611   0.743   2.112 -0.1817 -0.5739  0.1921
 8781SOL     OW37801   1.391   3.566   1.760 -0.0489 -0.1335  0.0905
 8781SOL    HW137802   1.324   3.588   1.695 -1.8484  0.6375  2.1854
 8781SOL    HW237803   1.357   3.487   1.802  1.5643 -1.3444 -0.8760
 8782SOL     OW37804   3.554   3.385  17.303  0.0376 -0.5283  0.8286
 8782SOL    HW137805   3.607   3.426  17.371 -1.6645  0.1597  1.7628
 8782SOL    HW237806   3.557   3.293  17.329  1.1603 -0.5729  0.5281
 8783SOL     OW37807   4.381   2.221  13.053 -0.3417  0.4000 -0.3808
 8783SOL    HW137808   4.363   2.130  13.078 -0.7269  0.6836  0.3644
 8783SOL    HW237809   4.474   2.212  13.033 -0.3755 -0.2400 -0.2542
 8784SOL     OW37810   0.460   2.871   7.707  0.9995  0.5134 -0.3830
 8784SOL    HW137811   0.478   2.962   7.731  0.1037  0.4074  0.7086
 8784SOL    HW237812   0.389   2.855   7.769  3.2934 -1.8459  1.6718
 8785SOL     OW37813   3.121   1.808  16.051  0.0190  0.1888 -0.7860
 8785SOL    HW137814   3.117   1.897  16.087  0.3340 -0.0857 -0.0834
 8785SOL    HW237815   3.030   1.788  16.029 -0.0599 -0.0269 -0.2572
 8786SOL     OW37816   0.592   0.858   8.739  0.0301 -0.4667  0.0929
 8786SOL    HW137817   0.559   0.943   8.710  0.4248 -0.7669 -1.2455
 8786SOL    HW237818   0.674   0.880   8.781  0.8628 -1.5488 -0.9785
 8787SOL     OW37819   1.247   0.300   5.116 -0.0972 -0.1135  0.6872
 8787SOL    HW137820   1.282   0.212   5.126 -1.3472 -0.7846 -0.8596
 8787SOL    HW237821   1.280   0.340   5.196 -1.3025  1.9214  0.1668
 8788SOL     OW37822   1.711   1.452  12.015  0.3145 -0.1454 -0.2424
 8788SOL    HW137823   1.735   1.448  11.922 -1.8498  1.1347 -0.8479
 8788SOL    HW237824   1.696   1.546  12.021  0.9209  0.0227 -1.3152
 8789SOL     OW37825   1.182   3.830   6.861  0.2353 -0.3116  0.0893
 8789SOL    HW137826   1.130   3.751   6.875 -0.3359 -0.1544 -1.1206
 8789SOL    HW237827   1.162   3.871   6.945  2.4043  2.5873 -0.7970
 8790SOL     OW37828   2.357   0.845   0.827 -0.0777 -0.4508  0.5602
 8790SOL    HW137829   2.375   0.939   0.830  2.4331 -0.8685 -1.5369
 8790SOL    HW237830   2.282   0.837   0.768  1.5897  0.5619 -1.6969
 8791SOL     OW37831   0.589   2.344   1.645 -0.3408 -0.3501 -0.1402
 8791SOL    HW137832   0.672   2.300   1.629 -0.2321  0.6213 -2.1740
 8791SOL    HW237833   0.526   2.300   1.588  0.5580 -1.2001 -0.4696
 8792SOL     OW37834   2.037   3.710   8.424  0.2384  0.6926  0.1388
 8792SOL    HW137835   2.037   3.802   8.396  1.0216  0.5253 -0.4268
 8792SOL    HW237836   2.130   3.688   8.415 -0.9075 -3.4393 -1.0945
 8793SOL     OW37837   1.349   3.622   5.423 -0.4093 -0.2723  0.1460
 8793SOL    HW137838   1.343   3.715   5.403 -2.1232 -0.1347  1.3101
 8793SOL    HW237839   1.396   3.584   5.349 -1.1093  1.0548 -0.9621
 8794SOL     OW37840   0.520   1.886   8.400  0.3301 -0.2283 -0.1265
 8794SOL    HW137841   0.580   1.946   8.355  0.7355 -1.1588 -0.8179
 8794SOL    HW237842   0.442   1.895   8.345  0.0650 -0.5338  0.1992
 8795SOL     OW37843   2.182   3.571   4.720  0.6329  0.4214 -0.6350
 8795SOL    HW137844   2.175   3.477   4.735  3.0476  0.8111  3.0977
 8795SOL    HW237845   2.254   3.589   4.781 -0.7576  3.5677  0.1140
 8796SOL     OW37846   0.186   1.890   5.689  0.5413 -0.1614  0.2890
 8796SOL    HW137847   0.246   1.818   5.707  1.1069  0.3385  0.3754
 8796SOL    HW237848   0.222   1.928   5.609  0.2089  0.1683  0.2919
 8797SOL     OW37849   3.793   1.092  15.779  0.1321  0.3662 -0.2217
 8797SOL    HW137850   3.744   1.113  15.700 -0.8841  1.6490  0.7384
 8797SOL    HW237851   3.877   1.070  15.739  0.6649 -0.1728  1.1909
 8798SOL     OW37852   0.909   3.675   3.283 -0.0287  0.7361  0.4510
 8798SOL    HW137853   0.978   3.732   3.248 -0.8656  2.3372  1.3888
 8798SOL    HW237854   0.871   3.732   3.350 -0.5802  1.0370 -0.1215
 8799SOL     OW37855   2.362   3.648   8.304  0.0038 -0.0094  0.4373
 8799SOL    HW137856   2.367   3.726   8.249 -0.9030  0.0786  0.4790
 8799SOL    HW237857   2.422   3.590   8.258  0.2495  0.1378  0.5672
 8800SOL     OW37858   3.752   0.400   1.581  0.0247 -0.3379  0.5061
 8800SOL    HW137859   3.794   0.468   1.633  1.1237 -0.8890  0.3422
 8800SOL    HW237860   3.820   0.332   1.579 -0.2935 -0.6674  1.0249
 8801SOL     OW37861   1.626   0.655   2.378  0.8748  0.3938  0.3150
 8801SOL    HW137862   1.646   0.723   2.441  1.0701 -0.3508  1.0598
 8801SOL    HW237863   1.710   0.623   2.345  1.1402  2.7265 -1.2269
 8802SOL     OW37864   1.197   1.482   7.163  0.0982  0.0954  0.4256
 8802SOL    HW137865   1.231   1.397   7.134 -2.4893 -0.1936 -1.8017
 8802SOL    HW237866   1.106   1.467   7.140  1.0528 -4.9672  0.1216
 8803SOL     OW37867   0.208   0.478   5.819  0.6376  0.2595  0.3744
 8803SOL    HW137868   0.113   0.476   5.831  0.8020 -1.6461  1.4739
 8803SOL    HW237869   0.237   0.506   5.905  0.9772  2.8599 -0.6062
 8804SOL     OW37870   2.988   0.067   2.191  0.5955 -0.5335  0.2173
 8804SOL    HW137871   2.909   0.022   2.221 -0.2264  1.1036  0.5409
 8804SOL    HW237872   3.049   0.047   2.262  1.0407 -0.9079 -0.2719
 8805SOL     OW37873   3.429   1.581   9.616  0.3514  0.0727  0.4985
 8805SOL    HW137874   3.501   1.640   9.638  1.1180 -0.4834 -0.5359
 8805SOL    HW237875   3.459   1.499   9.655  2.1710  0.7805  0.5986
 8806SOL     OW37876   3.110   1.279   3.565 -0.2420  0.0019  0.2730
 8806SOL    HW137877   3.143   1.265   3.477  1.5353 -0.6419  1.0396
 8806SOL    HW237878   3.184   1.304   3.620  1.1486  2.6104 -2.8525
 8807SOL     OW37879   2.071   3.845   6.439  0.1727  0.7296  0.1134
 8807SOL    HW137880   2.161   3.821   6.414 -0.0684 -1.0654  1.0160
 8807SOL    HW237881   2.043   3.892   6.360 -0.4014  2.4682  1.3491
 8808SOL     OW37882   2.510   1.559   9.559 -0.2617 -0.4890 -0.0881
 8808SOL    HW137883   2.551   1.543   9.644 -0.2007 -0.5529 -0.1295
 8808SOL    HW237884   2.549   1.642   9.533  0.4964 -1.0056 -0.6192
 8809SOL     OW37885   4.598   2.064   0.291  0.3417 -0.0245 -0.3586
 8809SOL    HW137886   4.678   2.097   0.332  0.0282 -0.3245  0.5030
 8809SOL    HW237887   4.634   2.018   0.215 -3.7071 -2.6626 -0.6762
 8810SOL     OW37888   0.357   2.346   0.405 -0.3218 -0.1054  0.1923
 8810SOL    HW137889   0.408   2.266   0.418 -0.8080 -0.3777  0.4152
 8810SOL    HW237890   0.394   2.392   0.330 -2.8460 -1.1223 -1.6776
 8811SOL     OW37891   3.718   2.210   3.655  0.2945 -0.2456  0.3046
 8811SOL    HW137892   3.737   2.251   3.739 -0.6694  3.9106 -1.5171
 8811SOL    HW237893   3.777   2.251   3.592 -2.3364  1.6332 -0.9339
 8812SOL     OW37894   1.581   1.438   4.656 -0.0415  0.1010 -0.5803
 8812SOL    HW137895   1.671   1.410   4.637 -0.0636 -0.0132 -0.5180
 8812SOL    HW237896   1.563   1.471   4.568  0.8105  0.8205 -0.4791
 8813SOL     OW37897   3.763   1.403   1.424  0.5056 -0.1883  0.5010
 8813SOL    HW137898   3.701   1.398   1.497 -1.0308  0.5698 -0.7582
 8813SOL    HW237899   3.794   1.493   1.430 -2.3491  0.9374 -1.4604
 8814SOL     OW37900   2.163   4.433   5.112  0.0674 -0.0366  0.1531
 8814SOL    HW137901   2.119   4.515   5.134 -1.2079 -0.8855  0.8302
 8814SOL    HW237902   2.214   4.404   5.188 -0.6513 -0.5142  0.4561
 8815SOL     OW37903   2.678   3.725   1.048 -0.9825  0.0955  0.1145
 8815SOL    HW137904   2.584   3.704   1.048 -0.7754 -0.7920  0.3660
 8815SOL    HW237905   2.714   3.640   1.022 -1.7976 -0.4497  0.7759
 8816SOL     OW37906   2.120   0.787  14.889  0.5072  0.1577  0.3401
 8816SOL    HW137907   2.049   0.725  14.873  1.5367 -0.9375  0.0018
 8816SOL    HW237908   2.195   0.761  14.836  0.0940  0.6988 -0.5090
 8817SOL     OW37909   0.041   4.674  17.627 -0.0234 -0.2726  0.4271
 8817SOL    HW137910   0.005   0.031  17.592  2.2766 -0.2275 -1.8509
 8817SOL    HW237911   0.070   4.710   0.014 -3.7228  0.8052  1.2148
 8818SOL     OW37912   4.648   4.121   6.382 -0.7626  0.3511 -0.1369
 8818SOL    HW137913   4.642   4.050   6.447  1.7995 -0.7965 -1.1356
 8818SOL    HW237914   4.591   4.189   6.418 -1.3710  0.0016 -0.4462
 8819SOL     OW37915   3.008   3.365  14.873  0.4772 -0.3538  0.1644
 8819SOL    HW137916   2.947   3.375  14.799 -0.9583 -2.9184  0.9929
 8819SOL    HW237917   3.091   3.365  14.827  0.8485 -2.1200  0.8514
 8820SOL     OW37918   2.355   4.558  10.130  0.8753 -0.0000 -0.0404
 8820SOL    HW137919   2.344   4.598  10.044  1.3020  1.3475  0.5265
 8820SOL    HW237920   2.285   4.592  10.186 -0.1837 -0.0875 -1.3078
 8821SOL     OW37921   0.217   2.273   5.739 -0.3899 -0.1334 -0.0126
 8821SOL    HW137922   0.291   2.238   5.690 -0.5995  1.6173 -1.5661
 8821SOL    HW237923   0.258   2.279   5.826  1.2146  0.1311 -0.7834
 8822SOL     OW37924   2.458   1.519   5.488  0.0557 -0.2972  0.3300
 8822SOL    HW137925   2.514   1.545   5.415 -2.0657 -0.1069 -1.2056
 8822SOL    HW237926   2.447   1.425   5.469 -0.7301  0.3994 -2.6661
 8823SOL     OW37927   1.935   0.301   6.853  0.6471 -0.8409 -0.0126
 8823SOL    HW137928   1.846   0.284   6.881  0.3988  0.3240 -0.0598
 8823SOL    HW237929   1.977   0.331   6.933 -0.1360  1.8936 -0.6101
 8824SOL     OW37930   4.260   1.616   8.575  0.2092 -0.4854 -0.5560
 8824SOL    HW137931   4.196   1.609   8.504  1.9538 -2.1046 -1.9924
 8824SOL    HW237932   4.249   1.544   8.636  1.1400 -1.6788 -1.8022
 8825SOL     OW37933   3.375   2.918   5.615 -0.1901 -0.6196  0.5011
 8825SOL    HW137934   3.331   2.887   5.536  1.6031 -0.3657 -0.5944
 8825SOL    HW237935   3.461   2.937   5.577 -0.8063  0.8444 -0.1756
 8826SOL     OW37936   3.162   3.907   0.616  0.0389 -0.0874 -0.1790
 8826SOL    HW137937   3.228   3.903   0.686  0.6320  0.0369 -0.7367
 8826SOL    HW237938   3.178   3.992   0.576 -2.4173 -0.0625 -1.0949
 8827SOL     OW37939   2.703   0.038   4.767  0.0668  0.2591  0.4097
 8827SOL    HW137940   2.684   4.680   4.814 -1.5674 -0.8022 -2.1492
 8827SOL    HW237941   2.784   0.013   4.723 -0.3166 -0.7447  0.2696
 8828SOL     OW37942   3.356   2.919   3.795  0.1994  0.5765  0.4272
 8828SOL    HW137943   3.399   2.998   3.763  0.5590  1.1897  2.3864
 8828SOL    HW237944   3.331   2.871   3.716  1.9919  0.5443 -0.1205
 8829SOL     OW37945   1.717   0.028   4.818 -0.7459 -0.1597 -0.4954
 8829SOL    HW137946   1.646   0.044   4.756 -0.9405 -0.8529 -0.4558
 8829SOL    HW237947   1.799   0.027   4.768  0.0162 -1.2699  0.7632
 8830SOL     OW37948   1.300   4.566  14.787 -0.3856 -0.4744  0.7247
 8830SOL    HW137949   1.215   4.565  14.743 -0.2753 -0.5578  0.5108
 8830SOL    HW237950   1.300   4.659  14.812  0.9946 -0.1539 -0.4665
 8831SOL     OW37951   3.014   0.771   9.461 -0.9146  0.6989 -0.1049
 8831SOL    HW137952   3.065   0.804   9.535  0.7888  1.3453 -1.5889
 8831SOL    HW237953   3.081   0.771   9.393  0.5162  0.2416  1.3163
 8832SOL     OW37954   4.477   1.387   4.792  0.3044  0.2831 -0.5992
 8832SOL    HW137955   4.441   1.321   4.853  0.3447 -0.3012 -1.2111
 8832SOL    HW237956   4.444   1.470   4.827  4.0302  0.8549  1.4894
 8833SOL     OW37957   4.576   4.669   7.664  0.0522  0.7206 -0.0293
 8833SOL    HW137958   4.550   0.036   7.648 -2.3913  0.1341  0.6040
 8833SOL    HW237959   4.648   4.649   7.604 -0.9508  0.8850 -1.2891
 8834SOL     OW37960   1.260   3.223   0.843  0.4799 -0.0054 -0.1802
 8834SOL    HW137961   1.336   3.200   0.789 -0.7062  1.8785 -2.6756
 8834SOL    HW237962   1.238   3.304   0.797  0.2237 -1.3544 -2.4391
 8835SOL     OW37963   4.223   3.777  10.882  0.2203  0.0211 -0.7123
 8835SOL    HW137964   4.311   3.754  10.911 -0.6869 -2.1589  0.3293
 8835SOL    HW237965   4.187   3.772  10.970  0.9572  0.6939 -0.3761
 8836SOL     OW37966   1.871   3.645   2.964 -0.4320  0.1726 -0.1556
 8836SOL    HW137967   1.809   3.600   3.023  0.0447 -2.1858 -1.4481
 8836SOL    HW237968   1.823   3.726   2.950  2.4522  2.1380  1.2922
 8837SOL     OW37969   3.048   3.896   2.561 -0.3691  0.0677 -0.2278
 8837SOL    HW137970   3.036   3.856   2.647 -1.0503 -2.0490 -1.3181
 8837SOL    HW237971   3.082   3.981   2.590 -0.6873  0.5431 -1.2521
 8838SOL     OW37972   3.494   0.230   3.446 -0.0142  0.0731 -0.4260
 8838SOL    HW137973   3.422   0.214   3.385 -0.2546  1.9660 -0.6296
 8838SOL    HW237974   3.475   0.320   3.470  2.8770  1.1708 -2.2178
 8839SOL     OW37975   4.134   0.888   3.747 -0.5293 -0.2407 -0.1441
 8839SOL    HW137976   4.165   0.844   3.668 -2.3413  1.3150 -1.7028
 8839SOL    HW237977   4.206   0.949   3.767 -0.2205 -1.3594  2.1637
 8840SOL     OW37978   1.295   1.795   7.460 -0.8742  0.2312  0.3060
 8840SOL    HW137979   1.327   1.705   7.447 -0.2351  0.3748  0.9027
 8840SOL    HW237980   1.379   1.836   7.481 -0.8362  0.1672  0.2806
 8841SOL     OW37981   1.056   3.300   7.367 -0.2800 -0.3240  0.7009
 8841SOL    HW137982   1.125   3.283   7.303  0.4736  0.4280  1.3065
 8841SOL    HW237983   1.101   3.365   7.422 -0.2663  0.2195  0.0483
 8842SOL     OW37984   1.162   2.603   7.386 -0.1636 -0.0944 -0.0266
 8842SOL    HW137985   1.128   2.635   7.302  0.0792 -1.2681 -0.5708
 8842SOL    HW237986   1.213   2.677   7.420 -1.2256  1.4010 -1.6965
 8843SOL     OW37987   1.375   2.551   6.547  0.2205  0.1216  0.3305
 8843SOL    HW137988   1.436   2.482   6.570 -2.1670 -0.9620  3.4242
 8843SOL    HW237989   1.418   2.629   6.582 -0.4295 -0.4716  2.4579
 8844SOL     OW37990   3.969   1.467  13.398 -0.0860 -0.2198 -0.3233
 8844SOL    HW137991   3.999   1.423  13.318  2.4665  0.7110  0.0958
 8844SOL    HW237992   4.037   1.523  13.435 -1.0831  0.7952 -0.0501
 8845SOL     OW37993   2.140   1.479  11.962  1.0409 -0.5860 -0.2236
 8845SOL    HW137994   2.199   1.546  11.997  0.5801 -0.5801  0.5273
 8845SOL    HW237995   2.113   1.525  11.882  0.2171 -1.8287 -0.6698
 8846SOL     OW37996   2.972   4.279   2.757  0.0512 -0.1657  0.0038
 8846SOL    HW137997   3.015   4.308   2.677  0.4785 -1.3391 -0.2018
 8846SOL    HW237998   2.905   4.221   2.722 -0.1927 -0.6150  1.2208
 8847SOL     OW37999   1.712   2.413   9.047  0.2013 -0.0133 -0.5822
 8847SOL    HW138000   1.750   2.411   9.134 -0.1926  0.3085 -0.4007
 8847SOL    HW238001   1.752   2.496   9.021 -1.3555  1.1346  0.6830
 8848SOL     OW38002   4.635   3.024   6.724 -0.7776  0.2283 -0.1546
 8848SOL    HW138003   4.575   3.071   6.782 -0.7942  1.5397 -1.2501
 8848SOL    HW238004   4.566   2.982   6.672  1.1729 -1.9933 -0.9251
 8849SOL     OW38005   2.750   4.158   6.143 -0.1052 -0.1300 -0.6462
 8849SOL    HW138006   2.804   4.128   6.215 -2.6871 -1.4268  0.7543
 8849SOL    HW238007   2.665   4.143   6.185 -0.3666  0.2129 -1.0447
 8850SOL     OW38008   3.532   1.402  17.050  0.5602  0.4119  0.1945
 8850SOL    HW138009   3.452   1.383  17.000  0.7297 -0.0088  0.0862
 8850SOL    HW238010   3.502   1.414  17.140  0.8602  3.7341 -0.1815
 8851SOL     OW38011   0.024   4.061  16.269 -0.3386  0.1531 -0.1323
 8851SOL    HW138012   4.713   4.081  16.183  1.0054  2.3860 -0.1496
 8851SOL    HW238013   4.705   3.981  16.301 -0.2462 -0.1027 -0.6363
 8852SOL     OW38014   3.639   0.846   3.144  0.0720  0.0443  0.1354
 8852SOL    HW138015   3.666   0.844   3.235 -0.3276  0.5582  0.2672
 8852SOL    HW238016   3.554   0.804   3.158 -0.0591 -0.5000 -2.2899
 8853SOL     OW38017   2.609   1.782  17.612  0.2767 -0.8029 -0.1387
 8853SOL    HW138018   2.673   1.765  17.543 -0.1310  0.5491 -0.8591
 8853SOL    HW238019   2.627   1.875  17.625  1.6193 -1.2428  1.1536
 8854SOL     OW38020   0.185   1.992   5.944  0.3059 -0.4780  0.1125
 8854SOL    HW138021   0.205   1.943   5.865  0.1478  1.2257 -0.9878
 8854SOL    HW238022   0.095   2.017   5.922  0.8546  0.0529 -1.5334
 8855SOL     OW38023   1.960   2.501   7.276  0.1002 -0.0975 -0.1339
 8855SOL    HW138024   2.049   2.512   7.309  0.8603  0.3523 -2.3037
 8855SOL    HW238025   1.922   2.429   7.326  0.8259  0.5043  1.2920
 8856SOL     OW38026   0.095   0.199   8.782 -0.2710 -0.5888 -0.1429
 8856SOL    HW138027   0.115   0.279   8.733  1.5623 -1.4117 -0.7375
 8856SOL    HW238028   0.137   0.216   8.866  1.3650 -0.0522 -1.0667
 8857SOL     OW38029   1.834   2.588   6.513  0.2115 -0.7728  0.3430
 8857SOL    HW138030   1.875   2.574   6.598 -1.1133 -0.2185  1.0833
 8857SOL    HW238031   1.903   2.553   6.458  0.2303 -0.3281  0.0824
 8858SOL     OW38032   0.059   1.827   3.701 -0.0425  0.6623  0.3731
 8858SOL    HW138033   4.720   1.775   3.750 -2.6699  2.7771 -0.7136
 8858SOL    HW238034   0.004   1.859   3.629  2.1759 -0.4162 -1.8285
 8859SOL     OW38035   3.184   2.973   6.566  0.6286 -0.4867  0.3413
 8859SOL    HW138036   3.246   2.982   6.493 -0.8702  0.6048 -0.8152
 8859SOL    HW238037   3.181   2.878   6.575  0.4994 -0.3343  1.8534
 8860SOL     OW38038   1.508   3.631   2.669  0.7408  0.1045  0.2059
 8860SOL    HW138039   1.578   3.647   2.605  0.0839 -1.1154 -0.8216
 8860SOL    HW238040   1.531   3.696   2.735  0.4368 -1.1891  1.5790
 8861SOL     OW38041   0.922   0.541  15.138 -0.1043 -0.2682 -0.1424
 8861SOL    HW138042   0.882   0.621  15.103 -2.4512 -1.1895  0.4457
 8861SOL    HW238043   1.015   0.556  15.119 -0.2091 -0.8120 -1.0908
 8862SOL     OW38044   2.916   4.063   6.361  0.2852  0.0375 -0.2122
 8862SOL    HW138045   2.996   4.115   6.362 -1.0269  2.0779  2.3610
 8862SOL    HW238046   2.893   4.047   6.453  2.0166  1.1473  0.4133
 8863SOL     OW38047   2.585   2.058   3.886 -0.4662 -0.7727  0.4491
 8863SOL    HW138048   2.672   2.019   3.878  0.5926  2.0188 -1.6720
 8863SOL    HW238049   2.535   1.990   3.840  0.1883 -0.7071 -0.3555
 8864SOL     OW38050   1.542   4.444   8.620  0.9034  0.4703  0.5771
 8864SOL    HW138051   1.535   4.501   8.696 -1.6988  2.5098 -1.1960
 8864SOL    HW238052   1.482   4.487   8.559 -0.3200 -1.8310  0.1848
 8865SOL     OW38053   1.270   0.138   4.198  0.2207  0.0737 -0.1665
 8865SOL    HW138054   1.350   0.187   4.177  0.3694  0.7049  1.7945
 8865SOL    HW238055   1.245   0.177   4.282 -0.4372  4.0371 -2.2020
 8866SOL     OW38056   3.106   4.051   9.615 -0.6612  0.0867 -0.2751
 8866SOL    HW138057   3.050   4.086   9.545 -0.0048  1.7407  0.0272
 8866SOL    HW238058   3.040   3.991   9.648 -0.2644 -0.5030 -0.5438
 8867SOL     OW38059   4.537   2.038   8.652  0.4302  0.2114 -0.4956
 8867SOL    HW138060   4.496   2.090   8.721  1.2134  0.1317  0.0174
 8867SOL    HW238061   4.464   1.978   8.633  1.0670 -0.7677  0.1816
 8868SOL     OW38062   1.412   1.353   7.903 -0.0680 -0.1471  0.6210
 8868SOL    HW138063   1.346   1.365   7.835 -2.0562 -1.5040  2.3039
 8868SOL    HW238064   1.430   1.259   7.907 -2.2157 -0.5946 -0.5887
 8869SOL     OW38065   1.345   3.434  16.314 -0.3870 -0.2613 -0.2424
 8869SOL    HW138066   1.322   3.424  16.222  2.9997 -2.4163 -0.8487
 8869SOL    HW238067   1.264   3.466  16.352 -1.4613 -2.1612 -0.9292
 8870SOL     OW38068   1.052   2.863   0.098  0.6066  0.3461  0.4020
 8870SOL    HW138069   1.096   2.945   0.078 -0.2717  0.6887 -0.1273
 8870SOL    HW238070   0.977   2.871   0.038  0.9425 -3.3156 -0.5085
 8871SOL     OW38071   4.551   3.975   4.367 -0.1991 -0.1654 -0.1738
 8871SOL    HW138072   4.462   4.008   4.357 -0.2482  0.3241  1.8841
 8871SOL    HW238073   4.556   3.903   4.304 -0.7053 -2.7478  2.7230
 8872SOL     OW38074   3.863   4.398   8.709  0.4172  0.5544  0.5061
 8872SOL    HW138075   3.875   4.406   8.803  0.6666 -0.3787  0.5566
 8872SOL    HW238076   3.938   4.343   8.685 -1.4875 -2.7494  2.0895
 8873SOL     OW38077   0.429   2.067   8.959 -0.1227 -0.3006 -0.2236
 8873SOL    HW138078   0.405   1.994   8.901 -1.5241 -1.1325  1.3762
 8873SOL    HW238079   0.522   2.052   8.974 -0.3672 -0.7052  0.9483
 8874SOL     OW38080   3.516   4.420   1.198  0.3172 -0.1426  0.0310
 8874SOL    HW138081   3.580   4.426   1.270  1.2878 -1.9801 -0.6913
 8874SOL    HW238082   3.552   4.491   1.146  0.6837  0.8607  1.6395
 8875SOL     OW38083   4.637   0.436  15.364  0.2257  0.4506  0.1958
 8875SOL    HW138084   0.008   0.427  15.354  0.2185  1.3457 -0.7633
 8875SOL    HW238085   4.616   0.502  15.298  1.0060  0.6951  0.1952
 8876SOL     OW38086   1.179   2.674   7.033 -0.0652  0.0894 -0.1355
 8876SOL    HW138087   1.120   2.613   7.077 -0.2433  2.1068  2.4093
 8876SOL    HW238088   1.122   2.751   7.043  0.5275  0.5113  0.0245
 8877SOL     OW38089   3.447   0.468   6.453  0.4981  0.4218 -0.6699
 8877SOL    HW138090   3.446   0.557   6.487  1.4202  1.1513 -2.5851
 8877SOL    HW238091   3.473   0.469   6.361 -0.6629  1.2718 -0.9863
 8878SOL     OW38092   1.694   2.731   8.376  0.3948  0.3353 -0.0856
 8878SOL    HW138093   1.630   2.771   8.434 -0.1969  0.4901 -0.8429
 8878SOL    HW238094   1.777   2.772   8.399  1.5517 -1.4668 -1.0229
 8879SOL     OW38095   0.947   4.392  15.462  0.4594 -0.0450  0.3365
 8879SOL    HW138096   0.987   4.309  15.486 -1.0600 -1.1188 -0.8783
 8879SOL    HW238097   0.957   4.396  15.367 -3.4120 -0.2129 -0.0840
 8880SOL     OW38098   1.800   0.024   3.964  0.1535  0.2415  0.1598
 8880SOL    HW138099   1.879   0.078   3.957 -1.7152  3.0895  1.1734
 8880SOL    HW238100   1.744   0.073   3.903 -1.4367  1.2863  2.4575
 8881SOL     OW38101   4.549   3.419   4.452 -0.0597  0.3650  0.0159
 8881SOL    HW138102   4.463   3.414   4.410  0.0899 -0.4929 -0.1883
 8881SOL    HW238103   4.542   3.390   4.543 -4.7198 -1.1224 -0.8087
 8882SOL     OW38104   0.997   3.358   4.949  0.3174  0.1903 -0.0290
 8882SOL    HW138105   0.965   3.280   4.904 -0.1970 -0.3004  1.1897
 8882SOL    HW238106   1.083   3.328   4.977  0.8253  0.2346 -1.5560
 8883SOL     OW38107   0.716   0.969   3.224  0.3088  0.0194 -0.5633
 8883SOL    HW138108   0.647   0.916   3.185  0.8125 -1.1362  0.1037
 8883SOL    HW238109   0.725   0.904   3.294 -0.1947  2.4652  1.8112
 8884SOL     OW38110   3.186   2.759   6.210 -0.2799 -0.3953 -0.3621
 8884SOL    HW138111   3.145   2.782   6.126  0.9023  0.3851 -0.7213
 8884SOL    HW238112   3.102   2.739   6.252  0.2207 -1.5356  0.0953
 8885SOL     OW38113   2.576   1.853   3.291  0.4603  0.3739 -0.3851
 8885SOL    HW138114   2.614   1.859   3.203  0.1513 -2.2068 -0.6839
 8885SOL    HW238115   2.493   1.806   3.283 -0.2846  1.5719  0.3528
 8886SOL     OW38116   2.795   4.105   2.651 -0.8604  0.2198 -0.0800
 8886SOL    HW138117   2.769   4.021   2.688 -0.2862 -0.5481 -1.4187
 8886SOL    HW238118   2.797   4.082   2.558  2.0908 -1.6040  0.4542
 8887SOL     OW38119   0.257   1.236   8.358 -0.3744  0.0255 -0.2746
 8887SOL    HW138120   0.285   1.265   8.271  0.3798  0.2814  0.0594
 8887SOL    HW238121   0.262   1.314   8.413 -0.4153 -1.3251  1.6343
 8888SOL     OW38122   2.473   3.501   8.075 -0.2459 -0.1096 -0.3360
 8888SOL    HW138123   2.544   3.524   8.014  0.9380 -2.3650  0.1779
 8888SOL    HW238124   2.466   3.407   8.057 -2.2267  0.2859 -1.6564
 8889SOL     OW38125   0.711   1.939   4.316 -0.2311  0.0505 -0.3003
 8889SOL    HW138126   0.785   1.954   4.258 -0.1927 -0.6854 -0.4387
 8889SOL    HW238127   0.751   1.971   4.397  1.8695  0.1999 -1.4218
 8890SOL     OW38128   1.685   2.872   9.102  0.0794  0.1577 -0.4828
 8890SOL    HW138129   1.599   2.851   9.138 -0.2481  0.9212 -0.8145
 8890SOL    HW238130   1.661   2.951   9.053 -1.9261  0.6835  1.3488
 8891SOL     OW38131   1.247   0.888   1.992  0.1434 -0.3150  0.5929
 8891SOL    HW138132   1.178   0.940   2.035 -0.7630  0.0254 -1.2662
 8891SOL    HW238133   1.319   0.922   2.045  0.4253 -0.0755  0.0578
 8892SOL     OW38134   2.388   0.125   5.289 -0.0312  0.3485 -0.9684
 8892SOL    HW138135   2.477   0.104   5.316 -0.7440 -2.0152 -0.4608
 8892SOL    HW238136   2.386   0.093   5.199  1.4267  1.1072 -1.2590
 8893SOL     OW38137   1.520   3.070   2.501 -0.5415  0.6962 -0.3547
 8893SOL    HW138138   1.503   3.033   2.415 -0.5931  2.6453 -1.1700
 8893SOL    HW238139   1.615   3.070   2.494 -0.4706 -1.8163  0.4335
 8894SOL     OW38140   3.020   3.237   6.360  0.2646  0.6704  0.0338
 8894SOL    HW138141   3.062   3.210   6.278  1.5488  1.5318  0.4169
 8894SOL    HW238142   2.928   3.246   6.338 -0.3822 -0.1567  2.3583
 8895SOL     OW38143   2.381   2.659   0.531 -0.0334 -0.3492 -0.7280
 8895SOL    HW138144   2.401   2.633   0.621  2.5139  0.8318 -0.9388
 8895SOL    HW238145   2.414   2.748   0.545 -0.6584  0.2371 -2.9193
 8896SOL     OW38146   1.322   1.352   5.035  0.6164  0.7795  0.0259
 8896SOL    HW138147   1.376   1.309   5.101 -1.7655  2.6169  3.1229
 8896SOL    HW238148   1.379   1.331   4.960  1.8907  0.3416  1.1184
 8897SOL     OW38149   4.125   2.133   6.662 -0.0903 -0.3735  0.0191
 8897SOL    HW138150   4.122   2.069   6.733 -0.7737 -0.5928 -0.2077
 8897SOL    HW238151   4.216   2.155   6.646 -0.3464  1.4058  0.9946
 8898SOL     OW38152   0.987   2.989  11.369 -0.2378  0.5331  0.4488
 8898SOL    HW138153   0.989   3.014  11.277 -1.0892  0.6932  0.4751
 8898SOL    HW238154   0.928   2.913  11.373  2.2215 -1.4312 -0.5880
 8899SOL     OW38155   4.219   4.373  11.461 -0.8530 -0.1871 -0.4096
 8899SOL    HW138156   4.154   4.421  11.511  0.4527 -1.1748  2.2442
 8899SOL    HW238157   4.204   4.395  11.369 -0.1174 -0.3838 -0.5777
 8900SOL     OW38158   2.958   3.065   8.271 -0.4164  0.2651  0.2373
 8900SOL    HW138159   2.873   3.049   8.311 -1.8884  1.3471 -2.4470
 8900SOL    HW238160   2.982   3.156   8.283  2.6676 -0.4427 -0.4873
 8901SOL     OW38161   2.148   0.822   3.202  0.2903 -0.3589 -0.3059
 8901SOL    HW138162   2.154   0.794   3.294  2.4505  0.8056 -0.0911
 8901SOL    HW238163   2.150   0.735   3.162  0.6109 -0.0882 -0.8712
 8902SOL     OW38164   2.519   1.840   3.724 -0.1628 -0.6593  0.3305
 8902SOL    HW138165   2.524   1.907   3.656  0.8598 -1.2365 -0.1605
 8902SOL    HW238166   2.442   1.790   3.697 -0.4051 -1.7758  3.1308
 8903SOL     OW38167   1.882   0.705  11.618  0.0197  0.0016  0.2570
 8903SOL    HW138168   1.864   0.620  11.577  0.7528 -1.1569  2.3321
 8903SOL    HW238169   1.972   0.714  11.587 -0.3612  1.3318 -0.4221
 8904SOL     OW38170   4.460   4.597   0.791  0.5420 -0.5310 -0.2012
 8904SOL    HW138171   4.550   4.600   0.759  0.1169 -3.1486 -1.7145
 8904SOL    HW238172   4.425   4.686   0.794 -0.7975 -1.0400 -0.8146
 8905SOL     OW38173   2.742   0.376  17.582  0.5949 -0.1018 -0.3065
 8905SOL    HW138174   2.654   0.338  17.587  1.4619 -1.9662  0.7472
 8905SOL    HW238175   2.751   0.422  17.665  1.8018 -0.0327 -0.4834
 8906SOL     OW38176   4.142   2.815   4.935 -0.0383 -0.9779 -0.4134
 8906SOL    HW138177   4.158   2.790   5.026 -0.4014 -1.3503 -0.4507
 8906SOL    HW238178   4.124   2.730   4.893  0.2239 -0.8690 -0.7480
 8907SOL     OW38179   2.959   0.587  12.780  0.6170  0.0199  0.3069
 8907SOL    HW138180   3.019   0.661  12.775  2.8273 -1.8485 -0.6777
 8907SOL    HW238181   2.996   0.537  12.708  0.9779 -2.3911  2.1772
 8908SOL     OW38182   0.390   4.169  12.136  0.1024  0.0811 -0.2232
 8908SOL    HW138183   0.369   4.129  12.221 -0.0595  2.7667  1.0107
 8908SOL    HW238184   0.486   4.162  12.142  0.1481  1.2025  0.4733
 8909SOL     OW38185   0.845   2.606  15.023 -0.9194  0.0576 -0.3322
 8909SOL    HW138186   0.849   2.591  14.929  0.0046  1.7938 -0.5711
 8909SOL    HW238187   0.924   2.659  15.034 -0.4909 -0.5619 -0.4246
 8910SOL     OW38188   1.597   1.554  11.653 -0.0539  0.7357 -0.5932
 8910SOL    HW138189   1.647   1.619  11.605  1.2074  0.7153  0.6960
 8910SOL    HW238190   1.669   1.493  11.667  1.7513  2.8826 -0.5984
 8911SOL     OW38191   1.904   2.412  11.728  0.6983  0.1464 -0.6284
 8911SOL    HW138192   1.845   2.384  11.797  0.0732 -1.2821 -1.7446
 8911SOL    HW238193   1.923   2.323  11.698 -1.1538 -0.0797 -1.0998
 8912SOL     OW38194   1.532   2.733  12.393 -0.1639 -0.0028 -0.2612
 8912SOL    HW138195   1.584   2.812  12.405  1.1719 -0.9555  0.2020
 8912SOL    HW238196   1.513   2.749  12.300  0.0008 -2.3048 -0.6862
 8913SOL     OW38197   1.349   3.212   5.792  0.3225  0.2588  0.0042
 8913SOL    HW138198   1.275   3.205   5.853  1.2091  0.6958  1.1388
 8913SOL    HW238199   1.411   3.157   5.839 -0.7146 -1.0629 -0.1682
 8914SOL     OW38200   1.715   1.538   6.197  0.1243  0.3106  0.1105
 8914SOL    HW138201   1.715   1.508   6.288 -0.5914  1.0906  0.3655
 8914SOL    HW238202   1.684   1.468   6.139  0.2529 -0.8835  1.4848
 8915SOL     OW38203   1.068   1.484   4.998 -0.5395  0.1713  0.4607
 8915SOL    HW138204   0.992   1.455   5.048 -0.0146 -0.1907  1.0592
 8915SOL    HW238205   1.138   1.424   5.027 -0.4337  0.0773  0.0108
 8916SOL     OW38206   4.345   2.603   6.736  0.1483 -0.6920  0.0715
 8916SOL    HW138207   4.422   2.619   6.680 -1.5216  0.9550 -1.7412
 8916SOL    HW238208   4.295   2.528   6.705 -0.1557 -0.9367  1.1765
 8917SOL     OW38209   2.081   3.988   3.994  0.2909  0.0366 -0.1866
 8917SOL    HW138210   2.110   3.935   3.920 -0.7136  0.3677 -0.8205
 8917SOL    HW238211   1.996   4.024   3.967 -0.8188 -1.3712  1.3440
 8918SOL     OW38212   0.919   3.015   5.898 -0.2186 -0.0605 -0.0577
 8918SOL    HW138213   1.004   2.989   5.934  0.5068  2.1991 -0.1538
 8918SOL    HW238214   0.855   2.951   5.930 -0.7587  1.0777  1.1383
 8919SOL     OW38215   4.694   2.593   9.470  0.4843 -0.3015  0.1576
 8919SOL    HW138216   0.054   2.639   9.480  0.1463  0.3411  0.0447
 8919SOL    HW238217   4.713   2.516   9.523 -0.5832 -0.5699  0.1565
 8920SOL     OW38218   0.438   1.404   6.617  0.1297  0.0787  0.0949
 8920SOL    HW138219   0.505   1.361   6.669  0.0672 -0.9635 -0.6967
 8920SOL    HW238220   0.490   1.457   6.557 -1.2364  0.9071 -0.3739
 8921SOL     OW38221   0.941   2.878   4.635  0.4467 -0.4046  0.1252
 8921SOL    HW138222   1.027   2.854   4.668 -0.0684  1.8646  3.0878
 8921SOL    HW238223   0.949   2.871   4.539  0.0815  1.0722 -0.0051
 8922SOL     OW38224   2.189   3.839   3.787  0.1298 -0.4999  0.2210
 8922SOL    HW138225   2.260   3.822   3.849  0.3644 -1.5839 -0.3498
 8922SOL    HW238226   2.239   3.814   3.709 -0.1128  2.8516 -1.0240
 8923SOL     OW38227   3.428   3.515   2.151  0.0059  0.0408  0.4214
 8923SOL    HW138228   3.414   3.608   2.172  1.5822 -0.2129  2.6178
 8923SOL    HW238229   3.466   3.521   2.063 -1.1798  3.4339  0.1451
 8924SOL     OW38230   2.546   3.909   3.922 -0.2419  0.2792  0.3392
 8924SOL    HW138231   2.477   3.861   3.968 -0.8415 -1.0840 -2.0163
 8924SOL    HW238232   2.532   3.878   3.833  0.0888 -0.9282  0.7092
 8925SOL     OW38233   2.456   0.596   6.325 -0.3127  0.1595 -0.0874
 8925SOL    HW138234   2.491   0.575   6.238  1.6923  0.8454  0.5563
 8925SOL    HW238235   2.363   0.575   6.310 -0.7717  3.0740 -1.3040
 8926SOL     OW38236   3.030   2.584  16.767  0.0060 -0.3020  0.0103
 8926SOL    HW138237   3.100   2.535  16.811  1.5342  1.1397 -0.8213
 8926SOL    HW238238   3.042   2.668  16.810 -2.1477  0.1299 -0.2402
 8927SOL     OW38239   2.350   1.863  12.515 -0.0170  0.2055  0.1921
 8927SOL    HW138240   2.332   1.769  12.517 -1.3062  0.4746  1.3306
 8927SOL    HW238241   2.394   1.884  12.433  2.0979  0.1692  1.3003
 8928SOL     OW38242   2.757   4.098   7.527  0.5063  0.0010  0.2639
 8928SOL    HW138243   2.686   4.111   7.590 -1.2438  2.2697 -2.1478
 8928SOL    HW238244   2.820   4.058   7.587  0.5819  0.6278  0.6011
 8929SOL     OW38245   0.128   3.046   6.280 -0.4172 -0.3229 -0.8339
 8929SOL    HW138246   0.198   3.103   6.249 -1.1066  1.2797  0.5893
 8929SOL    HW238247   0.142   3.024   6.372  2.1942  2.5553 -0.5742
 8930SOL     OW38248   2.209   4.582  13.160  0.4127  0.0359  0.0266
 8930SOL    HW138249   2.138   4.582  13.224  0.8384  0.2446  0.5050
 8930SOL    HW238250   2.167   4.543  13.084  1.1132  2.1665 -1.4469
 8931SOL     OW38251   4.438   3.528   1.221 -0.0953  0.3893 -0.3764
 8931SOL    HW138252   4.490   3.607   1.201  0.2894  0.4276  0.7915
 8931SOL    HW238253   4.448   3.543   1.315  1.1215  1.7047 -0.7162
 8932SOL     OW38254   0.986   4.265   1.570  0.1739 -0.0554  0.2134
 8932SOL    HW138255   1.008   4.253   1.477 -2.2374  1.0297 -0.5047
 8932SOL    HW238256   1.073   4.244   1.602  0.2278  0.0437  0.1338
 8933SOL     OW38257   4.490   4.041   7.968  0.4917  0.6128 -0.0253
 8933SOL    HW138258   4.476   4.135   7.969 -0.8134  0.4133 -0.1900
 8933SOL    HW238259   4.574   4.029   7.924 -1.3846 -1.0983 -3.1795
 8934SOL     OW38260   3.497   2.994   4.049 -0.3851 -0.2650  0.3504
 8934SOL    HW138261   3.582   2.977   4.010  0.9913  0.4889  3.0493
 8934SOL    HW238262   3.448   2.970   3.970 -0.5577  3.9300 -0.8291
 8935SOL     OW38263   4.145   3.758  15.451  0.0880 -0.1018 -0.2259
 8935SOL    HW138264   4.116   3.830  15.394 -3.4582 -0.7134  0.7945
 8935SOL    HW238265   4.206   3.809  15.503  0.4310  1.7022 -2.3789
 8936SOL     OW38266   2.489   1.669  16.532 -0.1557 -0.4000  0.4109
 8936SOL    HW138267   2.413   1.725  16.547 -0.7288 -1.1150  0.1481
 8936SOL    HW238268   2.502   1.667  16.438 -0.4952 -1.4320  0.3938
 8937SOL     OW38269   3.597   2.536  13.716  0.0304 -0.2659 -0.0083
 8937SOL    HW138270   3.552   2.466  13.763 -0.4748  0.1435  0.1237
 8937SOL    HW238271   3.518   2.573  13.678  0.1784 -0.3464 -0.3891
 8938SOL     OW38272   3.607   1.813   9.447 -0.6289 -0.2853  0.6579
 8938SOL    HW138273   3.627   1.784   9.536 -1.4806 -2.2490  0.2006
 8938SOL    HW238274   3.556   1.890   9.472  0.4216  0.8679 -0.7734
 8939SOL     OW38275   2.855   2.556   7.019 -0.1156  0.1314  0.1419
 8939SOL    HW138276   2.817   2.519   7.099 -2.1301  1.1838 -0.3348
 8939SOL    HW238277   2.811   2.504   6.951 -0.1540 -0.7578  0.8460
 8940SOL     OW38278   1.390   1.775   5.790 -0.0293  0.7693 -0.2862
 8940SOL    HW138279   1.413   1.760   5.699  2.6097  0.3365  0.4525
 8940SOL    HW238280   1.347   1.860   5.780 -2.3877 -0.3029  0.6212
 8941SOL     OW38281   1.939   1.048   3.587  0.4654 -0.4183  0.4699
 8941SOL    HW138282   1.953   1.016   3.676  0.0703  1.1277  1.0885
 8941SOL    HW238283   1.949   0.966   3.538  1.0727 -0.2147  0.2516
 8942SOL     OW38284   1.514   3.661   7.691  0.9447 -0.1302 -0.1809
 8942SOL    HW138285   1.606   3.687   7.693  0.8397  0.4162 -2.6911
 8942SOL    HW238286   1.494   3.683   7.600  0.8147  1.9620  0.3533
 8943SOL     OW38287   3.184   4.211   7.865 -0.5017 -0.0047 -0.5569
 8943SOL    HW138288   3.216   4.169   7.944  3.7938  0.0611 -2.2570
 8943SOL    HW238289   3.251   4.203   7.797  0.5878  0.3125  0.4864
 8944SOL     OW38290   0.194   1.508  10.882  0.3149  0.8836 -0.5412
 8944SOL    HW138291   0.142   1.475  10.808 -0.5043 -0.2540  0.5472
 8944SOL    HW238292   0.169   1.600  10.889  4.3493  1.8008  1.7435
 8945SOL     OW38293   0.733   3.531   8.431 -0.2939  0.4810  0.0341
 8945SOL    HW138294   0.775   3.449   8.458 -1.7923 -0.1392  0.4739
 8945SOL    HW238295   0.808   3.588   8.413  0.6841 -0.8546 -0.1814
 8946SOL     OW38296   3.946   4.536  17.314 -0.2239  0.0732 -0.0662
 8946SOL    HW138297   3.979   4.576  17.394  1.4486  0.9026 -1.1704
 8946SOL    HW238298   3.851   4.538  17.327 -0.0722  0.7388  0.9729
 8947SOL     OW38299   0.004   0.545   8.274 -0.8176  0.1710 -0.0539
 8947SOL    HW138300   4.689   0.531   8.360 -3.6211  2.1884 -0.9905
 8947SOL    HW238301   4.690   0.469   8.230 -1.4085  0.2974  0.2359
 8948SOL     OW38302   1.231   4.125   0.040 -0.1931 -0.2198 -0.8103
 8948SOL    HW138303   1.279   4.182  17.677 -1.5897  1.8075 -0.0131
 8948SOL    HW238304   1.149   4.174   0.042  0.6562  1.1863 -0.3525
 8949SOL     OW38305   4.038   2.193   8.196 -0.3594  0.2958 -0.5356
 8949SOL    HW138306   4.070   2.106   8.173 -0.7724 -0.1001  0.3802
 8949SOL    HW238307   4.002   2.178   8.283 -1.2260 -1.3911 -1.1802
 8950SOL     OW38308   3.760   0.902   5.074  0.0420 -0.6635  0.0761
 8950SOL    HW138309   3.855   0.906   5.065 -0.0744 -0.3379 -0.9374
 8950SOL    HW238310   3.730   0.811   5.081 -0.8980 -0.1881  2.1685
 8951SOL     OW38311   4.290   0.464   8.949  0.2880  0.1097  0.1603
 8951SOL    HW138312   4.211   0.411   8.955  1.1037 -1.1046  0.0356
 8951SOL    HW238313   4.331   0.405   8.886 -0.4228  0.2557 -0.4406
 8952SOL     OW38314   4.343   0.682  13.233 -0.2867 -0.4964  0.4835
 8952SOL    HW138315   4.312   0.615  13.172  1.0667 -2.0707  1.5248
 8952SOL    HW238316   4.413   0.722  13.181  0.5960  0.5343  2.4464
 8953SOL     OW38317   1.940   3.236  12.807 -0.0477 -0.3246  0.1063
 8953SOL    HW138318   2.030   3.205  12.814  1.0250  2.8105  0.2054
 8953SOL    HW238319   1.892   3.183  12.871  2.3596  0.7895  2.8645
 8954SOL     OW38320   4.620   4.386   3.616  0.2047 -0.4933 -0.3669
 8954SOL    HW138321   4.625   4.305   3.566  0.6597  0.9099 -2.5980
 8954SOL    HW238322   4.560   4.430   3.555  1.7713  1.2338 -0.6714
 8955SOL     OW38323   3.277   4.155  13.141  1.0797 -0.2047  0.1793
 8955SOL    HW138324   3.259   4.100  13.218 -0.5429  1.0786  0.7212
 8955SOL    HW238325   3.372   4.145  13.143  0.8959 -1.8791  0.6303
 8956SOL     OW38326   1.265   0.600  12.598 -1.0185 -0.2618 -0.2160
 8956SOL    HW138327   1.173   0.608  12.573 -0.6836  1.7688 -0.8017
 8956SOL    HW238328   1.279   0.683  12.643  0.7705 -0.5407 -0.2669
 8957SOL     OW38329   0.421   2.000   7.767 -0.3202  0.0160  0.0380
 8957SOL    HW138330   0.394   1.921   7.720  1.9117 -0.5955 -0.1898
 8957SOL    HW238331   0.344   2.054   7.751 -2.3696 -3.4325 -1.8060
 8958SOL     OW38332   4.138   1.929   6.051  0.0709 -0.3788  0.6714
 8958SOL    HW138333   4.188   1.851   6.030 -0.9369 -0.3671 -1.8365
 8958SOL    HW238334   4.128   1.933   6.146  1.2976  0.6590  0.7431
 8959SOL     OW38335   3.912   0.574   1.714 -0.3379  0.3598  0.3910
 8959SOL    HW138336   4.003   0.564   1.741  0.0935  1.7947 -0.5390
 8959SOL    HW238337   3.910   0.668   1.696 -1.8732  0.0524 -0.9780
 8960SOL     OW38338   0.350   1.836   6.813 -0.3261  0.1822  0.2472
 8960SOL    HW138339   0.316   1.768   6.756 -0.8980  0.3977  0.3301
 8960SOL    HW238340   0.378   1.776   6.882 -2.1274 -0.3726  0.4914
 8961SOL     OW38341   4.634   2.769  10.471 -0.4313 -0.2258  0.2191
 8961SOL    HW138342   4.603   2.782  10.382 -2.1995 -0.4579  0.8007
 8961SOL    HW238343   4.551   2.772  10.519 -0.1206  0.3199  0.7282
 8962SOL     OW38344   0.996   3.537  14.659 -0.4167  0.0094  0.1610
 8962SOL    HW138345   0.972   3.461  14.713  1.9043 -0.4139  0.5825
 8962SOL    HW238346   1.071   3.505  14.610 -1.1608 -0.0932 -0.9162
 8963SOL     OW38347   0.864   0.919   7.229  0.2450 -0.2160  0.1137
 8963SOL    HW138348   0.943   0.867   7.215 -0.1480 -0.2383 -1.9987
 8963SOL    HW238349   0.892   0.972   7.304 -0.7358 -1.1499  1.1318
 8964SOL     OW38350   1.375   3.804   9.082 -0.0569  0.5969 -0.0217
 8964SOL    HW138351   1.455   3.789   9.133 -1.2402  0.5217  1.7906
 8964SOL    HW238352   1.359   3.716   9.048 -0.5591 -0.2023  2.2847
 8965SOL     OW38353   1.963   0.909   5.483  0.0182  1.1702 -0.1215
 8965SOL    HW138354   1.993   0.962   5.410 -0.8899 -2.9295 -3.4612
 8965SOL    HW238355   1.870   0.914   5.461 -0.4572 -1.6779  1.2202
 8966SOL     OW38356   2.872   3.086   4.195  0.2999  0.2180  0.2588
 8966SOL    HW138357   2.946   3.127   4.151  0.3435 -1.1724 -0.9535
 8966SOL    HW238358   2.827   3.046   4.121  2.0743  0.9228 -1.1862
 8967SOL     OW38359   2.244   0.255   5.448 -0.4111 -0.4666  0.0632
 8967SOL    HW138360   2.306   0.196   5.404  0.0615  0.6956 -0.8430
 8967SOL    HW238361   2.289   0.338   5.434  0.7540 -1.3148 -1.2194
 8968SOL     OW38362   1.093   4.461   5.202 -0.4622  0.2593 -0.4295
 8968SOL    HW138363   1.136   4.525   5.145 -1.1822  0.6503 -0.5371
 8968SOL    HW238364   1.090   4.510   5.284  0.1243 -2.8311  1.4552
 8969SOL     OW38365   2.092   0.966   5.980  0.1720  0.4272  0.3187
 8969SOL    HW138366   1.997   0.970   5.970  0.0213 -4.2998  0.0187
 8969SOL    HW238367   2.110   0.913   6.058  1.5701  1.8955  0.9900
 8970SOL     OW38368   2.883   1.646   8.282  0.4498 -0.2974 -0.5845
 8970SOL    HW138369   2.938   1.593   8.224 -0.6226  1.4232 -3.1728
 8970SOL    HW238370   2.948   1.682   8.342  0.1907 -0.0727 -0.4396
 8971SOL     OW38371   3.069   4.369   4.255 -0.3030 -0.1594  0.4312
 8971SOL    HW138372   3.020   4.426   4.196  2.6857  2.5359  0.5236
 8971SOL    HW238373   3.114   4.438   4.303  0.1793 -0.7894  0.8887
 8972SOL     OW38374   3.062   2.098   8.370  1.4550  0.5509  0.7955
 8972SOL    HW138375   2.992   2.035   8.386  1.2803  0.7426  0.7945
 8972SOL    HW238376   3.123   2.051   8.314  1.9957 -1.0488  2.7479
 8973SOL     OW38377   0.864   2.166   8.158 -0.1187 -0.0513 -0.5084
 8973SOL    HW138378   0.854   2.121   8.074  0.3401 -2.0568  0.5223
 8973SOL    HW238379   0.910   2.108   8.218  1.7043  1.7026 -0.2056
 8974SOL     OW38380   3.088   3.483   2.170  0.1964 -0.4439 -0.6932
 8974SOL    HW138381   3.179   3.475   2.199 -0.0922  0.5283  0.4964
 8974SOL    HW238382   3.079   3.404   2.117 -0.4088 -1.0087  0.2452
 8975SOL     OW38383   1.171   4.669   9.203  0.1299  0.4179 -0.0682
 8975SOL    HW138384   1.103   4.611   9.238  0.8654 -0.3226  0.1348
 8975SOL    HW238385   1.247   4.640   9.252 -0.6907  0.7420  1.3798
 8976SOL     OW38386   2.890   0.351   7.781 -0.0574 -0.0890  0.4559
 8976SOL    HW138387   2.830   0.352   7.856 -1.6530  0.7928 -0.8421
 8976SOL    HW238388   2.852   0.432   7.746  1.3976  0.6768  0.6321
 8977SOL     OW38389   2.791   1.966   8.364  0.3749 -0.0083  0.1710
 8977SOL    HW138390   2.804   1.915   8.444  1.6072  0.0379 -0.0056
 8977SOL    HW238391   2.730   2.033   8.396 -1.3911 -1.5914  0.1493
 8978SOL     OW38392   1.149   3.470  15.473  0.1279 -0.6546  0.4850
 8978SOL    HW138393   1.111   3.383  15.476 -0.2418 -0.5836 -2.8202
 8978SOL    HW238394   1.242   3.447  15.482  0.2710  1.0483  3.5301
 8979SOL     OW38395   2.924   4.576   9.445  1.0482 -0.1393 -0.8205
 8979SOL    HW138396   2.854   4.517   9.471  1.2425  1.2294  2.8461
 8979SOL    HW238397   2.937   4.632   9.522  0.6617 -0.4744 -0.5173
 8980SOL     OW38398   2.548   0.561  16.904 -0.6612  0.0607 -0.2600
 8980SOL    HW138399   2.572   0.634  16.962 -0.1302 -0.2935 -0.0344
 8980SOL    HW238400   2.530   0.497  16.972  1.2239 -1.4375 -1.2016
 8981SOL     OW38401   2.570   1.494   4.468  0.4463 -0.6504  0.4070
 8981SOL    HW138402   2.655   1.454   4.451  0.5674  0.9368 -2.6407
 8981SOL    HW238403   2.523   1.468   4.389  0.1016  1.5436 -0.1062
 8982SOL     OW38404   0.456   2.927   2.206 -0.1253 -0.3199  0.0737
 8982SOL    HW138405   0.467   2.925   2.301  1.9874 -1.3183 -0.1869
 8982SOL    HW238406   0.385   2.862   2.205 -0.9063  0.5050  1.4229
 8983SOL     OW38407   2.510   2.813   7.605  0.4370 -0.6663  0.5217
 8983SOL    HW138408   2.552   2.727   7.595 -1.8159 -1.6027 -0.8290
 8983SOL    HW238409   2.430   2.793   7.557 -1.1966  1.3364  2.4200
 8984SOL     OW38410   4.708   2.244   6.610  0.4947  0.0232 -0.8638
 8984SOL    HW138411   0.064   2.271   6.564  1.4248 -3.3957 -1.2486
 8984SOL    HW238412   0.016   2.278   6.693 -0.1301 -0.3590 -0.4674
 8985SOL     OW38413   3.147   4.044   7.122 -0.1647 -0.7925  0.2999
 8985SOL    HW138414   3.055   4.063   7.102  0.0989 -0.1988 -0.3658
 8985SOL    HW238415   3.146   3.958   7.164 -0.5470 -0.2548  1.3932
 8986SOL     OW38416   4.526   4.518   7.303  0.2326  0.4585  0.1557
 8986SOL    HW138417   4.459   4.553   7.361 -0.4338 -1.2866  0.4228
 8986SOL    HW238418   4.591   4.588   7.313  0.1777  0.7942 -1.9354
 8987SOL     OW38419   1.643   3.183   7.131  0.7465 -0.3156 -0.3074
 8987SOL    HW138420   1.693   3.202   7.210  0.8524  0.8991 -0.6764
 8987SOL    HW238421   1.629   3.272   7.100 -1.1483 -0.6710 -0.4886
 8988SOL     OW38422   4.216   0.702  15.024 -0.3808  0.1579  0.7168
 8988SOL    HW138423   4.242   0.772  15.084  0.9061 -0.6570  1.1086
 8988SOL    HW238424   4.166   0.755  14.961 -0.5698 -0.1170  0.6369
 8989SOL     OW38425   2.637   2.449  15.089  0.6487 -0.0476 -0.2717
 8989SOL    HW138426   2.697   2.518  15.060 -0.0717  1.1979  1.2150
 8989SOL    HW238427   2.627   2.470  15.182  0.1314  1.0321 -0.5670
 8990SOL     OW38428   0.476   1.371  16.024 -0.1913  0.4966 -0.2205
 8990SOL    HW138429   0.446   1.461  16.016 -1.0183  0.0762 -1.8878
 8990SOL    HW238430   0.400   1.333  15.979 -0.4932  0.5695  0.2353
 8991SOL     OW38431   1.984   1.919   2.776  0.1359 -0.1268 -0.1683
 8991SOL    HW138432   1.974   1.827   2.750 -1.0402  0.4668 -1.8993
 8991SOL    HW238433   2.072   1.942   2.747  0.3612 -0.3657  0.3388
 8992SOL     OW38434   4.195   4.714   5.203 -0.2573 -0.2134 -0.0958
 8992SOL    HW138435   4.212   4.635   5.254 -0.9102  0.3898  1.0509
 8992SOL    HW238436   4.212   0.055   5.271  0.0661  1.1909 -1.5031
 8993SOL     OW38437   2.203   2.590   7.733 -0.1072 -0.5278 -0.3278
 8993SOL    HW138438   2.236   2.500   7.724 -0.9294 -1.0442  1.9251
 8993SOL    HW238439   2.148   2.584   7.811  0.3958 -1.9225 -0.0652
 8994SOL     OW38440   0.619   3.119  10.837 -0.3915  0.7954  0.1243
 8994SOL    HW138441   0.677   3.042  10.832 -0.7437  0.5835 -0.7267
 8994SOL    HW238442   0.547   3.090  10.893 -2.4126  1.2175 -2.3033
 8995SOL     OW38443   0.871   4.507  10.208  0.1085  0.7189 -0.2598
 8995SOL    HW138444   0.855   4.423  10.252  2.4369 -0.4390 -1.5569
 8995SOL    HW238445   0.928   4.480  10.136  0.6628  0.4185  0.2885
 8996SOL     OW38446   2.373   2.812   2.847  0.4948 -0.8407 -0.1210
 8996SOL    HW138447   2.382   2.905   2.827 -2.7030 -0.7671 -1.3324
 8996SOL    HW238448   2.296   2.793   2.792 -1.2205 -0.5565  2.1594
 8997SOL     OW38449   2.988   2.923   1.603 -0.2712  0.3759  0.1304
 8997SOL    HW138450   2.942   2.839   1.608  1.0168 -0.3448 -0.0711
 8997SOL    HW238451   3.080   2.901   1.590 -0.9471 -1.3320 -1.7300
 8998SOL     OW38452   3.590   1.713   5.155 -0.5103  0.7442  0.2130
 8998SOL    HW138453   3.554   1.652   5.219  1.5048 -2.0125 -1.3136
 8998SOL    HW238454   3.508   1.746   5.117 -1.5636  0.2342  2.0402
 8999SOL     OW38455   0.560   3.359   8.267 -0.1120 -0.0755 -0.4005
 8999SOL    HW138456   0.481   3.351   8.321  1.3518  2.7295  2.1753
 8999SOL    HW238457   0.620   3.404   8.327 -0.2879 -1.0390  0.4795
 9000SOL     OW38458   3.986   2.474   0.469 -0.2159  0.1213 -0.0101
 9000SOL    HW138459   3.901   2.443   0.501 -0.1496  0.0302  0.0795
 9000SOL    HW238460   3.951   2.496   0.382  0.4296 -3.0220 -1.0694
 9001SOL     OW38461   3.479   0.751   3.635  0.5291 -0.0627  0.1395
 9001SOL    HW138462   3.403   0.704   3.601  1.2786 -0.2823 -1.2427
 9001SOL    HW238463   3.438   0.835   3.657  1.4713  0.8060 -1.4261
 9002SOL     OW38464   0.819   0.185   1.581 -0.3058 -0.5527  0.5418
 9002SOL    HW138465   0.790   0.131   1.654 -0.6082 -0.9281  0.1436
 9002SOL    HW238466   0.742   0.236   1.554  0.7206  1.0435  0.5982
 9003SOL     OW38467   4.117   1.081  14.468  0.3015  0.0967 -0.0556
 9003SOL    HW138468   4.145   1.133  14.543  1.4027  0.5273 -0.7566
 9003SOL    HW238469   4.151   0.993  14.484  0.7178  0.3133  0.2427
 9004SOL     OW38470   4.508   1.333   8.389  0.0906  0.5594 -0.3934
 9004SOL    HW138471   4.542   1.324   8.300  1.6417  1.2795  0.1202
 9004SOL    HW238472   4.419   1.365   8.377 -0.1493 -0.6283 -1.7691
 9005SOL     OW38473   2.396   0.501   0.299  0.2938 -0.1609  0.0336
 9005SOL    HW138474   2.428   0.415   0.327 -0.5429 -0.5382 -0.1663
 9005SOL    HW238475   2.468   0.562   0.315  1.1511 -1.5572  1.4304
 9006SOL     OW38476   3.921   2.969  17.669  0.1205  0.0477 -0.2431
 9006SOL    HW138477   4.016   2.979  17.655 -0.1802  0.9933 -1.5991
 9006SOL    HW238478   3.894   3.059  17.687  0.9099  0.4082 -0.8390
 9007SOL     OW38479   2.497   0.995   8.199  0.5414  0.8260  0.0136
 9007SOL    HW138480   2.462   0.949   8.275  0.0324 -0.6797 -1.1170
 9007SOL    HW238481   2.587   0.964   8.191  0.1423 -0.2914 -0.1811
 9008SOL     OW38482   1.480   0.757   9.161 -0.6326 -0.1365 -0.1721
 9008SOL    HW138483   1.460   0.846   9.130 -1.1937 -1.1117 -2.6386
 9008SOL    HW238484   1.563   0.776   9.205 -0.5281 -0.9555 -0.0216
 9009SOL     OW38485   1.990   2.067   8.482 -0.3882 -0.2204 -0.3030
 9009SOL    HW138486   2.078   2.036   8.504  0.0057  0.1505 -1.3730
 9009SOL    HW238487   1.978   2.154   8.521 -2.6051  0.1760 -1.8917
 9010SOL     OW38488   3.934   3.397   3.650  0.2762  0.0338  0.1447
 9010SOL    HW138489   3.966   3.419   3.738  0.7916  2.2343 -0.5851
 9010SOL    HW238490   4.002   3.331   3.633 -1.0288 -1.0814 -0.6593
 9011SOL     OW38491   1.603   1.761   4.032 -0.3029 -0.2397 -0.1725
 9011SOL    HW138492   1.683   1.745   3.981  0.1693  0.9463  0.2013
 9011SOL    HW238493   1.584   1.855   4.035  0.4006 -0.2114  3.2528
 9012SOL     OW38494   1.008   1.582   0.835 -0.8203  0.1444 -0.0393
 9012SOL    HW138495   1.019   1.677   0.826 -1.6416  0.1662 -0.7289
 9012SOL    HW238496   1.041   1.545   0.753  0.3908 -1.7078  1.2950
 9013SOL     OW38497   3.299   2.619  16.653  0.0764  0.0542 -0.2656
 9013SOL    HW138498   3.249   2.617  16.572  0.8316 -1.4610 -0.6935
 9013SOL    HW238499   3.244   2.565  16.710  1.3274  0.6401  1.5056
 9014SOL     OW38500   0.568   2.493   6.152  0.2820  0.8843 -0.4310
 9014SOL    HW138501   0.649   2.504   6.202  0.2541 -1.1610  0.0548
 9014SOL    HW238502   0.592   2.411   6.107  0.9502  0.8319  0.0123
 9015SOL     OW38503   3.106   3.775   1.154  0.6095 -0.1373  0.6261
 9015SOL    HW138504   3.120   3.686   1.122 -0.3195  0.2038 -0.7401
 9015SOL    HW238505   3.036   3.767   1.218  1.7455 -2.4218  1.5847
 9016SOL     OW38506   1.352   2.282   3.924  0.4858  0.0876  0.5636
 9016SOL    HW138507   1.257   2.286   3.909  0.8800  1.4615 -1.5024
 9016SOL    HW238508   1.361   2.357   3.982  1.5771 -0.1638  0.7186
 9017SOL     OW38509   2.852   0.931   9.294  0.9485  0.7178  0.3655
 9017SOL    HW138510   2.802   0.860   9.255 -1.0206  0.8705  2.5688
 9017SOL    HW238511   2.895   0.890   9.369 -0.3410 -0.6535  0.3382
 9018SOL     OW38512   1.126   0.114   0.877 -0.1557  0.1912  0.4867
 9018SOL    HW138513   1.159   0.127   0.789  1.1449  0.1693  0.9755
 9018SOL    HW238514   1.191   0.152   0.937  1.6430  1.2925 -2.1829
 9019SOL     OW38515   4.666   3.379   5.242 -0.2586  0.0082 -0.0418
 9019SOL    HW138516   4.612   3.387   5.321 -2.6835  1.4337 -1.8545
 9019SOL    HW238517   0.012   3.444   5.253  1.3333 -1.7054 -0.0209
 9020SOL     OW38518   4.459   0.423   4.981  0.2931  0.3025 -0.0116
 9020SOL    HW138519   4.371   0.387   4.967  1.6811 -3.0613  0.1031
 9020SOL    HW238520   4.446   0.458   5.070  0.8471 -0.1540  0.2460
 9021SOL     OW38521   1.626   3.393  11.780 -0.0388 -0.1621 -0.0721
 9021SOL    HW138522   1.642   3.471  11.727  0.5730  0.7890  1.5076
 9021SOL    HW238523   1.633   3.333  11.707  2.7278 -0.2905  0.3302
 9022SOL     OW38524   3.673   0.042   3.526 -0.0328 -0.2810 -0.3071
 9022SOL    HW138525   3.630   4.703   3.467 -1.6945  0.2452  0.3642
 9022SOL    HW238526   3.602   0.105   3.526  1.4578  1.4135  0.6594
 9023SOL     OW38527   4.066   1.499   7.971 -0.1247  0.3436  0.0479
 9023SOL    HW138528   4.074   1.463   8.060 -0.1707  0.5816  0.1467
 9023SOL    HW238529   3.973   1.520   7.971 -0.3095 -0.4685  0.4773
 9024SOL     OW38530   0.762   1.565   9.787  0.1052 -0.1400  0.1640
 9024SOL    HW138531   0.790   1.506   9.857  0.4627  0.6078  0.6590
 9024SOL    HW238532   0.803   1.649   9.809  2.1733 -0.8214 -1.1294
 9025SOL     OW38533   0.192   2.979   0.678  0.1786 -0.0246 -0.0610
 9025SOL    HW138534   0.117   3.018   0.725  1.1495  0.7237  0.8667
 9025SOL    HW238535   0.145   2.912   0.629  2.7677 -1.3309 -0.7157
 9026SOL     OW38536   4.387   1.009   9.489  0.1429 -0.4463  0.5940
 9026SOL    HW138537   4.443   1.003   9.566 -0.0441  0.1178  0.7684
 9026SOL    HW238538   4.315   0.946   9.496  1.9230 -2.2606  2.3584
 9027SOL     OW38539   4.610   0.294  11.966  0.5444 -0.0184  0.0339
 9027SOL    HW138540   4.639   0.299  11.875 -2.7997  2.7707 -0.9038
 9027SOL    HW238541   4.529   0.243  11.960  1.4637 -1.5451  0.8028
 9028SOL     OW38542   0.411   2.055   3.763  0.1176  0.8146 -0.0585
 9028SOL    HW138543   0.484   2.064   3.702  0.0609  1.7136  0.0158
 9028SOL    HW238544   0.388   1.962   3.762  0.7820  0.6443  0.2408
 9029SOL     OW38545   4.258   1.748   7.172  0.1571  0.0724  0.1812
 9029SOL    HW138546   4.317   1.727   7.244 -0.6522 -0.8444  0.5771
 9029SOL    HW238547   4.328   1.779   7.115  0.0997 -0.8533 -0.3959
 9030SOL     OW38548   4.145   2.786   5.767 -0.8193 -0.2836  0.4429
 9030SOL    HW138549   4.051   2.778   5.780 -1.1847 -0.3855 -2.3434
 9030SOL    HW238550   4.160   2.860   5.826 -0.5012 -0.8300  1.0565
 9031SOL     OW38551   1.593   0.913   1.997  0.2514  0.2760 -0.4850
 9031SOL    HW138552   1.538   0.978   2.042  1.8704 -0.9643  3.2732
 9031SOL    HW238553   1.535   0.838   1.989  0.4385  0.0708  0.1094
 9032SOL     OW38554   2.199   3.291   5.915  0.0205  0.1150 -0.2693
 9032SOL    HW138555   2.291   3.308   5.894 -1.0545  1.2285 -3.9401
 9032SOL    HW238556   2.146   3.338   5.851 -0.6354 -0.2737 -0.0068
 9033SOL     OW38557   3.775   2.594   2.476 -0.2064  0.1012  0.4254
 9033SOL    HW138558   3.786   2.683   2.442 -1.2944 -0.2847 -0.8877
 9033SOL    HW238559   3.823   2.543   2.411  0.3621 -0.7433  1.5056
 9034SOL     OW38560   4.010   0.836   8.360 -0.0687  0.1649  0.2489
 9034SOL    HW138561   4.037   0.780   8.287  1.1467 -0.0304  0.8497
 9034SOL    HW238562   4.081   0.821   8.422  0.0412 -2.0509 -0.3766
 9035SOL     OW38563   0.122   3.001   2.822 -0.3389  0.4263 -0.1638
 9035SOL    HW138564   0.093   3.088   2.797  0.7084  0.7679 -0.1863
 9035SOL    HW238565   0.182   2.976   2.752 -1.1945 -1.8545 -0.0956
 9036SOL     OW38566   2.986   0.477   8.531 -0.4522  0.0212 -0.6510
 9036SOL    HW138567   2.947   0.552   8.575  0.5435 -0.5194  1.1428
 9036SOL    HW238568   2.908   0.421   8.534 -0.1380 -0.3956 -0.1210
 9037SOL     OW38569   0.809   2.613   5.814  0.1448 -0.5368  0.2069
 9037SOL    HW138570   0.813   2.668   5.893 -3.8384  0.3765 -0.2047
 9037SOL    HW238571   0.761   2.682   5.768  0.7514 -0.0815  0.2529
 9038SOL     OW38572   1.828   2.654   9.004  0.5370  0.5054  0.0225
 9038SOL    HW138573   1.827   2.696   8.918 -1.5205 -0.6094 -0.4974
 9038SOL    HW238574   1.791   2.725   9.058  1.4711  2.6947 -2.2298
 9039SOL     OW38575   2.086   4.410   2.419 -0.3732  0.0642 -0.2323
 9039SOL    HW138576   2.055   4.395   2.508  1.9413  0.5227  0.6648
 9039SOL    HW238577   2.003   4.404   2.372  1.2877 -1.1130 -3.0003
 9040SOL     OW38578   1.454   2.142   9.431 -0.4386 -0.2061  0.2318
 9040SOL    HW138579   1.380   2.191   9.465  0.5892  2.7661 -1.8577
 9040SOL    HW238580   1.475   2.093   9.511  1.0796  0.4498  0.2365
 9041SOL     OW38581   4.311   1.474  16.775 -0.1515  0.0045  0.3135
 9041SOL    HW138582   4.363   1.554  16.777  0.0571 -0.1359  0.5437
 9041SOL    HW238583   4.232   1.519  16.806 -0.9972 -1.6817  0.6441
 9042SOL     OW38584   2.636   0.927  10.509 -0.2380 -0.5923 -0.3770
 9042SOL    HW138585   2.641   0.982  10.431 -0.1362  0.7884  0.5923
 9042SOL    HW238586   2.600   0.986  10.576  2.4502  0.6002 -0.0074
 9043SOL     OW38587   0.896   2.162   5.882  0.0575  0.1994 -0.5551
 9043SOL    HW138588   0.977   2.187   5.925  0.2209 -2.5953  0.7526
 9043SOL    HW238589   0.896   2.227   5.812 -0.9668  0.1731 -0.5845
 9044SOL     OW38590   4.714   1.950   0.070 -0.2913 -0.5968 -0.6790
 9044SOL    HW138591   0.034   1.979  17.687  0.9686  1.6708  0.8390
 9044SOL    HW238592   4.622   1.973   0.054 -0.2491  0.8721  1.1661
 9045SOL     OW38593   2.393   3.004   7.226 -0.4271  0.1559  0.5334
 9045SOL    HW138594   2.476   3.046   7.249  0.5828 -1.1677 -0.6806
 9045SOL    HW238595   2.331   3.075   7.240 -0.2474  0.0159  1.9717
 9046SOL     OW38596   2.937   1.399  12.741  0.4319 -0.1984 -0.2811
 9046SOL    HW138597   2.975   1.426  12.825  0.0985  1.5866 -0.6996
 9046SOL    HW238598   2.842   1.398  12.754  0.6832  2.8364  1.7505
 9047SOL     OW38599   4.690   1.063  16.989  0.1785  0.2647 -0.2005
 9047SOL    HW138600   4.628   1.002  16.947  2.3844 -2.5384  0.6079
 9047SOL    HW238601   4.709   1.011  17.067 -2.4348 -0.0205  0.2629
 9048SOL     OW38602   4.386   1.909  12.344 -0.0458  0.2690  0.3534
 9048SOL    HW138603   4.421   1.822  12.364  1.5441  1.1189  1.2590
 9048SOL    HW238604   4.440   1.923  12.266 -0.7372 -0.3310 -0.2339
 9049SOL     OW38605   2.306   4.361   5.321  0.0117 -0.1795  0.1734
 9049SOL    HW138606   2.243   4.378   5.391 -0.0983 -2.0718  0.5447
 9049SOL    HW238607   2.386   4.391   5.363 -0.1978  3.7164 -2.1968
 9050SOL     OW38608   1.901   2.079   5.168  0.3476  0.1490  0.3866
 9050SOL    HW138609   1.837   2.059   5.100  1.1164  1.5985 -0.7452
 9050SOL    HW238610   1.962   2.005   5.166  0.6433  0.4243 -0.6058
 9051SOL     OW38611   2.921   0.028   8.030  0.5545 -0.2135  0.2730
 9051SOL    HW138612   2.862   0.097   7.999 -1.3092 -2.5756 -1.4779
 9051SOL    HW238613   2.940   0.063   8.117  0.0141  1.4900 -0.2878
 9052SOL     OW38614   4.087   3.634  10.529 -0.9194 -0.1971 -0.5361
 9052SOL    HW138615   4.149   3.562  10.543 -1.3718 -0.6977 -1.0826
 9052SOL    HW238616   4.061   3.664  10.616 -2.6637 -0.2791 -1.0333
 9053SOL     OW38617   1.004   3.047   5.460  0.2858 -0.1497  0.3732
 9053SOL    HW138618   0.926   3.078   5.505 -0.4700  0.9874 -1.7428
 9053SOL    HW238619   1.068   3.035   5.531  2.1375  0.1769 -1.2404
 9054SOL     OW38620   3.370   3.412  12.442  0.0087  0.1668  0.3438
 9054SOL    HW138621   3.317   3.441  12.515  1.4946  1.4909  0.9021
 9054SOL    HW238622   3.353   3.484  12.380 -1.4572 -1.4373 -1.1227
 9055SOL     OW38623   1.292   0.030   7.244  0.3086 -0.8054  0.7191
 9055SOL    HW138624   1.351   0.102   7.268 -0.7239  0.7720 -1.4346
 9055SOL    HW238625   1.214   0.022   7.298 -0.2991 -0.0965 -0.0532
 9056SOL     OW38626   2.025   4.653   5.208 -0.1780  0.5933  0.7702
 9056SOL    HW138627   1.959   4.657   5.139  0.1232  2.3401  0.5911
 9056SOL    HW238628   2.043   0.021   5.224  0.5866  0.4104  0.9540
 9057SOL     OW38629   1.289   3.844  16.307  0.1429  0.0619 -0.1336
 9057SOL    HW138630   1.208   3.893  16.292  0.4758  0.3431 -1.0231
 9057SOL    HW238631   1.355   3.908  16.280  1.2921 -1.1482 -0.1699
 9058SOL     OW38632   2.063   2.614   9.205  0.0111  0.2039  0.2002
 9058SOL    HW138633   2.028   2.605   9.294 -0.1971  1.2394  0.2201
 9058SOL    HW238634   1.986   2.631   9.151 -0.0868  2.3101  1.0191
 9059SOL     OW38635   1.228   0.047   4.495 -0.4150 -0.1901  0.0810
 9059SOL    HW138636   1.166   0.117   4.476 -0.2867  0.0416  0.5084
 9059SOL    HW238637   1.234   4.723   4.413  1.3961 -0.8801  0.6076
 9060SOL     OW38638   1.338   2.739  17.548  0.1362 -0.0037  0.4729
 9060SOL    HW138639   1.414   2.793  17.567 -0.8968  1.2883  0.8545
 9060SOL    HW238640   1.292   2.805  17.497 -1.6909 -0.4173  1.5798
 9061SOL     OW38641   0.462   2.112   1.497 -0.0773 -0.3476 -0.4075
 9061SOL    HW138642   0.519   2.045   1.460  2.5902  1.8138 -0.2334
 9061SOL    HW238643   0.457   2.074   1.585 -0.3057 -0.6434 -0.5484
 9062SOL     OW38644   3.500   4.368   2.536 -0.1407  0.2024 -0.1871
 9062SOL    HW138645   3.506   4.433   2.466 -0.3811 -0.0496 -0.4442
 9062SOL    HW238646   3.592   4.343   2.544 -0.4477 -0.8592  0.0734
 9063SOL     OW38647   1.228   1.404   7.684  0.0445  0.6055  1.0271
 9063SOL    HW138648   1.257   1.429   7.596  0.5799  0.1214  1.0674
 9063SOL    HW238649   1.134   1.419   7.677 -0.3723 -3.3674 -2.0601
 9064SOL     OW38650   3.188   0.034   6.505  0.3961 -0.5393 -0.1273
 9064SOL    HW138651   3.146   0.029   6.420  1.2988  2.9909 -0.7644
 9064SOL    HW238652   3.131   0.098   6.548 -2.5435 -2.7125 -0.8049
 9065SOL     OW38653   0.894   4.678   0.334  0.3043  0.0797  0.7992
 9065SOL    HW138654   0.918   4.656   0.424 -0.0159 -1.3661  0.5269
 9065SOL    HW238655   0.944   0.036   0.327 -3.4581  2.3714  0.6981
 9066SOL     OW38656   2.993   0.156   1.303  0.0642  0.4336 -0.0860
 9066SOL    HW138657   3.063   0.219   1.287  1.6009 -0.8357  1.6062
 9066SOL    HW238658   3.005   0.092   1.233  1.3171  3.0309 -2.2139
 9067SOL     OW38659   3.523   0.135  16.832  0.1805 -0.3408 -0.1886
 9067SOL    HW138660   3.571   0.054  16.819  2.0392  0.6137  0.7343
 9067SOL    HW238661   3.586   0.194  16.790 -0.4319  0.8337  0.5174
 9068SOL     OW38662   1.565   3.088   4.766 -0.1232 -0.2399  0.3980
 9068SOL    HW138663   1.586   3.164   4.820 -2.3782 -0.3704  1.4629
 9068SOL    HW238664   1.652   3.073   4.730 -0.5753 -0.3055 -0.6589
 9069SOL     OW38665   0.422   3.734   0.857  0.0187  0.1227  0.1096
 9069SOL    HW138666   0.436   3.700   0.945 -2.4040  1.9152  1.1736
 9069SOL    HW238667   0.331   3.760   0.866 -0.6785 -2.4666  0.2693
 9070SOL     OW38668   0.818   2.171   2.050 -0.2217 -0.1557 -0.4161
 9070SOL    HW138669   0.865   2.100   2.094  0.4680  0.6382  0.1381
 9070SOL    HW238670   0.846   2.249   2.098 -2.1807  1.6324 -2.1663
 9071SOL     OW38671   0.035   0.157   0.436  0.0472  0.1633 -0.4793
 9071SOL    HW138672   0.112   0.134   0.488 -0.7537 -1.9136 -0.1699
 9071SOL    HW238673   0.058   0.243   0.403 -0.2613  0.7253  0.7842
 9072SOL     OW38674   2.061   2.980  13.287  0.1724 -0.1387 -0.0123
 9072SOL    HW138675   1.983   3.023  13.321 -3.0668 -3.9480 -2.6672
 9072SOL    HW238676   2.026   2.948  13.204 -1.3616 -1.4169  1.1438
 9073SOL     OW38677   0.938   3.725   8.303 -0.5703 -0.4388 -0.0502
 9073SOL    HW138678   0.916   3.797   8.362 -1.6993 -2.0335  1.4656
 9073SOL    HW238679   0.989   3.770   8.235 -1.2414 -0.5081 -0.5918
 9074SOL     OW38680   0.194   1.671   2.504  0.2510 -0.2046  0.4144
 9074SOL    HW138681   0.141   1.749   2.483 -0.5434 -0.7597  0.3568
 9074SOL    HW238682   0.130   1.602   2.488 -0.2663  0.0573  1.3179
 9075SOL     OW38683   0.920   2.135   3.615  0.3555 -0.5041  0.1434
 9075SOL    HW138684   0.873   2.217   3.602  2.6172  1.1475  2.4865
 9075SOL    HW238685   0.854   2.069   3.637  0.3020 -0.9231 -1.2747
 9076SOL     OW38686   3.717   0.840   4.627  0.1847  0.3086 -0.6856
 9076SOL    HW138687   3.750   0.773   4.568 -0.1819  0.0928 -0.6481
 9076SOL    HW238688   3.712   0.797   4.713 -0.0538  1.8289  0.0582
 9077SOL     OW38689   3.661   3.484   5.305 -0.3433 -0.2198 -0.6077
 9077SOL    HW138690   3.648   3.574   5.274  0.3307 -0.1611 -0.7324
 9077SOL    HW238691   3.732   3.500   5.368 -1.9950  1.8319  0.7149
 9078SOL     OW38692   2.964   3.355   8.312  0.1038 -0.2758  0.3449
 9078SOL    HW138693   2.875   3.382   8.335  0.1478  1.7689 -1.9184
 9078SOL    HW238694   3.006   3.420   8.369  2.0618 -1.3043  0.0615
 9079SOL     OW38695   1.460   0.406  14.024 -0.4313  0.5165 -0.1095
 9079SOL    HW138696   1.516   0.354  14.082 -1.4458 -1.3532 -0.8181
 9079SOL    HW238697   1.520   0.480  14.012  1.0303 -0.3064  2.1579
 9080SOL     OW38698   0.868   1.525   4.788 -0.4523  0.1770  0.1831
 9080SOL    HW138699   0.920   1.500   4.864 -0.5006  0.2502  0.2404
 9080SOL    HW238700   0.913   1.489   4.712 -0.1611 -2.9717  1.8144
 9081SOL     OW38701   0.612   2.509   3.024 -0.4514  0.1952 -0.4143
 9081SOL    HW138702   0.541   2.571   3.041 -1.1600 -1.2211  1.7427
 9081SOL    HW238703   0.666   2.559   2.963  1.0010 -1.4375 -0.4678
 9082SOL     OW38704   1.207   3.837   5.308 -0.0554  0.4565  0.3184
 9082SOL    HW138705   1.151   3.903   5.348  2.5586  1.6804  1.9817
 9082SOL    HW238706   1.160   3.795   5.236  1.7247 -1.6295  0.3601
 9083SOL     OW38707   4.457   0.718   9.526 -0.2163  0.2824  0.6026
 9083SOL    HW138708   4.500   0.802   9.546  2.1909 -0.2323 -2.4072
 9083SOL    HW238709   4.418   0.696   9.611  0.0115 -0.8488  0.4161
 9084SOL     OW38710   3.118   1.658   9.702 -0.2029 -0.0395  0.6332
 9084SOL    HW138711   3.156   1.687   9.620 -0.1251  1.4335  1.1870
 9084SOL    HW238712   3.035   1.613   9.685 -0.8967 -0.1352  4.0954
 9085SOL     OW38713   3.271   3.907   7.637 -0.1233 -0.1425  0.1802
 9085SOL    HW138714   3.264   3.915   7.542 -0.5843 -0.7682  0.1555
 9085SOL    HW238715   3.201   3.965   7.666 -1.4831 -1.9053  0.4412
 9086SOL     OW38716   3.060   2.525   2.087 -0.0662  0.6897  0.2864
 9086SOL    HW138717   3.033   2.477   2.009  0.1644 -2.0954  1.8891
 9086SOL    HW238718   3.019   2.610   2.070 -0.1366  0.8465  1.2292
 9087SOL     OW38719   3.018   2.504   9.668 -0.3071  0.0328 -0.0660
 9087SOL    HW138720   3.051   2.513   9.579 -1.1949 -2.8547 -0.6865
 9087SOL    HW238721   3.095   2.498   9.724 -0.5314  0.9493  0.3477
 9088SOL     OW38722   2.703   4.064   1.268 -0.1912 -0.2779  0.1567
 9088SOL    HW138723   2.631   4.029   1.216  0.3149 -0.8493 -0.1565
 9088SOL    HW238724   2.774   4.085   1.208 -3.6539 -1.6635 -4.4112
 9089SOL     OW38725   0.113   0.026   1.070 -0.4141  0.0244  0.0921
 9089SOL    HW138726   0.082   0.095   1.129 -2.5505 -1.1178  0.3120
 9089SOL    HW238727   0.197   0.003   1.110  0.2920  3.8408  0.7858
 9090SOL     OW38728   2.737   0.531   8.833 -0.4131  0.1187 -0.3767
 9090SOL    HW138729   2.725   0.542   8.739 -2.9328  0.3594 -0.0283
 9090SOL    HW238730   2.647   0.551   8.860  0.0933  1.5938  0.1675
 9091SOL     OW38731   3.869   4.244   2.770  0.5154  0.5524 -0.0854
 9091SOL    HW138732   3.872   4.165   2.715 -0.8532  2.4432 -2.8467
 9091SOL    HW238733   3.954   4.287   2.758  1.1265 -0.0812  1.9067
 9092SOL     OW38734   3.185   1.020   7.516 -0.0826  0.6583 -0.2697
 9092SOL    HW138735   3.160   1.019   7.424 -0.7155 -0.6362 -0.0815
 9092SOL    HW238736   3.236   0.939   7.508 -2.5059 -1.0660  1.6456
 9093SOL     OW38737   4.134   3.036   3.062  0.2979  0.3752 -0.3487
 9093SOL    HW138738   4.047   3.022   3.102  1.0324 -2.0532  0.3939
 9093SOL    HW238739   4.108   3.026   2.970 -0.9045  0.4977 -0.0319
 9094SOL     OW38740   1.986   3.883   2.220 -0.9717 -0.4811 -0.1227
 9094SOL    HW138741   2.011   3.931   2.299 -0.3461  2.2675 -1.9684
 9094SOL    HW238742   1.905   3.928   2.195 -1.1488  0.0030  1.3388
 9095SOL     OW38743   1.190   0.586  17.296  0.2764 -0.5992  0.2830
 9095SOL    HW138744   1.104   0.596  17.335  0.9422  1.0377  1.3508
 9095SOL    HW238745   1.175   0.636  17.216 -0.2562 -1.2952 -0.0480
 9096SOL     OW38746   0.055   2.722  11.128  0.0143 -0.4194 -0.4653
 9096SOL    HW138747   0.036   2.700  11.219 -0.6660 -0.3551 -0.5929
 9096SOL    HW238748   0.016   2.650  11.079 -1.1387  0.5927 -1.0395
 9097SOL     OW38749   4.400   0.890  12.493 -0.0694 -0.1678  0.1071
 9097SOL    HW138750   4.363   0.974  12.467 -0.1969 -0.6311 -1.1821
 9097SOL    HW238751   4.405   0.914  12.586  1.3028  0.6025 -0.1652
 9098SOL     OW38752   1.884   4.653  17.179  0.1137  0.0636 -0.4895
 9098SOL    HW138753   1.833   4.653  17.259  1.2413 -1.7074  0.2235
 9098SOL    HW238754   1.965   4.662  17.229 -0.4118  1.2784  0.1566
 9099SOL     OW38755   2.748   0.270   2.319 -0.3908  0.5678  0.5232
 9099SOL    HW138756   2.789   0.215   2.386 -0.4330  1.1950  1.0614
 9099SOL    HW238757   2.701   0.327   2.379 -2.8766 -2.2513  1.2923
 9100SOL     OW38758   0.229   3.157   7.472  0.4227  0.0676  0.0564
 9100SOL    HW138759   0.260   3.068   7.488 -0.4600 -0.1573  0.4878
 9100SOL    HW238760   0.135   3.146   7.482  0.3124 -0.0484 -1.1141
 9101SOL     OW38761   2.145   1.616  16.386  0.0705 -0.1534 -0.0468
 9101SOL    HW138762   2.226   1.653  16.351  0.7789 -1.8147 -0.1248
 9101SOL    HW238763   2.175   1.539  16.434  1.1274 -1.0519 -2.1405
 9102SOL     OW38764   0.098   1.567   1.707  0.4221  0.2601  0.1078
 9102SOL    HW138765   0.123   1.557   1.615  2.0473 -0.0478  0.5871
 9102SOL    HW238766   0.186   1.562   1.746  0.2361 -0.5664  0.4300
 9103SOL     OW38767   3.458   4.395   3.798 -0.3305 -0.3488  0.0661
 9103SOL    HW138768   3.475   4.309   3.835 -2.6450 -1.1158 -0.6975
 9103SOL    HW238769   3.476   4.458   3.868 -2.0013 -2.3160  2.2401
 9104SOL     OW38770   3.298   2.607   5.765  0.0421  0.1953  0.2825
 9104SOL    HW138771   3.314   2.574   5.676  1.9803 -0.0334  0.7205
 9104SOL    HW238772   3.322   2.530   5.817  1.2942 -0.0114 -0.6008
 9105SOL     OW38773   0.489   4.346   6.597 -0.1220  0.0388 -0.7523
 9105SOL    HW138774   0.462   4.263   6.637 -0.9775  0.3877 -0.6090
 9105SOL    HW238775   0.451   4.408   6.659  2.8917  0.0789  1.0342
 9106SOL     OW38776   2.078   0.758   3.583 -0.0551  0.4763 -0.2120
 9106SOL    HW138777   2.135   0.714   3.519  0.7180 -1.6672  1.9648
 9106SOL    HW238778   2.132   0.762   3.662 -0.4712  2.6022 -0.0324
 9107SOL     OW38779   4.278   2.679  14.176 -0.7000 -0.6787  0.5786
 9107SOL    HW138780   4.329   2.598  14.175 -1.6127 -1.2279 -1.4109
 9107SOL    HW238781   4.335   2.746  14.214  0.3674 -0.0462 -2.1521
 9108SOL     OW38782   4.623   3.890  14.598 -0.4511  0.3119 -0.3250
 9108SOL    HW138783   4.609   3.954  14.528 -2.7654 -0.2427 -0.3865
 9108SOL    HW238784   4.716   3.905  14.617 -0.4747  0.4919 -0.3562
 9109SOL     OW38785   0.230   1.281   2.277 -0.2181 -0.5787  0.2096
 9109SOL    HW138786   0.192   1.276   2.365 -3.1467 -0.6285 -1.0707
 9109SOL    HW238787   0.184   1.355   2.240 -0.0410 -0.7304 -0.3071
 9110SOL     OW38788   4.496   2.398   2.547  0.2593  0.0794 -0.3334
 9110SOL    HW138789   4.411   2.438   2.532  0.0644 -1.5161 -3.5468
 9110SOL    HW238790   4.538   2.404   2.461 -0.2366 -1.4278 -0.6717
 9111SOL     OW38791   2.782   3.102   7.724 -0.2322  0.0264  0.1731
 9111SOL    HW138792   2.814   3.191   7.738 -0.8614  0.1837  0.6101
 9111SOL    HW238793   2.796   3.098   7.630 -1.5321 -0.2881  0.0036
 9112SOL     OW38794   2.283   4.423   8.526  0.7776  0.5291 -0.3794
 9112SOL    HW138795   2.376   4.405   8.541  0.8990  0.1704 -1.5115
 9112SOL    HW238796   2.286   4.418   8.430  1.0193  0.8569 -0.3868
 9113SOL     OW38797   1.921   1.800   8.799 -0.8230  0.4676  0.5448
 9113SOL    HW138798   1.883   1.809   8.886  0.1642  1.4832  0.8741
 9113SOL    HW238799   1.846   1.767   8.749  0.0836  0.4506 -0.8191
 9114SOL     OW38800   3.514   4.121  11.512 -0.5022 -0.4617  0.0124
 9114SOL    HW138801   3.420   4.141  11.520 -0.3182  0.0832  0.7962
 9114SOL    HW238802   3.552   4.206  11.532 -0.9197 -0.5517  1.1923
 9115SOL     OW38803   0.130   3.862   4.603 -0.2451 -0.6479  0.5290
 9115SOL    HW138804   0.084   3.792   4.557 -1.1588  0.0532  0.3682
 9115SOL    HW238805   0.188   3.811   4.658  0.2328 -4.2953 -3.3416
 9116SOL     OW38806   4.064   0.827  14.833 -0.4169  0.1101  0.4669
 9116SOL    HW138807   3.985   0.801  14.786  0.2755 -1.5687  0.2230
 9116SOL    HW238808   4.113   0.865  14.760  0.4615 -1.5641  0.1733
 9117SOL     OW38809   3.802   2.295   8.388  0.0349 -0.3712  0.0030
 9117SOL    HW138810   3.844   2.216   8.423  1.6979 -0.1070 -1.3766
 9117SOL    HW238811   3.726   2.254   8.347 -0.6338  0.2297  0.6418
 9118SOL     OW38812   2.310   3.876   7.024 -0.1439 -0.1906 -0.3653
 9118SOL    HW138813   2.362   3.810   7.069 -0.3156 -0.7014 -0.9221
 9118SOL    HW238814   2.257   3.918   7.092 -0.3894  0.1146 -0.7482
 9119SOL     OW38815   1.188   0.974   7.441 -0.0281  0.0795  0.0859
 9119SOL    HW138816   1.160   0.899   7.493  1.0244 -0.6080 -0.3517
 9119SOL    HW238817   1.108   1.019   7.414 -0.6084  0.3953  2.2752
 9120SOL     OW38818   1.457   0.273   6.154 -0.1159 -0.6202  0.4118
 9120SOL    HW138819   1.409   0.197   6.189  2.0372 -2.4707 -0.6483
 9120SOL    HW238820   1.493   0.316   6.231  0.3652  2.1987 -1.4053
 9121SOL     OW38821   2.145   0.775  17.105 -0.0998  0.4114 -0.2065
 9121SOL    HW138822   2.106   0.860  17.129 -0.4878  0.4337 -0.9270
 9121SOL    HW238823   2.114   0.721  17.178 -0.0582  1.2947  0.4632
 9122SOL     OW38824   1.747   3.013   3.716  0.1047  0.2720  0.5294
 9122SOL    HW138825   1.780   2.957   3.787  0.8842 -0.9120 -0.7865
 9122SOL    HW238826   1.808   3.087   3.716 -0.4258  0.6976 -0.1596
 9123SOL     OW38827   3.145   3.813   1.725  0.2264  0.4060 -0.3733
 9123SOL    HW138828   3.067   3.863   1.751  0.7936  2.1687 -2.0694
 9123SOL    HW238829   3.152   3.855   1.639 -0.0600  0.7443 -0.2297
 9124SOL     OW38830   3.935   0.987   7.536  0.1026 -0.3472  0.3110
 9124SOL    HW138831   4.017   0.962   7.493 -0.4869  0.7051 -1.4305
 9124SOL    HW238832   3.951   0.946   7.621 -1.5814 -2.1449 -0.2235
 9125SOL     OW38833   4.711   2.685   1.812 -0.3932 -0.5952 -0.1433
 9125SOL    HW138834   4.660   2.701   1.732  3.3078  3.9443 -1.6088
 9125SOL    HW238835   4.715   2.770   1.856 -1.4828 -1.0944  0.9129
 9126SOL     OW38836   4.380   4.443   3.429 -0.2286 -0.2971 -0.0285
 9126SOL    HW138837   4.310   4.378   3.439  1.6971 -2.2514  0.8737
 9126SOL    HW238838   4.364   4.479   3.342 -0.5829 -0.2704  0.0478
 9127SOL     OW38839   0.595   4.043  11.736  0.1140 -0.0917 -0.0374
 9127SOL    HW138840   0.544   4.123  11.745  1.2832  0.9551 -2.7449
 9127SOL    HW238841   0.570   4.016  11.648  0.9258 -0.1007 -0.2704
 9128SOL     OW38842   1.724   4.305  10.106 -0.6902 -0.1726  0.1911
 9128SOL    HW138843   1.673   4.384  10.089 -1.5571 -0.6094  0.6997
 9128SOL    HW238844   1.678   4.274  10.185 -0.5899  0.0597  0.3404
 9129SOL     OW38845   1.923   2.277  12.582 -0.0163 -0.0590  0.3099
 9129SOL    HW138846   1.926   2.209  12.649  0.1928  0.5973  0.9628
 9129SOL    HW238847   1.943   2.217  12.510 -0.2462  0.6342 -0.3380
 9130SOL     OW38848   2.806   3.309   3.044  0.1418  0.6312 -0.0028
 9130SOL    HW138849   2.840   3.248   2.978 -0.3886 -0.5784  0.8267
 9130SOL    HW238850   2.779   3.253   3.117  0.8694 -0.0349 -0.2417
 9131SOL     OW38851   1.455   2.135   6.008 -0.4189  0.8262 -0.4185
 9131SOL    HW138852   1.415   2.160   5.924 -0.4840 -0.1551 -0.6771
 9131SOL    HW238853   1.388   2.162   6.072 -1.6521  1.8176 -2.1242
 9132SOL     OW38854   3.296   3.325   3.005 -0.4832  0.7981 -0.0769
 9132SOL    HW138855   3.287   3.420   3.006 -1.0645  0.7297  0.7026
 9132SOL    HW238856   3.379   3.296   3.044 -0.9381  0.8599  0.9169
 9133SOL     OW38857   4.686   1.447  12.590 -0.1135 -0.2489 -0.2959
 9133SOL    HW138858   4.714   1.538  12.606  0.4845 -0.9331  2.5402
 9133SOL    HW238859   0.019   1.421  12.518  1.5006 -0.7407  1.1424
 9134SOL     OW38860   4.097   1.994  11.735  0.7639 -0.2343 -0.4389
 9134SOL    HW138861   4.047   1.988  11.653  1.3455  1.7079 -0.9369
 9134SOL    HW238862   4.051   2.065  11.780 -1.7724 -1.1146 -1.6132
 9135SOL     OW38863   1.037   1.734  10.000 -0.6872  0.5857  0.1248
 9135SOL    HW138864   0.969   1.742   9.932 -2.1756 -1.1233  1.4310
 9135SOL    HW238865   0.980   1.734  10.077 -1.7593 -1.7702 -0.7028
 9136SOL     OW38866   2.396   0.582  14.485  0.4880  0.3259 -0.1290
 9136SOL    HW138867   2.470   0.613  14.537  0.2710 -0.8946  0.9037
 9136SOL    HW238868   2.329   0.625  14.537 -1.3144 -1.2330 -1.1526
 9137SOL     OW38869   1.161   4.661   2.141  0.2943  0.5434  0.2059
 9137SOL    HW138870   1.194   4.682   2.053 -2.9468 -1.8666 -1.6016
 9137SOL    HW238871   1.243   4.657   2.191  0.4312 -0.1665 -0.0744
 9138SOL     OW38872   2.073   2.603   2.703 -0.6731 -0.3954  0.3232
 9138SOL    HW138873   1.990   2.630   2.742 -1.1902  0.5815 -1.4526
 9138SOL    HW238874   2.108   2.690   2.686 -0.4741 -0.5804 -0.2289
 9139SOL     OW38875   0.088   1.198   1.154  0.1857  0.6868 -0.3641
 9139SOL    HW138876   0.172   1.168   1.120  0.6088 -0.8649  2.0289
 9139SOL    HW238877   0.085   1.278   1.102  0.8284  2.0703  1.7177
 9140SOL     OW38878   1.199   3.694   8.121  0.3587 -0.4509 -0.0410
 9140SOL    HW138879   1.154   3.779   8.121 -2.0436 -1.6905 -1.3486
 9140SOL    HW238880   1.256   3.699   8.044  0.7425 -0.4927  0.2429
 9141SOL     OW38881   2.944   4.390   7.871  0.5702 -0.4394 -1.1643
 9141SOL    HW138882   3.014   4.351   7.820 -0.0597 -1.7553 -1.0334
 9141SOL    HW238883   2.997   4.459   7.911 -0.4514  1.3888 -2.9779
 9142SOL     OW38884   2.582   4.690   8.449  0.0126 -0.5995 -0.0954
 9142SOL    HW138885   2.670   4.680   8.483  0.7942  1.2788 -1.5472
 9142SOL    HW238886   2.518   4.671   8.518  1.2216 -0.8905  0.9383
 9143SOL     OW38887   0.560   3.119   7.789 -0.1698  0.0337  0.3002
 9143SOL    HW138888   0.612   3.126   7.869 -0.3643  1.5146  0.2902
 9143SOL    HW238889   0.630   3.112   7.725  0.0911 -1.0168  0.6952
 9144SOL     OW38890   0.750   1.750   6.469  0.0283 -0.7696  0.0517
 9144SOL    HW138891   0.720   1.734   6.558 -2.6475  0.6434 -0.5851
 9144SOL    HW238892   0.843   1.732   6.475  0.5714  1.7562 -0.8972
 9145SOL     OW38893   2.723   2.364   5.699 -0.2386  0.4521  0.0291
 9145SOL    HW138894   2.791   2.432   5.698  1.9604 -1.7457  0.4367
 9145SOL    HW238895   2.764   2.295   5.750 -1.3729 -0.3568 -0.1627
 9146SOL     OW38896   0.261   1.875  10.549 -0.1463  0.2266  0.3112
 9146SOL    HW138897   0.188   1.813  10.558 -0.9351  1.0424 -0.5256
 9146SOL    HW238898   0.282   1.864  10.456  0.9904  0.6819  0.5114
 9147SOL     OW38899   4.353   3.776   1.978 -0.1896 -0.0888 -0.1218
 9147SOL    HW138900   4.448   3.767   1.967 -0.0651 -1.2176  1.8136
 9147SOL    HW238901   4.335   3.858   1.931 -1.9400 -0.8476 -0.7733
 9148SOL     OW38902   0.103   0.007   3.821 -0.1378 -0.2502  0.4677
 9148SOL    HW138903   0.010   0.009   3.798 -0.4205  0.1530  1.6731
 9148SOL    HW238904   0.140   0.057   3.748 -0.2161 -0.7403  0.0834
 9149SOL     OW38905   1.002   2.034  15.878 -0.1361  0.0028  0.3782
 9149SOL    HW138906   0.948   2.063  15.951  0.9314  2.0605  0.3502
 9149SOL    HW238907   1.009   1.939  15.891  2.4247 -0.0128 -1.1362
 9150SOL     OW38908   4.533   2.892  14.734  0.6039  0.1739  0.4681
 9150SOL    HW138909   4.619   2.923  14.706  1.3766 -1.8512  0.6412
 9150SOL    HW238910   4.528   2.807  14.691 -0.3302  1.4801 -1.9425
 9151SOL     OW38911   2.742   1.469  12.089  0.0820  0.5078  0.2722
 9151SOL    HW138912   2.728   1.417  12.168  1.0054 -0.4753 -0.2104
 9151SOL    HW238913   2.658   1.454  12.045  0.1202 -0.7688  0.6429
 9152SOL     OW38914   3.763   0.897  13.401 -0.8620  1.0061  0.0498
 9152SOL    HW138915   3.847   0.934  13.430 -0.7974  0.4473  0.5719
 9152SOL    HW238916   3.781   0.873  13.310  0.9143  0.6508  0.4785
 9153SOL     OW38917   4.592   2.830   4.603 -0.0546 -0.1223 -0.4878
 9153SOL    HW138918   4.643   2.790   4.533 -0.4601  1.6357 -1.7989
 9153SOL    HW238919   4.605   2.922   4.581 -3.0300  0.3771 -0.1257
 9154SOL     OW38920   3.650   4.092   2.305  0.0174 -0.1690 -0.1369
 9154SOL    HW138921   3.707   4.043   2.245 -0.9140 -1.2641 -0.1252
 9154SOL    HW238922   3.565   4.071   2.268 -1.7467  4.4476  1.2508
 9155SOL     OW38923   3.741   3.157   7.130 -0.1010 -0.2054 -0.2237
 9155SOL    HW138924   3.688   3.099   7.075  1.1074 -1.0766 -0.4548
 9155SOL    HW238925   3.780   3.205   7.057 -1.9067  0.0303 -1.0259
 9156SOL     OW38926   4.126   3.499   2.350  0.2032  0.1683  0.2851
 9156SOL    HW138927   4.115   3.587   2.315 -1.5824 -0.7039 -1.3416
 9156SOL    HW238928   4.106   3.442   2.276  1.5847 -0.3911  0.3445
 9157SOL     OW38929   0.783   1.374   8.295 -0.2349  0.1015 -0.1404
 9157SOL    HW138930   0.802   1.281   8.281  0.5023  0.0798  0.9442
 9157SOL    HW238931   0.869   1.416   8.299 -0.3982  0.3040  1.4616
 9158SOL     OW38932   4.569   3.593   5.040 -0.4300  0.1768 -0.4905
 9158SOL    HW138933   4.661   3.616   5.029 -1.1285  2.1282 -2.0810
 9158SOL    HW238934   4.585   3.499   5.026 -0.3182 -0.1597  1.8011
 9159SOL     OW38935   1.744   0.633   3.197 -0.3665  0.4583 -0.1671
 9159SOL    HW138936   1.819   0.603   3.146 -0.6188 -0.0657 -0.2356
 9159SOL    HW238937   1.676   0.565   3.195  0.7034 -0.4685 -4.0162
 9160SOL     OW38938   2.558   3.237   3.831 -0.0908  0.3122  0.3420
 9160SOL    HW138939   2.588   3.188   3.754 -0.8668  0.5887 -0.1273
 9160SOL    HW238940   2.468   3.209   3.845 -0.4351  0.1991 -2.0926
 9161SOL     OW38941   3.250   0.772   5.527  0.3206 -0.2392 -0.2444
 9161SOL    HW138942   3.254   0.798   5.435  0.2804 -2.2180 -0.8013
 9161SOL    HW238943   3.157   0.751   5.534  0.2346  0.5376  0.8897
 9162SOL     OW38944   3.234   2.328   7.272 -0.3140 -0.0488  0.1426
 9162SOL    HW138945   3.151   2.280   7.283 -1.9121  2.6160 -0.3250
 9162SOL    HW238946   3.208   2.404   7.323  0.3264  0.6803 -0.6185
 9163SOL     OW38947   4.037   0.550  12.186  0.3821  0.2128 -0.2791
 9163SOL    HW138948   4.120   0.546  12.138  1.9209 -2.2692  2.5552
 9163SOL    HW238949   3.981   0.576  12.113 -0.0153  0.5529  0.1451
 9164SOL     OW38950   4.309   1.855   3.698  0.1197 -0.1300  0.0074
 9164SOL    HW138951   4.288   1.799   3.774 -1.9254  1.5887  0.7165
 9164SOL    HW238952   4.244   1.925   3.707  1.2237  0.7110  1.3410
 9165SOL     OW38953   3.805   3.475   3.436 -0.1284 -0.0537  0.0102
 9165SOL    HW138954   3.864   3.548   3.420  1.1970 -0.9408  0.8750
 9165SOL    HW238955   3.838   3.444   3.520  1.1238  0.7708 -0.1816
 9166SOL     OW38956   3.335   0.968   3.446 -0.1882  0.5713 -0.0100
 9166SOL    HW138957   3.313   0.961   3.539 -1.8354  1.9346 -0.2950
 9166SOL    HW238958   3.416   1.018   3.443 -0.4771  1.1707  2.4729
 9167SOL     OW38959   2.438   2.892   3.306 -0.3643  0.4352  0.7704
 9167SOL    HW138960   2.524   2.862   3.278 -0.3508  0.3738  0.8769
 9167SOL    HW238961   2.383   2.853   3.238  0.7004  0.9820 -0.4007
 9168SOL     OW38962   0.576   1.823   3.540 -0.0036  0.0261  0.1618
 9168SOL    HW138963   0.512   1.788   3.601  1.0103 -3.3896 -0.7235
 9168SOL    HW238964   0.526   1.840   3.460 -1.8034 -0.5198  1.1750
 9169SOL     OW38965   1.176   2.983  11.579  0.1647  0.3192  0.7438
 9169SOL    HW138966   1.141   3.037  11.649  2.1834  0.0656  1.9435
 9169SOL    HW238967   1.102   2.995  11.519 -0.5246 -0.2653  1.4751
 9170SOL     OW38968   0.081   2.164  15.288 -0.0760 -0.0367 -0.0086
 9170SOL    HW138969   0.131   2.141  15.366 -0.8392 -2.4125 -0.2255
 9170SOL    HW238970   0.060   2.248  15.330 -2.7982 -1.2630  1.0723
 9171SOL     OW38971   4.379   2.716  10.617  0.0838  0.3672 -0.0248
 9171SOL    HW138972   4.368   2.659  10.693  0.7311 -0.4733 -0.5696
 9171SOL    HW238973   4.335   2.667  10.548 -1.6766  0.9909  0.6473
 9172SOL     OW38974   2.232   1.749  16.648  0.0936  0.4653  0.3826
 9172SOL    HW138975   2.179   1.712  16.718 -1.1698 -0.3037 -0.9748
 9172SOL    HW238976   2.182   1.704  16.581 -0.3380 -0.1014  1.0914
 9173SOL     OW38977   2.196   3.147   3.053  0.4455  0.3481  0.5129
 9173SOL    HW138978   2.191   3.107   2.967  0.1507 -1.5139  1.4071
 9173SOL    HW238979   2.112   3.141   3.097 -0.0010  2.2360 -0.0944
 9174SOL     OW38980   1.500   4.148   7.314 -0.0472 -0.2594  0.3761
 9174SOL    HW138981   1.424   4.205   7.300 -1.8072 -2.8059 -0.3835
 9174SOL    HW238982   1.484   4.086   7.244 -1.0176 -0.4246  0.7456
 9175SOL     OW38983   2.488   2.765  16.819  0.5088  0.1911  0.5757
 9175SOL    HW138984   2.517   2.709  16.746  1.5669 -0.0427  1.1685
 9175SOL    HW238985   2.420   2.813  16.772 -0.1019 -2.3109 -1.0905
 9176SOL     OW38986   3.889   2.127   8.829 -0.4657  0.3784 -0.4399
 9176SOL    HW138987   3.797   2.130   8.854 -0.0043  0.2573  1.2242
 9176SOL    HW238988   3.935   2.094   8.906  0.7365 -0.7906 -1.6551
 9177SOL     OW38989   0.394   2.496   7.046 -0.7388 -0.0661  0.0129
 9177SOL    HW138990   0.307   2.505   7.007 -0.0678  0.1640 -1.3984
 9177SOL    HW238991   0.451   2.479   6.971 -1.7350  0.6770 -0.9215
 9178SOL     OW38992   3.439   3.379   4.262  0.2691 -0.1014  0.3334
 9178SOL    HW138993   3.438   3.474   4.270 -0.7534 -0.0929  0.1455
 9178SOL    HW238994   3.478   3.350   4.345  1.7072  2.0152  0.3700
 9179SOL     OW38995   0.156   0.754   2.641 -0.5492 -0.3319  0.0013
 9179SOL    HW138996   0.084   0.727   2.699 -2.0163  2.3020 -0.5760
 9179SOL    HW238997   0.213   0.678   2.649  0.0453  0.1168 -0.0233
 9180SOL     OW38998   4.065   1.919   7.837  0.4090 -0.5483  0.4954
 9180SOL    HW138999   3.970   1.918   7.838  0.3749  1.3149 -0.7163
 9180SOL    HW239000   4.100   1.923   7.926  0.8155 -2.7982  0.4485
 9181SOL     OW39001   1.705   2.916   2.357  0.1004  0.2328  0.1388
 9181SOL    HW139002   1.660   2.918   2.272  0.4309  1.6030 -0.0112
 9181SOL    HW239003   1.793   2.944   2.331  0.2728 -2.0271 -1.7231
 9182SOL     OW39004   2.933   3.789   6.524 -1.0062 -0.4251 -0.7066
 9182SOL    HW139005   3.011   3.775   6.577 -0.1581 -0.9784 -2.0857
 9182SOL    HW239006   2.923   3.699   6.493 -0.0084 -0.1912 -1.7245
 9183SOL     OW39007   3.447   1.514  11.557 -0.5636 -0.0297 -0.0149
 9183SOL    HW139008   3.408   1.588  11.509  1.5383  0.1874 -1.3916
 9183SOL    HW239009   3.409   1.437  11.516 -0.2047 -0.2382  0.0443
 9184SOL     OW39010   4.270   4.651   8.533  0.8180 -0.0074 -0.1444
 9184SOL    HW139011   4.302   4.562   8.550  0.4865 -0.1855 -0.4597
 9184SOL    HW239012   4.217   4.650   8.613  0.0808  0.0501 -0.6374
 9185SOL     OW39013   3.281   1.291   2.881  0.2928  0.4244  0.0931
 9185SOL    HW139014   3.232   1.212   2.856 -2.2088  1.1804  2.6282
 9185SOL    HW239015   3.362   1.250   2.912  1.7534  0.1707 -4.0164
 9186SOL     OW39016   2.875   4.411  12.501 -0.6164 -0.0982  0.1467
 9186SOL    HW139017   2.896   4.473  12.430  0.2710 -0.0343  0.4617
 9186SOL    HW239018   2.899   4.333  12.450 -2.4252 -0.5406 -0.0301
 9187SOL     OW39019   4.720   2.938   4.972 -0.4339 -0.2303 -0.4870
 9187SOL    HW139020   4.651   2.899   4.919 -1.3923 -0.0165  0.5929
 9187SOL    HW239021   4.674   2.953   5.055 -0.2414  3.5648 -1.0858
 9188SOL     OW39022   1.571   1.976   7.551 -0.5213  0.0543  0.4653
 9188SOL    HW139023   1.654   1.951   7.509 -0.5173 -2.1501  1.7457
 9188SOL    HW239024   1.544   2.054   7.502  0.8981  0.4090  0.2455
 9189SOL     OW39025   0.875   2.443   0.548 -0.3683  0.1830  0.1066
 9189SOL    HW139026   0.901   2.513   0.489 -0.2633 -1.2655 -1.5772
 9189SOL    HW239027   0.901   2.474   0.634  0.6823 -0.3034 -0.0307
 9190SOL     OW39028   2.951   4.178   8.753 -0.0425  0.4387  0.1067
 9190SOL    HW139029   3.039   4.155   8.781  0.1154 -0.8159 -1.3987
 9190SOL    HW239030   2.903   4.120   8.813 -2.0879  0.8130 -1.1575
 9191SOL     OW39031   2.982   3.040   1.214  0.5983 -0.4033  0.3323
 9191SOL    HW139032   2.912   2.996   1.263  2.5341  0.1064  3.5649
 9191SOL    HW239033   3.004   2.980   1.143  0.7961  1.8867 -1.5245
 9192SOL     OW39034   0.140   2.261   4.891  0.0122 -0.4108  0.4862
 9192SOL    HW139035   0.105   2.320   4.824 -1.2793 -0.5994  0.9857
 9192SOL    HW239036   0.155   2.323   4.961  0.5633 -3.2688  2.8996
 9193SOL     OW39037   3.783   2.087   1.610  0.8359  0.1627  0.2467
 9193SOL    HW139038   3.688   2.085   1.618  0.8054 -1.4419 -0.3900
 9193SOL    HW239039   3.796   2.178   1.586 -1.4144  0.7387  1.2528
 9194SOL     OW39040   1.418   1.217  13.424 -0.4999 -0.1680 -0.0095
 9194SOL    HW139041   1.393   1.287  13.483 -1.7570 -1.2846  0.7868
 9194SOL    HW239042   1.457   1.265  13.350 -1.9206 -0.1398 -0.7280
 9195SOL     OW39043   0.010   1.120   0.414 -0.2437  0.2033  0.1514
 9195SOL    HW139044   4.713   1.031   0.442  1.8414 -0.9457 -1.9049
 9195SOL    HW239045   4.666   1.143   0.351  1.0015  1.9972 -0.5057
 9196SOL     OW39046   0.692   0.372   5.756  0.2122  0.3870  0.3172
 9196SOL    HW139047   0.639   0.448   5.783 -0.6412 -0.2796  0.5337
 9196SOL    HW239048   0.739   0.364   5.839 -1.4592 -1.1314  1.1241
 9197SOL     OW39049   3.157   3.503   8.494  0.3360 -0.4335  0.1698
 9197SOL    HW139050   3.125   3.593   8.502 -1.7219 -1.1364 -0.1477
 9197SOL    HW239051   3.246   3.519   8.524 -0.2266  0.0851  1.5928
 9198SOL     OW39052   0.221   1.013   2.213  0.2963  0.4493 -0.0015
 9198SOL    HW139053   0.226   1.088   2.271 -0.2593  1.6098 -1.4514
 9198SOL    HW239054   0.211   1.058   2.129  1.8001 -0.1213 -0.4928
 9199SOL     OW39055   3.887   2.051  12.478  0.2927  0.3600 -0.0082
 9199SOL    HW139056   3.961   2.062  12.418 -0.7904  0.9903 -1.2460
 9199SOL    HW239057   3.901   2.105  12.556 -0.1420 -1.5775  1.4027
 9200SOL     OW39058   2.295   0.810  15.768  0.5463 -0.7951 -0.3957
 9200SOL    HW139059   2.368   0.750  15.755  2.1227  1.0811 -0.2077
 9200SOL    HW239060   2.326   0.846  15.851 -1.4985 -0.6732  0.3200
 9201SOL     OW39061   2.089   1.377   7.938 -0.3402 -1.1494 -0.6441
 9201SOL    HW139062   2.159   1.322   7.974  0.5256 -0.3455 -1.1037
 9201SOL    HW239063   2.033   1.383   8.015 -0.5815 -2.2964 -0.7257
 9202SOL     OW39064   3.733   2.950   3.923 -0.0582 -0.1283 -0.5068
 9202SOL    HW139065   3.714   2.955   3.829 -2.7056 -0.0019  0.0263
 9202SOL    HW239066   3.822   2.986   3.926  0.6169 -2.0751  3.1216
 9203SOL     OW39067   0.076   1.807   4.618  0.3941 -0.2224 -0.2668
 9203SOL    HW139068   4.718   1.838   4.657 -0.5915  1.4696 -3.6788
 9203SOL    HW239069   0.137   1.816   4.691  3.0463  0.9363 -2.6341
 9204SOL     OW39070   2.959   1.642   2.872  0.0013 -0.4071 -0.1339
 9204SOL    HW139071   3.023   1.589   2.825  0.4592 -0.2533  0.3071
 9204SOL    HW239072   2.982   1.733   2.854 -0.2990 -0.3992 -0.4611
 9205SOL     OW39073   0.991   0.585   7.813  0.5289  0.5004 -0.5205
 9205SOL    HW139074   0.957   0.497   7.823  1.5696 -0.1828 -3.1249
 9205SOL    HW239075   0.916   0.636   7.844 -0.0824 -0.7012 -0.0628
 9206SOL     OW39076   2.042   4.210   0.033  0.2406 -0.0279 -0.0268
 9206SOL    HW139077   2.054   4.117   0.015  0.2174 -0.3627  1.7108
 9206SOL    HW239078   1.953   4.215  17.696  0.6663 -0.4910 -1.2344
 9207SOL     OW39079   1.467   1.444   6.426 -0.9594 -0.2862  0.0605
 9207SOL    HW139080   1.560   1.464   6.429 -1.4668  1.8114  1.6804
 9207SOL    HW239081   1.462   1.352   6.401  1.7802 -0.3467 -0.2663
 9208SOL     OW39082   1.716   2.789   0.671 -0.5699 -0.1105  0.4911
 9208SOL    HW139083   1.787   2.733   0.639 -1.8320 -0.2868 -1.9230
 9208SOL    HW239084   1.691   2.739   0.749  0.3875 -1.8217 -0.2980
 9209SOL     OW39085   4.173   0.403   6.846  0.1366 -0.1712  0.2940
 9209SOL    HW139086   4.191   0.486   6.892 -2.5374  0.3697  0.3862
 9209SOL    HW239087   4.086   0.423   6.811 -0.2244  0.1448  1.3478
 9210SOL     OW39088   4.660   4.279   2.542  0.5707  0.2765  0.0982
 9210SOL    HW139089   4.598   4.282   2.469  2.2270  0.4809 -1.2981
 9210SOL    HW239090   4.715   4.214   2.499 -0.9772 -1.3227  0.5486
 9211SOL     OW39091   1.199   1.300  13.712  0.4025  0.5944  0.4410
 9211SOL    HW139092   1.195   1.347  13.795  2.8484  1.2169  0.1994
 9211SOL    HW239093   1.236   1.363  13.650  0.0851 -0.0183 -0.3777
 9212SOL     OW39094   2.489   2.565   8.300  0.2257 -0.5630  0.3995
 9212SOL    HW139095   2.503   2.635   8.236  0.6241 -0.0917  1.0035
 9212SOL    HW239096   2.397   2.576   8.324 -0.4732  0.0207 -2.5044
 9213SOL     OW39097   2.950   2.230   6.237  0.5459  0.1403 -0.0431
 9213SOL    HW139098   3.014   2.195   6.299 -2.6303 -0.7902  2.6586
 9213SOL    HW239099   3.002   2.203   6.161 -0.6778 -0.1251 -0.7928
 9214SOL     OW39100   4.134   4.551   9.111  0.5049 -0.5191 -0.6054
 9214SOL    HW139101   4.208   4.492   9.095  2.0689  1.2246  0.1810
 9214SOL    HW239102   4.109   4.520   9.198 -0.2395  0.0073 -0.6331
 9215SOL     OW39103   1.850   0.753  13.771 -0.1504  0.1251 -0.1088
 9215SOL    HW139104   1.825   0.681  13.713 -0.5088 -0.3065  0.5902
 9215SOL    HW239105   1.763   0.792  13.782 -0.7932 -1.6242  0.9831
 9216SOL     OW39106   4.483   0.778   4.281  0.8968  0.2497  0.3830
 9216SOL    HW139107   4.527   0.842   4.225 -0.1006  0.5635 -0.0603
 9216SOL    HW239108   4.513   0.703   4.231 -1.3268 -0.2743 -0.1638
 9217SOL     OW39109   4.032   4.648   3.714  0.5650 -0.4958  0.1469
 9217SOL    HW139110   3.945   4.655   3.754  0.7789  1.5521  0.2817
 9217SOL    HW239111   4.022   4.557   3.687 -0.3377 -0.5608  0.7144
 9218SOL     OW39112   4.327   4.545   7.674  0.7688  0.4078 -0.1849
 9218SOL    HW139113   4.278   4.596   7.610  0.3582 -1.1328 -1.0987
 9218SOL    HW239114   4.409   4.594   7.672  1.0003  0.0421  0.4899
 9219SOL     OW39115   3.524   3.419   7.475 -0.1997  0.0809 -0.5195
 9219SOL    HW139116   3.535   3.513   7.460  1.3113 -0.1086 -0.6695
 9219SOL    HW239117   3.487   3.424   7.563  1.6227 -0.7412  0.3013
 9220SOL     OW39118   3.251   3.383   4.810  0.4375 -0.7796 -0.1530
 9220SOL    HW139119   3.335   3.395   4.766  0.8169 -0.8532  0.5445
 9220SOL    HW239120   3.261   3.438   4.888 -0.8807  2.4724 -2.2730
 9221SOL     OW39121   0.208   1.187   7.432  0.2510  0.1791 -0.2167
 9221SOL    HW139122   0.282   1.129   7.416 -0.2382 -0.2145 -1.0684
 9221SOL    HW239123   0.235   1.274   7.403 -0.7957  1.0392  1.3632
 9222SOL     OW39124   4.127   4.651  15.964  0.2152  0.1368  0.0377
 9222SOL    HW139125   4.120   0.015  15.926  0.1591  0.0527 -0.1448
 9222SOL    HW239126   4.213   4.616  15.940  0.3942  1.9425 -2.0231
 9223SOL     OW39127   3.958   1.274   5.927  0.4331 -0.2739  0.0036
 9223SOL    HW139128   4.010   1.194   5.919  2.3040  1.1082 -1.4803
 9223SOL    HW239129   3.977   1.291   6.020 -2.8794 -0.5044  0.7220
 9224SOL     OW39130   4.202   1.938   4.905  0.5454 -0.2468  0.3916
 9224SOL    HW139131   4.208   1.961   4.813 -2.9133 -1.5298 -0.1390
 9224SOL    HW239132   4.147   2.005   4.945  3.2117  0.2763  3.2841
 9225SOL     OW39133   0.606   0.295   8.458 -0.3347 -0.0424  0.4530
 9225SOL    HW139134   0.683   0.249   8.491 -1.7863 -2.2386  0.7727
 9225SOL    HW239135   0.564   0.223   8.412  1.3132  0.4962 -1.8616
 9226SOL     OW39136   1.180   3.595   9.356 -0.7708  0.6918 -0.1509
 9226SOL    HW139137   1.095   3.597   9.312 -0.6788 -0.3524 -0.3846
 9226SOL    HW239138   1.243   3.576   9.286 -0.4623  1.1341  0.0106
 9227SOL     OW39139   0.117   1.646   5.933  0.3014  0.2058  0.1830
 9227SOL    HW139140   0.154   1.610   5.852 -3.3826 -1.0690 -0.9584
 9227SOL    HW239141   0.025   1.661   5.908  0.2460 -0.2593  0.0969
 9228SOL     OW39142   0.381   1.242  17.471  0.1892 -0.1508 -0.5176
 9228SOL    HW139143   0.434   1.241  17.391  1.9918  0.5014  0.6707
 9228SOL    HW239144   0.418   1.319  17.514 -1.1793 -0.6182  1.4469
 9229SOL     OW39145   3.924   1.701   2.784 -0.5130  0.6930 -0.3351
 9229SOL    HW139146   3.970   1.620   2.758  0.8282  1.0926  0.7727
 9229SOL    HW239147   3.837   1.664   2.801 -1.3826  2.4198 -1.1230
 9230SOL     OW39148   3.187   4.543   8.424  0.5169 -0.5761 -0.6472
 9230SOL    HW139149   3.234   4.620   8.391  1.1241 -1.0895 -0.9880
 9230SOL    HW239150   3.181   4.556   8.518 -1.4041 -1.4063 -0.6410
 9231SOL     OW39151   1.570   3.146   6.696  0.6997 -0.2947 -0.0161
 9231SOL    HW139152   1.663   3.164   6.684  0.2804  1.0181 -1.3197
 9231SOL    HW239153   1.541   3.237   6.695  1.0906 -0.1668  0.4387
 9232SOL     OW39154   0.034   0.778   3.735 -0.6494  0.5158 -0.2748
 9232SOL    HW139155   4.705   0.800   3.658  0.1882 -0.7485 -1.1872
 9232SOL    HW239156   0.124   0.773   3.706 -0.3280  0.0502  0.7910
 9233SOL     OW39157   4.613   3.723   2.802  0.1930 -0.4591 -0.2530
 9233SOL    HW139158   4.562   3.752   2.727  0.4717 -0.2976 -0.3804
 9233SOL    HW239159   4.599   3.790   2.869  0.6407 -1.8076  1.2095
 9234SOL     OW39160   4.199   0.385   4.483  0.4981  0.1840  0.2810
 9234SOL    HW139161   4.191   0.299   4.524 -1.4701 -0.5374 -1.6670
 9234SOL    HW239162   4.242   0.431   4.555 -0.0374 -0.7808  1.2157
 9235SOL     OW39163   2.834   0.362   3.583  0.0225  0.3961  0.1999
 9235SOL    HW139164   2.840   0.316   3.667 -0.6659 -0.9184 -0.4619
 9235SOL    HW239165   2.925   0.346   3.559 -0.8084 -3.1612 -0.5969
 9236SOL     OW39166   1.357   3.307  12.785  0.1874  0.1463 -0.0788
 9236SOL    HW139167   1.411   3.250  12.840  3.4407  1.2186 -2.1767
 9236SOL    HW239168   1.424   3.363  12.747  0.0526 -0.7919 -1.6978
 9237SOL     OW39169   3.481   0.561  12.146  1.0088  0.1215 -0.2766
 9237SOL    HW139170   3.452   0.474  12.120 -0.2347  0.3200  0.4545
 9237SOL    HW239171   3.485   0.540  12.240  1.1248 -0.6172 -0.4501
 9238SOL     OW39172   1.789   1.312   4.958 -0.2326  0.1815 -0.4413
 9238SOL    HW139173   1.793   1.376   5.029 -0.2597 -1.0171  0.6211
 9238SOL    HW239174   1.818   1.363   4.881 -1.5988 -2.0427 -2.4194
 9239SOL     OW39175   1.512   4.336   0.506 -0.0136 -0.5922  0.3585
 9239SOL    HW139176   1.526   4.273   0.577 -0.4625 -2.0959 -0.8960
 9239SOL    HW239177   1.437   4.386   0.538 -1.2125 -3.5081  2.0882
 9240SOL     OW39178   0.337   4.580   7.243  0.1999 -0.3161  0.5712
 9240SOL    HW139179   0.251   4.596   7.205  0.7322 -2.3685 -1.4718
 9240SOL    HW239180   0.317   4.616   7.330 -1.3161  0.6730 -0.1982
 9241SOL     OW39181   4.309   3.864   2.237 -0.2765 -0.2488  0.4317
 9241SOL    HW139182   4.339   3.844   2.149 -0.1391 -0.8185  0.6112
 9241SOL    HW239183   4.219   3.832   2.240  0.2644 -1.8354 -0.6047
 9242SOL     OW39184   1.191   4.297  17.001  0.2355  0.1925 -0.0931
 9242SOL    HW139185   1.143   4.281  16.920  0.1375  0.7013 -0.1322
 9242SOL    HW239186   1.255   4.226  16.993 -0.4909 -0.2659 -1.8298
 9243SOL     OW39187   2.724   3.779   3.215  0.1239  0.7370 -0.1009
 9243SOL    HW139188   2.664   3.824   3.155  0.9194  0.2360 -1.2898
 9243SOL    HW239189   2.724   3.689   3.183 -0.8994 -0.2116  2.5882
 9244SOL     OW39190   1.134   2.337   2.103 -0.0249 -0.3456  0.1049
 9244SOL    HW139191   1.155   2.318   2.012  0.2679  1.5207 -0.2106
 9244SOL    HW239192   1.165   2.260   2.152 -2.7267 -0.3880  1.7918
 9245SOL     OW39193   1.358   3.589  10.636  0.1503  0.2202 -0.2598
 9245SOL    HW139194   1.351   3.499  10.605  1.3730  0.0495 -0.0400
 9245SOL    HW239195   1.446   3.614  10.606 -0.7671  2.9894 -0.6449
 9246SOL     OW39196   4.534   0.830   6.301  0.0403 -0.3531 -0.3271
 9246SOL    HW139197   4.454   0.862   6.342  0.6109  1.5184 -0.6943
 9246SOL    HW239198   4.593   0.840   6.376  0.9929  1.2949 -1.2963
 9247SOL     OW39199   2.494   2.851   1.194 -0.2810 -0.1343 -0.4110
 9247SOL    HW139200   2.574   2.885   1.155  0.8746 -0.5403  1.5990
 9247SOL    HW239201   2.442   2.924   1.161  1.3806  1.1263 -0.2696
 9248SOL     OW39202   0.662   1.841   3.941 -0.1309  0.2475 -0.2517
 9248SOL    HW139203   0.580   1.848   3.990  0.4285 -1.7962  0.9577
 9248SOL    HW239204   0.673   1.749   3.918 -0.4729 -0.3892  2.1276
 9249SOL     OW39205   3.325   1.454   3.341  0.2845 -0.7563  0.2003
 9249SOL    HW139206   3.277   1.495   3.269 -1.1885 -0.3523  1.3911
 9249SOL    HW239207   3.292   1.366   3.327 -0.2116 -0.7772  1.4552
 9250SOL     OW39208   2.579   0.293  11.971 -0.4770  0.0398 -0.2520
 9250SOL    HW139209   2.526   0.357  12.017  0.8215 -0.4784  1.9943
 9250SOL    HW239210   2.567   0.323  11.881 -0.8449  1.7519  0.3773
 9251SOL     OW39211   0.874   4.224   7.303  0.4224  0.8586 -0.0831
 9251SOL    HW139212   0.963   4.226   7.338  0.9031 -0.8255 -1.2499
 9251SOL    HW239213   0.835   4.147   7.344 -0.7667  2.0424  1.0428
 9252SOL     OW39214   0.125   4.481  11.582  0.2135  0.3587  0.6364
 9252SOL    HW139215   0.094   4.570  11.566 -1.2098 -0.7646 -2.8823
 9252SOL    HW239216   0.043   4.432  11.581 -0.6660  1.8859 -1.4317
 9253SOL     OW39217   4.370   3.296   1.114  0.2166 -0.4538  0.5623
 9253SOL    HW139218   4.358   3.231   1.183  1.1932 -0.3765  0.8169
 9253SOL    HW239219   4.381   3.381   1.157  0.5255 -0.8584  1.2752
 9254SOL     OW39220   2.514   0.215   2.540 -0.1429 -0.4157 -0.5722
 9254SOL    HW139221   2.457   0.159   2.592  2.8643 -2.0821  0.8758
 9254SOL    HW239222   2.599   0.214   2.584 -0.1833  0.8665 -0.4721
 9255SOL     OW39223   2.004   2.189   7.901  0.0612 -0.1495  0.2038
 9255SOL    HW139224   2.070   2.121   7.888  1.7902  1.6774 -0.5850
 9255SOL    HW239225   2.045   2.241   7.971 -0.1559  1.0785 -0.5965
 9256SOL     OW39226   0.444   0.995   0.879  0.7681  0.8080  0.0007
 9256SOL    HW139227   0.521   0.942   0.899 -0.2702 -0.3207  1.0160
 9256SOL    HW239228   0.450   1.032   0.791  1.2008  0.1368 -0.2505
 9257SOL     OW39229   0.472   1.645  17.245 -0.3886 -0.4121  0.5001
 9257SOL    HW139230   0.416   1.639  17.322 -2.5769  0.1066 -1.0391
 9257SOL    HW239231   0.454   1.733  17.210  0.5612 -1.0361 -1.5781
 9258SOL     OW39232   1.118   1.708   1.369  0.3782  0.2880  0.1219
 9258SOL    HW139233   1.167   1.628   1.385 -0.6250  0.1607  2.4999
 9258SOL    HW239234   1.103   1.704   1.274  1.7877 -1.1767 -0.0430
 9259SOL     OW39235   2.005   4.626   6.902 -0.1273 -0.5627  0.7130
 9259SOL    HW139236   1.968   4.551   6.857  0.0758 -0.8551  1.0304
 9259SOL    HW239237   1.924   4.653   6.945  0.0564 -0.1198  0.7778
 9260SOL     OW39238   2.785   1.488   5.834  0.0613  0.3854  0.2352
 9260SOL    HW139239   2.792   1.510   5.741  0.1662 -0.0100  0.1502
 9260SOL    HW239240   2.785   1.393   5.836  2.7508  0.3678 -0.8715
 9261SOL     OW39241   2.148   2.912  12.668  0.5107  0.5744 -0.1628
 9261SOL    HW139242   2.173   3.004  12.673  0.3047  0.5226  1.7823
 9261SOL    HW239243   2.233   2.874  12.646  1.1208  1.6826  0.2673
 9262SOL     OW39244   3.847   2.587   4.562  0.4434 -0.4667 -0.1028
 9262SOL    HW139245   3.796   2.666   4.542  0.5186 -0.1944  0.7726
 9262SOL    HW239246   3.817   2.575   4.652  2.7550  1.5615  0.9549
 9263SOL     OW39247   3.249   4.312   2.600  0.4860 -0.2753 -0.2415
 9263SOL    HW139248   3.252   4.229   2.648  3.0339  1.3090  2.3128
 9263SOL    HW239249   3.343   4.316   2.587  0.3522  2.1467 -0.3734
 9264SOL     OW39250   4.182   1.607   0.157 -0.9090  0.2830 -0.1432
 9264SOL    HW139251   4.164   1.589   0.249 -0.6729  3.5628  0.5738
 9264SOL    HW239252   4.126   1.557   0.097 -0.3317  0.3279 -0.7135
 9265SOL     OW39253   1.821   0.579   7.217  0.1233 -0.3649 -0.1037
 9265SOL    HW139254   1.781   0.645   7.273 -0.2738 -1.1896  0.5977
 9265SOL    HW239255   1.903   0.566   7.264 -0.2930 -0.8664  0.4892
 9266SOL     OW39256   1.554   3.077  11.749  0.2195 -0.4218  0.0798
 9266SOL    HW139257   1.538   2.986  11.725 -1.0856  0.3223 -1.8575
 9266SOL    HW239258   1.597   3.102  11.668  0.8939  0.3036  0.6655
 9267SOL     OW39259   2.857   4.031  11.708 -0.2260  0.3083  0.4711
 9267SOL    HW139260   2.912   3.980  11.648  1.3837  1.4074  0.9946
 9267SOL    HW239261   2.794   4.069  11.647  0.2224  2.5506  1.3771
 9268SOL     OW39262   1.235   1.254   3.591 -0.2479 -0.5485  0.2587
 9268SOL    HW139263   1.157   1.294   3.553 -0.9629 -3.1165 -1.0322
 9268SOL    HW239264   1.226   1.251   3.686 -3.0520  1.2095  0.0487
 9269SOL     OW39265   3.671   0.453   3.306 -0.1500  0.0188  0.2714
 9269SOL    HW139266   3.592   0.472   3.358 -0.1701 -0.8404  0.5612
 9269SOL    HW239267   3.746   0.474   3.361 -1.6802  1.8254  1.7045
 9270SOL     OW39268   2.484   1.249   2.856 -0.3333 -0.0948  0.2974
 9270SOL    HW139269   2.459   1.179   2.796  0.2015  1.3266 -1.6023
 9270SOL    HW239270   2.402   1.299   2.856  0.1597  0.7096  0.0446
 9271SOL     OW39271   3.480   3.477   4.650 -0.4525 -0.5634 -0.6654
 9271SOL    HW139272   3.483   3.398   4.596  2.1832 -2.4290  2.1763
 9271SOL    HW239273   3.542   3.446   4.716 -1.6675  1.6388  1.5176
 9272SOL     OW39274   2.670   4.442  13.883  0.2968  0.5171  0.1733
 9272SOL    HW139275   2.661   4.478  13.795  2.6015  1.2223  0.2131
 9272SOL    HW239276   2.579   4.422  13.902  0.4861 -0.7314 -0.2148
 9273SOL     OW39277   1.624   2.277   5.193 -0.0812 -0.0488  0.2826
 9273SOL    HW139278   1.618   2.364   5.233  1.4835  0.4450 -0.5721
 9273SOL    HW239279   1.717   2.265   5.212 -0.5382 -0.3748  2.3799
 9274SOL     OW39280   2.731   1.338  14.979 -0.3668 -0.1147  0.2825
 9274SOL    HW139281   2.708   1.367  15.067 -2.4671 -0.7922 -0.0484
 9274SOL    HW239282   2.681   1.401  14.927  1.7816  0.1880 -1.3845
 9275SOL     OW39283   2.551   0.170   6.107  0.3181  0.5019 -0.3952
 9275SOL    HW139284   2.524   0.094   6.055  0.9879  0.0074 -0.0325
 9275SOL    HW239285   2.590   0.228   6.042 -0.2396  0.4606 -0.7710
 9276SOL     OW39286   4.061   2.852  13.470 -0.5947  0.1038 -0.0128
 9276SOL    HW139287   4.012   2.846  13.388 -0.6346 -0.1004  0.0258
 9276SOL    HW239288   4.150   2.835  13.438 -0.3469  1.4676 -0.0266
 9277SOL     OW39289   2.476   4.305   8.072 -0.1714 -0.2820 -0.3707
 9277SOL    HW139290   2.560   4.350   8.062  0.3168 -1.1732 -0.2858
 9277SOL    HW239291   2.443   4.286   7.984 -3.3605  1.5433  0.4141
 9278SOL     OW39292   2.919   1.340  11.268  0.0681  0.0570  0.1280
 9278SOL    HW139293   2.889   1.387  11.346 -0.8356 -0.0677 -0.1425
 9278SOL    HW239294   2.966   1.410  11.223 -1.4450  0.2316 -1.1818
 9279SOL     OW39295   3.162   4.116   8.908 -0.0693  0.4204 -0.4842
 9279SOL    HW139296   3.168   4.029   8.947 -0.7292  0.7163  0.2582
 9279SOL    HW239297   3.247   4.152   8.931 -0.3498 -0.2353  1.5658
 9280SOL     OW39298   3.685   4.264   4.995 -0.0647  0.4510 -0.8633
 9280SOL    HW139299   3.694   4.240   4.903  1.9950 -0.1645 -0.4971
 9280SOL    HW239300   3.770   4.253   5.037 -1.4049 -1.1912  1.3980
 9281SOL     OW39301   0.717   3.367   9.026 -0.2416  0.6190  0.2052
 9281SOL    HW139302   0.719   3.285   8.977 -1.2142  0.5547  0.2664
 9281SOL    HW239303   0.622   3.379   9.025 -0.2381  0.6685  0.4177
 9282SOL     OW39304   2.025   3.974   8.363  0.5292 -0.1689 -0.0110
 9282SOL    HW139305   1.967   4.034   8.317 -0.2240 -1.7864 -1.1895
 9282SOL    HW239306   2.099   4.033   8.354 -0.1573  0.7569  0.4217
 9283SOL     OW39307   4.682   1.285   6.748 -0.0455 -0.2861 -0.4573
 9283SOL    HW139308   0.052   1.273   6.737  0.2679 -0.5142  2.5962
 9283SOL    HW239309   4.639   1.238   6.676 -0.3095 -1.8727  0.7526
 9284SOL     OW39310   3.587   2.667  14.747  0.2503 -0.3157 -0.2001
 9284SOL    HW139311   3.579   2.756  14.713  0.8426  0.8178  2.6688
 9284SOL    HW239312   3.537   2.618  14.682 -0.7779  0.2154  0.1974
 9285SOL     OW39313   1.590   0.889   9.367 -0.0680 -0.0920  0.4322
 9285SOL    HW139314   1.674   0.911   9.407  0.0699  0.9095 -0.4277
 9285SOL    HW239315   1.559   0.979   9.357  1.9045  0.5431  0.1456
 9286SOL     OW39316   4.043   4.686   4.225 -0.5094  0.9625 -0.2696
 9286SOL    HW139317   4.007   4.654   4.143 -1.0735  2.2634 -0.5308
 9286SOL    HW239318   3.962   4.708   4.271 -0.2568  2.8680 -0.7395
 9287SOL     OW39319   1.390   0.401   5.448  0.4664 -0.3965  0.1952
 9287SOL    HW139320   1.459   0.373   5.509  0.6404 -1.2498 -0.3907
 9287SOL    HW239321   1.449   0.430   5.378  1.1454 -1.4901  0.3047
 9288SOL     OW39322   2.463   3.204   5.577  0.6334  0.6899 -0.0252
 9288SOL    HW139323   2.403   3.132   5.598  1.9630 -0.6560 -0.8591
 9288SOL    HW239324   2.485   3.244   5.660  3.2682 -3.6199  1.3373
 9289SOL     OW39325   4.474   3.679   7.376 -0.3487  0.0525 -0.0946
 9289SOL    HW139326   4.476   3.651   7.468 -1.5086  0.5061  0.0675
 9289SOL    HW239327   4.566   3.706   7.372  0.3903 -2.6647 -1.3530
 9290SOL     OW39328   0.978   1.364   2.586 -0.2726  0.2827  0.2876
 9290SOL    HW139329   1.012   1.334   2.670 -0.5047 -0.6131  0.0578
 9290SOL    HW239330   0.922   1.290   2.563 -1.5460  1.1188  0.7073
 9291SOL     OW39331   1.809   0.722  15.820 -0.3961  0.2282 -0.3757
 9291SOL    HW139332   1.901   0.706  15.800  0.6103  3.8616  1.2477
 9291SOL    HW239333   1.783   0.645  15.870  0.7024  1.3377  1.9060
 9292SOL     OW39334   2.431   0.001   8.698 -0.9590  0.1791 -0.1717
 9292SOL    HW139335   2.440   0.096   8.696  0.5699  0.0494  1.0047
 9292SOL    HW239336   2.452   4.704   8.789  0.4105 -3.2054 -1.2393
 9293SOL     OW39337   4.090   0.927  12.402 -0.1770 -0.2527 -0.2734
 9293SOL    HW139338   4.064   1.008  12.445 -1.9296  0.5811 -2.8826
 9293SOL    HW239339   4.107   0.872  12.478  0.0858 -0.0934 -0.2166
 9294SOL     OW39340   4.723   0.841   1.684 -0.1424 -0.1793 -0.4644
 9294SOL    HW139341   0.063   0.771   1.701 -0.3727 -0.1652  0.4803
 9294SOL    HW239342   4.723   0.897   1.762  0.1423  1.0691 -1.3634
 9295SOL     OW39343   3.607   1.400   1.649  0.3465 -0.2340 -0.6123
 9295SOL    HW139344   3.561   1.323   1.681  0.8198 -0.1044  0.3901
 9295SOL    HW239345   3.533   1.460   1.647 -1.1456 -2.0866 -0.9508
 9296SOL     OW39346   1.443   0.242   3.773  0.1804  0.0134  0.3797
 9296SOL    HW139347   1.401   0.326   3.791 -0.8372 -0.6739  1.1445
 9296SOL    HW239348   1.423   0.196   3.854 -1.9377 -2.1833 -1.3812
 9297SOL     OW39349   1.535   2.329  17.100 -0.0836 -0.6949 -0.4281
 9297SOL    HW139350   1.543   2.415  17.141 -0.2523 -0.7401 -0.3001
 9297SOL    HW239351   1.455   2.290  17.136  0.2034 -2.6960 -1.9479
 9298SOL     OW39352   0.072   1.135  12.928  0.7599  0.1831 -0.3670
 9298SOL    HW139353   4.720   1.149  12.871  0.4627  1.3981  0.3056
 9298SOL    HW239354   0.117   1.059  12.890  0.7612  0.2591 -0.5175
 9299SOL     OW39355   1.053   0.402   5.806  0.8167 -0.0629 -0.3061
 9299SOL    HW139356   1.100   0.331   5.763 -1.0497 -0.9732 -0.8647
 9299SOL    HW239357   1.018   0.354   5.881  2.2177  1.0770  1.0743
 9300SOL     OW39358   0.836   2.466   6.217  0.3098  0.3646 -0.3958
 9300SOL    HW139359   0.903   2.498   6.157 -1.0042  0.8438 -1.5940
 9300SOL    HW239360   0.854   2.525   6.291  0.3290  0.0537 -0.1526
 9301SOL     OW39361   0.615   2.200   6.178  0.2497  0.0834 -0.3923
 9301SOL    HW139362   0.605   2.190   6.084  1.3706  1.8773 -0.6923
 9301SOL    HW239363   0.646   2.111   6.197 -3.1782 -0.4706  2.6080
 9302SOL     OW39364   1.189   0.580   5.377  0.0786  0.2165  1.0118
 9302SOL    HW139365   1.147   0.527   5.445 -2.3207  1.2880  0.3681
 9302SOL    HW239366   1.273   0.535   5.366  0.9825  2.0761  0.3508
 9303SOL     OW39367   3.981   0.000   8.956  0.6474 -0.0088  0.0787
 9303SOL    HW139368   4.032   4.673   9.019 -0.5647 -1.7888 -0.3985
 9303SOL    HW239369   3.893   4.689   8.966  0.3964  0.3003 -0.9742
 9304SOL     OW39370   3.509   2.647   1.402 -0.0355  0.1552  0.5235
 9304SOL    HW139371   3.504   2.593   1.481 -2.3480 -2.2693 -1.3000
 9304SOL    HW239372   3.605   2.649   1.396 -0.1578  1.2611 -1.3213
 9305SOL     OW39373   1.641   3.235   3.220 -0.2215 -0.0136 -0.2113
 9305SOL    HW139374   1.597   3.160   3.180 -2.5599  1.1441  0.1978
 9305SOL    HW239375   1.726   3.191   3.215 -0.7338 -1.0564  0.3307
 9306SOL     OW39376   3.135   2.303   7.816  0.5504  0.8018  0.2304
 9306SOL    HW139377   3.144   2.312   7.911 -0.1895 -1.6170  0.5401
 9306SOL    HW239378   3.079   2.376   7.791  0.5760  0.4313 -0.9104
 9307SOL     OW39379   4.518   0.663   8.122  0.6032 -0.0348 -0.4774
 9307SOL    HW139380   4.532   0.607   8.198  0.2261  0.3841 -0.1005
 9307SOL    HW239381   4.446   0.716   8.154  2.1041  1.1570  0.9515
 9308SOL     OW39382   3.757   4.007  15.136  0.0889  0.1685  0.5927
 9308SOL    HW139383   3.825   3.982  15.199  0.6153  0.7670  0.2598
 9308SOL    HW239384   3.813   4.050  15.071  0.4636  0.1371  0.8918
 9309SOL     OW39385   3.666   2.775   4.475  0.0540 -0.1718  0.1023
 9309SOL    HW139386   3.599   2.724   4.521  0.2922 -0.9948 -0.4623
 9309SOL    HW239387   3.624   2.852   4.436 -0.0938 -0.8508 -1.0794
 9310SOL     OW39388   3.170   2.582  11.684 -0.4245  0.0797  0.3119
 9310SOL    HW139389   3.138   2.643  11.751  0.7061  2.2392 -1.0983
 9310SOL    HW239390   3.109   2.600  11.612  1.0240 -0.8638 -1.1609
 9311SOL     OW39391   0.751   3.000  12.440 -0.2587 -0.3389 -0.0782
 9311SOL    HW139392   0.755   2.932  12.373 -0.7490 -0.9599  0.5202
 9311SOL    HW239393   0.817   3.066  12.419 -1.4211  0.0067 -2.6081
 9312SOL     OW39394   1.854   1.723   9.267  0.2641  0.7611 -0.5851
 9312SOL    HW139395   1.902   1.649   9.229 -0.1325  0.9711 -1.4712
 9312SOL    HW239396   1.921   1.791   9.276 -0.7390  1.6033  0.4834
 9313SOL     OW39397   0.043   1.247   5.470 -0.4482 -0.1415 -0.0015
 9313SOL    HW139398   0.016   1.336   5.448 -2.1489  0.3926  4.1765
 9313SOL    HW239399   4.683   1.201   5.467  0.9508 -2.7673  1.5212
 9314SOL     OW39400   2.816   3.144   3.246 -0.0528  0.0750 -0.0512
 9314SOL    HW139401   2.895   3.175   3.291 -0.9636  1.4245  0.5820
 9314SOL    HW239402   2.853   3.057   3.226  1.1588  1.2649 -3.0761
 9315SOL     OW39403   1.290   4.176   3.626 -0.0018 -0.2984 -0.3557
 9315SOL    HW139404   1.359   4.237   3.600 -1.5932  0.7009 -2.2438
 9315SOL    HW239405   1.258   4.232   3.696  0.4278  0.9715 -1.1648
 9316SOL     OW39406   3.081   2.650  16.412 -0.1781  0.3429  0.6005
 9316SOL    HW139407   3.107   2.737  16.383  0.8923  0.3582  1.5902
 9316SOL    HW239408   3.047   2.606  16.335 -1.4325  1.8192  0.3155
 9317SOL     OW39409   2.927   1.112  12.768 -0.3146 -0.5428 -0.4089
 9317SOL    HW139410   2.896   1.078  12.684 -2.1401 -1.8977  0.8174
 9317SOL    HW239411   2.952   1.202  12.749 -2.2494  0.1235  0.2342
 9318SOL     OW39412   2.203   3.439   7.163  0.7076 -0.7106 -0.2016
 9318SOL    HW139413   2.276   3.499   7.179  0.4734 -0.5232  0.1562
 9318SOL    HW239414   2.232   3.358   7.205 -0.4199 -0.5465  0.9104
 9319SOL     OW39415   4.425   2.864   0.767  0.0008  0.3364 -0.3808
 9319SOL    HW139416   4.489   2.930   0.792 -1.3878  1.1052  1.1347
 9319SOL    HW239417   4.444   2.862   0.673  1.6047  1.1337 -0.0636
 9320SOL     OW39418   3.289   0.720   9.326  0.2094 -0.2957  0.0436
 9320SOL    HW139419   3.365   0.714   9.383 -0.7969 -2.6559  1.1457
 9320SOL    HW239420   3.316   0.677   9.245 -1.4437 -0.5489 -0.3913
 9321SOL     OW39421   4.547   2.369   0.316 -0.2529  0.0664 -0.2837
 9321SOL    HW139422   4.635   2.405   0.309  0.8407 -2.4046  0.6033
 9321SOL    HW239423   4.549   2.295   0.255 -0.0545 -1.1252  1.1727
 9322SOL     OW39424   1.434   4.372   5.080 -0.6269  0.2245  0.2328
 9322SOL    HW139425   1.504   4.435   5.062 -1.5333  0.3919 -2.6979
 9322SOL    HW239426   1.363   4.436   5.093  0.3096  0.9402  1.7293
 9323SOL     OW39427   1.061   3.371  16.553 -0.9148  0.3107  0.1648
 9323SOL    HW139428   1.084   3.462  16.533 -0.7412 -0.5583 -3.5115
 9323SOL    HW239429   0.967   3.375  16.533 -0.9160 -1.7343 -0.2446
 9324SOL     OW39430   1.915   3.929  13.807 -0.0059 -0.3056 -0.4774
 9324SOL    HW139431   1.987   3.870  13.787 -0.6672 -1.4658  0.5505
 9324SOL    HW239432   1.917   3.982  13.727  0.5396  0.3938 -0.0060
 9325SOL     OW39433   0.687   4.683   6.741 -0.6366  0.1520  0.3315
 9325SOL    HW139434   0.604   0.006   6.731  0.1016  1.4967  0.4617
 9325SOL    HW239435   0.653   4.630   6.812 -2.4572 -1.8039 -2.0001
 9326SOL     OW39436   1.185   3.129   5.279 -0.7086 -0.0971 -0.1570
 9326SOL    HW139437   1.219   3.208   5.322 -0.8705 -0.1135 -0.0000
 9326SOL    HW239438   1.110   3.102   5.332  0.2809 -0.2502  1.1825
 9327SOL     OW39439   4.709   4.131  12.329 -0.0054  0.3250  0.1304
 9327SOL    HW139440   0.028   4.058  12.374 -1.0083  0.0727  0.6779
 9327SOL    HW239441   4.722   4.191  12.402  3.5382  1.7518 -1.6655
 9328SOL     OW39442   1.492   1.824   8.762  0.0302  0.2638  0.3894
 9328SOL    HW139443   1.444   1.841   8.680  0.8192  1.7221  0.2343
 9328SOL    HW239444   1.424   1.854   8.823 -1.1460  3.7560 -2.6374
 9329SOL     OW39445   2.083   2.355   5.578  0.1204  0.1750 -0.0954
 9329SOL    HW139446   2.033   2.309   5.645 -0.3764 -0.1966 -0.7188
 9329SOL    HW239447   2.058   2.303   5.501 -1.2506 -0.4502  0.7722
 9330SOL     OW39448   3.346   2.625  13.684 -0.3001 -0.5350 -0.2209
 9330SOL    HW139449   3.251   2.614  13.674 -0.4082 -0.6884  1.0153
 9330SOL    HW239450   3.343   2.699  13.744 -0.4666  0.3219 -1.2753
 9331SOL     OW39451   0.513   2.049  14.289 -0.0701 -0.0350 -0.3497
 9331SOL    HW139452   0.544   2.128  14.335  1.5897 -0.8346 -0.1141
 9331SOL    HW239453   0.419   2.047  14.306  0.3368 -1.2592  1.8501
 9332SOL     OW39454   4.464   1.361   5.850 -0.0363 -0.2797 -0.3859
 9332SOL    HW139455   4.559   1.357   5.842 -0.3656 -2.0714 -3.3136
 9332SOL    HW239456   4.455   1.267   5.865  1.8701 -0.4600 -0.3954
 9333SOL     OW39457   1.566   2.124   5.414  0.4669  0.4482 -0.1511
 9333SOL    HW139458   1.477   2.095   5.434  0.4392  0.9891  0.4941
 9333SOL    HW239459   1.550   2.183   5.340  0.6337 -0.8130 -1.1934
 9334SOL     OW39460   2.817   2.665   7.818  0.1116  0.7866 -0.2297
 9334SOL    HW139461   2.846   2.624   7.900 -4.1449 -0.9838  0.3748
 9334SOL    HW239462   2.748   2.720   7.853  0.4796  0.9463  0.2472
 9335SOL     OW39463   4.502   3.432   2.630 -0.1965 -0.3048 -0.5442
 9335SOL    HW139464   4.593   3.403   2.622  0.0721  0.9649 -2.0987
 9335SOL    HW239465   4.474   3.378   2.557  2.3260  0.9264 -2.4575
 9336SOL     OW39466   3.072   4.230   7.517 -0.4493 -0.1496 -0.3558
 9336SOL    HW139467   3.016   4.298   7.554  0.5604  2.0176 -2.7341
 9336SOL    HW239468   3.007   4.183   7.465 -0.3955 -0.5430 -0.0626
 9337SOL     OW39469   1.208   1.933  12.847 -0.1484  0.0399 -0.4759
 9337SOL    HW139470   1.144   1.877  12.892  1.0954 -0.2199  0.9829
 9337SOL    HW239471   1.164   2.015  12.827  1.0631 -0.0094 -3.2956
 9338SOL     OW39472   3.568   3.061   6.936 -0.3062 -0.4032  0.4590
 9338SOL    HW139473   3.487   3.081   6.983  0.2344 -1.0654  1.6726
 9338SOL    HW239474   3.564   2.966   6.943 -2.2689 -0.3642 -0.1064
 9339SOL     OW39475   4.691   4.170   9.119  0.1342  0.2083 -0.0507
 9339SOL    HW139476   4.716   4.224   9.045 -0.8888  0.3424 -0.2831
 9339SOL    HW239477   4.700   4.242   9.182 -1.1118  0.0059  0.3588
 9340SOL     OW39478   1.316   1.733   8.286 -0.7873  0.0338  0.6368
 9340SOL    HW139479   1.247   1.787   8.247 -0.0639  0.5687  0.1195
 9340SOL    HW239480   1.279   1.706   8.370  0.5656 -3.1012  0.1995
 9341SOL     OW39481   1.779   0.165  11.315 -0.0242 -0.7894 -0.6455
 9341SOL    HW139482   1.850   0.112  11.352  1.0784 -0.8797 -2.9006
 9341SOL    HW239483   1.832   0.235  11.276 -0.8299 -0.5052 -1.2489
 9342SOL     OW39484   3.617   3.698   3.836 -0.5217 -0.5210  0.1930
 9342SOL    HW139485   3.529   3.733   3.847  0.1262  1.0407  0.2915
 9342SOL    HW239486   3.616   3.676   3.743 -0.8042  3.5423 -0.7509
 9343SOL     OW39487   3.833   0.238   8.853 -0.1093 -0.2286 -0.3408
 9343SOL    HW139488   3.867   0.155   8.887 -0.8766 -0.5378 -0.3352
 9343SOL    HW239489   3.821   0.290   8.932  1.4748  0.4280 -0.5359
 9344SOL     OW39490   2.798   0.911   5.348 -0.1310 -0.0784 -0.1708
 9344SOL    HW139491   2.767   0.828   5.310  1.7543 -0.3862 -1.0537
 9344SOL    HW239492   2.773   0.894   5.438  0.3313  1.7068  0.2947
 9345SOL     OW39493   1.873   2.145   4.686  0.1252 -0.3915 -0.6116
 9345SOL    HW139494   1.960   2.115   4.712  0.2320 -0.6526 -1.2683
 9345SOL    HW239495   1.844   2.200   4.759  0.2258 -1.7951  0.4896
 9346SOL     OW39496   4.416   2.576   4.975 -0.8116  0.3582  0.1211
 9346SOL    HW139497   4.413   2.637   4.901 -0.0121  0.1728 -0.0635
 9346SOL    HW239498   4.423   2.496   4.923  0.3180  0.6353 -0.1662
 9347SOL     OW39499   3.795   0.680  11.084  0.0141 -0.2668  0.0375
 9347SOL    HW139500   3.780   0.763  11.128 -3.2886 -0.5995 -0.4540
 9347SOL    HW239501   3.709   0.660  11.046 -1.4368  0.6520  2.8104
 9348SOL     OW39502   1.775   0.521  13.676 -0.5060 -0.0408 -0.1734
 9348SOL    HW139503   1.855   0.498  13.723  0.8151  0.5783 -2.1599
 9348SOL    HW239504   1.749   0.433  13.650 -0.1997  0.0940 -0.9392
 9349SOL     OW39505   0.412   3.193   6.883  0.2340 -0.1752 -0.0675
 9349SOL    HW139506   0.321   3.170   6.903 -0.1734 -0.2944 -2.0448
 9349SOL    HW239507   0.450   3.109   6.910  0.9230  0.0622 -0.3160
 9350SOL     OW39508   4.597   3.229  16.650 -0.1061  0.1962 -0.2289
 9350SOL    HW139509   4.571   3.272  16.569 -0.6622  0.9177  0.3411
 9350SOL    HW239510   4.642   3.148  16.625 -1.1741  0.0491 -1.6605
 9351SOL     OW39511   1.318   3.527  15.215  0.7225 -0.3273  0.2692
 9351SOL    HW139512   1.228   3.519  15.184  1.0684  0.3749 -0.8831
 9351SOL    HW239513   1.332   3.435  15.238 -0.4486 -0.7964 -0.9262
 9352SOL     OW39514   2.517   1.547   3.868 -0.1572  0.2335  0.0204
 9352SOL    HW139515   2.587   1.509   3.920 -1.7353 -0.6468  1.5178
 9352SOL    HW239516   2.556   1.634   3.875  1.9392 -0.8173  1.5013
 9353SOL     OW39517   2.630   2.133   5.586 -0.6233  0.0169 -0.1442
 9353SOL    HW139518   2.559   2.123   5.650 -2.0764  1.5388 -1.4898
 9353SOL    HW239519   2.649   2.222   5.617 -2.0652 -0.0809  1.0606
 9354SOL     OW39520   3.514   3.187  12.357  0.6126 -0.0429 -0.6510
 9354SOL    HW139521   3.565   3.207  12.435 -2.8658 -1.5003  1.9911
 9354SOL    HW239522   3.450   3.258  12.366 -0.4777 -1.4964  3.1356
 9355SOL     OW39523   2.074   2.982   3.716  0.0549  0.6182  0.4213
 9355SOL    HW139524   2.103   3.027   3.636 -0.5121 -1.2105 -0.8074
 9355SOL    HW239525   2.123   3.028   3.785  0.4905 -0.4950  0.8497
 9356SOL     OW39526   2.087   2.236   3.844 -0.4768  0.0297  0.0135
 9356SOL    HW139527   2.058   2.279   3.924 -0.0187  1.8301 -0.7963
 9356SOL    HW239528   2.079   2.300   3.773  2.0737  1.6292  1.1838
 9357SOL     OW39529   3.935   1.936   0.313 -0.4498  0.5649 -0.2729
 9357SOL    HW139530   3.953   2.004   0.379  0.7358  1.7786 -1.8596
 9357SOL    HW239531   3.894   1.978   0.238  1.7462 -0.4769 -2.0545
 9358SOL     OW39532   3.246   2.565   7.395  0.1173  0.2007  0.0086
 9358SOL    HW139533   3.178   2.632   7.394 -0.3023 -0.2005  1.4081
 9358SOL    HW239534   3.267   2.581   7.487 -0.3996 -1.0776  0.3510
 9359SOL     OW39535   3.583   4.691   0.781  0.0840 -0.3846 -0.0226
 9359SOL    HW139536   3.487   4.696   0.788  0.2967  0.4056  2.1630
 9359SOL    HW239537   3.604   4.674   0.872  1.5419 -2.5391 -0.7754
 9360SOL     OW39538   0.989   4.309   3.482 -0.5208  0.0378  0.5033
 9360SOL    HW139539   1.067   4.337   3.531  0.4334 -1.8713  0.0821
 9360SOL    HW239540   0.941   4.391   3.493  0.3290  0.4919  0.7966
 9361SOL     OW39541   1.812   2.518  12.403  0.4185  0.6559  0.0092
 9361SOL    HW139542   1.877   2.578  12.365 -0.2865  2.9164  2.4020
 9361SOL    HW239543   1.871   2.472  12.463  2.2512  0.9523 -1.5635
 9362SOL     OW39544   4.258   3.020   3.962 -0.2862 -0.6043 -0.2209
 9362SOL    HW139545   4.248   3.115   3.954  1.3975 -0.2228  2.0268
 9362SOL    HW239546   4.352   3.009   3.945 -0.0155 -0.7659  1.4046
 9363SOL     OW39547   3.682   2.776   4.196 -0.4285  0.3576 -0.6532
 9363SOL    HW139548   3.647   2.720   4.265 -0.3761 -0.6787 -1.4636
 9363SOL    HW239549   3.638   2.857   4.221 -0.5621 -0.0571  0.4478
 9364SOL     OW39550   4.323   1.814   0.769  0.7196  0.2301 -0.5872
 9364SOL    HW139551   4.241   1.818   0.720 -0.3783  2.5833  1.4851
 9364SOL    HW239552   4.384   1.853   0.707  1.9073 -1.3530 -0.4389
 9365SOL     OW39553   1.476   3.983   7.069 -0.4320 -0.2353  0.1951
 9365SOL    HW139554   1.397   4.037   7.059  0.7639  1.5006  0.1902
 9365SOL    HW239555   1.530   4.018   6.999 -0.9376  0.9885  0.4199
 9366SOL     OW39556   2.034   4.533   6.149 -0.0477  0.1786  0.3348
 9366SOL    HW139557   2.079   4.452   6.173  0.0624  0.1781  0.1253
 9366SOL    HW239558   1.967   4.530   6.217  0.3457  1.6147  0.7880
 9367SOL     OW39559   2.921   3.543   7.282 -0.6560 -0.0373 -0.3211
 9367SOL    HW139560   2.939   3.504   7.367  0.6116 -0.9895 -1.0189
 9367SOL    HW239561   2.866   3.620   7.298 -0.5860 -0.6309  2.7579
 9368SOL     OW39562   0.511   0.325   7.441  0.9662 -0.2472 -0.1602
 9368SOL    HW139563   0.575   0.271   7.395 -1.1290 -0.5624 -2.7753
 9368SOL    HW239564   0.535   0.412   7.411  0.5621  0.4818  1.6504
 9369SOL     OW39565   3.147   2.295   7.005  0.0470 -0.5254 -0.0779
 9369SOL    HW139566   3.221   2.323   7.060 -0.0788  2.1342 -1.2602
 9369SOL    HW239567   3.095   2.251   7.072 -1.4637  1.4886  0.0991
 9370SOL     OW39568   0.412   0.940   2.802  0.9233 -0.4806 -0.6373
 9370SOL    HW139569   0.393   0.858   2.847  2.0048  0.3228  1.2747
 9370SOL    HW239570   0.472   0.914   2.732 -0.4137 -1.7303 -1.3010
 9371SOL     OW39571   3.872   2.608   6.916  0.1744 -0.1597  0.8056
 9371SOL    HW139572   3.866   2.608   7.011 -1.8134  0.8313  0.6613
 9371SOL    HW239573   3.805   2.668   6.882 -0.3802 -1.1610  0.1419
 9372SOL     OW39574   2.203   2.071   1.897 -0.3348 -0.5490 -0.0215
 9372SOL    HW139575   2.256   2.062   1.818 -0.7555 -1.8250 -0.1573
 9372SOL    HW239576   2.160   2.157   1.892 -1.0650 -0.8939  0.3624
 9373SOL     OW39577   1.225   2.780   6.098 -0.2939  0.4917  0.3050
 9373SOL    HW139578   1.284   2.722   6.147  0.3835 -0.6765 -1.8813
 9373SOL    HW239579   1.152   2.721   6.080 -0.1700  0.6198 -0.6174
 9374SOL     OW39580   4.490   2.842  13.985 -0.3386  0.1102  0.1341
 9374SOL    HW139581   4.477   2.922  14.035 -0.8051 -0.1589  0.4385
 9374SOL    HW239582   4.544   2.791  14.046 -0.1738 -0.1855 -0.2568
 9375SOL     OW39583   0.415   1.084   0.603 -0.3516  0.7365 -0.2101
 9375SOL    HW139584   0.421   1.137   0.523 -0.2347 -0.7535 -1.1866
 9375SOL    HW239585   0.360   1.011   0.577 -0.1941  0.6438 -0.2849
 9376SOL     OW39586   2.294   0.240  11.949 -0.2018 -0.1389 -0.8574
 9376SOL    HW139587   2.389   0.248  11.938 -0.1657 -0.1022 -0.5088
 9376SOL    HW239588   2.252   0.307  11.895  0.4243  0.0591 -1.1003
 9377SOL     OW39589   3.848   2.293   6.051  0.1602  0.5213 -0.1195
 9377SOL    HW139590   3.789   2.353   6.097 -0.2829 -0.3680  0.4653
 9377SOL    HW239591   3.919   2.279   6.113  1.1785 -0.9528 -1.6161
 9378SOL     OW39592   2.714   4.684  16.191 -0.0426 -0.0062  0.4789
 9378SOL    HW139593   2.767   0.033  16.224 -2.1953  1.5693  0.4436
 9378SOL    HW239594   2.724   4.692  16.096 -2.3569 -1.4912  0.1313
 9379SOL     OW39595   2.733   0.399   5.179  0.0896 -0.6311 -0.0951
 9379SOL    HW139596   2.720   0.314   5.220 -2.3692 -0.7950 -1.2202
 9379SOL    HW239597   2.654   0.406   5.126 -0.6929  1.7044  1.3635
 9380SOL     OW39598   4.254   2.120   7.251 -0.4265 -0.5629 -0.3996
 9380SOL    HW139599   4.337   2.077   7.233  0.8269  0.5302  2.7916
 9380SOL    HW239600   4.240   2.171   7.171 -0.8159 -1.4953 -0.9208
 9381SOL     OW39601   1.654   1.175  16.558 -0.1337 -0.2137  0.2128
 9381SOL    HW139602   1.607   1.150  16.638 -0.9837 -3.8433 -1.3902
 9381SOL    HW239603   1.579   1.214  16.512  1.7829 -0.0823 -2.7616
 9382SOL     OW39604   4.439   2.693  15.358 -0.1841 -0.1576  0.0936
 9382SOL    HW139605   4.371   2.645  15.312 -1.0446 -0.2468  1.4694
 9382SOL    HW239606   4.393   2.776  15.371 -0.3066 -0.2974  0.5426
 9383SOL     OW39607   4.433   1.101   5.971  0.2120  0.2571 -0.2408
 9383SOL    HW139608   4.349   1.105   6.016  0.7256 -0.9120  0.8172
 9383SOL    HW239609   4.411   1.048   5.894  2.1350  0.4238 -0.9177
 9384SOL     OW39610   2.841   0.547  15.289 -0.3844  0.1494  0.2304
 9384SOL    HW139611   2.828   0.627  15.341  0.1702  1.2879 -1.3780
 9384SOL    HW239612   2.750   0.529  15.265  0.3871 -2.2604 -0.7813
 9385SOL     OW39613   0.004   3.421   4.779  0.0556 -0.2344 -0.3666
 9385SOL    HW139614   0.005   3.326   4.779 -0.3364 -0.2389  1.3422
 9385SOL    HW239615   0.062   3.434   4.854 -0.8282  2.5816 -0.1700
 9386SOL     OW39616   4.023   3.635  10.784  0.3796  0.9045 -0.1707
 9386SOL    HW139617   4.094   3.693  10.811 -1.0086  2.0338  1.0535
 9386SOL    HW239618   4.059   3.548  10.799  1.2031  1.3461  0.4787
 9387SOL     OW39619   0.423   0.009  16.391 -0.1519  0.0715  0.7348
 9387SOL    HW139620   0.470   0.079  16.437  1.1882  1.0837 -2.1724
 9387SOL    HW239621   0.462   4.652  16.425 -1.3898 -0.3218  1.2285
 9388SOL     OW39622   0.055   3.094   1.953 -0.3223  0.5527  0.0300
 9388SOL    HW139623   0.017   3.181   1.943 -1.8632 -0.0543  0.4677
 9388SOL    HW239624   4.711   3.033   1.922 -2.0230  1.6742  1.5061
 9389SOL     OW39625   4.029   1.388   5.199  0.2320 -0.1203  0.0499
 9389SOL    HW139626   3.941   1.420   5.221 -1.1197 -3.4577 -0.5774
 9389SOL    HW239627   4.038   1.433   5.115 -1.2368  0.2714  0.0939
 9390SOL     OW39628   1.557   2.530   5.273 -0.0259  0.2235  0.1312
 9390SOL    HW139629   1.510   2.613   5.273  1.1219  0.8763  2.2018
 9390SOL    HW239630   1.584   2.526   5.365  1.5982  0.4776 -0.3321
 9391SOL     OW39631   4.288   2.886  10.360 -0.3288  0.3962 -0.1764
 9391SOL    HW139632   4.261   2.936  10.283  0.0277  0.0535 -0.5215
 9391SOL    HW239633   4.330   2.814  10.312  0.8892 -0.1362  1.6625
 9392SOL     OW39634   4.594   2.955  10.973  0.5357  0.6436  0.5962
 9392SOL    HW139635   4.529   3.017  10.940  2.6057  1.0716 -2.6244
 9392SOL    HW239636   4.553   2.873  10.945  1.4344  0.2409  0.4607
 9393SOL     OW39637   3.976   2.555   5.798 -0.3386  0.4179 -0.0134
 9393SOL    HW139638   3.907   2.530   5.860  1.5396  0.6856  2.1709
 9393SOL    HW239639   4.039   2.596   5.857  2.3226 -1.2108 -1.7202
 9394SOL     OW39640   0.927   2.883   6.499 -0.2560  0.5785 -0.0665
 9394SOL    HW139641   0.902   2.795   6.472  0.6737  0.0977  0.6425
 9394SOL    HW239642   1.020   2.864   6.489 -0.3440 -0.3277  0.8103
 9395SOL     OW39643   0.743   3.818   8.994  0.1335 -0.0576 -0.2079
 9395SOL    HW139644   0.781   3.841   9.079 -0.5698 -0.4660  0.2160
 9395SOL    HW239645   0.785   3.735   8.972  0.1781  0.3680 -1.7352
 9396SOL     OW39646   2.827   4.700   6.039 -0.3115  0.3376 -0.0493
 9396SOL    HW139647   2.875   0.044   6.086 -1.5765  0.4822  1.0317
 9396SOL    HW239648   2.889   4.628   6.038 -0.2326  0.3650  2.7777
 9397SOL     OW39649   4.018   0.577  15.226 -0.1707  0.1211 -0.4691
 9397SOL    HW139650   4.064   0.601  15.146  1.6886 -2.9716 -0.3421
 9397SOL    HW239651   4.014   0.481  15.217 -2.2101  0.2924 -1.3239
 9398SOL     OW39652   0.358   0.108   2.575 -0.3312  0.0708 -0.0470
 9398SOL    HW139653   0.431   0.082   2.519 -0.4010  1.1420 -0.6335
 9398SOL    HW239654   0.311   0.151   2.504  0.2418  1.2761  0.3079
 9399SOL     OW39655   0.878   2.575   3.287  0.0087  0.2811 -0.0384
 9399SOL    HW139656   0.944   2.611   3.228  0.1607  0.2613  0.1170
 9399SOL    HW239657   0.922   2.514   3.347 -0.0640 -1.7648 -2.0652
 9400SOL     OW39658   0.425   3.988  12.372  0.4512 -0.1080  0.2431
 9400SOL    HW139659   0.447   4.079  12.394  1.0248 -0.5665  1.5398
 9400SOL    HW239660   0.506   3.943  12.397  0.1340 -0.5293  0.5086
 9401SOL     OW39661   2.985   1.942  15.172  0.8023 -0.1861 -0.2053
 9401SOL    HW139662   3.067   1.893  15.184 -0.6537 -2.1097  1.8695
 9401SOL    HW239663   3.014   2.031  15.191  2.1795 -0.8354  0.7716
 9402SOL     OW39664   0.003   1.668  14.226 -0.3348 -0.1020 -0.1819
 9402SOL    HW139665   0.093   1.644  14.249 -1.1509 -1.9010  1.1341
 9402SOL    HW239666   4.707   1.597  14.164 -0.5532 -0.9850  0.8936
 9403SOL     OW39667   1.083   3.619   2.096  0.4703 -0.6306 -0.2229
 9403SOL    HW139668   1.105   3.692   2.153  1.2922 -2.4041  1.7460
 9403SOL    HW239669   0.988   3.615   2.108  0.4625  2.4361  0.5461
 9404SOL     OW39670   4.431   1.515   5.031 -0.3713  0.2713  0.3575
 9404SOL    HW139671   4.366   1.560   5.086 -2.1142 -1.2531 -0.4271
 9404SOL    HW239672   4.512   1.565   5.037 -0.0854  0.0125 -1.2537
 9405SOL     OW39673   2.370   3.615   4.453  0.0704 -0.2180 -0.2324
 9405SOL    HW139674   2.437   3.581   4.513  1.8271  0.1635 -2.0072
 9405SOL    HW239675   2.350   3.541   4.395 -1.1880  0.7911 -1.0835
 9406SOL     OW39676   0.644   2.174  12.038  1.0324  0.1653  0.0112
 9406SOL    HW139677   0.613   2.098  12.089 -0.1568  0.2129 -0.6480
 9406SOL    HW239678   0.608   2.233  12.104 -1.7207 -1.7139  0.2019
 9407SOL     OW39679   0.796   3.872   0.241  0.7782 -0.3426 -0.5524
 9407SOL    HW139680   0.810   3.786   0.202  1.7675  0.4381 -1.9373
 9407SOL    HW239681   0.702   3.873   0.258  1.0332 -0.4250  0.8618
 9408SOL     OW39682   0.449   1.554  13.714 -0.4672  0.8465 -0.1123
 9408SOL    HW139683   0.424   1.642  13.684 -2.0883  0.4614  0.0968
 9408SOL    HW239684   0.397   1.540  13.793 -0.6884 -2.0177 -0.7687
 9409SOL     OW39685   3.320   2.380  14.391 -0.1563 -0.1980  0.0550
 9409SOL    HW139686   3.234   2.388  14.431 -0.7783 -0.6198 -1.1952
 9409SOL    HW239687   3.303   2.290  14.362  1.4276 -0.6854  0.6124
 9410SOL     OW39688   0.244   2.554  13.931  0.1029 -0.3349 -0.5173
 9410SOL    HW139689   0.278   2.478  13.978  1.7094  0.9720  0.4484
 9410SOL    HW239690   0.319   2.582  13.879 -0.4153  2.1370  0.0545
 9411SOL     OW39691   1.771   0.081   7.775  0.0166  0.1972 -0.3275
 9411SOL    HW139692   1.738   0.143   7.710 -1.1645  1.2793  1.3190
 9411SOL    HW239693   1.865   0.098   7.779 -0.2464  1.7352 -0.9158
 9412SOL     OW39694   2.246   0.613   2.341  0.0179 -0.0422 -0.4435
 9412SOL    HW139695   2.231   0.607   2.246  0.3158  0.4191 -0.5214
 9412SOL    HW239696   2.242   0.519   2.359 -0.0610 -0.1545 -1.0472
 9413SOL     OW39697   4.133   0.844  16.568  0.0824  0.2405 -0.1758
 9413SOL    HW139698   4.062   0.842  16.632 -0.6899 -1.7561 -1.0901
 9413SOL    HW239699   4.162   0.753  16.571 -1.1808 -0.1883 -0.8413
 9414SOL     OW39700   3.705   4.447   2.747 -0.3313  0.1511 -0.4434
 9414SOL    HW139701   3.763   4.371   2.751  0.4836  0.8226  0.4893
 9414SOL    HW239702   3.754   4.508   2.803 -0.3377  0.0471 -0.3249
 9415SOL     OW39703   2.925   3.386  15.141 -0.2719  0.4882 -0.1686
 9415SOL    HW139704   2.950   3.382  15.049  0.1705 -1.6053  0.0564
 9415SOL    HW239705   2.977   3.461  15.171  1.9760 -1.5740  1.0682
 9416SOL     OW39706   3.092   3.158   6.122  0.2712  0.2856  0.3837
 9416SOL    HW139707   3.047   3.080   6.092 -3.5572  1.9760  1.7781
 9416SOL    HW239708   3.143   3.193   6.048  1.1676 -1.2004  0.2839
 9417SOL     OW39709   2.070   0.508   9.965 -0.1585 -0.0322  0.5113
 9417SOL    HW139710   2.072   0.413   9.975  0.0913  0.0574  1.3269
 9417SOL    HW239711   2.071   0.528  10.059 -1.1465  2.0209  0.0793
 9418SOL     OW39712   1.193   3.730   3.448 -0.2488 -0.2203  0.0883
 9418SOL    HW139713   1.212   3.707   3.539 -0.5845  1.0219  0.4827
 9418SOL    HW239714   1.172   3.823   3.461  0.2274  0.1811 -1.9878
 9419SOL     OW39715   3.399   1.873  12.424 -0.3726  0.4806 -0.1744
 9419SOL    HW139716   3.451   1.797  12.400 -0.3107  0.5675 -0.3171
 9419SOL    HW239717   3.466   1.929  12.465  0.6535 -2.2098  1.8357
 9420SOL     OW39718   1.835   0.979   0.104  0.2092 -0.6180  0.4268
 9420SOL    HW139719   1.838   0.951   0.013 -2.4224  1.6725 -0.3821
 9420SOL    HW239720   1.765   1.043   0.091  0.2584 -0.4307  1.0779
 9421SOL     OW39721   0.559   4.718   7.221  0.1097  0.1177  0.3334
 9421SOL    HW139722   0.470   4.684   7.233  0.3683 -0.0284  1.9406
 9421SOL    HW239723   0.537   0.078   7.179  0.6964  0.3352  0.4656
 9422SOL     OW39724   4.175   3.566   1.954 -0.2025  1.0805 -0.7139
 9422SOL    HW139725   4.226   3.644   1.972 -0.0325  0.2136  2.5562
 9422SOL    HW239726   4.111   3.600   1.892 -1.5433  1.8146  1.0542
 9423SOL     OW39727   0.708   0.388   6.744  0.0164  0.4245  0.0009
 9423SOL    HW139728   0.758   0.307   6.741 -1.6045 -0.5259 -1.2348
 9423SOL    HW239729   0.616   0.360   6.737 -0.5131  1.6696  1.9154
 9424SOL     OW39730   0.362   4.284   2.208 -0.6007 -0.6648 -0.0940
 9424SOL    HW139731   0.375   4.295   2.113 -2.6738 -0.0240 -0.3023
 9424SOL    HW239732   0.445   4.320   2.238 -1.5068  1.5624 -0.2820
 9425SOL     OW39733   3.326   0.245   1.482 -0.2764  0.1972  0.0561
 9425SOL    HW139734   3.336   0.151   1.498  0.1676  0.0877 -0.8605
 9425SOL    HW239735   3.288   0.243   1.394 -2.0607 -2.5711  0.8704
 9426SOL     OW39736   0.911   2.684   7.712  0.3648  0.2005  0.1450
 9426SOL    HW139737   0.989   2.722   7.754  0.4008 -0.9746  1.1478
 9426SOL    HW239738   0.935   2.613   7.652 -1.2483  0.2132 -0.5137
 9427SOL     OW39739   4.230   0.459   7.619  0.7039 -0.2519 -0.2624
 9427SOL    HW139740   4.278   0.511   7.554  0.1085  1.3192  0.5333
 9427SOL    HW239741   4.298   0.407   7.661  0.9890  0.2025 -0.1634
 9428SOL     OW39742   0.181   2.571   4.088  0.6730 -0.1410  0.0540
 9428SOL    HW139743   0.272   2.552   4.113  0.7461  0.0407 -0.0735
 9428SOL    HW239744   0.173   2.658   4.127  0.0576  0.2541 -0.9538
 9429SOL     OW39745   0.022   3.797  10.054 -0.2527  0.4088 -0.4263
 9429SOL    HW139746   0.114   3.780  10.034 -0.9252 -1.4630 -1.8413
 9429SOL    HW239747   0.004   3.852   9.978  1.6411  1.7580  0.0791
 9430SOL     OW39748   1.650   1.924   1.665  0.6366 -0.3747  0.2475
 9430SOL    HW139749   1.651   1.839   1.620 -0.0643  0.8930 -2.2057
 9430SOL    HW239750   1.558   1.926   1.691  1.0586  0.9131  1.6406
 9431SOL     OW39751   0.604   1.139   6.121  0.2461 -0.5554 -0.6539
 9431SOL    HW139752   0.522   1.102   6.087 -0.5619 -0.6996  1.4129
 9431SOL    HW239753   0.622   1.065   6.179 -0.9181  1.3012  2.1315
 9432SOL     OW39754   1.302   3.103  15.420 -0.0172  0.4969 -0.0816
 9432SOL    HW139755   1.343   3.016  15.408  2.0767  1.3553  0.8796
 9432SOL    HW239756   1.214   3.065  15.414 -0.4734  1.9367 -2.7417
 9433SOL     OW39757   1.202   0.915  10.740  0.3441 -0.0462  0.7641
 9433SOL    HW139758   1.215   0.848  10.673 -0.4434 -0.7580  1.3168
 9433SOL    HW239759   1.116   0.953  10.722 -1.0054 -3.2058  0.4093
 9434SOL     OW39760   3.852   3.599   2.278 -0.0706  0.5335 -0.5983
 9434SOL    HW139761   3.846   3.514   2.323  0.7762 -0.1495 -1.7586
 9434SOL    HW239762   3.807   3.574   2.196  0.5027 -1.0718 -0.4216
 9435SOL     OW39763   3.913   1.489   0.989  0.3648 -0.1139 -0.3676
 9435SOL    HW139764   3.961   1.559   1.033  0.3177  0.6723 -1.5610
 9435SOL    HW239765   3.940   1.407   1.031  0.0381  0.2923  0.6261
 9436SOL     OW39766   1.023   1.213  13.393 -0.3880 -0.2620  0.2424
 9436SOL    HW139767   1.016   1.184  13.484 -0.3420  1.0461  0.6570
 9436SOL    HW239768   0.944   1.266  13.386 -0.3138  0.0218  1.6174
 9437SOL     OW39769   2.100   2.826   1.133 -0.3743  0.4389  0.2279
 9437SOL    HW139770   2.167   2.890   1.159 -1.3184  2.8195 -3.2725
 9437SOL    HW239771   2.031   2.836   1.199 -1.4633  0.7140 -0.9687
 9438SOL     OW39772   4.625   1.085  15.382 -0.2175 -0.1761 -0.2226
 9438SOL    HW139773   4.676   1.041  15.313 -1.0639 -2.2796  0.5095
 9438SOL    HW239774   4.621   1.171  15.340 -2.5507 -0.4615 -0.5720
 9439SOL     OW39775   0.680   4.491   4.413  0.7423  0.0982  0.0477
 9439SOL    HW139776   0.596   4.509   4.455  0.8541 -3.8349  1.9173
 9439SOL    HW239777   0.680   4.398   4.390  2.0669 -0.0627  0.6721
 9440SOL     OW39778   3.457   3.519  17.066 -0.3487 -0.3635  0.4225
 9440SOL    HW139779   3.492   3.485  17.148 -0.4320  0.5376  0.8373
 9440SOL    HW239780   3.389   3.579  17.099  1.5215  1.2812  1.2873
 9441SOL     OW39781   4.515   3.217  10.159 -0.3220  0.5735  0.0946
 9441SOL    HW139782   4.526   3.125  10.135  1.9713  0.8307  0.1572
 9441SOL    HW239783   4.600   3.252  10.131 -0.3835 -0.0585 -0.9085
 9442SOL     OW39784   4.102   2.444   6.857 -0.1338  0.4178 -0.4394
 9442SOL    HW139785   4.111   2.415   6.766  0.5859  1.5139 -0.7233
 9442SOL    HW239786   4.026   2.502   6.845  0.1603  1.5320  3.1649
 9443SOL     OW39787   1.759   2.848   6.523  0.1164 -0.2229  0.3264
 9443SOL    HW139788   1.686   2.848   6.584  1.9954  1.1546  2.6132
 9443SOL    HW239789   1.774   2.754   6.518 -0.7738 -0.3554  0.2834
 9444SOL     OW39790   2.499   3.370   5.800  0.0634 -0.3679  0.4156
 9444SOL    HW139791   2.580   3.418   5.819  0.9338 -0.8886 -1.9955
 9444SOL    HW239792   2.454   3.433   5.744 -1.3025 -0.9224  0.9118
 9445SOL     OW39793   3.618   3.277   6.589  0.1728 -0.1302 -0.0645
 9445SOL    HW139794   3.580   3.206   6.539 -0.0519 -1.5494  2.1141
 9445SOL    HW239795   3.534   3.306   6.624 -1.3859 -1.5184 -2.6993
 9446SOL     OW39796   0.865   4.404   6.412  0.1488 -0.4551  0.0261
 9446SOL    HW139797   0.795   4.409   6.346 -1.7509  4.0176  2.3987
 9446SOL    HW239798   0.810   4.398   6.490  1.6267  0.8018  1.1545
 9447SOL     OW39799   3.766   3.120   6.768 -0.0060 -0.7160 -0.1981
 9447SOL    HW139800   3.693   3.101   6.828  1.0386  0.2826  1.3872
 9447SOL    HW239801   3.723   3.174   6.701 -0.0226  0.6398  0.8957
 9448SOL     OW39802   4.048   0.269   3.245 -0.0755 -0.0229 -0.0603
 9448SOL    HW139803   4.057   0.227   3.160  0.3630  0.2442 -0.1481
 9448SOL    HW239804   4.060   0.198   3.308 -0.5503 -0.8373 -0.8881
 9449SOL     OW39805   3.476   3.927   4.978  0.4701  0.0698  0.2569
 9449SOL    HW139806   3.524   4.004   5.007  0.1280  0.4808 -0.2668
 9449SOL    HW239807   3.434   3.960   4.899  0.3237 -0.6882  0.0100
 9450SOL     OW39808   1.888   2.199   5.443  0.3109  0.2507  0.0519
 9450SOL    HW139809   1.858   2.139   5.511 -0.8778  0.6815 -0.0964
 9450SOL    HW239810   1.874   2.150   5.362 -0.2182 -0.3100  0.4784
 9451SOL     OW39811   2.291   2.692   3.814 -0.2446  0.2743 -0.7594
 9451SOL    HW139812   2.341   2.649   3.745 -0.4249  0.3804 -0.9567
 9451SOL    HW239813   2.338   2.659   3.891 -3.2180  0.2635  1.0404
 9452SOL     OW39814   3.373   4.220  16.080 -1.2550 -0.4615 -0.5425
 9452SOL    HW139815   3.446   4.162  16.056 -0.9156 -1.3431  2.6603
 9452SOL    HW239816   3.308   4.166  16.124  0.0089 -1.5503  0.0144
 9453SOL     OW39817   0.298   2.979   8.179 -0.1875 -0.3455 -0.5153
 9453SOL    HW139818   0.266   3.066   8.203  0.4158 -0.1978 -0.2463
 9453SOL    HW239819   0.323   2.945   8.265 -0.9027  0.6278  0.0817
 9454SOL     OW39820   0.471   4.501   4.999  0.8787  0.2876  0.0698
 9454SOL    HW139821   0.510   4.463   4.921 -1.6799  0.9083 -1.4974
 9454SOL    HW239822   0.489   4.591   4.975 -1.8596  0.5562 -1.0273
 9455SOL     OW39823   2.662   1.335  15.835  0.0674 -0.3085 -0.9259
 9455SOL    HW139824   2.740   1.338  15.780 -1.1606 -0.1679 -2.6525
 9455SOL    HW239825   2.607   1.277  15.783  1.4556 -0.2568 -2.4431
 9456SOL     OW39826   0.383   1.906   0.639 -0.1697  0.2706 -0.8633
 9456SOL    HW139827   0.422   1.994   0.641  1.2409 -0.3870  0.5368
 9456SOL    HW239828   0.300   1.925   0.683  1.2156 -0.9570  2.2171
 9457SOL     OW39829   1.060   0.088  14.922  0.7728  0.3548  0.1640
 9457SOL    HW139830   1.085   0.076  15.014 -0.4677  3.3670  0.8870
 9457SOL    HW239831   1.000   0.162  14.913  0.4635 -0.1327 -1.8778
 9458SOL     OW39832   2.307   0.547   4.798  0.6511  0.6256 -0.3174
 9458SOL    HW139833   2.371   0.562   4.728  0.1328  1.5285 -0.5926
 9458SOL    HW239834   2.306   0.451   4.801 -1.9604  0.5916 -2.6218
 9459SOL     OW39835   0.274   1.861  14.010  0.0073 -0.3162  0.1930
 9459SOL    HW139836   0.367   1.854  13.988 -0.2825 -0.7137 -0.8974
 9459SOL    HW239837   0.235   1.858  13.922  0.0414  0.6619  0.1427
 9460SOL     OW39838   1.808   2.741   6.136  0.0370 -0.4529  0.1717
 9460SOL    HW139839   1.746   2.801   6.177 -0.8883 -1.6862  0.5768
 9460SOL    HW239840   1.867   2.809   6.104 -0.3213 -0.5819 -0.7953
 9461SOL     OW39841   0.069   1.826   5.033 -0.0500  0.0998  0.6374
 9461SOL    HW139842   0.154   1.858   5.064 -0.1313  2.2090 -1.3607
 9461SOL    HW239843   0.022   1.909   5.022 -1.3710 -0.4281  2.2735
 9462SOL     OW39844   3.131   3.036   4.536  0.1712  0.1227  0.7061
 9462SOL    HW139845   3.147   2.966   4.599 -1.6610 -0.5845  0.3843
 9462SOL    HW239846   3.036   3.040   4.546  0.2222 -0.0399  1.2452
 9463SOL     OW39847   0.541   2.646   2.119  0.3398  0.5725 -0.1205
 9463SOL    HW139848   0.509   2.662   2.030  0.4827  2.0840  0.1080
 9463SOL    HW239849   0.635   2.641   2.099  0.0834  1.1002 -1.4872
 9464SOL     OW39850   2.289   3.162   6.462 -0.4618 -0.0157  0.2474
 9464SOL    HW139851   2.336   3.201   6.535 -1.9122  0.3788  0.9657
 9464SOL    HW239852   2.239   3.237   6.431 -3.5332 -0.5498  3.8538
 9465SOL     OW39853   1.717   3.791   8.543 -0.6817  0.2232 -0.0949
 9465SOL    HW139854   1.693   3.851   8.472 -1.4723 -0.0972 -0.0986
 9465SOL    HW239855   1.775   3.850   8.591 -0.5819  0.3133 -0.3275
 9466SOL     OW39856   3.061   1.581   8.853  0.2703 -0.6815 -0.2379
 9466SOL    HW139857   3.033   1.496   8.886 -1.0551  0.2564  0.9970
 9466SOL    HW239858   3.146   1.585   8.897 -1.6216 -2.3200  3.4872
 9467SOL     OW39859   2.575   2.501   6.166 -0.4216 -0.0793 -0.1297
 9467SOL    HW139860   2.590   2.578   6.221 -1.2578  0.7862 -1.1290
 9467SOL    HW239861   2.492   2.524   6.125  0.4046  1.7978 -0.7981
 9468SOL     OW39862   4.299   3.416   3.127 -0.4780  0.2060 -0.2300
 9468SOL    HW139863   4.307   3.499   3.080 -0.4025  1.2714  1.6448
 9468SOL    HW239864   4.359   3.352   3.088 -0.9699  0.7615 -1.8907
 9469SOL     OW39865   2.919   0.473   9.191 -0.2284 -0.0809  0.3630
 9469SOL    HW139866   3.003   0.448   9.229  0.4618  1.4877 -0.1184
 9469SOL    HW239867   2.942   0.477   9.099  0.1109  1.1440  0.4875
 9470SOL     OW39868   0.372   2.515  16.410 -0.5342  0.5116  0.3000
 9470SOL    HW139869   0.376   2.605  16.379 -1.2001  0.6703  0.6696
 9470SOL    HW239870   0.382   2.534  16.503 -1.3839  1.0028  0.2902
 9471SOL     OW39871   3.795   1.820  11.755 -0.4440 -0.1050 -0.4841
 9471SOL    HW139872   3.804   1.756  11.684  1.2519  0.9987 -1.2629
 9471SOL    HW239873   3.713   1.801  11.800  0.2838 -1.4495  0.2843
 9472SOL     OW39874   0.356   0.468   2.949  0.0418  0.1616 -0.4182
 9472SOL    HW139875   0.283   0.418   2.986 -1.5263  2.9147  0.2230
 9472SOL    HW239876   0.420   0.411   2.907 -1.2061 -1.1319 -0.5650
 9473SOL     OW39877   2.395   4.496   6.151 -0.4225 -0.0706  0.2463
 9473SOL    HW139878   2.380   4.577   6.102  0.0078 -2.0531 -3.2153
 9473SOL    HW239879   2.451   4.457   6.083  0.3564 -1.9746  1.9651
 9474SOL     OW39880   2.576   3.785   4.999 -0.2628  0.5656 -0.3704
 9474SOL    HW139881   2.658   3.740   4.978 -1.1857 -0.9468 -0.6379
 9474SOL    HW239882   2.608   3.875   5.012 -1.2136  0.8380  0.1047
 9475SOL     OW39883   4.134   2.081  13.343  0.3925  0.2120  0.3415
 9475SOL    HW139884   4.131   2.013  13.411  1.6372  1.1153  1.2837
 9475SOL    HW239885   4.201   2.046  13.284  2.3309 -0.8129  3.1453
 9476SOL     OW39886   3.794   4.005   5.982  0.1145 -0.3283 -0.2612
 9476SOL    HW139887   3.854   4.077   6.003 -0.4057  0.6494 -2.0974
 9476SOL    HW239888   3.755   3.991   6.068  0.4705 -2.2163 -0.4005
 9477SOL     OW39889   1.652   0.029  14.332  0.0392  0.0768 -0.4743
 9477SOL    HW139890   1.622   0.015  14.422  1.7640 -0.9390 -0.0640
 9477SOL    HW239891   1.742   4.721  14.341 -0.0638  0.2664  1.2678
 9478SOL     OW39892   3.008   0.541   4.157  0.0725  0.3074  0.0333
 9478SOL    HW139893   2.956   0.551   4.236 -0.7745 -0.7730 -0.3880
 9478SOL    HW239894   2.945   0.506   4.094 -1.7012 -0.5294  2.3040
 9479SOL     OW39895   2.311   0.707   3.703  0.3379 -0.1759 -0.1908
 9479SOL    HW139896   2.402   0.678   3.692 -0.5348 -2.9738  0.1213
 9479SOL    HW239897   2.261   0.626   3.707  2.7035 -1.7047 -1.3055
 9480SOL     OW39898   2.896   3.256   9.054  0.2179 -0.4043  0.2835
 9480SOL    HW139899   2.806   3.229   9.035 -0.1135  1.3839 -0.7242
 9480SOL    HW239900   2.946   3.181   9.023 -0.6600 -0.7462 -0.2996
 9481SOL     OW39901   2.236   3.541   3.163 -0.0186  0.4890 -0.2523
 9481SOL    HW139902   2.213   3.630   3.191  0.0686  0.2122  0.7302
 9481SOL    HW239903   2.278   3.496   3.237  0.8910 -0.5960 -1.4284
 9482SOL     OW39904   4.445   1.503   2.919 -0.3487 -0.0325  0.7020
 9482SOL    HW139905   4.367   1.559   2.926  0.6191  1.4782 -0.6165
 9482SOL    HW239906   4.499   1.573   2.883  1.3854 -0.9954  1.4563
 9483SOL     OW39907   2.642   4.578   6.250  0.0943  0.1021 -0.2874
 9483SOL    HW139908   2.656   4.592   6.156  3.3282 -1.8570 -0.0884
 9483SOL    HW239909   2.547   4.593   6.258 -0.1166 -1.1989 -0.3609
 9484SOL     OW39910   0.822   4.167   2.651  0.4806 -0.3494 -0.5022
 9484SOL    HW139911   0.842   4.146   2.743 -0.7878 -0.3490 -0.2231
 9484SOL    HW239912   0.893   4.121   2.606  0.8664  0.5590 -0.8146
 9485SOL     OW39913   2.819   3.074  15.560 -0.3605 -0.3309  0.0077
 9485SOL    HW139914   2.811   3.140  15.628 -3.1800  0.4365 -1.0754
 9485SOL    HW239915   2.911   3.078  15.533 -0.2719  0.3949  0.4168
 9486SOL     OW39916   1.946   1.365  11.145  0.0556  0.1094 -0.1236
 9486SOL    HW139917   1.933   1.324  11.060  0.4834 -0.1505 -0.0663
 9486SOL    HW239918   1.937   1.286  11.198  0.2377  0.0148 -0.2347
 9487SOL     OW39919   1.505   4.418  14.663 -0.5624 -0.1216 -0.9770
 9487SOL    HW139920   1.434   4.462  14.710 -2.3595 -3.1641 -0.8409
 9487SOL    HW239921   1.480   4.325  14.663 -1.3190  0.0794  0.7460
 9488SOL     OW39922   2.553   2.273   7.196 -0.1481  0.2987 -0.0831
 9488SOL    HW139923   2.484   2.221   7.237 -0.0535  1.0007  0.9612
 9488SOL    HW239924   2.525   2.273   7.104  0.7658 -0.5347 -0.3586
 9489SOL     OW39925   4.120   3.441  16.728  0.0417  0.4352 -0.1745
 9489SOL    HW139926   4.189   3.375  16.725 -0.8683 -0.4343 -2.2276
 9489SOL    HW239927   4.052   3.415  16.665  0.2438  0.0418 -0.2325
 9490SOL     OW39928   3.931   0.128  16.391  0.3212 -0.4840  0.2392
 9490SOL    HW139929   4.009   0.166  16.350  1.5945 -1.6436  1.5855
 9490SOL    HW239930   3.961   0.076  16.466 -0.1765 -1.5122 -0.2715
 9491SOL     OW39931   2.511   4.477   2.708 -0.0247  0.6157  0.1168
 9491SOL    HW139932   2.494   4.387   2.737  1.0372  0.5653  0.5849
 9491SOL    HW239933   2.571   4.460   2.635  1.0704  1.5941  0.7893
 9492SOL     OW39934   0.953   1.928   8.293  0.3576 -0.4690  0.2385
 9492SOL    HW139935   0.977   1.940   8.385 -0.3987  0.8030  0.2771
 9492SOL    HW239936   1.038   1.936   8.250 -0.9128  1.0509 -2.0196
 9493SOL     OW39937   0.494   0.417   8.985  0.1220 -0.1485  0.2818
 9493SOL    HW139938   0.459   0.480   8.922 -2.6689  0.2774  2.2431
 9493SOL    HW239939   0.545   0.475   9.041 -0.7175 -0.6871  1.6116
 9494SOL     OW39940   4.441   4.250   1.942  0.6389  0.1993 -0.4358
 9494SOL    HW139941   4.494   4.233   2.020  2.3022 -2.6956 -2.1830
 9494SOL    HW239942   4.499   4.314   1.901  0.9701 -0.0142 -0.3009
 9495SOL     OW39943   0.920   3.252  13.168 -0.3504 -0.1475 -0.4003
 9495SOL    HW139944   0.989   3.317  13.182 -0.4916  0.2962 -1.7820
 9495SOL    HW239945   0.937   3.186  13.235  1.8107 -1.1345 -1.9206
 9496SOL     OW39946   2.425   4.228   5.760  0.1377  0.7852 -0.0961
 9496SOL    HW139947   2.454   4.145   5.721 -0.2109  0.2065  0.8740
 9496SOL    HW239948   2.352   4.205   5.817  1.6253 -1.2425  1.0152
 9497SOL     OW39949   2.798   1.701  11.938 -0.3983 -0.1974 -0.0697
 9497SOL    HW139950   2.797   1.627  11.999  0.5711  0.0540  0.2484
 9497SOL    HW239951   2.746   1.660  11.869 -0.6172  0.6926 -0.4403
 9498SOL     OW39952   0.304   0.013   7.466 -0.1211 -0.1146 -0.2084
 9498SOL    HW139953   0.382   0.002   7.521  0.3952  1.0302 -0.6912
 9498SOL    HW239954   0.272   0.092   7.510  2.4710  0.6925  0.2576
 9499SOL     OW39955   3.501   0.420   7.625 -0.6438  1.0723  0.3317
 9499SOL    HW139956   3.427   0.373   7.662 -0.4822  0.4666 -0.1100
 9499SOL    HW239957   3.519   0.355   7.557  1.4882 -0.5098  2.3815
 9500SOL     OW39958   0.000   3.141  12.614 -0.3209 -0.1744 -0.4087
 9500SOL    HW139959   0.091   3.160  12.590  0.3303  0.2821  2.3933
 9500SOL    HW239960   0.019   3.082  12.687  1.1977  0.4474 -0.3082
 9501SOL     OW39961   1.493   3.424   6.625  0.3620 -0.3822 -0.3472
 9501SOL    HW139962   1.507   3.459   6.537 -0.0545  1.3275  0.2731
 9501SOL    HW239963   1.500   3.506   6.673 -1.1276  0.2388 -1.1939
 9502SOL     OW39964   2.474   0.410   5.408 -0.0600 -0.3077 -0.5469
 9502SOL    HW139965   2.521   0.345   5.460 -1.5659 -0.1876  0.9773
 9502SOL    HW239966   2.492   0.489   5.459  0.4133 -1.0532  0.4436
 9503SOL     OW39967   0.285   1.103  16.504  0.0667  0.8479 -0.4826
 9503SOL    HW139968   0.241   1.187  16.514  1.4896  1.5172  0.1191
 9503SOL    HW239969   0.269   1.065  16.590 -0.2243  1.9890 -0.0380
 9504SOL     OW39970   0.432   2.993  11.004  0.0046  0.1271  0.7358
 9504SOL    HW139971   0.352   2.940  11.001  0.2972 -0.3918  1.9592
 9504SOL    HW239972   0.473   2.953  11.081  1.4222  1.6038  0.7337
 9505SOL     OW39973   1.933   3.967   1.888 -0.0536  0.2034  0.0808
 9505SOL    HW139974   1.930   3.944   1.795  1.2858 -0.3938  0.1940
 9505SOL    HW239975   2.012   4.021   1.884  0.0477 -0.0920 -1.7974
 9506SOL     OW39976   2.963   3.628   5.678  0.5831  0.7986  0.4990
 9506SOL    HW139977   3.019   3.561   5.716 -0.6983 -1.0753 -0.9698
 9506SOL    HW239978   3.015   3.687   5.623  1.4154  0.0920  0.5335
 9507SOL     OW39979   2.043   1.558   3.061 -0.5759  0.5366 -0.0320
 9507SOL    HW139980   1.999   1.578   2.979  2.1656 -0.5824 -1.7619
 9507SOL    HW239981   1.998   1.483   3.101 -1.2492  1.1260  0.3142
 9508SOL     OW39982   2.502   1.842   4.518  0.0844  0.4411  0.6360
 9508SOL    HW139983   2.418   1.796   4.510  1.0840 -1.4018  0.8894
 9508SOL    HW239984   2.517   1.874   4.429 -1.0295 -0.0172  0.2801
 9509SOL     OW39985   2.929   4.516   4.058  0.0981 -0.4264  0.6529
 9509SOL    HW139986   2.901   4.576   3.988 -1.5124 -2.7623 -0.6987
 9509SOL    HW239987   3.010   4.482   4.020  0.8136 -0.6565  2.3921
 9510SOL     OW39988   4.418   0.172   4.421  0.1189 -0.0425 -0.5804
 9510SOL    HW139989   4.500   0.215   4.445 -0.7554  0.4756  1.4914
 9510SOL    HW239990   4.354   0.240   4.443 -2.1860 -2.3106 -0.3217
 9511SOL     OW39991   0.370   1.052   8.134  0.0103  0.0201 -0.1120
 9511SOL    HW139992   0.458   1.016   8.135 -0.3135 -0.8164 -1.2746
 9511SOL    HW239993   0.375   1.103   8.214  0.9439 -0.1591 -0.0650
 9512SOL     OW39994   2.069   0.800   8.917 -0.5393 -0.8128  0.6742
 9512SOL    HW139995   1.978   0.830   8.927 -1.3268 -2.7046 -0.7747
 9512SOL    HW239996   2.058   0.711   8.882 -0.4355 -0.4150 -0.3771
 9513SOL     OW39997   1.704   1.659   8.701  0.1903  0.0522  0.2636
 9513SOL    HW139998   1.623   1.708   8.714  0.3339 -0.3253  2.6088
 9513SOL    HW239999   1.699   1.636   8.608 -1.4233 -0.4850  0.4767
 9514SOL     OW40000   0.729   2.004   0.306  0.3516  0.0012  0.3913
 9514SOL    HW140001   0.793   1.935   0.291 -1.8410 -1.9788  0.1795
 9514SOL    HW240002   0.783   2.072   0.347 -0.1447  0.2574  0.6235
 9515SOL     OW40003   2.225   1.213  11.511 -0.0210  0.0387 -0.1872
 9515SOL    HW140004   2.286   1.197  11.439  1.4575  0.5021  0.9613
 9515SOL    HW240005   2.203   1.122  11.529  0.7752  0.4312  2.7849
 9516SOL     OW40006   2.189   4.314   2.934 -0.1866 -0.6949  0.5508
 9516SOL    HW140007   2.278   4.313   2.967  0.4944 -0.6292 -1.2584
 9516SOL    HW240008   2.133   4.313   3.012 -2.8234  2.3214 -1.2897
 9517SOL     OW40009   2.628   1.362  15.244 -0.1930  0.1683 -0.3659
 9517SOL    HW140010   2.658   1.438  15.295 -0.6377  1.0212 -1.3868
 9517SOL    HW240011   2.565   1.325  15.307 -1.1839  1.4221 -0.6147
 9518SOL     OW40012   1.457   2.444  12.308  0.0038  0.6679 -0.6707
 9518SOL    HW140013   1.398   2.374  12.279  1.2630 -0.5015 -0.4301
 9518SOL    HW240014   1.533   2.414  12.258 -0.3795 -2.7755  0.8292
 9519SOL     OW40015   2.818   0.295   4.359  0.9201 -0.2974 -0.1192
 9519SOL    HW140016   2.843   0.205   4.337  0.4931 -0.9755  2.2127
 9519SOL    HW240017   2.867   0.300   4.441 -0.2720  0.2950  0.5498
 9520SOL     OW40018   4.450   4.170   7.538 -0.5261 -0.1319 -0.6007
 9520SOL    HW140019   4.424   4.250   7.584  0.1857 -0.1010 -0.2424
 9520SOL    HW240020   4.359   4.156   7.513 -0.6241 -1.0589  0.2797
 9521SOL     OW40021   1.588   0.321   5.003  0.5066 -0.4146  0.7086
 9521SOL    HW140022   1.673   0.317   4.959 -0.3394  1.2665 -1.0560
 9521SOL    HW240023   1.532   0.322   4.925  1.0308 -2.3591  0.3008
 9522SOL     OW40024   1.235   2.097   2.225 -0.0343 -0.1132 -0.5618
 9522SOL    HW140025   1.284   2.076   2.305  0.3174 -1.5145 -1.1422
 9522SOL    HW240026   1.144   2.074   2.245  0.0256 -0.1198 -0.2951
 9523SOL     OW40027   1.581   1.470   5.653  0.6387 -0.3410 -0.1640
 9523SOL    HW140028   1.571   1.560   5.620  1.2079 -1.6006 -3.6901
 9523SOL    HW240029   1.673   1.458   5.630  1.1468  0.4996  1.3809
 9524SOL     OW40030   1.570   4.229   2.040 -0.2618 -0.0399  0.6177
 9524SOL    HW140031   1.491   4.175   2.034 -1.4279  1.4603  2.3585
 9524SOL    HW240032   1.569   4.261   2.131 -0.0327  1.0938  0.2209
 9525SOL     OW40033   2.561   4.053   9.909 -0.0763 -0.6368  0.4666
 9525SOL    HW140034   2.503   4.084   9.978  0.3292 -1.3111  1.1014
 9525SOL    HW240035   2.582   3.967   9.944 -0.9032 -0.3016  1.7839
 9526SOL     OW40036   0.538   1.860   2.977  0.1476 -0.6359 -0.2214
 9526SOL    HW140037   0.553   1.905   2.893 -0.3180 -0.8863 -0.4359
 9526SOL    HW240038   0.611   1.901   3.024  0.3889 -1.4832  0.1348
 9527SOL     OW40039   3.186   3.386   2.748  0.4409 -0.5663  0.3446
 9527SOL    HW140040   3.216   3.477   2.749 -1.6128  0.1468 -2.4049
 9527SOL    HW240041   3.188   3.384   2.844  1.9672  0.0894  0.3319
 9528SOL     OW40042   3.537   2.632  15.677  0.0711 -0.1864 -0.4011
 9528SOL    HW140043   3.631   2.628  15.695 -0.4634 -1.7457  2.1495
 9528SOL    HW240044   3.534   2.727  15.670  0.5294 -0.0629  0.9212
 9529SOL     OW40045   4.148   0.962  13.875  0.3684 -0.5303 -0.1138
 9529SOL    HW140046   4.191   0.977  13.791 -0.0567 -0.9400 -0.4062
 9529SOL    HW240047   4.212   0.921  13.933 -1.5103 -2.3416  0.6727
 9530SOL     OW40048   0.317   0.993   1.363  0.0761 -0.0115 -0.0256
 9530SOL    HW140049   0.227   0.977   1.334  0.4837 -0.1864 -1.2192
 9530SOL    HW240050   0.314   1.072   1.417 -1.0965 -0.0056 -0.1124
 9531SOL     OW40051   4.595   2.111  15.123  0.6028  0.0964  0.5211
 9531SOL    HW140052   4.538   2.182  15.150 -0.9342 -0.6855 -0.6691
 9531SOL    HW240053   4.671   2.139  15.174  1.6798  0.9803 -1.5887
 9532SOL     OW40054   2.763   0.011   9.268  0.4772 -0.0156 -0.1574
 9532SOL    HW140055   2.841   4.711   9.318 -0.0271 -0.7261  0.2831
 9532SOL    HW240056   2.696   4.707   9.331  1.1754 -2.4971 -0.5096
 9533SOL     OW40057   3.831   2.047   0.972 -0.7012  0.5419 -0.4880
 9533SOL    HW140058   3.764   1.990   1.009 -0.2480 -0.1328 -0.7112
 9533SOL    HW240059   3.884   2.077   1.047  0.3875  2.0650 -1.8619
 9534SOL     OW40060   1.077   1.379   6.882 -0.1673  0.2448  0.1921
 9534SOL    HW140061   1.036   1.438   6.945 -1.9288 -0.6759 -0.0720
 9534SOL    HW240062   1.031   1.403   6.801  1.3704 -1.0069 -1.0434
 9535SOL     OW40063   3.278   0.832   5.243 -0.0037 -0.3662  0.1335
 9535SOL    HW140064   3.293   0.924   5.219 -0.3830 -0.4157 -0.2763
 9535SOL    HW240065   3.185   0.818   5.224 -0.0690 -1.4705  1.2383
 9536SOL     OW40066   1.094   3.276  16.200  0.2584  0.7114  0.1577
 9536SOL    HW140067   1.130   3.235  16.122  0.4803 -0.3887  0.8358
 9536SOL    HW240068   1.057   3.196  16.239  0.3852 -0.3110 -1.8145
 9537SOL     OW40069   3.655   3.460   5.831  0.4338 -0.1665  0.4588
 9537SOL    HW140070   3.561   3.455   5.851  0.1467  2.6811 -0.2831
 9537SOL    HW240071   3.667   3.554   5.844  2.4921 -0.1636 -1.5812
 9538SOL     OW40072   2.655   1.079   9.167  0.2589 -0.1112  0.0749
 9538SOL    HW140073   2.644   1.152   9.229 -0.7784 -1.2626  1.2451
 9538SOL    HW240074   2.725   1.034   9.214  0.1605 -0.3432 -0.0019
 9539SOL     OW40075   1.174   1.945   1.065  0.0791  0.3461  0.5500
 9539SOL    HW140076   1.270   1.948   1.060 -0.0376 -0.3157 -2.0620
 9539SOL    HW240077   1.150   2.035   1.089 -1.7377 -0.1490  0.5382
 9540SOL     OW40078   2.585   0.699  13.674 -0.1302  0.8693 -0.1640
 9540SOL    HW140079   2.597   0.782  13.628  1.3449  0.8360  0.1671
 9540SOL    HW240080   2.526   0.734  13.741 -1.5528  0.6267 -1.2769
 9541SOL     OW40081   0.805   4.325   7.995  0.2906  0.4779 -0.2890
 9541SOL    HW140082   0.721   4.284   7.975  0.1625  1.6395 -2.0525
 9541SOL    HW240083   0.822   4.273   8.074  0.0032 -0.5427 -0.9011
 9542SOL     OW40084   4.291   1.686   2.582  0.4067 -0.1375  0.4475
 9542SOL    HW140085   4.373   1.640   2.597  0.0429 -1.6662 -2.2512
 9542SOL    HW240086   4.254   1.710   2.667 -0.5706  1.5724 -0.4587
 9543SOL     OW40087   2.250   1.010  11.213 -0.0508 -0.2628  0.0118
 9543SOL    HW140088   2.287   0.994  11.126  2.4091  1.1182  0.7824
 9543SOL    HW240089   2.290   1.095  11.229  2.2630 -1.6974  1.8912
 9544SOL     OW40090   1.826   3.757   8.968  0.1794  0.1378 -0.3850
 9544SOL    HW140091   1.880   3.678   8.973  0.6755  0.3586 -2.1170
 9544SOL    HW240092   1.888   3.818   9.006 -1.4021 -0.0780  2.5694
 9545SOL     OW40093   0.218   2.105   2.961 -0.1765 -0.7758  0.0429
 9545SOL    HW140094   0.157   2.175   2.938  0.2789 -0.4550 -0.1851
 9545SOL    HW240095   0.278   2.169   2.999  0.8038 -1.2210 -0.7529
 9546SOL     OW40096   0.771   2.585   2.024 -0.8112  0.2996 -0.1963
 9546SOL    HW140097   0.864   2.575   2.003 -0.8022 -0.5042  0.2100
 9546SOL    HW240098   0.739   2.584   1.934 -0.3971 -2.2105 -0.3384
 9547SOL     OW40099   3.730   3.777  11.019  0.0448  0.5196  0.1793
 9547SOL    HW140100   3.803   3.784  10.957  0.8793 -1.1999  0.9743
 9547SOL    HW240101   3.763   3.835  11.088 -0.7714  1.8174 -0.5193
 9548SOL     OW40102   2.033   1.023   4.662  0.2412  0.0784 -0.4314
 9548SOL    HW140103   1.951   1.024   4.712  1.0465 -1.6242  0.9281
 9548SOL    HW240104   2.036   0.930   4.641 -0.7985 -0.7522  3.1320
 9549SOL     OW40105   3.960   1.138   8.386  0.6198  0.4711 -0.0719
 9549SOL    HW140106   4.015   1.062   8.373  0.7074  0.5380 -0.0891
 9549SOL    HW240107   3.889   1.110   8.327 -1.3609  2.1335  1.4926
 9550SOL     OW40108   3.624   1.817   0.598 -0.2609 -0.0454 -0.0284
 9550SOL    HW140109   3.590   1.906   0.585  0.2682  0.0374 -0.8321
 9550SOL    HW240110   3.663   1.792   0.515 -1.0945  2.7118 -1.2546
 9551SOL     OW40111   3.016   1.011   6.035 -0.0747  0.2101  0.4561
 9551SOL    HW140112   2.988   1.096   6.068 -2.1900 -0.6068  0.7987
 9551SOL    HW240113   3.080   1.037   5.969 -1.5240 -3.0529 -2.2475
 9552SOL     OW40114   0.419   3.615   1.614 -0.0827  0.1691 -0.1629
 9552SOL    HW140115   0.350   3.648   1.672  1.6516  1.6987  1.0437
 9552SOL    HW240116   0.408   3.678   1.542  0.5769  0.4395 -0.0316
 9553SOL     OW40117   1.760   2.072   3.865 -0.1635 -0.3332  0.3841
 9553SOL    HW140118   1.742   2.161   3.894  0.1285  0.5491 -2.2135
 9553SOL    HW240119   1.676   2.027   3.855 -1.0581  1.3073  0.5184
 9554SOL     OW40120   2.480   0.617   8.889 -0.0191  0.3406  0.5733
 9554SOL    HW140121   2.423   0.668   8.946 -0.3031 -1.0741  1.5489
 9554SOL    HW240122   2.476   0.536   8.940  2.9297  0.3387  0.7839
 9555SOL     OW40123   2.634   3.970   0.379  0.1626  0.0653  0.4304
 9555SOL    HW140124   2.636   3.909   0.305 -2.8985  0.5812 -0.0485
 9555SOL    HW240125   2.593   4.044   0.336  0.1375 -0.0902  0.1853
 9556SOL     OW40126   3.901   2.761   0.729 -0.4312  0.4424  0.3551
 9556SOL    HW140127   3.847   2.805   0.663  1.3824  0.5677 -1.0322
 9556SOL    HW240128   3.982   2.800   0.696 -2.0820  3.8724  0.3941
 9557SOL     OW40129   0.525   4.072   2.322 -0.2474 -0.2391 -0.2262
 9557SOL    HW140130   0.483   4.008   2.265  2.1173  0.2204 -2.4507
 9557SOL    HW240131   0.457   4.138   2.339  2.0342  1.6724  1.4116
 9558SOL     OW40132   1.131   1.404  14.816 -0.1404 -0.3243 -0.1948
 9558SOL    HW140133   1.149   1.472  14.752  1.4646 -0.1707  0.4088
 9558SOL    HW240134   1.056   1.438  14.864  1.6975 -0.6998  2.9681
 9559SOL     OW40135   2.040   0.411  16.265 -0.0597  0.5462 -0.2195
 9559SOL    HW140136   2.038   0.352  16.340 -1.2688  1.2975  0.3470
 9559SOL    HW240137   2.110   0.370  16.215 -0.2452  0.7864 -0.6834
 9560SOL     OW40138   3.546   3.374   2.351 -0.1395 -1.1354 -0.1280
 9560SOL    HW140139   3.500   3.380   2.267 -0.3990 -0.7398  0.0430
 9560SOL    HW240140   3.509   3.450   2.397  1.0947 -0.1001 -0.8438
 9561SOL     OW40141   1.596   1.463   4.105  0.1631 -0.3118 -0.5752
 9561SOL    HW140142   1.521   1.430   4.055  0.1521 -2.6702  1.0048
 9561SOL    HW240143   1.603   1.554   4.074 -1.5401 -0.3582 -1.1111
 9562SOL     OW40144   2.615   4.495   4.939 -0.5119 -0.8406  0.2198
 9562SOL    HW140145   2.651   4.466   4.855  0.5000  0.0425  0.3399
 9562SOL    HW240146   2.567   4.419   4.971  1.8583 -1.7485  1.6797
 9563SOL     OW40147   0.099   3.267  12.989 -0.3878  0.1459  0.1832
 9563SOL    HW140148   0.164   3.271  12.919 -0.5451  0.8403  0.0705
 9563SOL    HW240149   0.044   3.193  12.963 -0.3184 -0.4883  1.8589
 9564SOL     OW40150   1.758   1.446  10.703  0.4454  0.4440 -0.2334
 9564SOL    HW140151   1.781   1.405  10.619 -1.6362 -0.3634 -0.4228
 9564SOL    HW240152   1.764   1.369  10.759 -0.1426  1.6773  1.5142
 9565SOL     OW40153   0.565   2.972   6.961 -0.5828 -0.1931 -0.0258
 9565SOL    HW140154   0.658   2.990   6.946 -0.6190  2.2374  2.5640
 9565SOL    HW240155   0.570   2.921   7.041 -0.2201  1.9400  1.3003
   4.72376   4.72376  17.69678
